Generated by trjconv : CNT in water t=  22.00000
33518
    1C        C    1   2.839   2.767   4.742
    1C        C    2   2.899   2.721   4.862
    1C        C    3   2.849   2.781   4.978
    1C        C    4   2.851   2.775   4.254
    1C        C    5   2.904   2.731   4.377
    1C        C    6   2.851   2.776   4.501
    1C        C    7   3.011   2.637   4.620
    1C        C    8   2.897   2.720   4.622
    1C        C    9   3.073   2.599   4.741
    1C        C   10   3.005   2.627   4.861
    1C        C   11   3.177   2.488   4.974
    1C        C   12   3.055   2.557   4.971
    1C        C   13   2.844   2.764   3.770
    1C        C   14   2.897   2.713   3.890
    1C        C   15   2.847   2.771   4.009
    1C        C   16   3.018   2.646   4.134
    1C        C   17   2.900   2.724   4.132
    1C        C   18   3.079   2.612   4.257
    1C        C   19   3.021   2.652   4.379
    1C        C   20   3.209   2.551   4.500
    1C        C   21   3.080   2.609   4.500
    1C        C   22   3.276   2.530   4.622
    1C        C   23   3.205   2.546   4.743
    1C        C   24   3.409   2.482   4.864
    1C        C   25   3.267   2.503   4.863
    1C        C   26   3.482   2.477   4.983
    1C        C   27   2.852   2.771   3.280
    1C        C   28   2.902   2.722   3.403
    1C        C   29   2.848   2.767   3.526
    1C        C   30   3.016   2.638   3.646
    1C        C   31   2.901   2.720   3.648
    1C        C   32   3.074   2.598   3.768
    1C        C   33   3.013   2.634   3.891
    1C        C   34   3.208   2.550   4.013
    1C        C   35   3.080   2.610   4.013
    1C        C   36   3.273   2.527   4.136
    1C        C   37   3.208   2.554   4.259
    1C        C   38   3.417   2.505   4.377
    1C        C   39   3.278   2.527   4.379
    1C        C   40   3.485   2.500   4.501
    1C        C   41   3.415   2.504   4.624
    1C        C   42   3.627   2.477   4.740
    1C        C   43   3.485   2.480   4.744
    1C        C   44   3.699   2.481   4.861
    1C        C   45   3.621   2.480   4.977
    1C        C   46   2.834   2.749   2.792
    1C        C   47   2.891   2.708   2.915
    1C        C   48   2.843   2.761   3.038
    1C        C   49   3.021   2.642   3.158
    1C        C   50   2.906   2.724   3.159
    1C        C   51   3.084   2.608   3.280
    1C        C   52   3.021   2.646   3.401
    1C        C   53   3.205   2.543   3.526
    1C        C   54   3.078   2.605   3.523
    1C        C   55   3.276   2.524   3.647
    1C        C   56   3.205   2.545   3.768
    1C        C   57   3.412   2.499   3.891
    1C        C   58   3.273   2.524   3.890
    1C        C   59   3.485   2.493   4.012
    1C        C   60   3.412   2.500   4.133
    1C        C   61   3.626   2.493   4.256
    1C        C   62   3.485   2.494   4.253
    1C        C   63   3.700   2.498   4.376
    1C        C   64   3.626   2.494   4.497
    1C        C   65   3.833   2.541   4.618
    1C        C   66   3.697   2.502   4.619
    1C        C   67   3.902   2.559   4.740
    1C        C   68   3.834   2.524   4.859
    1C        C   69   4.044   2.581   4.973
    1C        C   70   3.916   2.524   4.973
    1C        C   71   2.820   2.730   2.308
    1C        C   72   2.882   2.690   2.429
    1C        C   73   2.827   2.741   2.549
    1C        C   74   3.005   2.624   2.671
    1C        C   75   2.886   2.700   2.670
    1C        C   76   3.072   2.596   2.792
    1C        C   77   3.008   2.630   2.913
    1C        C   78   3.207   2.550   3.033
    1C        C   79   3.076   2.603   3.034
    1C        C   80   3.275   2.525   3.155
    1C        C   81   3.212   2.548   3.279
    1C        C   82   3.411   2.494   3.399
    1C        C   83   3.273   2.523   3.404
    1C        C   84   3.481   2.489   3.521
    1C        C   85   3.415   2.497   3.646
    1C        C   86   3.623   2.504   3.765
    1C        C   87   3.483   2.491   3.769
    1C        C   88   3.692   2.512   3.888
    1C        C   89   3.626   2.499   4.012
    1C        C   90   3.832   2.547   4.133
    1C        C   91   3.696   2.507   4.134
    1C        C   92   3.898   2.573   4.256
    1C        C   93   3.833   2.544   4.378
    1C        C   94   4.026   2.635   4.497
    1C        C   95   3.903   2.566   4.498
    1C        C   96   4.090   2.668   4.618
    1C        C   97   4.027   2.626   4.737
    1C        C   98   4.194   2.754   4.860
    1C        C   99   4.095   2.651   4.859
    1C        C  100   4.211   2.836   4.973
    1C        C  101   2.817   2.731   2.071
    1C        C  102   2.990   2.593   2.186
    1C        C  103   2.874   2.678   2.187
    1C        C  104   3.059   2.568   2.307
    1C        C  105   2.998   2.610   2.427
    1C        C  106   3.195   2.531   2.548
    1C        C  107   3.063   2.582   2.550
    1C        C  108   3.268   2.513   2.668
    1C        C  109   3.202   2.539   2.790
    1C        C  110   3.411   2.495   2.912
    1C        C  111   3.272   2.520   2.911
    1C        C  112   3.482   2.488   3.034
    1C        C  113   3.414   2.499   3.157
    1C        C  114   3.625   2.500   3.278
    1C        C  115   3.485   2.486   3.279
    1C        C  116   3.694   2.504   3.401
    1C        C  117   3.623   2.491   3.523
    1C        C  118   3.833   2.539   3.644
    1C        C  119   3.695   2.507   3.643
    1C        C  120   3.894   2.570   3.768
    1C        C  121   3.829   2.546   3.891
    1C        C  122   4.025   2.634   4.012
    1C        C  123   3.899   2.570   4.011
    1C        C  124   4.089   2.671   4.132
    1C        C  125   4.025   2.633   4.252
    1C        C  126   4.193   2.764   4.372
    1C        C  127   4.085   2.672   4.374
    1C        C  128   4.243   2.815   4.494
    1C        C  129   4.198   2.760   4.616
    1C        C  130   4.326   2.926   4.738
    1C        C  131   4.246   2.808   4.740
    1C        C  132   4.355   2.996   4.857
    1C        C  133   4.278   2.958   4.967
    1C        C  134   3.166   2.462   2.077
    1C        C  135   3.035   2.511   2.078
    1C        C  136   3.253   2.477   2.186
    1C        C  137   3.191   2.515   2.307
    1C        C  138   3.401   2.476   2.426
    1C        C  139   3.262   2.500   2.428
    1C        C  140   3.474   2.475   2.547
    1C        C  141   3.406   2.482   2.670
    1C        C  142   3.622   2.487   2.790
    1C        C  143   3.480   2.481   2.790
    1C        C  144   3.695   2.499   2.910
    1C        C  145   3.623   2.490   3.032
    1C        C  146   3.830   2.537   3.152
    1C        C  147   3.693   2.502   3.154
    1C        C  148   3.898   2.561   3.274
    1C        C  149   3.831   2.536   3.397
    1C        C  150   4.023   2.623   3.522
    1C        C  151   3.897   2.559   3.520
    1C        C  152   4.080   2.666   3.643
    1C        C  153   4.020   2.635   3.767
    1C        C  154   4.187   2.766   3.884
    1C        C  155   4.082   2.671   3.888
    1C        C  156   4.245   2.809   4.005
    1C        C  157   4.198   2.762   4.130
    1C        C  158   4.340   2.919   4.249
    1C        C  159   4.250   2.810   4.252
    1C        C  160   4.374   2.981   4.372
    1C        C  161   4.327   2.929   4.494
    1C        C  162   4.430   3.113   4.610
    1C        C  163   4.363   2.989   4.617
    1C        C  164   4.465   3.177   4.731
    1C        C  165   4.435   3.112   4.853
    1C        C  166   4.521   3.308   4.962
    1C        C  167   4.480   3.176   4.969
    1C        C  168   3.469   2.424   2.074
    1C        C  169   3.391   2.447   2.188
    1C        C  170   3.613   2.468   2.305
    1C        C  171   3.471   2.458   2.304
    1C        C  172   3.688   2.485   2.423
    1C        C  173   3.615   2.484   2.544
    1C        C  174   3.824   2.533   2.663
    1C        C  175   3.687   2.499   2.665
    1C        C  176   3.893   2.556   2.784
    1C        C  177   3.831   2.537   2.910
    1C        C  178   4.026   2.623   3.030
    1C        C  179   3.899   2.560   3.031
    1C        C  180   4.086   2.658   3.153
    1C        C  181   4.024   2.624   3.276
    1C        C  182   4.192   2.749   3.395
    1C        C  183   4.083   2.660   3.399
    1C        C  184   4.241   2.800   3.517
    1C        C  185   4.191   2.754   3.641
    1C        C  186   4.339   2.912   3.761
    1C        C  187   4.243   2.808   3.761
    1C        C  188   4.380   2.971   3.883
    1C        C  189   4.335   2.917   4.006
    1C        C  190   4.446   3.101   4.123
    1C        C  191   4.372   2.981   4.127
    1C        C  192   4.475   3.166   4.245
    1C        C  193   4.442   3.105   4.368
    1C        C  194   4.507   3.310   4.487
    1C        C  195   4.460   3.177   4.488
    1C        C  196   4.519   3.383   4.608
    1C        C  197   4.505   3.314   4.730
    1C        C  198   4.558   3.529   4.843
    1C        C  199   4.536   3.387   4.847
    1C        C  200   4.575   3.615   4.956
    1C        C  201   3.609   2.414   2.073
    1C        C  202   3.822   2.508   2.179
    1C        C  203   3.685   2.465   2.182
    1C        C  204   3.895   2.537   2.298
    1C        C  205   3.825   2.519   2.419
    1C        C  206   4.019   2.609   2.539
    1C        C  207   3.894   2.544   2.540
    1C        C  208   4.081   2.654   2.658
    1C        C  209   4.017   2.623   2.780
    1C        C  210   4.192   2.740   2.903
    1C        C  211   4.078   2.656   2.903
    1C        C  212   4.243   2.793   3.024
    1C        C  213   4.199   2.743   3.149
    1C        C  214   4.330   2.907   3.268
    1C        C  215   4.246   2.794   3.272
    1C        C  216   4.369   2.967   3.391
    1C        C  217   4.332   2.908   3.514
    1C        C  218   4.435   3.094   3.633
    1C        C  219   4.372   2.967   3.636
    1C        C  220   4.455   3.165   3.754
    1C        C  221   4.435   3.101   3.878
    1C        C  222   4.505   3.301   3.999
    1C        C  223   4.471   3.164   3.999
    1C        C  224   4.515   3.374   4.120
    1C        C  225   4.506   3.304   4.242
    1C        C  226   4.519   3.517   4.364
    1C        C  227   4.519   3.376   4.363
    1C        C  228   4.515   3.593   4.483
    1C        C  229   4.527   3.524   4.605
    1C        C  230   4.503   3.741   4.721
    1C        C  231   4.535   3.602   4.723
    1C        C  232   4.490   3.815   4.840
    1C        C  233   4.538   3.750   4.955
    1C        C  234   4.016   2.603   2.056
    1C        C  235   3.894   2.537   2.062
    1C        C  236   4.083   2.636   2.175
    1C        C  237   4.025   2.595   2.297
    1C        C  238   4.194   2.730   2.419
    1C        C  239   4.082   2.642   2.417
    1C        C  240   4.253   2.777   2.538
    1C        C  241   4.197   2.735   2.661
    1C        C  242   4.337   2.896   2.781
    1C        C  243   4.244   2.790   2.782
    1C        C  244   4.375   2.959   2.902
    1C        C  245   4.330   2.905   3.024
    1C        C  246   4.438   3.088   3.145
    1C        C  247   4.372   2.963   3.145
    1C        C  248   4.460   3.155   3.267
    1C        C  249   4.431   3.093   3.391
    1C        C  250   4.492   3.299   3.514
    1C        C  251   4.458   3.162   3.512
    1C        C  252   4.500   3.371   3.635
    1C        C  253   4.492   3.301   3.757
    1C        C  254   4.516   3.512   3.875
    1C        C  255   4.518   3.371   3.877
    1C        C  256   4.508   3.583   3.997
    1C        C  257   4.518   3.516   4.121
    1C        C  258   4.490   3.728   4.238
    1C        C  259   4.514   3.589   4.242
    1C        C  260   4.464   3.798   4.358
    1C        C  261   4.483   3.731   4.480
    1C        C  262   4.422   3.937   4.601
    1C        C  263   4.471   3.805   4.600
    1C        C  264   4.396   4.006   4.721
    1C        C  265   4.434   3.945   4.842
    1C        C  266   4.319   4.128   4.955
    1C        C  267   4.399   4.015   4.959
    1C        C  268   4.254   2.776   2.061
    1C        C  269   4.193   2.723   2.175
    1C        C  270   4.337   2.885   2.296
    1C        C  271   4.246   2.776   2.296
    1C        C  272   4.379   2.947   2.416
    1C        C  273   4.341   2.888   2.539
    1C        C  274   4.445   3.078   2.656
    1C        C  275   4.380   2.952   2.658
    1C        C  276   4.465   3.149   2.776
    1C        C  277   4.439   3.085   2.899
    1C        C  278   4.500   3.288   3.023
    1C        C  279   4.464   3.151   3.022
    1C        C  280   4.506   3.361   3.144
    1C        C  281   4.491   3.293   3.266
    1C        C  282   4.507   3.504   3.388
    1C        C  283   4.505   3.363   3.388
    1C        C  284   4.515   3.581   3.506
    1C        C  285   4.517   3.512   3.630
    1C        C  286   4.485   3.720   3.751
    1C        C  287   4.515   3.582   3.752
    1C        C  288   4.464   3.789   3.873
    1C        C  289   4.479   3.721   3.996
    1C        C  290   4.426   3.930   4.114
    1C        C  291   4.470   3.796   4.116
    1C        C  292   4.394   3.996   4.235
    1C        C  293   4.423   3.933   4.358
    1C        C  294   4.327   4.126   4.475
    1C        C  295   4.396   4.003   4.478
    1C        C  296   4.284   4.187   4.595
    1C        C  297   4.322   4.128   4.718
    1C        C  298   4.195   4.308   4.836
    1C        C  299   4.283   4.195   4.837
    1C        C  300   4.161   4.391   4.948
    1C        C  301   4.345   2.881   2.060
    1C        C  302   4.464   3.063   2.177
    1C        C  303   4.395   2.938   2.178
    1C        C  304   4.479   3.140   2.296
    1C        C  305   4.447   3.071   2.415
    1C        C  306   4.503   3.281   2.534
    1C        C  307   4.472   3.144   2.534
    1C        C  308   4.508   3.354   2.655
    1C        C  309   4.490   3.288   2.778
    1C        C  310   4.520   3.498   2.895
    1C        C  311   4.508   3.358   2.900
    1C        C  312   4.510   3.570   3.017
    1C        C  313   4.511   3.502   3.141
    1C        C  314   4.485   3.711   3.260
    1C        C  315   4.503   3.571   3.264
    1C        C  316   4.473   3.784   3.380
    1C        C  317   4.486   3.719   3.505
    1C        C  318   4.424   3.921   3.624
    1C        C  319   4.467   3.786   3.628
    1C        C  320   4.389   3.982   3.746
    1C        C  321   4.418   3.922   3.871
    1C        C  322   4.318   4.111   3.990
    1C        C  323   4.393   3.992   3.991
    1C        C  324   4.274   4.168   4.112
    1C        C  325   4.320   4.116   4.235
    1C        C  326   4.178   4.280   4.352
    1C        C  327   4.278   4.180   4.354
    1C        C  328   4.128   4.332   4.474
    1C        C  329   4.189   4.291   4.595
    1C        C  330   4.016   4.424   4.712
    1C        C  331   4.136   4.347   4.713
    1C        C  332   3.965   4.486   4.828
    1C        C  333   4.049   4.474   4.939
    1C        C  334   4.547   3.263   2.059
    1C        C  335   4.530   3.124   2.065
    1C        C  336   4.534   3.347   2.171
    1C        C  337   4.515   3.278   2.292
    1C        C  338   4.521   3.492   2.409
    1C        C  339   4.519   3.351   2.413
    1C        C  340   4.517   3.567   2.528
    1C        C  341   4.518   3.495   2.650
    1C        C  342   4.489   3.705   2.771
    1C        C  343   4.518   3.567   2.772
    1C        C  344   4.465   3.775   2.891
    1C        C  345   4.483   3.708   3.015
    1C        C  346   4.423   3.912   3.136
    1C        C  347   4.466   3.778   3.137
    1C        C  348   4.388   3.978   3.256
    1C        C  349   4.419   3.915   3.379
    1C        C  350   4.312   4.099   3.499
    1C        C  351   4.389   3.981   3.501
    1C        C  352   4.272   4.158   3.621
    1C        C  353   4.312   4.100   3.743
    1C        C  354   4.172   4.259   3.867
    1C        C  355   4.271   4.159   3.866
    1C        C  356   4.117   4.311   3.987
    1C        C  357   4.171   4.264   4.108
    1C        C  358   4.010   4.405   4.227
    1C        C  359   4.124   4.322   4.228
    1C        C  360   3.948   4.447   4.347
    1C        C  361   4.014   4.415   4.468
    1C        C  362   3.822   4.507   4.590
    1C        C  363   3.950   4.448   4.589
    1C        C  364   3.759   4.543   4.712
    1C        C  365   3.834   4.539   4.832
    1C        C  366   3.623   4.588   4.952
    1C        C  367   3.761   4.569   4.947
    1C        C  368   4.504   3.560   2.049
    1C        C  369   4.523   3.487   2.167
    1C        C  370   4.501   3.702   2.285
    1C        C  371   4.523   3.562   2.286
    1C        C  372   4.473   3.775   2.403
    1C        C  373   4.491   3.706   2.525
    1C        C  374   4.419   3.904   2.645
    1C        C  375   4.472   3.773   2.648
    1C        C  376   4.390   3.968   2.767
    1C        C  377   4.417   3.907   2.892
    1C        C  378   4.321   4.097   3.011
    1C        C  379   4.396   3.977   3.013
    1C        C  380   4.272   4.152   3.131
    1C        C  381   4.309   4.094   3.255
    1C        C  382   4.172   4.258   3.375
    1C        C  383   4.263   4.150   3.376
    1C        C  384   4.121   4.305   3.498
    1C        C  385   4.174   4.259   3.621
    1C        C  386   4.004   4.385   3.739
    1C        C  387   4.119   4.303   3.743
    1C        C  388   3.941   4.427   3.859
    1C        C  389   4.003   4.394   3.982
    1C        C  390   3.815   4.487   4.107
    1C        C  391   3.947   4.435   4.105
    1C        C  392   3.746   4.516   4.226
    1C        C  393   3.817   4.499   4.347
    1C        C  394   3.612   4.552   4.472
    1C        C  395   3.751   4.525   4.470
    1C        C  396   3.543   4.566   4.594
    1C        C  397   3.620   4.565   4.712
    1C        C  398   3.409   4.551   4.838
    1C        C  399   3.549   4.571   4.834
    1C        C  400   3.339   4.506   4.950
    1C        C  401   4.503   3.700   2.048
    1C        C  402   4.452   3.912   2.163
    1C        C  403   4.489   3.776   2.165
    1C        C  404   4.411   3.978   2.281
    1C        C  405   4.427   3.908   2.402
    1C        C  406   4.320   4.092   2.522
    1C        C  407   4.395   3.973   2.524
    1C        C  408   4.276   4.147   2.645
    1C        C  409   4.315   4.088   2.767
    1C        C  410   4.175   4.249   2.886
    1C        C  411   4.276   4.150   2.888
    1C        C  412   4.121   4.299   3.007
    1C        C  413   4.173   4.252   3.130
    1C        C  414   4.005   4.383   3.250
    1C        C  415   4.121   4.303   3.251
    1C        C  416   3.942   4.414   3.373
    1C        C  417   3.999   4.378   3.497
    1C        C  418   3.808   4.471   3.617
    1C        C  419   3.938   4.416   3.618
    1C        C  420   3.744   4.500   3.739
    1C        C  421   3.808   4.474   3.862
    1C        C  422   3.607   4.529   3.984
    1C        C  423   3.746   4.503   3.985
    1C        C  424   3.539   4.543   4.106
    1C        C  425   3.608   4.546   4.230
    1C        C  426   3.397   4.544   4.354
    1C        C  427   3.537   4.556   4.352
    1C        C  428   3.327   4.542   4.477
    1C        C  429   3.402   4.552   4.596
    1C        C  430   3.195   4.510   4.719
    1C        C  431   3.334   4.538   4.719
    1C        C  432   3.123   4.487   4.839
    1C        C  433   3.202   4.483   4.955
    1C        C  434   4.385   4.117   2.046
    1C        C  435   4.442   3.990   2.047
    1C        C  436   4.302   4.159   2.155
    1C        C  437   4.338   4.100   2.280
    1C        C  438   4.180   4.247   2.398
    1C        C  439   4.285   4.153   2.399
    1C        C  440   4.127   4.295   2.520
    1C        C  441   4.177   4.247   2.643
    1C        C  442   4.002   4.371   2.760
    1C        C  443   4.118   4.291   2.764
    1C        C  444   3.944   4.410   2.883
    1C        C  445   4.002   4.374   3.007
    1C        C  446   3.809   4.465   3.125
    1C        C  447   3.940   4.413   3.128
    1C        C  448   3.746   4.488   3.249
    1C        C  449   3.812   4.469   3.373
    1C        C  450   3.605   4.527   3.493
    1C        C  451   3.741   4.489   3.493
    1C        C  452   3.537   4.539   3.616
    1C        C  453   3.606   4.531   3.739
    1C        C  454   3.395   4.542   3.858
    1C        C  455   3.536   4.540   3.862
    1C        C  456   3.328   4.534   3.982
    1C        C  457   3.397   4.539   4.105
    1C        C  458   3.194   4.496   4.232
    1C        C  459   3.331   4.531   4.230
    1C        C  460   3.125   4.478   4.354
    1C        C  461   3.190   4.507   4.476
    1C        C  462   2.993   4.432   4.599
    1C        C  463   3.123   4.488   4.599
    1C        C  464   2.926   4.401   4.719
    1C        C  465   2.987   4.440   4.841
    1C        C  466   2.809   4.325   4.960
    1C        C  467   2.909   4.423   4.960
    1C        C  468   4.123   4.282   2.037
    1C        C  469   4.186   4.243   2.156
    1C        C  470   4.005   4.367   2.277
    1C        C  471   4.124   4.289   2.275
    1C        C  472   3.939   4.398   2.398
    1C        C  473   4.008   4.370   2.518
    1C        C  474   3.809   4.459   2.644
    1C        C  475   3.939   4.404   2.637
    1C        C  476   3.740   4.485   2.765
    1C        C  477   3.815   4.467   2.883
    1C        C  478   3.604   4.515   3.008
    1C        C  479   3.742   4.486   3.002
    1C        C  480   3.533   4.523   3.130
    1C        C  481   3.607   4.517   3.250
    1C        C  482   3.395   4.529   3.373
    1C        C  483   3.536   4.534   3.371
    1C        C  484   3.323   4.528   3.495
    1C        C  485   3.395   4.543   3.615
    1C        C  486   3.188   4.498   3.741
    1C        C  487   3.323   4.539   3.736
    1C        C  488   3.124   4.474   3.865
    1C        C  489   3.193   4.496   3.987
    1C        C  490   3.000   4.408   4.109
    1C        C  491   3.127   4.472   4.110
    1C        C  492   2.937   4.381   4.232
    1C        C  493   2.998   4.417   4.354
    1C        C  494   2.826   4.298   4.481
    1C        C  495   2.936   4.386   4.478
    1C        C  496   2.768   4.256   4.603
    1C        C  497   2.815   4.312   4.723
    1C        C  498   2.666   4.159   4.843
    1C        C  499   2.758   4.266   4.844
    1C        C  500   2.592   4.114   4.953
    1C        C  501   4.004   4.355   2.037
    1C        C  502   3.813   4.458   2.155
    1C        C  503   3.941   4.398   2.155
    1C        C  504   3.741   4.472   2.275
    1C        C  505   3.807   4.447   2.397
    1C        C  506   3.605   4.501   2.517
    1C        C  507   3.743   4.475   2.520
    1C        C  508   3.532   4.517   2.637
    1C        C  509   3.602   4.515   2.760
    1C        C  510   3.394   4.520   2.886
    1C        C  511   3.535   4.521   2.884
    1C        C  512   3.321   4.522   3.007
    1C        C  513   3.392   4.530   3.129
    1C        C  514   3.186   4.487   3.250
    1C        C  515   3.323   4.524   3.252
    1C        C  516   3.120   4.464   3.373
    1C        C  517   3.186   4.493   3.494
    1C        C  518   2.996   4.408   3.621
    1C        C  519   3.122   4.472   3.618
    1C        C  520   2.937   4.370   3.743
    1C        C  521   2.999   4.409   3.864
    1C        C  522   2.830   4.282   3.990
    1C        C  523   2.944   4.365   3.987
    1C        C  524   2.785   4.234   4.115
    1C        C  525   2.833   4.285   4.237
    1C        C  526   2.689   4.133   4.362
    1C        C  527   2.777   4.243   4.360
    1C        C  528   2.649   4.074   4.484
    1C        C  529   2.688   4.139   4.603
    1C        C  530   2.581   3.956   4.727
    1C        C  531   2.639   4.086   4.725
    1C        C  532   2.536   3.899   4.849
    1C        C  533   2.527   3.990   4.960
    1C        C  534   3.618   4.549   2.038
    1C        C  535   3.754   4.514   2.042
    1C        C  536   3.534   4.531   2.153
    1C        C  537   3.601   4.500   2.274
    1C        C  538   3.390   4.511   2.397
    1C        C  539   3.532   4.512   2.396
    1C        C  540   3.321   4.509   2.520
    1C        C  541   3.391   4.517   2.642
    1C        C  542   3.183   4.484   2.762
    1C        C  543   3.321   4.514   2.765
    1C        C  544   3.118   4.461   2.885
    1C        C  545   3.185   4.484   3.007
    1C        C  546   2.993   4.396   3.131
    1C        C  547   3.117   4.462   3.130
    1C        C  548   2.935   4.357   3.254
    1C        C  549   2.994   4.399   3.375
    1C        C  550   2.831   4.272   3.503
    1C        C  551   2.936   4.367   3.500
    1C        C  552   2.780   4.224   3.625
    1C        C  553   2.827   4.282   3.745
    1C        C  554   2.693   4.119   3.873
    1C        C  555   2.780   4.230   3.868
    1C        C  556   2.651   4.066   3.997
    1C        C  557   2.692   4.127   4.118
    1C        C  558   2.595   3.940   4.246
    1C        C  559   2.654   4.069   4.241
    1C        C  560   2.554   3.879   4.366
    1C        C  561   2.585   3.948   4.485
    1C        C  562   2.531   3.745   4.611
    1C        C  563   2.564   3.882   4.608
    1C        C  564   2.517   3.679   4.735
    1C        C  565   2.511   3.758   4.852
    1C        C  566   2.521   3.542   4.976
    1C        C  567   2.525   3.680   4.968
    1C        C  568   3.327   4.467   2.041
    1C        C  569   3.393   4.518   2.153
    1C        C  570   3.179   4.483   2.278
    1C        C  571   3.319   4.507   2.275
    1C        C  572   3.111   4.461   2.400
    1C        C  573   3.183   4.477   2.520
    1C        C  574   2.990   4.391   2.642
    1C        C  575   3.113   4.461   2.642
    1C        C  576   2.933   4.355   2.766
    1C        C  577   2.993   4.396   2.888
    1C        C  578   2.822   4.268   3.012
    1C        C  579   2.933   4.355   3.009
    1C        C  580   2.775   4.217   3.135
    1C        C  581   2.824   4.269   3.257
    1C        C  582   2.695   4.106   3.382
    1C        C  583   2.781   4.218   3.382
    1C        C  584   2.657   4.051   3.506
    1C        C  585   2.694   4.112   3.627
    1C        C  586   2.587   3.933   3.754
    1C        C  587   2.654   4.058   3.752
    1C        C  588   2.562   3.872   3.879
    1C        C  589   2.591   3.939   4.000
    1C        C  590   2.537   3.736   4.125
    1C        C  591   2.570   3.874   4.124
    1C        C  592   2.517   3.669   4.248
    1C        C  593   2.521   3.741   4.369
    1C        C  594   2.511   3.530   4.494
    1C        C  595   2.517   3.671   4.492
    1C        C  596   2.516   3.462   4.619
    1C        C  597   2.516   3.536   4.739
    1C        C  598   2.537   3.323   4.860
    1C        C  599   2.524   3.464   4.860
    1C        C  600   2.529   3.242   4.973
    1C        C  601   3.192   4.435   2.043
    1C        C  602   2.981   4.392   2.156
    1C        C  603   3.114   4.445   2.158
    1C        C  604   2.927   4.352   2.282
    1C        C  605   2.985   4.397   2.403
    1C        C  606   2.815   4.266   2.526
    1C        C  607   2.921   4.360   2.523
    1C        C  608   2.767   4.218   2.650
    1C        C  609   2.822   4.267   2.770
    1C        C  610   2.686   4.103   2.891
    1C        C  611   2.771   4.216   2.891
    1C        C  612   2.648   4.050   3.016
    1C        C  613   2.691   4.104   3.139
    1C        C  614   2.583   3.922   3.262
    1C        C  615   2.651   4.046   3.262
    1C        C  616   2.563   3.861   3.388
    1C        C  617   2.592   3.925   3.511
    1C        C  618   2.528   3.726   3.637
    1C        C  619   2.566   3.862   3.634
    1C        C  620   2.519   3.662   3.763
    1C        C  621   2.529   3.735   3.884
    1C        C  622   2.508   3.523   4.008
    1C        C  623   2.518   3.664   4.005
    1C        C  624   2.514   3.454   4.131
    1C        C  625   2.511   3.528   4.252
    1C        C  626   2.539   3.317   4.379
    1C        C  627   2.517   3.457   4.373
    1C        C  628   2.550   3.244   4.499
    1C        C  629   2.535   3.322   4.616
    1C        C  630   2.593   3.118   4.739
    1C        C  631   2.546   3.253   4.738
    1C        C  632   2.618   3.051   4.861
    1C        C  633   2.557   3.105   4.979
    1C        C  634   2.779   4.300   2.052
    1C        C  635   2.889   4.387   2.047
    1C        C  636   2.745   4.228   2.167
    1C        C  637   2.809   4.273   2.285
    1C        C  638   2.679   4.103   2.408
    1C        C  639   2.760   4.219   2.405
    1C        C  640   2.644   4.039   2.529
    1C        C  641   2.684   4.103   2.648
    1C        C  642   2.584   3.916   2.775
    1C        C  643   2.645   4.043   2.770
    1C        C  644   2.562   3.851   2.898
    1C        C  645   2.585   3.923   3.018
    1C        C  646   2.528   3.719   3.147
    1C        C  647   2.560   3.856   3.139
    1C        C  648   2.514   3.653   3.271
    1C        C  649   2.530   3.724   3.392
    1C        C  650   2.504   3.515   3.517
    1C        C  651   2.514   3.655   3.515
    1C        C  652   2.506   3.450   3.642
    1C        C  653   2.506   3.521   3.764
    1C        C  654   2.537   3.312   3.887
    1C        C  655   2.509   3.451   3.886
    1C        C  656   2.553   3.248   4.012
    1C        C  657   2.537   3.315   4.135
    1C        C  658   2.601   3.113   4.252
    1C        C  659   2.556   3.247   4.257
    1C        C  660   2.626   3.049   4.376
    1C        C  661   2.599   3.112   4.500
    1C        C  662   2.711   2.933   4.621
    1C        C  663   2.629   3.048   4.622
    1C        C  664   2.740   2.869   4.744
    1C        C  665   2.695   2.930   4.864
    1C        C  666   2.741   2.868   4.981
    1C        C  667   2.674   4.022   2.052
    1C        C  668   2.684   4.100   2.168
    1C        C  669   2.585   3.908   2.287
    1C        C  670   2.643   4.038   2.288
    1C        C  671   2.550   3.845   2.408
    1C        C  672   2.581   3.912   2.528
    1C        C  673   2.513   3.716   2.657
    1C        C  674   2.557   3.850   2.653
    1C        C  675   2.505   3.645   2.779
    1C        C  676   2.526   3.714   2.900
    1C        C  677   2.499   3.509   3.029
    1C        C  678   2.513   3.649   3.025
    1C        C  679   2.506   3.440   3.152
    1C        C  680   2.504   3.512   3.273
    1C        C  681   2.534   3.304   3.398
    1C        C  682   2.502   3.441   3.396
    1C        C  683   2.550   3.239   3.523
    1C        C  684   2.532   3.311   3.643
    1C        C  685   2.597   3.108   3.765
    1C        C  686   2.549   3.241   3.765
    1C        C  687   2.637   3.051   3.888
    1C        C  688   2.599   3.115   4.008
    1C        C  689   2.706   2.930   4.135
    1C        C  690   2.632   3.050   4.129
    1C        C  691   2.751   2.875   4.257
    1C        C  692   2.700   2.929   4.378
    1C        C  693   2.754   2.878   4.498
    1C        C  694   2.632   3.888   2.051
    1C        C  695   2.516   3.707   2.174
    1C        C  696   2.581   3.832   2.168
    1C        C  697   2.498   3.636   2.295
    1C        C  698   2.509   3.710   2.414
    1C        C  699   2.492   3.500   2.539
    1C        C  700   2.499   3.641   2.537
    1C        C  701   2.502   3.431   2.662
    1C        C  702   2.496   3.504   2.783
    1C        C  703   2.523   3.297   2.907
    1C        C  704   2.503   3.437   2.907
    1C        C  705   2.544   3.229   3.029
    1C        C  706   2.531   3.301   3.150
    1C        C  707   2.595   3.103   3.275
    1C        C  708   2.554   3.238   3.275
    1C        C  709   2.627   3.040   3.398
    1C        C  710   2.599   3.107   3.519
    1C        C  711   2.703   2.926   3.647
    1C        C  712   2.627   3.044   3.643
    1C        C  713   2.753   2.872   3.768
    1C        C  714   2.717   2.935   3.889
    1C        C  715   2.752   2.876   4.013
    1C        C  716   2.450   3.496   2.061
    1C        C  717   2.496   3.629   2.059
    1C        C  718   2.458   3.419   2.181
    1C        C  719   2.473   3.496   2.300
    1C        C  720   2.503   3.285   2.420
    1C        C  721   2.480   3.424   2.421
    1C        C  722   2.530   3.218   2.541
    1C        C  723   2.521   3.291   2.662
    1C        C  724   2.583   3.092   2.786
    1C        C  725   2.537   3.226   2.786
    1C        C  726   2.610   3.028   2.909
    1C        C  727   2.590   3.096   3.031
    1C        C  728   2.706   2.920   3.156
    1C        C  729   2.627   3.037   3.154
    1C        C  730   2.755   2.874   3.280
    1C        C  731   2.708   2.925   3.404
    1C        C  732   2.749   2.867   3.526
    1C        C  733   2.477   3.192   2.069
    1C        C  734   2.483   3.278   2.180
    1C        C  735   2.582   3.084   2.303
    1C        C  736   2.521   3.212   2.300
    1C        C  737   2.612   3.018   2.424
    1C        C  738   2.586   3.088   2.545
    1C        C  739   2.694   2.907   2.670
    1C        C  740   2.613   3.022   2.667
    1C        C  741   2.743   2.857   2.793
    1C        C  742   2.693   2.914   2.912
    1C        C  743   2.745   2.862   3.033
    1C        C  744   2.536   3.066   2.069
    1C        C  745   2.685   2.900   2.186
    1C        C  746   2.604   3.016   2.181
    1C        C  747   2.728   2.838   2.305
    1C        C  748   2.686   2.899   2.425
    1C        C  749   2.733   2.846   2.548
    1C        C  750   2.730   2.840   2.068
    1C        C  751   3.667   2.293   2.009
    1C        O  752   3.693   2.193   2.081
    1C        O  753   3.639   2.254   1.878
    1C        C  754   4.608   3.035   1.976
    1C        O  755   4.580   3.029   1.854
    1C        O  756   4.707   2.945   2.017
    1C        C  757   4.469   4.215   1.974
    1C        O  758   4.541   4.298   2.036
    1C        O  759   4.460   4.242   1.837
    1C        C  760   3.587   4.661   1.947
    1C        O  761   3.566   4.778   1.989
    1C        O  762   3.558   4.643   1.811
    1C        C  763   2.880   4.504   1.956
    1C        O  764   2.873   4.491   1.831
    1C        O  765   2.775   4.586   1.998
    1C        C  766   2.347   3.463   1.960
    1C        O  767   2.383   3.460   1.839
    1C        O  768   2.214   3.506   1.968
    1C        C  769   4.674   3.589   5.063
    1C        O  770   4.636   3.597   5.182
    1C        O  771   4.790   3.511   5.052
    1C        C  772   4.265   4.436   5.043
    1C        O  773   4.246   4.404   5.163
    1C        O  774   4.373   4.523   5.023
    1C        C  775   4.134   2.491   5.050
    1C        O  776   4.196   2.395   4.997
    1C        O  777   4.118   2.468   5.187
    1C        C  778   2.893   4.527   5.065
    1C        O  779   2.881   4.651   5.049
    1C        O  780   2.928   4.497   5.197
    1C        C  781   2.453   3.029   5.052
    1C        O  782   2.338   2.994   5.014
    1C        O  783   2.478   2.986   5.181
    1C        C  784   2.424   3.965   5.064
    1C        O  785   2.330   4.048   5.069
    1C        O  786   2.454   3.908   5.188
    1C        C  787   2.945   2.421   2.001
    1C        O  788   2.923   2.441   1.879
    1C        O  789   2.856   2.328   2.055
    1C        C  790   3.164   2.354   5.036
    1C        O  791   3.117   2.254   4.975
    1C        O  792   3.134   2.331   5.171
    1C        H  793   4.236   3.032   5.033
    1C        H  794   4.216   2.794   5.071
    1C        H  795   4.459   3.139   5.068
    1C        H  796   4.546   3.345   5.059
    1C        H  797   4.538   3.799   5.050
    1C        H  798   4.453   4.008   5.051
    1C        H  799   4.284   4.164   5.050
    1C        H  800   4.036   4.551   5.012
    1C        H  801   3.809   4.539   5.039
    1C        H  802   3.591   4.663   5.021
    1C        H  803   3.393   4.458   5.029
    1C        H  804   3.162   4.440   5.044
    1C        H  805   3.882   2.477   5.062
    1C        H  806   3.668   2.444   5.067
    1C        H  807   3.000   2.567   5.063
    1C        H  808   3.429   2.490   5.075
    1C        H  809   2.872   2.745   5.076
    1C        H  810   2.663   2.844   5.051
    1C        H  811   2.479   3.280   5.060
    1C        H  812   2.475   3.507   5.066
    1C        H  813   2.560   3.734   5.053
    1C        H  814   2.561   4.186   5.025
    1C        H  815   2.780   4.290   5.057
    1C        H  816   2.714   2.896   1.978
    1C        H  817   2.842   2.683   1.979
    1C        H  818   3.199   2.416   1.987
    1C        H  819   3.419   2.431   1.980
    1C        H  820   3.839   2.532   1.970
    1C        H  821   4.034   2.672   1.976
    1C        H  822   4.283   2.707   1.984
    1C        H  823   4.373   2.923   1.966
    1C        H  824   4.583   3.306   1.968
    1C        H  825   4.471   3.511   1.960
    1C        H  826   4.534   3.747   1.957
    1C        H  827   3.806   4.527   1.949
    1C        H  828   3.963   4.382   1.943
    1C        H  829   4.138   4.222   1.950
    1C        H  830   4.513   3.973   1.968
    1C        H  831   2.611   3.835   1.960
    1C        H  832   2.695   4.068   1.958
    1C        H  833   2.703   4.300   1.977
    1C        H  834   3.368   4.480   1.943
    1C        H  835   3.146   4.464   1.950
    1C        H  836   2.523   3.005   1.982
    1C        H  837   2.438   3.228   1.977
    1C        H  838   2.461   3.686   1.976
    2V3OU   H29  839   2.802   3.549   0.769
    2V3OU   C27  840   2.782   3.501   0.869
    2V3OU   H27  841   2.723   3.560   0.943
    2V3OU   H28  842   2.730   3.404   0.848
    2V3OU   O11  843   2.906   3.465   0.932
    2V3OU   C15  844   2.915   3.393   1.049
    2V3OU   C13  845   3.046   3.381   1.099
    2V3OU   C14  846   3.072   3.269   1.180
    2V3OU   C16  847   2.969   3.187   1.223
    2V3OU    H6  848   2.994   3.097   1.283
    2V3OU   C12  849   3.211   3.227   1.204
    2V3OU    O2  850   3.234   3.109   1.240
    2V3OU   C10  851   3.321   3.309   1.151
    2V3OU    C8  852   3.453   3.267   1.162
    2V3OU   O10  853   3.483   3.140   1.200
    2V3OU   H26  854   3.399   3.104   1.233
    2V3OU    C6  855   3.562   3.345   1.113
    2V3OU    C5  856   3.536   3.462   1.042
    2V3OU    C4  857   3.701   3.293   1.115
    2V3OU    H4  858   3.720   3.230   1.207
    2V3OU    H5  859   3.703   3.230   1.021
    2V3OU    C2  860   3.815   3.395   1.110
    2V3OU    O6  861   3.803   3.467   1.233
    2V3OU   H21  862   3.761   3.551   1.209
    2V3OU    C3  863   3.781   3.499   1.003
    2V3OU    H2  864   3.865   3.574   1.004
    2V3OU    H3  865   3.782   3.437   0.909
    2V3OU   C25  866   3.949   3.323   1.098
    2V3OU    O7  867   3.998   3.293   0.989
    2V3OU   C26  868   4.022   3.285   1.225
    2V3OU   H22  869   4.065   3.377   1.273
    2V3OU   H23  870   4.117   3.230   1.200
    2V3OU    O8  871   3.956   3.202   1.318
    2V3OU   H24  872   3.915   3.266   1.378
    2V3OU    C1  873   3.644   3.563   1.016
    2V3OU    H1  874   3.622   3.617   0.919
    2V3OU    O3  875   3.657   3.654   1.125
    2V3OU   C19  876   3.614   3.788   1.098
    2V3OU    H9  877   3.518   3.790   1.039
    2V3OU    O4  878   3.711   3.842   1.011
    2V3OU   C20  879   3.843   3.872   1.058
    2V3OU   H10  880   3.895   3.773   1.072
    2V3OU   C24  881   3.607   3.858   1.234
    2V3OU   H16  882   3.539   3.794   1.296
    2V3OU   H17  883   3.563   3.958   1.207
    2V3OU   C23  884   3.747   3.875   1.294
    2V3OU   H15  885   3.787   3.770   1.311
    2V3OU    N1  886   3.735   3.954   1.416
    2V3OU   H19  887   3.800   3.923   1.486
    2V3OU   H20  888   3.646   3.934   1.456
    2V3OU   C21  889   3.842   3.945   1.193
    2V3OU   H11  890   3.945   3.924   1.235
    2V3OU    O5  891   3.822   4.085   1.204
    2V3OU   H18  892   3.770   4.095   1.286
    2V3OU   C22  893   3.914   3.946   0.946
    2V3OU   H12  894   3.863   4.044   0.928
    2V3OU   H13  895   3.899   3.892   0.850
    2V3OU   H14  896   4.022   3.959   0.971
    2V3OU   C11  897   3.155   3.471   1.056
    2V3OU    O1  898   3.134   3.577   0.994
    2V3OU    C9  899   3.295   3.427   1.076
    2V3OU    C7  900   3.400   3.501   1.023
    2V3OU    O9  901   3.385   3.617   0.949
    2V3OU   H25  902   3.289   3.628   0.948
    2V3OU   C17  903   2.815   3.304   1.093
    2V3OU    H7  904   2.715   3.336   1.067
    2V3OU   C18  905   2.836   3.205   1.188
    2V3OU    H8  906   2.745   3.152   1.223
    3SOL     OW  907   0.446   4.585   0.717
    3SOL    HW1  908   0.384   4.660   0.740
    3SOL    HW2  909   0.399   4.498   0.731
    4SOL     OW  910   5.872   0.953   2.145
    4SOL    HW1  911   5.956   0.902   2.168
    4SOL    HW2  912   5.865   1.032   2.205
    5SOL     OW  913   3.610   2.975   1.059
    5SOL    HW1  914   3.576   3.045   1.122
    5SOL    HW2  915   3.644   2.897   1.111
    6SOL     OW  916   3.273   2.626   0.391
    6SOL    HW1  917   3.247   2.635   0.295
    6SOL    HW2  918   3.194   2.596   0.445
    7SOL     OW  919   5.480   0.473   1.825
    7SOL    HW1  920   5.432   0.551   1.864
    7SOL    HW2  921   5.549   0.506   1.760
    8SOL     OW  922   3.429   2.114   3.311
    8SOL    HW1  923   3.511   2.149   3.266
    8SOL    HW2  924   3.353   2.112   3.246
    9SOL     OW  925   6.455   4.288   6.023
    9SOL    HW1  926   6.550   4.285   5.994
    9SOL    HW2  927   6.440   4.368   6.081
   10SOL     OW  928   0.131   4.650   1.165
   10SOL    HW1  929   0.059   4.704   1.121
   10SOL    HW2  930   0.105   4.553   1.164
   11SOL     OW  931   3.971   6.703   6.845
   11SOL    HW1  932   3.956   6.605   6.845
   11SOL    HW2  933   3.963   6.739   6.752
   12SOL     OW  934   5.565   6.889   2.002
   12SOL    HW1  935   5.639   6.876   1.935
   12SOL    HW2  936   5.490   6.939   1.959
   13SOL     OW  937   2.209   0.019   2.636
   13SOL    HW1  938   2.115   0.048   2.616
   13SOL    HW2  939   2.208   6.965   2.706
   14SOL     OW  940   2.893   0.239   3.257
   14SOL    HW1  941   2.796   0.219   3.267
   14SOL    HW2  942   2.905   0.335   3.231
   15SOL     OW  943   2.554   6.306   6.314
   15SOL    HW1  944   2.584   6.223   6.266
   15SOL    HW2  945   2.488   6.355   6.257
   16SOL     OW  946   6.583   2.237   6.916
   16SOL    HW1  947   6.485   2.227   6.900
   16SOL    HW2  948   6.599   2.299   6.993
   17SOL     OW  949   4.319   5.746   2.880
   17SOL    HW1  950   4.237   5.786   2.836
   17SOL    HW2  951   4.299   5.652   2.907
   18SOL     OW  952   1.340   0.558   6.856
   18SOL    HW1  953   1.395   0.483   6.817
   18SOL    HW2  954   1.249   0.556   6.815
   19SOL     OW  955   1.065   6.976   1.270
   19SOL    HW1  956   1.035   6.960   1.365
   19SOL    HW2  957   1.048   0.055   1.247
   20SOL     OW  958   3.598   0.433   4.358
   20SOL    HW1  959   3.512   0.404   4.315
   20SOL    HW2  960   3.660   0.468   4.288
   21SOL     OW  961   2.869   3.115   1.682
   21SOL    HW1  962   2.788   3.161   1.646
   21SOL    HW2  963   2.852   3.017   1.687
   22SOL     OW  964   1.272   1.280   5.251
   22SOL    HW1  965   1.265   1.286   5.350
   22SOL    HW2  966   1.260   1.371   5.211
   23SOL     OW  967   2.669   6.189   4.954
   23SOL    HW1  968   2.577   6.219   4.931
   23SOL    HW2  969   2.681   6.093   4.926
   24SOL     OW  970   4.167   1.674   5.203
   24SOL    HW1  971   4.256   1.719   5.195
   24SOL    HW2  972   4.096   1.743   5.218
   25SOL     OW  973   2.219   5.732   0.840
   25SOL    HW1  974   2.181   5.640   0.846
   25SOL    HW2  975   2.151   5.799   0.868
   26SOL     OW  976   5.554   1.132   2.778
   26SOL    HW1  977   5.638   1.119   2.830
   26SOL    HW2  978   5.533   1.230   2.772
   27SOL     OW  979   5.904   0.249   2.575
   27SOL    HW1  980   5.913   0.199   2.661
   27SOL    HW2  981   5.860   0.337   2.591
   28SOL     OW  982   2.671   1.200   0.250
   28SOL    HW1  983   2.652   1.147   0.168
   28SOL    HW2  984   2.585   1.231   0.291
   29SOL     OW  985   4.722   2.892   1.671
   29SOL    HW1  986   4.666   2.944   1.736
   29SOL    HW2  987   4.793   2.842   1.721
   30SOL     OW  988   3.997   1.678   5.818
   30SOL    HW1  989   4.055   1.690   5.738
   30SOL    HW2  990   3.914   1.733   5.808
   31SOL     OW  991   0.561   1.703   5.339
   31SOL    HW1  992   0.501   1.735   5.412
   31SOL    HW2  993   0.630   1.773   5.321
   32SOL     OW  994   6.817   1.953   2.017
   32SOL    HW1  995   6.865   1.952   2.105
   32SOL    HW2  996   6.848   1.877   1.961
   33SOL     OW  997   1.604   1.432   4.936
   33SOL    HW1  998   1.698   1.467   4.943
   33SOL    HW2  999   1.590   1.360   5.003
   34SOL     OW 1000   0.541   1.246   4.862
   34SOL    HW1 1001   0.531   1.338   4.901
   34SOL    HW2 1002   0.591   1.252   4.776
   35SOL     OW 1003   4.455   2.288   6.527
   35SOL    HW1 1004   4.387   2.296   6.600
   35SOL    HW2 1005   4.528   2.226   6.557
   36SOL     OW 1006   0.859   2.112   5.570
   36SOL    HW1 1007   0.820   2.034   5.618
   36SOL    HW2 1008   0.793   2.187   5.567
   37SOL     OW 1009   3.144   6.541   1.795
   37SOL    HW1 1010   3.230   6.512   1.755
   37SOL    HW2 1011   3.160   6.616   1.860
   38SOL     OW 1012   0.070   6.023   1.965
   38SOL    HW1 1013   0.168   6.024   1.982
   38SOL    HW2 1014   0.030   5.938   1.999
   39SOL     OW 1015   6.853   2.733   6.391
   39SOL    HW1 1016   6.805   2.763   6.473
   39SOL    HW2 1017   6.937   2.786   6.381
   40SOL     OW 1018   0.093   1.303   1.716
   40SOL    HW1 1019   0.057   1.263   1.631
   40SOL    HW2 1020   0.050   1.392   1.732
   41SOL     OW 1021   1.251   0.749   6.186
   41SOL    HW1 1022   1.221   0.727   6.093
   41SOL    HW2 1023   1.299   0.837   6.184
   42SOL     OW 1024   3.483   0.141   0.415
   42SOL    HW1 1025   3.501   0.049   0.383
   42SOL    HW2 1026   3.453   0.198   0.339
   43SOL     OW 1027   4.406   5.748   5.276
   43SOL    HW1 1028   4.435   5.654   5.293
   43SOL    HW2 1029   4.480   5.798   5.230
   44SOL     OW 1030   1.196   3.994   0.121
   44SOL    HW1 1031   1.109   4.033   0.091
   44SOL    HW2 1032   1.256   3.982   0.041
   45SOL     OW 1033   2.308   0.428   1.604
   45SOL    HW1 1034   2.267   0.384   1.685
   45SOL    HW2 1035   2.235   0.460   1.543
   46SOL     OW 1036   0.861   5.756   3.518
   46SOL    HW1 1037   0.860   5.662   3.553
   46SOL    HW2 1038   0.834   5.819   3.591
   47SOL     OW 1039   5.834   4.355   2.964
   47SOL    HW1 1040   5.795   4.265   2.946
   47SOL    HW2 1041   5.770   4.408   3.020
   48SOL     OW 1042   0.611   1.445   5.788
   48SOL    HW1 1043   0.673   1.433   5.711
   48SOL    HW2 1044   0.628   1.374   5.856
   49SOL     OW 1045   5.889   3.305   0.096
   49SOL    HW1 1046   5.970   3.285   0.151
   49SOL    HW2 1047   5.856   3.397   0.117
   50SOL     OW 1048   0.700   3.769   4.598
   50SOL    HW1 1049   0.719   3.854   4.647
   50SOL    HW2 1050   0.666   3.790   4.506
   51SOL     OW 1051   3.429   5.741   2.148
   51SOL    HW1 1052   3.513   5.717   2.197
   51SOL    HW2 1053   3.436   5.712   2.053
   52SOL     OW 1054   0.572   2.126   2.146
   52SOL    HW1 1055   0.620   2.203   2.103
   52SOL    HW2 1056   0.637   2.054   2.167
   53SOL     OW 1057   4.591   6.601   3.670
   53SOL    HW1 1058   4.604   6.676   3.735
   53SOL    HW2 1059   4.678   6.553   3.657
   54SOL     OW 1060   5.065   4.487   5.182
   54SOL    HW1 1061   4.982   4.533   5.213
   54SOL    HW2 1062   5.065   4.393   5.215
   55SOL     OW 1063   3.481   2.158   1.377
   55SOL    HW1 1064   3.571   2.179   1.415
   55SOL    HW2 1065   3.469   2.059   1.373
   56SOL     OW 1066   0.573   0.242   2.037
   56SOL    HW1 1067   0.548   0.157   2.084
   56SOL    HW2 1068   0.642   0.223   1.967
   57SOL     OW 1069   5.618   0.524   0.803
   57SOL    HW1 1070   5.640   0.609   0.755
   57SOL    HW2 1071   5.534   0.485   0.764
   58SOL     OW 1072   6.527   0.186   6.752
   58SOL    HW1 1073   6.463   0.124   6.797
   58SOL    HW2 1074   6.577   0.137   6.681
   59SOL     OW 1075   0.501   6.952   5.477
   59SOL    HW1 1076   0.591   6.909   5.466
   59SOL    HW2 1077   0.437   6.886   5.516
   60SOL     OW 1078   4.846   6.962   4.817
   60SOL    HW1 1079   4.875   0.038   4.796
   60SOL    HW2 1080   4.923   6.900   4.806
   61SOL     OW 1081   3.788   6.815   5.604
   61SOL    HW1 1082   3.864   6.860   5.559
   61SOL    HW2 1083   3.702   6.858   5.577
   62SOL     OW 1084   2.737   0.423   4.882
   62SOL    HW1 1085   2.798   0.389   4.811
   62SOL    HW2 1086   2.788   0.480   4.946
   63SOL     OW 1087   6.993   3.192   3.408
   63SOL    HW1 1088   6.942   3.117   3.450
   63SOL    HW2 1089   0.000   3.167   3.314
   64SOL     OW 1090   6.908   2.584   5.574
   64SOL    HW1 1091   6.968   2.561   5.651
   64SOL    HW2 1092   6.835   2.516   5.568
   65SOL     OW 1093   1.105   3.927   6.259
   65SOL    HW1 1094   1.023   3.924   6.315
   65SOL    HW2 1095   1.081   3.911   6.164
   66SOL     OW 1096   2.624   0.866   1.384
   66SOL    HW1 1097   2.670   0.850   1.296
   66SOL    HW2 1098   2.566   0.788   1.406
   67SOL     OW 1099   5.026   5.149   4.493
   67SOL    HW1 1100   5.063   5.232   4.450
   67SOL    HW2 1101   4.928   5.142   4.471
   68SOL     OW 1102   5.464   3.069   6.751
   68SOL    HW1 1103   5.387   3.030   6.803
   68SOL    HW2 1104   5.437   3.080   6.655
   69SOL     OW 1105   2.683   2.952   5.713
   69SOL    HW1 1106   2.651   3.040   5.679
   69SOL    HW2 1107   2.632   2.878   5.668
   70SOL     OW 1108   5.762   0.021   2.504
   70SOL    HW1 1109   5.835   0.085   2.524
   70SOL    HW2 1110   5.677   0.071   2.487
   71SOL     OW 1111   1.993   4.256   2.168
   71SOL    HW1 1112   1.963   4.162   2.179
   71SOL    HW2 1113   1.962   4.311   2.246
   72SOL     OW 1114   3.637   5.162   3.419
   72SOL    HW1 1115   3.610   5.225   3.493
   72SOL    HW2 1116   3.619   5.068   3.448
   73SOL     OW 1117   3.770   2.965   6.604
   73SOL    HW1 1118   3.818   3.019   6.673
   73SOL    HW2 1119   3.671   2.977   6.616
   74SOL     OW 1120   4.967   6.684   6.010
   74SOL    HW1 1121   4.978   6.652   6.105
   74SOL    HW2 1122   4.989   6.781   6.004
   75SOL     OW 1123   3.544   5.064   4.995
   75SOL    HW1 1124   3.536   4.993   5.065
   75SOL    HW2 1125   3.565   5.152   5.038
   76SOL     OW 1126   2.552   3.126   0.980
   76SOL    HW1 1127   2.498   3.204   1.012
   76SOL    HW2 1128   2.570   3.064   1.056
   77SOL     OW 1129   6.039   4.166   6.458
   77SOL    HW1 1130   6.074   4.224   6.531
   77SOL    HW2 1131   6.087   4.186   6.373
   78SOL     OW 1132   6.124   6.632   5.949
   78SOL    HW1 1133   6.116   6.594   5.857
   78SOL    HW2 1134   6.104   6.730   5.947
   79SOL     OW 1135   3.204   6.966   0.703
   79SOL    HW1 1136   3.228   0.031   0.652
   79SOL    HW2 1137   3.275   6.897   0.690
   80SOL     OW 1138   0.523   1.033   4.196
   80SOL    HW1 1139   0.495   0.967   4.266
   80SOL    HW2 1140   0.478   1.011   4.110
   81SOL     OW 1141   1.997   6.941   3.149
   81SOL    HW1 1142   1.909   6.948   3.103
   81SOL    HW2 1143   1.999   7.000   3.229
   82SOL     OW 1144   6.630   4.920   5.893
   82SOL    HW1 1145   6.565   4.867   5.948
   82SOL    HW2 1146   6.655   4.867   5.811
   83SOL     OW 1147   6.446   6.500   5.659
   83SOL    HW1 1148   6.536   6.497   5.615
   83SOL    HW2 1149   6.381   6.547   5.600
   84SOL     OW 1150   6.993   4.010   1.623
   84SOL    HW1 1151   0.075   4.020   1.636
   84SOL    HW2 1152   6.961   3.931   1.675
   85SOL     OW 1153   0.584   0.875   5.283
   85SOL    HW1 1154   0.641   0.954   5.260
   85SOL    HW2 1155   0.643   0.799   5.312
   86SOL     OW 1156   2.054   1.128   4.643
   86SOL    HW1 1157   2.015   1.188   4.574
   86SOL    HW2 1158   1.998   1.132   4.726
   87SOL     OW 1159   4.429   6.821   1.660
   87SOL    HW1 1160   4.490   6.889   1.618
   87SOL    HW2 1161   4.421   6.742   1.599
   88SOL     OW 1162   6.070   0.863   1.505
   88SOL    HW1 1163   6.144   0.802   1.474
   88SOL    HW2 1164   6.002   0.810   1.555
   89SOL     OW 1165   1.632   1.682   5.189
   89SOL    HW1 1166   1.682   1.666   5.104
   89SOL    HW2 1167   1.539   1.646   5.181
   90SOL     OW 1168   6.475   6.064   3.418
   90SOL    HW1 1169   6.455   6.103   3.328
   90SOL    HW2 1170   6.428   5.976   3.427
   91SOL     OW 1171   4.314   4.989   4.663
   91SOL    HW1 1172   4.268   5.070   4.699
   91SOL    HW2 1173   4.409   4.988   4.692
   92SOL     OW 1174   3.556   5.762   1.508
   92SOL    HW1 1175   3.558   5.667   1.478
   92SOL    HW2 1176   3.463   5.797   1.506
   93SOL     OW 1177   3.060   4.848   6.036
   93SOL    HW1 1178   3.069   4.900   6.122
   93SOL    HW2 1179   3.046   4.752   6.057
   94SOL     OW 1180   2.070   6.662   1.956
   94SOL    HW1 1181   2.094   6.724   1.882
   94SOL    HW2 1182   2.152   6.637   2.008
   95SOL     OW 1183   6.433   6.900   5.265
   95SOL    HW1 1184   6.434   6.983   5.321
   95SOL    HW2 1185   6.521   6.891   5.219
   96SOL     OW 1186   1.574   6.813   5.082
   96SOL    HW1 1187   1.598   6.854   5.171
   96SOL    HW2 1188   1.653   6.764   5.045
   97SOL     OW 1189   6.182   2.687   4.498
   97SOL    HW1 1190   6.223   2.768   4.540
   97SOL    HW2 1191   6.253   2.619   4.480
   98SOL     OW 1192   4.956   1.073   5.896
   98SOL    HW1 1193   4.888   1.003   5.872
   98SOL    HW2 1194   5.013   1.039   5.971
   99SOL     OW 1195   4.950   1.500   0.724
   99SOL    HW1 1196   4.882   1.456   0.783
   99SOL    HW2 1197   5.024   1.435   0.704
  100SOL     OW 1198   6.299   5.694   6.821
  100SOL    HW1 1199   6.372   5.646   6.870
  100SOL    HW2 1200   6.312   5.792   6.829
  101SOL     OW 1201   1.227   0.066   3.966
  101SOL    HW1 1202   1.279   0.051   4.049
  101SOL    HW2 1203   1.264   0.008   3.893
  102SOL     OW 1204   4.393   0.487   2.966
  102SOL    HW1 1205   4.347   0.575   2.977
  102SOL    HW2 1206   4.329   0.413   2.983
  103SOL     OW 1207   3.762   1.753   1.879
  103SOL    HW1 1208   3.692   1.771   1.809
  103SOL    HW2 1209   3.794   1.839   1.918
  104SOL     OW 1210   6.494   6.038   2.363
  104SOL    HW1 1211   6.518   6.082   2.277
  104SOL    HW2 1212   6.563   5.968   2.385
  105SOL     OW 1213   5.390   0.689   6.313
  105SOL    HW1 1214   5.344   0.777   6.326
  105SOL    HW2 1215   5.332   0.628   6.259
  106SOL     OW 1216   3.659   6.641   1.547
  106SOL    HW1 1217   3.750   6.656   1.587
  106SOL    HW2 1218   3.661   6.560   1.489
  107SOL     OW 1219   2.587   3.526   0.056
  107SOL    HW1 1220   2.507   3.470   0.034
  107SOL    HW2 1221   2.647   3.530   6.994
  108SOL     OW 1222   4.731   4.237   5.023
  108SOL    HW1 1223   4.738   4.147   5.067
  108SOL    HW2 1224   4.821   4.265   4.990
  109SOL     OW 1225   6.233   0.843   2.021
  109SOL    HW1 1226   6.176   0.873   1.944
  109SOL    HW2 1227   6.175   0.800   2.090
  110SOL     OW 1228   3.482   6.252   4.583
  110SOL    HW1 1229   3.517   6.187   4.517
  110SOL    HW2 1230   3.535   6.246   4.668
  111SOL     OW 1231   2.990   1.154   3.262
  111SOL    HW1 1232   3.024   1.243   3.289
  111SOL    HW2 1233   3.034   1.126   3.176
  112SOL     OW 1234   0.128   1.419   6.612
  112SOL    HW1 1235   0.059   1.407   6.684
  112SOL    HW2 1236   0.134   1.515   6.587
  113SOL     OW 1237   6.934   6.655   3.770
  113SOL    HW1 1238   6.878   6.629   3.848
  113SOL    HW2 1239   6.982   6.574   3.735
  114SOL     OW 1240   1.159   6.392   0.524
  114SOL    HW1 1241   1.130   6.323   0.589
  114SOL    HW2 1242   1.124   6.369   0.433
  115SOL     OW 1243   5.259   0.893   5.363
  115SOL    HW1 1244   5.317   0.852   5.294
  115SOL    HW2 1245   5.297   0.981   5.391
  116SOL     OW 1246   6.239   3.984   3.036
  116SOL    HW1 1247   6.144   3.958   3.052
  116SOL    HW2 1248   6.276   3.930   2.961
  117SOL     OW 1249   1.122   6.792   6.451
  117SOL    HW1 1250   1.078   6.710   6.414
  117SOL    HW2 1251   1.103   6.799   6.549
  118SOL     OW 1252   2.112   0.808   2.907
  118SOL    HW1 1253   2.131   0.813   3.005
  118SOL    HW2 1254   2.161   0.729   2.868
  119SOL     OW 1255   6.721   2.546   5.883
  119SOL    HW1 1256   6.705   2.449   5.901
  119SOL    HW2 1257   6.764   2.588   5.962
  120SOL     OW 1258   4.894   6.135   1.873
  120SOL    HW1 1259   4.798   6.115   1.893
  120SOL    HW2 1260   4.947   6.050   1.880
  121SOL     OW 1261   2.980   2.982   5.741
  121SOL    HW1 1262   3.041   2.949   5.669
  121SOL    HW2 1263   2.890   2.940   5.730
  122SOL     OW 1264   1.004   3.046   4.960
  122SOL    HW1 1265   0.938   3.106   4.913
  122SOL    HW2 1266   0.977   3.036   5.056
  123SOL     OW 1267   6.965   2.276   1.652
  123SOL    HW1 1268   0.033   2.327   1.649
  123SOL    HW2 1269   6.956   2.230   1.740
  124SOL     OW 1270   4.666   3.873   1.394
  124SOL    HW1 1271   4.639   3.777   1.393
  124SOL    HW2 1272   4.696   3.898   1.486
  125SOL     OW 1273   2.394   3.664   1.658
  125SOL    HW1 1274   2.483   3.700   1.687
  125SOL    HW2 1275   2.369   3.587   1.716
  126SOL     OW 1276   4.072   4.189   0.654
  126SOL    HW1 1277   4.110   4.155   0.568
  126SOL    HW2 1278   3.978   4.157   0.664
  127SOL     OW 1279   0.638   5.514   5.570
  127SOL    HW1 1280   0.731   5.525   5.535
  127SOL    HW2 1281   0.573   5.559   5.509
  128SOL     OW 1282   4.536   2.636   0.574
  128SOL    HW1 1283   4.535   2.538   0.593
  128SOL    HW2 1284   4.628   2.672   0.586
  129SOL     OW 1285   2.844   3.986   0.231
  129SOL    HW1 1286   2.812   3.902   0.276
  129SOL    HW2 1287   2.791   4.064   0.264
  130SOL     OW 1288   1.596   2.574   4.676
  130SOL    HW1 1289   1.652   2.526   4.744
  130SOL    HW2 1290   1.641   2.570   4.587
  131SOL     OW 1291   5.873   1.301   2.016
  131SOL    HW1 1292   5.829   1.233   1.958
  131SOL    HW2 1293   5.972   1.294   2.007
  132SOL     OW 1294   0.670   2.442   2.179
  132SOL    HW1 1295   0.690   2.365   2.241
  132SOL    HW2 1296   0.596   2.497   2.218
  133SOL     OW 1297   6.688   5.929   3.030
  133SOL    HW1 1298   6.610   5.989   3.046
  133SOL    HW2 1299   6.704   5.873   3.111
  134SOL     OW 1300   1.205   3.552   2.854
  134SOL    HW1 1301   1.181   3.456   2.838
  134SOL    HW2 1302   1.298   3.557   2.890
  135SOL     OW 1303   4.344   1.322   3.987
  135SOL    HW1 1304   4.391   1.234   3.987
  135SOL    HW2 1305   4.246   1.308   3.980
  136SOL     OW 1306   5.170   4.774   5.870
  136SOL    HW1 1307   5.248   4.741   5.817
  136SOL    HW2 1308   5.157   4.715   5.949
  137SOL     OW 1309   3.689   1.000   5.510
  137SOL    HW1 1310   3.768   0.944   5.489
  137SOL    HW2 1311   3.718   1.081   5.562
  138SOL     OW 1312   5.689   4.282   5.562
  138SOL    HW1 1313   5.748   4.360   5.542
  138SOL    HW2 1314   5.743   4.198   5.557
  139SOL     OW 1315   3.236   5.761   6.119
  139SOL    HW1 1316   3.174   5.689   6.091
  139SOL    HW2 1317   3.312   5.767   6.054
  140SOL     OW 1318   6.248   3.705   4.590
  140SOL    HW1 1319   6.284   3.784   4.640
  140SOL    HW2 1320   6.153   3.689   4.618
  141SOL     OW 1321   1.410   2.072   2.307
  141SOL    HW1 1322   1.410   2.120   2.395
  141SOL    HW2 1323   1.363   1.984   2.318
  142SOL     OW 1324   1.749   5.299   1.210
  142SOL    HW1 1325   1.755   5.313   1.111
  142SOL    HW2 1326   1.842   5.295   1.248
  143SOL     OW 1327   5.053   4.164   2.305
  143SOL    HW1 1328   5.075   4.196   2.397
  143SOL    HW2 1329   4.954   4.156   2.295
  144SOL     OW 1330   2.639   6.719   1.250
  144SOL    HW1 1331   2.561   6.688   1.196
  144SOL    HW2 1332   2.670   6.645   1.310
  145SOL     OW 1333   6.783   5.367   0.864
  145SOL    HW1 1334   6.720   5.292   0.888
  145SOL    HW2 1335   6.779   5.384   0.766
  146SOL     OW 1336   6.727   4.916   0.476
  146SOL    HW1 1337   6.668   4.974   0.532
  146SOL    HW2 1338   6.671   4.857   0.419
  147SOL     OW 1339   5.865   2.363   0.769
  147SOL    HW1 1340   5.815   2.297   0.825
  147SOL    HW2 1341   5.873   2.449   0.818
  148SOL     OW 1342   0.967   5.587   5.248
  148SOL    HW1 1343   0.955   5.619   5.342
  148SOL    HW2 1344   0.923   5.497   5.238
  149SOL     OW 1345   3.107   1.222   6.125
  149SOL    HW1 1346   3.154   1.288   6.184
  149SOL    HW2 1347   3.015   1.206   6.160
  150SOL     OW 1348   6.999   5.891   5.164
  150SOL    HW1 1349   6.966   5.826   5.096
  150SOL    HW2 1350   6.926   5.955   5.188
  151SOL     OW 1351   4.336   0.749   2.189
  151SOL    HW1 1352   4.303   0.664   2.148
  151SOL    HW2 1353   4.389   0.728   2.271
  152SOL     OW 1354   2.639   0.739   4.792
  152SOL    HW1 1355   2.641   0.640   4.801
  152SOL    HW2 1356   2.589   0.779   4.870
  153SOL     OW 1357   1.008   0.413   2.758
  153SOL    HW1 1358   0.990   0.450   2.849
  153SOL    HW2 1359   0.948   0.457   2.691
  154SOL     OW 1360   0.508   2.350   2.990
  154SOL    HW1 1361   0.551   2.263   3.013
  154SOL    HW2 1362   0.560   2.395   2.917
  155SOL     OW 1363   0.299   1.167   3.074
  155SOL    HW1 1364   0.346   1.087   3.038
  155SOL    HW2 1365   0.222   1.190   3.015
  156SOL     OW 1366   0.197   2.500   1.439
  156SOL    HW1 1367   0.233   2.577   1.387
  156SOL    HW2 1368   0.156   2.434   1.376
  157SOL     OW 1369   6.922   2.510   2.703
  157SOL    HW1 1370   6.823   2.526   2.708
  157SOL    HW2 1371   6.948   2.439   2.767
  158SOL     OW 1372   1.935   1.814   3.632
  158SOL    HW1 1373   1.860   1.784   3.573
  158SOL    HW2 1374   1.915   1.905   3.668
  159SOL     OW 1375   5.136   3.365   1.912
  159SOL    HW1 1376   5.049   3.332   1.950
  159SOL    HW2 1377   5.185   3.289   1.869
  160SOL     OW 1378   6.219   4.486   6.248
  160SOL    HW1 1379   6.287   4.492   6.322
  160SOL    HW2 1380   6.157   4.564   6.254
  161SOL     OW 1381   3.027   4.713   5.317
  161SOL    HW1 1382   2.998   4.629   5.271
  161SOL    HW2 1383   3.050   4.782   5.248
  162SOL     OW 1384   4.494   6.047   2.343
  162SOL    HW1 1385   4.415   5.986   2.343
  162SOL    HW2 1386   4.568   6.007   2.289
  163SOL     OW 1387   6.369   0.564   1.686
  163SOL    HW1 1388   6.354   0.519   1.774
  163SOL    HW2 1389   6.367   0.497   1.612
  164SOL     OW 1390   6.450   3.112   1.074
  164SOL    HW1 1391   6.542   3.094   1.038
  164SOL    HW2 1392   6.444   3.077   1.168
  165SOL     OW 1393   6.442   3.563   6.904
  165SOL    HW1 1394   6.507   3.637   6.887
  165SOL    HW2 1395   6.350   3.601   6.913
  166SOL     OW 1396   1.445   0.326   0.907
  166SOL    HW1 1397   1.522   0.302   0.966
  166SOL    HW2 1398   1.478   0.343   0.814
  167SOL     OW 1399   6.174   2.533   1.241
  167SOL    HW1 1400   6.199   2.523   1.145
  167SOL    HW2 1401   6.190   2.628   1.270
  168SOL     OW 1402   2.460   5.589   1.466
  168SOL    HW1 1403   2.443   5.646   1.386
  168SOL    HW2 1404   2.415   5.500   1.453
  169SOL     OW 1405   0.798   0.142   1.235
  169SOL    HW1 1406   0.818   0.180   1.145
  169SOL    HW2 1407   0.792   0.215   1.302
  170SOL     OW 1408   0.434   1.704   3.286
  170SOL    HW1 1409   0.351   1.649   3.287
  170SOL    HW2 1410   0.482   1.690   3.199
  171SOL     OW 1411   3.614   3.967   0.349
  171SOL    HW1 1412   3.582   3.873   0.336
  171SOL    HW2 1413   3.592   3.996   0.442
  172SOL     OW 1414   0.143   2.959   1.894
  172SOL    HW1 1415   0.170   2.977   1.989
  172SOL    HW2 1416   0.051   2.921   1.892
  173SOL     OW 1417   0.124   6.236   5.889
  173SOL    HW1 1418   0.042   6.178   5.886
  173SOL    HW2 1419   0.205   6.179   5.879
  174SOL     OW 1420   2.721   6.215   3.986
  174SOL    HW1 1421   2.636   6.266   3.996
  174SOL    HW2 1422   2.763   6.201   4.075
  175SOL     OW 1423   0.198   5.024   3.551
  175SOL    HW1 1424   0.174   5.041   3.455
  175SOL    HW2 1425   0.237   4.933   3.560
  176SOL     OW 1426   2.629   5.188   6.816
  176SOL    HW1 1427   2.679   5.104   6.838
  176SOL    HW2 1428   2.690   5.252   6.770
  177SOL     OW 1429   4.456   1.703   2.803
  177SOL    HW1 1430   4.484   1.611   2.775
  177SOL    HW2 1431   4.490   1.770   2.737
  178SOL     OW 1432   5.333   3.923   6.197
  178SOL    HW1 1433   5.255   3.972   6.236
  178SOL    HW2 1434   5.326   3.826   6.219
  179SOL     OW 1435   2.932   6.539   0.471
  179SOL    HW1 1436   2.988   6.486   0.535
  179SOL    HW2 1437   2.863   6.591   0.523
  180SOL     OW 1438   1.315   2.054   6.883
  180SOL    HW1 1439   1.384   2.112   6.927
  180SOL    HW2 1440   1.275   1.992   6.952
  181SOL     OW 1441   2.925   3.625   4.123
  181SOL    HW1 1442   2.927   3.651   4.219
  181SOL    HW2 1443   2.966   3.535   4.112
  182SOL     OW 1444   5.302   2.596   4.815
  182SOL    HW1 1445   5.335   2.518   4.762
  182SOL    HW2 1446   5.257   2.562   4.898
  183SOL     OW 1447   5.898   1.580   2.020
  183SOL    HW1 1448   5.908   1.484   2.047
  183SOL    HW2 1449   5.846   1.629   2.090
  184SOL     OW 1450   0.394   4.826   2.866
  184SOL    HW1 1451   0.342   4.747   2.900
  184SOL    HW2 1452   0.477   4.795   2.820
  185SOL     OW 1453   2.893   3.661   6.321
  185SOL    HW1 1454   2.879   3.566   6.349
  185SOL    HW2 1455   2.874   3.670   6.223
  186SOL     OW 1456   6.107   6.366   3.564
  186SOL    HW1 1457   6.086   6.458   3.596
  186SOL    HW2 1458   6.041   6.340   3.493
  187SOL     OW 1459   5.195   0.327   4.036
  187SOL    HW1 1460   5.145   0.368   4.112
  187SOL    HW2 1461   5.261   0.393   4.000
  188SOL     OW 1462   6.380   2.073   4.804
  188SOL    HW1 1463   6.420   2.027   4.883
  188SOL    HW2 1464   6.315   2.142   4.835
  189SOL     OW 1465   1.649   4.776   3.469
  189SOL    HW1 1466   1.668   4.836   3.392
  189SOL    HW2 1467   1.659   4.681   3.441
  190SOL     OW 1468   3.486   1.043   6.634
  190SOL    HW1 1469   3.395   1.039   6.592
  190SOL    HW2 1470   3.518   1.137   6.634
  191SOL     OW 1471   5.292   5.890   6.415
  191SOL    HW1 1472   5.339   5.810   6.450
  191SOL    HW2 1473   5.250   5.940   6.490
  192SOL     OW 1474   6.103   0.614   0.164
  192SOL    HW1 1475   6.178   0.673   0.196
  192SOL    HW2 1476   6.141   0.538   0.111
  193SOL     OW 1477   6.300   4.129   6.986
  193SOL    HW1 1478   6.325   4.156   0.062
  193SOL    HW2 1479   6.341   4.040   6.965
  194SOL     OW 1480   4.103   0.002   4.766
  194SOL    HW1 1481   4.196   7.002   4.732
  194SOL    HW2 1482   4.108   0.033   4.860
  195SOL     OW 1483   6.999   5.293   3.020
  195SOL    HW1 1484   6.935   5.248   3.083
  195SOL    HW2 1485   6.956   5.376   2.983
  196SOL     OW 1486   0.852   0.994   0.955
  196SOL    HW1 1487   0.802   0.908   0.950
  196SOL    HW2 1488   0.812   1.060   0.893
  197SOL     OW 1489   1.998   0.750   0.865
  197SOL    HW1 1490   1.905   0.714   0.867
  197SOL    HW2 1491   2.050   0.703   0.794
  198SOL     OW 1492   2.890   1.082   4.553
  198SOL    HW1 1493   2.902   1.178   4.580
  198SOL    HW2 1494   2.917   1.071   4.458
  199SOL     OW 1495   1.099   1.566   4.638
  199SOL    HW1 1496   1.101   1.472   4.670
  199SOL    HW2 1497   1.029   1.617   4.689
  200SOL     OW 1498   6.094   2.215   0.164
  200SOL    HW1 1499   6.170   2.232   0.227
  200SOL    HW2 1500   6.042   2.299   0.151
  201SOL     OW 1501   0.335   1.307   5.991
  201SOL    HW1 1502   0.286   1.390   5.965
  201SOL    HW2 1503   0.311   1.234   5.928
  202SOL     OW 1504   5.428   6.991   0.096
  202SOL    HW1 1505   5.362   6.917   0.098
  202SOL    HW2 1506   5.401   0.041   0.027
  203SOL     OW 1507   6.781   2.970   0.112
  203SOL    HW1 1508   6.734   2.939   0.194
  203SOL    HW2 1509   6.838   3.049   0.133
  204SOL     OW 1510   6.590   0.816   5.207
  204SOL    HW1 1511   6.541   0.730   5.216
  204SOL    HW2 1512   6.528   0.887   5.175
  205SOL     OW 1513   2.139   4.518   3.359
  205SOL    HW1 1514   2.082   4.511   3.278
  205SOL    HW2 1515   2.236   4.519   3.332
  206SOL     OW 1516   0.727   4.084   0.713
  206SOL    HW1 1517   0.695   4.174   0.742
  206SOL    HW2 1518   0.655   4.039   0.660
  207SOL     OW 1519   6.448   2.958   4.713
  207SOL    HW1 1520   6.499   2.896   4.652
  207SOL    HW2 1521   6.368   2.993   4.664
  208SOL     OW 1522   1.256   2.992   4.843
  208SOL    HW1 1523   1.323   2.996   4.918
  208SOL    HW2 1524   1.164   2.998   4.881
  209SOL     OW 1525   6.458   4.457   2.583
  209SOL    HW1 1526   6.426   4.503   2.500
  209SOL    HW2 1527   6.379   4.425   2.635
  210SOL     OW 1528   4.849   3.483   1.251
  210SOL    HW1 1529   4.765   3.508   1.299
  210SOL    HW2 1530   4.838   3.503   1.153
  211SOL     OW 1531   1.137   1.094   1.628
  211SOL    HW1 1532   1.051   1.144   1.621
  211SOL    HW2 1533   1.174   1.105   1.720
  212SOL     OW 1534   2.357   3.909   1.534
  212SOL    HW1 1535   2.359   3.819   1.577
  212SOL    HW2 1536   2.282   3.962   1.571
  213SOL     OW 1537   1.076   5.456   1.298
  213SOL    HW1 1538   1.154   5.471   1.237
  213SOL    HW2 1539   1.016   5.387   1.259
  214SOL     OW 1540   5.616   6.712   2.363
  214SOL    HW1 1541   5.680   6.759   2.301
  214SOL    HW2 1542   5.655   6.711   2.455
  215SOL     OW 1543   2.211   4.896   2.598
  215SOL    HW1 1544   2.169   4.932   2.515
  215SOL    HW2 1545   2.148   4.831   2.642
  216SOL     OW 1546   1.519   6.383   3.209
  216SOL    HW1 1547   1.443   6.359   3.268
  216SOL    HW2 1548   1.524   6.319   3.132
  217SOL     OW 1549   7.005   5.396   5.081
  217SOL    HW1 1550   6.949   5.371   5.002
  217SOL    HW2 1551   0.028   5.314   5.122
  218SOL     OW 1552   2.763   2.296   5.556
  218SOL    HW1 1553   2.808   2.332   5.475
  218SOL    HW2 1554   2.792   2.202   5.572
  219SOL     OW 1555   4.783   2.453   1.342
  219SOL    HW1 1556   4.836   2.474   1.260
  219SOL    HW2 1557   4.740   2.537   1.377
  220SOL     OW 1558   2.664   6.326   0.656
  220SOL    HW1 1559   2.624   6.405   0.610
  220SOL    HW2 1560   2.763   6.339   0.664
  221SOL     OW 1561   4.757   4.474   2.225
  221SOL    HW1 1562   4.745   4.376   2.212
  221SOL    HW2 1563   4.791   4.515   2.141
  222SOL     OW 1564   1.807   4.158   6.758
  222SOL    HW1 1565   1.747   4.193   6.686
  222SOL    HW2 1566   1.849   4.072   6.727
  223SOL     OW 1567   6.623   2.177   4.695
  223SOL    HW1 1568   6.533   2.156   4.734
  223SOL    HW2 1569   6.674   2.234   4.758
  224SOL     OW 1570   3.422   2.278   5.750
  224SOL    HW1 1571   3.495   2.212   5.732
  224SOL    HW2 1572   3.461   2.370   5.753
  225SOL     OW 1573   4.110   5.896   6.823
  225SOL    HW1 1574   4.192   5.922   6.773
  225SOL    HW2 1575   4.134   5.832   6.896
  226SOL     OW 1576   1.671   2.289   0.613
  226SOL    HW1 1577   1.602   2.306   0.684
  226SOL    HW2 1578   1.756   2.336   0.637
  227SOL     OW 1579   1.550   4.025   0.960
  227SOL    HW1 1580   1.457   4.063   0.968
  227SOL    HW2 1581   1.611   4.074   1.022
  228SOL     OW 1582   0.864   0.504   2.524
  228SOL    HW1 1583   0.777   0.455   2.519
  228SOL    HW2 1584   0.926   0.470   2.452
  229SOL     OW 1585   4.058   0.604   6.328
  229SOL    HW1 1586   4.093   0.698   6.329
  229SOL    HW2 1587   3.991   0.594   6.255
  230SOL     OW 1588   5.991   4.386   5.825
  230SOL    HW1 1589   6.054   4.424   5.893
  230SOL    HW2 1590   5.927   4.323   5.871
  231SOL     OW 1591   5.335   0.947   0.056
  231SOL    HW1 1592   5.288   1.024   0.098
  231SOL    HW2 1593   5.286   0.862   0.079
  232SOL     OW 1594   1.074   2.130   5.423
  232SOL    HW1 1595   1.004   2.113   5.492
  232SOL    HW2 1596   1.031   2.133   5.333
  233SOL     OW 1597   3.549   1.617   3.466
  233SOL    HW1 1598   3.556   1.543   3.533
  233SOL    HW2 1599   3.590   1.700   3.504
  234SOL     OW 1600   5.445   0.069   0.369
  234SOL    HW1 1601   5.496   0.001   0.421
  234SOL    HW2 1602   5.434   0.039   0.275
  235SOL     OW 1603   5.360   3.086   2.271
  235SOL    HW1 1604   5.337   3.168   2.220
  235SOL    HW2 1605   5.453   3.057   2.248
  236SOL     OW 1606   3.753   2.859   6.056
  236SOL    HW1 1607   3.744   2.924   5.981
  236SOL    HW2 1608   3.714   2.771   6.028
  237SOL     OW 1609   6.353   3.522   2.682
  237SOL    HW1 1610   6.340   3.555   2.775
  237SOL    HW2 1611   6.371   3.424   2.682
  238SOL     OW 1612   6.080   1.853   0.319
  238SOL    HW1 1613   6.111   1.768   0.275
  238SOL    HW2 1614   6.015   1.899   0.259
  239SOL     OW 1615   1.477   3.424   0.402
  239SOL    HW1 1616   1.435   3.499   0.349
  239SOL    HW2 1617   1.519   3.461   0.485
  240SOL     OW 1618   5.398   3.492   4.032
  240SOL    HW1 1619   5.334   3.547   4.086
  240SOL    HW2 1620   5.381   3.395   4.050
  241SOL     OW 1621   2.343   2.330   4.048
  241SOL    HW1 1622   2.414   2.306   3.983
  241SOL    HW2 1623   2.383   2.377   4.126
  242SOL     OW 1624   3.813   3.581   2.239
  242SOL    HW1 1625   3.844   3.491   2.208
  242SOL    HW2 1626   3.888   3.646   2.231
  243SOL     OW 1627   3.972   2.731   6.152
  243SOL    HW1 1628   4.031   2.792   6.204
  243SOL    HW2 1629   3.881   2.772   6.141
  244SOL     OW 1630   4.877   3.284   4.917
  244SOL    HW1 1631   4.826   3.357   4.963
  244SOL    HW2 1632   4.956   3.258   4.972
  245SOL     OW 1633   3.411   1.169   3.004
  245SOL    HW1 1634   3.469   1.246   3.031
  245SOL    HW2 1635   3.315   1.194   3.018
  246SOL     OW 1636   6.658   1.491   2.286
  246SOL    HW1 1637   6.706   1.404   2.283
  246SOL    HW2 1638   6.578   1.488   2.227
  247SOL     OW 1639   2.014   1.070   1.735
  247SOL    HW1 1640   2.096   1.057   1.791
  247SOL    HW2 1641   1.998   1.168   1.721
  248SOL     OW 1642   3.267   3.774   1.291
  248SOL    HW1 1643   3.261   3.691   1.347
  248SOL    HW2 1644   3.345   3.829   1.322
  249SOL     OW 1645   4.825   6.524   5.353
  249SOL    HW1 1646   4.848   6.473   5.270
  249SOL    HW2 1647   4.791   6.615   5.328
  250SOL     OW 1648   3.556   2.590   0.133
  250SOL    HW1 1649   3.479   2.604   0.196
  250SOL    HW2 1650   3.521   2.579   0.040
  251SOL     OW 1651   4.391   5.336   5.429
  251SOL    HW1 1652   4.350   5.246   5.414
  251SOL    HW2 1653   4.412   5.348   5.526
  252SOL     OW 1654   6.544   6.181   5.110
  252SOL    HW1 1655   6.468   6.138   5.061
  252SOL    HW2 1656   6.510   6.228   5.191
  253SOL     OW 1657   4.182   6.212   6.404
  253SOL    HW1 1658   4.123   6.217   6.484
  253SOL    HW2 1659   4.130   6.175   6.327
  254SOL     OW 1660   6.313   2.061   5.418
  254SOL    HW1 1661   6.295   2.126   5.344
  254SOL    HW2 1662   6.397   2.010   5.398
  255SOL     OW 1663   1.240   4.527   6.623
  255SOL    HW1 1664   1.323   4.497   6.575
  255SOL    HW2 1665   1.160   4.500   6.570
  256SOL     OW 1666   4.705   2.295   5.054
  256SOL    HW1 1667   4.631   2.362   5.052
  256SOL    HW2 1668   4.671   2.207   5.088
  257SOL     OW 1669   4.769   6.356   2.371
  257SOL    HW1 1670   4.705   6.413   2.319
  257SOL    HW2 1671   4.718   6.297   2.434
  258SOL     OW 1672   2.038   3.334   5.799
  258SOL    HW1 1673   1.979   3.254   5.804
  258SOL    HW2 1674   2.128   3.312   5.837
  259SOL     OW 1675   3.236   0.186   3.924
  259SOL    HW1 1676   3.137   0.201   3.917
  259SOL    HW2 1677   3.255   0.130   4.004
  260SOL     OW 1678   3.905   5.669   3.036
  260SOL    HW1 1679   3.910   5.768   3.018
  260SOL    HW2 1680   3.994   5.628   3.019
  261SOL     OW 1681   4.245   5.132   0.013
  261SOL    HW1 1682   4.270   5.136   6.933
  261SOL    HW2 1683   4.292   5.205   0.063
  262SOL     OW 1684   0.932   3.761   6.651
  262SOL    HW1 1685   0.885   3.828   6.708
  262SOL    HW2 1686   1.030   3.768   6.665
  263SOL     OW 1687   1.453   0.276   3.906
  263SOL    HW1 1688   1.355   0.263   3.915
  263SOL    HW2 1689   1.473   0.374   3.901
  264SOL     OW 1690   6.389   2.789   6.473
  264SOL    HW1 1691   6.439   2.716   6.520
  264SOL    HW2 1692   6.381   2.868   6.533
  265SOL     OW 1693   6.821   0.044   3.212
  265SOL    HW1 1694   6.790   0.130   3.252
  265SOL    HW2 1695   6.809   0.048   3.112
  266SOL     OW 1696   3.655   0.793   5.914
  266SOL    HW1 1697   3.724   0.819   5.981
  266SOL    HW2 1698   3.688   0.716   5.860
  267SOL     OW 1699   2.328   0.189   2.813
  267SOL    HW1 1700   2.276   0.167   2.731
  267SOL    HW2 1701   2.420   0.218   2.788
  268SOL     OW 1702   3.267   2.455   0.703
  268SOL    HW1 1703   3.230   2.496   0.787
  268SOL    HW2 1704   3.357   2.494   0.684
  269SOL     OW 1705   5.283   1.971   0.150
  269SOL    HW1 1706   5.281   1.871   0.144
  269SOL    HW2 1707   5.223   2.002   0.224
  270SOL     OW 1708   5.467   0.935   0.472
  270SOL    HW1 1709   5.548   0.930   0.414
  270SOL    HW2 1710   5.433   1.029   0.475
  271SOL     OW 1711   0.788   4.228   6.264
  271SOL    HW1 1712   0.856   4.198   6.331
  271SOL    HW2 1713   0.698   4.193   6.291
  272SOL     OW 1714   2.940   6.006   3.089
  272SOL    HW1 1715   3.024   6.058   3.104
  272SOL    HW2 1716   2.868   6.042   3.150
  273SOL     OW 1717   1.970   5.528   5.891
  273SOL    HW1 1718   1.969   5.502   5.794
  273SOL    HW2 1719   1.908   5.606   5.905
  274SOL     OW 1720   4.483   2.494   3.993
  274SOL    HW1 1721   4.421   2.457   3.923
  274SOL    HW2 1722   4.442   2.481   4.083
  275SOL     OW 1723   5.834   0.012   1.596
  275SOL    HW1 1724   5.908   6.983   1.546
  275SOL    HW2 1725   5.750   0.006   1.543
  276SOL     OW 1726   0.778   0.274   4.660
  276SOL    HW1 1727   0.833   0.266   4.577
  276SOL    HW2 1728   0.769   0.184   4.702
  277SOL     OW 1729   1.969   4.838   1.170
  277SOL    HW1 1730   2.021   4.902   1.228
  277SOL    HW2 1731   2.017   4.750   1.167
  278SOL     OW 1732   0.460   2.836   2.976
  278SOL    HW1 1733   0.366   2.870   2.981
  278SOL    HW2 1734   0.481   2.784   3.059
  279SOL     OW 1735   6.426   1.184   3.224
  279SOL    HW1 1736   6.346   1.243   3.232
  279SOL    HW2 1737   6.443   1.140   3.312
  280SOL     OW 1738   1.612   4.781   2.832
  280SOL    HW1 1739   1.605   4.685   2.805
  280SOL    HW2 1740   1.708   4.808   2.836
  281SOL     OW 1741   2.492   4.490   1.009
  281SOL    HW1 1742   2.448   4.572   1.043
  281SOL    HW2 1743   2.426   4.414   1.010
  282SOL     OW 1744   2.000   1.498   5.726
  282SOL    HW1 1745   1.922   1.495   5.664
  282SOL    HW2 1746   2.085   1.503   5.673
  283SOL     OW 1747   3.303   2.851   6.154
  283SOL    HW1 1748   3.311   2.765   6.105
  283SOL    HW2 1749   3.294   2.926   6.088
  284SOL     OW 1750   0.337   3.675   3.877
  284SOL    HW1 1751   0.332   3.775   3.882
  284SOL    HW2 1752   0.388   3.641   3.957
  285SOL     OW 1753   5.440   4.440   4.182
  285SOL    HW1 1754   5.469   4.413   4.090
  285SOL    HW2 1755   5.340   4.436   4.187
  286SOL     OW 1756   3.373   4.387   0.698
  286SOL    HW1 1757   3.336   4.480   0.701
  286SOL    HW2 1758   3.303   4.322   0.728
  287SOL     OW 1759   0.968   2.814   6.968
  287SOL    HW1 1760   0.916   2.790   0.033
  287SOL    HW2 1761   0.918   2.883   6.916
  288SOL     OW 1762   4.962   3.195   1.488
  288SOL    HW1 1763   4.992   3.103   1.514
  288SOL    HW2 1764   5.025   3.232   1.420
  289SOL     OW 1765   3.675   5.360   6.977
  289SOL    HW1 1766   3.749   5.328   0.018
  289SOL    HW2 1767   3.672   5.306   6.893
  290SOL     OW 1768   1.867   1.088   4.863
  290SOL    HW1 1769   1.845   1.147   4.941
  290SOL    HW2 1770   1.784   1.070   4.811
  291SOL     OW 1771   6.439   1.904   3.238
  291SOL    HW1 1772   6.470   1.812   3.213
  291SOL    HW2 1773   6.467   1.924   3.332
  292SOL     OW 1774   3.486   0.354   4.041
  292SOL    HW1 1775   3.445   0.420   4.103
  292SOL    HW2 1776   3.414   0.308   3.988
  293SOL     OW 1777   3.217   5.179   3.721
  293SOL    HW1 1778   3.264   5.093   3.700
  293SOL    HW2 1779   3.234   5.244   3.647
  294SOL     OW 1780   5.033   0.354   0.469
  294SOL    HW1 1781   4.972   0.275   0.470
  294SOL    HW2 1782   5.121   0.327   0.431
  295SOL     OW 1783   5.545   0.308   4.075
  295SOL    HW1 1784   5.567   0.403   4.055
  295SOL    HW2 1785   5.597   0.248   4.014
  296SOL     OW 1786   2.562   2.036   2.864
  296SOL    HW1 1787   2.619   1.972   2.812
  296SOL    HW2 1788   2.484   2.065   2.808
  297SOL     OW 1789   1.872   4.898   2.289
  297SOL    HW1 1790   1.936   4.970   2.317
  297SOL    HW2 1791   1.924   4.816   2.263
  298SOL     OW 1792   6.604   5.166   0.849
  298SOL    HW1 1793   6.602   5.085   0.907
  298SOL    HW2 1794   6.602   5.139   0.753
  299SOL     OW 1795   6.219   2.244   4.119
  299SOL    HW1 1796   6.121   2.244   4.137
  299SOL    HW2 1797   6.269   2.231   4.205
  300SOL     OW 1798   5.939   6.696   1.979
  300SOL    HW1 1799   5.994   6.668   1.901
  300SOL    HW2 1800   5.849   6.727   1.947
  301SOL     OW 1801   4.805   2.753   5.722
  301SOL    HW1 1802   4.773   2.754   5.627
  301SOL    HW2 1803   4.903   2.736   5.725
  302SOL     OW 1804   1.280   5.528   4.231
  302SOL    HW1 1805   1.304   5.517   4.135
  302SOL    HW2 1806   1.244   5.621   4.246
  303SOL     OW 1807   6.018   0.307   3.827
  303SOL    HW1 1808   6.035   0.210   3.812
  303SOL    HW2 1809   6.058   0.360   3.752
  304SOL     OW 1810   3.757   0.265   3.398
  304SOL    HW1 1811   3.838   0.212   3.424
  304SOL    HW2 1812   3.689   0.261   3.471
  305SOL     OW 1813   1.260   5.160   0.847
  305SOL    HW1 1814   1.206   5.141   0.929
  305SOL    HW2 1815   1.265   5.077   0.791
  306SOL     OW 1816   1.979   1.205   3.500
  306SOL    HW1 1817   2.050   1.226   3.567
  306SOL    HW2 1818   2.000   1.252   3.414
  307SOL     OW 1819   3.549   0.580   1.611
  307SOL    HW1 1820   3.487   0.546   1.682
  307SOL    HW2 1821   3.502   0.648   1.556
  308SOL     OW 1822   0.575   4.781   3.730
  308SOL    HW1 1823   0.575   4.823   3.821
  308SOL    HW2 1824   0.661   4.803   3.683
  309SOL     OW 1825   3.656   4.572   5.379
  309SOL    HW1 1826   3.702   4.488   5.353
  309SOL    HW2 1827   3.567   4.551   5.420
  310SOL     OW 1828   1.492   6.042   6.413
  310SOL    HW1 1829   1.522   5.997   6.329
  310SOL    HW2 1830   1.543   6.005   6.490
  311SOL     OW 1831   0.122   0.860   1.400
  311SOL    HW1 1832   0.121   0.781   1.461
  311SOL    HW2 1833   0.178   0.841   1.320
  312SOL     OW 1834   3.932   1.437   5.506
  312SOL    HW1 1835   4.007   1.460   5.444
  312SOL    HW2 1836   3.911   1.515   5.564
  313SOL     OW 1837   0.361   4.740   0.979
  313SOL    HW1 1838   0.393   4.809   1.043
  313SOL    HW2 1839   0.311   4.669   1.030
  314SOL     OW 1840   3.321   5.917   2.352
  314SOL    HW1 1841   3.349   5.835   2.302
  314SOL    HW2 1842   3.402   5.967   2.383
  315SOL     OW 1843   0.814   3.671   2.906
  315SOL    HW1 1844   0.875   3.704   2.834
  315SOL    HW2 1845   0.762   3.592   2.873
  316SOL     OW 1846   2.193   2.950   4.318
  316SOL    HW1 1847   2.178   2.993   4.407
  316SOL    HW2 1848   2.195   2.851   4.330
  317SOL     OW 1849   6.434   1.668   0.313
  317SOL    HW1 1850   6.340   1.641   0.292
  317SOL    HW2 1851   6.438   1.704   0.407
  318SOL     OW 1852   2.914   3.990   1.179
  318SOL    HW1 1853   2.936   3.941   1.095
  318SOL    HW2 1854   2.947   3.938   1.258
  319SOL     OW 1855   1.083   0.631   6.374
  319SOL    HW1 1856   1.133   0.699   6.320
  319SOL    HW2 1857   1.000   0.671   6.411
  320SOL     OW 1858   5.252   3.277   1.078
  320SOL    HW1 1859   5.301   3.206   1.127
  320SOL    HW2 1860   5.177   3.236   1.026
  321SOL     OW 1861   2.121   1.413   2.369
  321SOL    HW1 1862   2.208   1.459   2.350
  321SOL    HW2 1863   2.123   1.376   2.462
  322SOL     OW 1864   3.286   2.705   5.320
  322SOL    HW1 1865   3.253   2.717   5.226
  322SOL    HW2 1866   3.272   2.610   5.348
  323SOL     OW 1867   1.396   4.436   1.415
  323SOL    HW1 1868   1.460   4.464   1.343
  323SOL    HW2 1869   1.401   4.337   1.428
  324SOL     OW 1870   6.821   2.755   4.048
  324SOL    HW1 1871   6.880   2.725   4.123
  324SOL    HW2 1872   6.736   2.701   4.049
  325SOL     OW 1873   1.915   2.267   2.687
  325SOL    HW1 1874   1.945   2.174   2.668
  325SOL    HW2 1875   1.937   2.290   2.782
  326SOL     OW 1876   1.902   3.972   4.631
  326SOL    HW1 1877   1.875   3.998   4.538
  326SOL    HW2 1878   1.872   3.878   4.649
  327SOL     OW 1879   6.490   3.437   6.326
  327SOL    HW1 1880   6.535   3.494   6.256
  327SOL    HW2 1881   6.479   3.491   6.410
  328SOL     OW 1882   3.535   5.567   3.010
  328SOL    HW1 1883   3.581   5.513   3.082
  328SOL    HW2 1884   3.489   5.645   3.052
  329SOL     OW 1885   3.848   3.994   2.041
  329SOL    HW1 1886   3.876   4.071   1.984
  329SOL    HW2 1887   3.753   4.006   2.069
  330SOL     OW 1888   2.467   2.201   1.796
  330SOL    HW1 1889   2.562   2.176   1.817
  330SOL    HW2 1890   2.425   2.130   1.740
  331SOL     OW 1891   6.410   4.057   5.744
  331SOL    HW1 1892   6.383   3.984   5.680
  331SOL    HW2 1893   6.417   4.020   5.836
  332SOL     OW 1894   3.921   1.835   3.676
  332SOL    HW1 1895   3.868   1.919   3.682
  332SOL    HW2 1896   3.968   1.831   3.588
  333SOL     OW 1897   4.629   6.380   0.779
  333SOL    HW1 1898   4.559   6.391   0.850
  333SOL    HW2 1899   4.624   6.458   0.715
  334SOL     OW 1900   4.798   6.451   2.688
  334SOL    HW1 1901   4.701   6.476   2.690
  334SOL    HW2 1902   4.852   6.532   2.663
  335SOL     OW 1903   3.267   0.297   2.503
  335SOL    HW1 1904   3.302   0.389   2.488
  335SOL    HW2 1905   3.342   0.232   2.503
  336SOL     OW 1906   4.189   0.589   4.858
  336SOL    HW1 1907   4.198   0.525   4.933
  336SOL    HW2 1908   4.172   0.539   4.773
  337SOL     OW 1909   0.811   4.291   2.097
  337SOL    HW1 1910   0.864   4.363   2.141
  337SOL    HW2 1911   0.830   4.290   1.999
  338SOL     OW 1912   2.188   2.367   1.162
  338SOL    HW1 1913   2.115   2.435   1.166
  338SOL    HW2 1914   2.157   2.282   1.204
  339SOL     OW 1915   4.463   1.174   3.044
  339SOL    HW1 1916   4.376   1.147   3.086
  339SOL    HW2 1917   4.454   1.266   3.006
  340SOL     OW 1918   5.213   3.370   4.670
  340SOL    HW1 1919   5.261   3.333   4.750
  340SOL    HW2 1920   5.118   3.341   4.672
  341SOL     OW 1921   4.640   4.147   5.669
  341SOL    HW1 1922   4.582   4.227   5.656
  341SOL    HW2 1923   4.629   4.112   5.762
  342SOL     OW 1924   6.097   3.698   0.989
  342SOL    HW1 1925   6.187   3.734   0.964
  342SOL    HW2 1926   6.102   3.599   0.996
  343SOL     OW 1927   2.615   0.761   2.559
  343SOL    HW1 1928   2.707   0.774   2.523
  343SOL    HW2 1929   2.556   0.724   2.487
  344SOL     OW 1930   3.369   6.889   0.280
  344SOL    HW1 1931   3.275   6.867   0.308
  344SOL    HW2 1932   3.421   6.805   0.271
  345SOL     OW 1933   1.030   1.379   5.003
  345SOL    HW1 1934   1.027   1.478   5.002
  345SOL    HW2 1935   1.020   1.346   5.096
  346SOL     OW 1936   2.590   0.737   5.552
  346SOL    HW1 1937   2.576   0.670   5.479
  346SOL    HW2 1938   2.515   0.733   5.617
  347SOL     OW 1939   5.110   6.090   5.955
  347SOL    HW1 1940   5.115   6.184   5.989
  347SOL    HW2 1941   5.113   6.027   6.032
  348SOL     OW 1942   2.954   6.790   3.401
  348SOL    HW1 1943   2.964   6.743   3.313
  348SOL    HW2 1944   3.044   6.797   3.445
  349SOL     OW 1945   2.198   5.208   2.137
  349SOL    HW1 1946   2.163   5.290   2.183
  349SOL    HW2 1947   2.297   5.202   2.150
  350SOL     OW 1948   4.754   3.237   1.177
  350SOL    HW1 1949   4.670   3.240   1.230
  350SOL    HW2 1950   4.813   3.314   1.203
  351SOL     OW 1951   3.210   2.166   0.774
  351SOL    HW1 1952   3.128   2.135   0.727
  351SOL    HW2 1953   3.223   2.264   0.758
  352SOL     OW 1954   2.844   2.003   6.491
  352SOL    HW1 1955   2.787   2.075   6.531
  352SOL    HW2 1956   2.834   2.004   6.391
  353SOL     OW 1957   2.147   0.014   1.446
  353SOL    HW1 1958   2.062   6.986   1.476
  353SOL    HW2 1959   2.223   6.967   1.458
  354SOL     OW 1960   4.921   0.288   2.088
  354SOL    HW1 1961   4.863   0.323   2.014
  354SOL    HW2 1962   4.871   0.219   2.139
  355SOL     OW 1963   0.871   1.429   2.187
  355SOL    HW1 1964   0.821   1.514   2.204
  355SOL    HW2 1965   0.838   1.358   2.250
  356SOL     OW 1966   3.152   6.873   2.986
  356SOL    HW1 1967   3.152   6.893   2.888
  356SOL    HW2 1968   3.245   6.877   3.021
  357SOL     OW 1969   1.133   5.160   4.741
  357SOL    HW1 1970   1.149   5.177   4.838
  357SOL    HW2 1971   1.216   5.123   4.699
  358SOL     OW 1972   4.891   0.940   3.245
  358SOL    HW1 1973   4.906   0.970   3.339
  358SOL    HW2 1974   4.832   1.006   3.198
  359SOL     OW 1975   0.204   1.457   0.625
  359SOL    HW1 1976   0.177   1.409   0.541
  359SOL    HW2 1977   0.297   1.492   0.615
  360SOL     OW 1978   4.996   6.909   6.675
  360SOL    HW1 1979   4.934   6.899   6.597
  360SOL    HW2 1980   4.987   7.001   6.713
  361SOL     OW 1981   3.019   0.521   2.297
  361SOL    HW1 1982   3.108   0.519   2.251
  361SOL    HW2 1983   3.016   0.449   2.367
  362SOL     OW 1984   2.970   3.783   0.671
  362SOL    HW1 1985   2.942   3.687   0.672
  362SOL    HW2 1986   3.017   3.804   0.585
  363SOL     OW 1987   4.977   4.248   3.890
  363SOL    HW1 1988   5.001   4.315   3.820
  363SOL    HW2 1989   5.059   4.196   3.917
  364SOL     OW 1990   2.727   5.718   6.714
  364SOL    HW1 1991   2.796   5.737   6.645
  364SOL    HW2 1992   2.710   5.800   6.769
  365SOL     OW 1993   5.039   6.348   2.820
  365SOL    HW1 1994   5.050   6.415   2.894
  365SOL    HW2 1995   4.968   6.380   2.757
  366SOL     OW 1996   5.256   1.180   0.174
  366SOL    HW1 1997   5.232   1.248   0.243
  366SOL    HW2 1998   5.344   1.205   0.132
  367SOL     OW 1999   5.922   2.619   2.141
  367SOL    HW1 2000   5.840   2.592   2.192
  367SOL    HW2 2001   5.958   2.540   2.092
  368SOL     OW 2002   6.856   5.308   4.859
  368SOL    HW1 2003   6.760   5.314   4.885
  368SOL    HW2 2004   6.867   5.239   4.788
  369SOL     OW 2005   0.979   3.954   1.943
  369SOL    HW1 2006   0.932   3.935   2.029
  369SOL    HW2 2007   1.066   4.000   1.963
  370SOL     OW 2008   3.652   1.675   6.545
  370SOL    HW1 2009   3.653   1.681   6.645
  370SOL    HW2 2010   3.731   1.724   6.508
  371SOL     OW 2011   3.406   2.526   6.420
  371SOL    HW1 2012   3.413   2.540   6.321
  371SOL    HW2 2013   3.460   2.445   6.446
  372SOL     OW 2014   2.211   5.945   0.084
  372SOL    HW1 2015   2.112   5.941   0.073
  372SOL    HW2 2016   2.242   5.868   0.140
  373SOL     OW 2017   6.117   6.618   6.404
  373SOL    HW1 2018   6.086   6.556   6.332
  373SOL    HW2 2019   6.104   6.713   6.375
  374SOL     OW 2020   5.318   0.783   0.845
  374SOL    HW1 2021   5.294   0.774   0.942
  374SOL    HW2 2022   5.310   0.879   0.818
  375SOL     OW 2023   6.737   4.340   1.384
  375SOL    HW1 2024   6.782   4.382   1.463
  375SOL    HW2 2025   6.684   4.409   1.336
  376SOL     OW 2026   2.164   4.238   5.205
  376SOL    HW1 2027   2.192   4.241   5.301
  376SOL    HW2 2028   2.233   4.189   5.151
  377SOL     OW 2029   5.040   1.079   4.044
  377SOL    HW1 2030   4.944   1.085   4.071
  377SOL    HW2 2031   5.060   1.151   3.977
  378SOL     OW 2032   5.277   2.296   5.435
  378SOL    HW1 2033   5.357   2.252   5.476
  378SOL    HW2 2034   5.301   2.388   5.405
  379SOL     OW 2035   6.283   2.904   0.930
  379SOL    HW1 2036   6.290   2.811   0.966
  379SOL    HW2 2037   6.358   2.959   0.965
  380SOL     OW 2038   0.816   2.264   0.133
  380SOL    HW1 2039   0.866   2.236   0.051
  380SOL    HW2 2040   0.869   2.333   0.182
  381SOL     OW 2041   4.588   5.093   0.356
  381SOL    HW1 2042   4.529   5.014   0.375
  381SOL    HW2 2043   4.605   5.099   0.258
  382SOL     OW 2044   2.042   5.631   6.626
  382SOL    HW1 2045   2.132   5.672   6.616
  382SOL    HW2 2046   2.007   5.603   6.536
  383SOL     OW 2047   6.221   1.601   6.875
  383SOL    HW1 2048   6.308   1.576   6.918
  383SOL    HW2 2049   6.234   1.607   6.776
  384SOL     OW 2050   1.282   5.328   4.436
  384SOL    HW1 2051   1.198   5.328   4.490
  384SOL    HW2 2052   1.296   5.419   4.397
  385SOL     OW 2053   4.471   4.893   1.280
  385SOL    HW1 2054   4.464   4.976   1.224
  385SOL    HW2 2055   4.458   4.813   1.222
  386SOL     OW 2056   2.381   5.972   4.387
  386SOL    HW1 2057   2.451   5.984   4.457
  386SOL    HW2 2058   2.328   5.889   4.406
  387SOL     OW 2059   0.335   0.560   5.422
  387SOL    HW1 2060   0.390   0.526   5.345
  387SOL    HW2 2061   0.362   0.511   5.505
  388SOL     OW 2062   0.316   1.938   4.544
  388SOL    HW1 2063   0.375   1.882   4.603
  388SOL    HW2 2064   0.370   1.977   4.469
  389SOL     OW 2065   4.904   3.235   2.520
  389SOL    HW1 2066   4.896   3.144   2.480
  389SOL    HW2 2067   4.953   3.295   2.455
  390SOL     OW 2068   3.612   2.886   0.355
  390SOL    HW1 2069   3.574   2.876   0.264
  390SOL    HW2 2070   3.710   2.866   0.353
  391SOL     OW 2071   3.750   3.584   3.551
  391SOL    HW1 2072   3.708   3.494   3.538
  391SOL    HW2 2073   3.712   3.648   3.484
  392SOL     OW 2074   1.849   3.297   1.654
  392SOL    HW1 2075   1.892   3.207   1.654
  392SOL    HW2 2076   1.894   3.356   1.721
  393SOL     OW 2077   1.349   6.504   1.280
  393SOL    HW1 2078   1.318   6.448   1.203
  393SOL    HW2 2079   1.410   6.576   1.247
  394SOL     OW 2080   5.960   1.365   6.304
  394SOL    HW1 2081   5.886   1.313   6.263
  394SOL    HW2 2082   5.923   1.449   6.345
  395SOL     OW 2083   6.184   5.187   6.612
  395SOL    HW1 2084   6.120   5.121   6.572
  395SOL    HW2 2085   6.191   5.171   6.711
  396SOL     OW 2086   0.717   0.806   1.296
  396SOL    HW1 2087   0.728   0.894   1.249
  396SOL    HW2 2088   0.802   0.781   1.341
  397SOL     OW 2089   4.669   1.977   4.969
  397SOL    HW1 2090   4.756   2.020   4.942
  397SOL    HW2 2091   4.668   1.882   4.938
  398SOL     OW 2092   6.991   1.542   2.822
  398SOL    HW1 2093   6.901   1.512   2.788
  398SOL    HW2 2094   0.007   1.616   2.764
  399SOL     OW 2095   6.037   5.689   4.226
  399SOL    HW1 2096   6.014   5.709   4.130
  399SOL    HW2 2097   6.120   5.633   4.229
  400SOL     OW 2098   0.041   6.595   3.118
  400SOL    HW1 2099   0.057   6.496   3.123
  400SOL    HW2 2100   6.961   6.613   3.131
  401SOL     OW 2101   1.316   6.098   4.867
  401SOL    HW1 2102   1.403   6.144   4.883
  401SOL    HW2 2103   1.328   5.999   4.874
  402SOL     OW 2104   5.930   1.317   4.412
  402SOL    HW1 2105   5.927   1.404   4.461
  402SOL    HW2 2106   5.841   1.273   4.417
  403SOL     OW 2107   2.311   1.844   5.236
  403SOL    HW1 2108   2.279   1.896   5.157
  403SOL    HW2 2109   2.409   1.826   5.227
  404SOL     OW 2110   2.560   6.083   3.489
  404SOL    HW1 2111   2.635   6.126   3.539
  404SOL    HW2 2112   2.486   6.148   3.477
  405SOL     OW 2113   2.300   4.981   3.865
  405SOL    HW1 2114   2.360   5.024   3.933
  405SOL    HW2 2115   2.266   4.894   3.901
  406SOL     OW 2116   1.015   0.081   0.305
  406SOL    HW1 2117   0.975   0.124   0.386
  406SOL    HW2 2118   1.077   0.008   0.334
  407SOL     OW 2119   1.954   3.569   4.125
  407SOL    HW1 2120   1.977   3.645   4.064
  407SOL    HW2 2121   1.988   3.483   4.086
  408SOL     OW 2122   2.724   2.160   1.889
  408SOL    HW1 2123   2.763   2.220   1.959
  408SOL    HW2 2124   2.796   2.127   1.829
  409SOL     OW 2125   0.396   2.481   1.813
  409SOL    HW1 2126   0.402   2.429   1.898
  409SOL    HW2 2127   0.487   2.491   1.774
  410SOL     OW 2128   1.860   3.236   2.106
  410SOL    HW1 2129   1.816   3.157   2.064
  410SOL    HW2 2130   1.945   3.257   2.057
  411SOL     OW 2131   6.537   1.600   1.186
  411SOL    HW1 2132   6.454   1.582   1.240
  411SOL    HW2 2133   6.523   1.567   1.093
  412SOL     OW 2134   2.350   4.500   3.135
  412SOL    HW1 2135   2.357   4.584   3.082
  412SOL    HW2 2136   2.410   4.506   3.215
  413SOL     OW 2137   6.405   5.115   2.931
  413SOL    HW1 2138   6.412   5.098   2.833
  413SOL    HW2 2139   6.459   5.047   2.981
  414SOL     OW 2140   2.644   6.778   2.522
  414SOL    HW1 2141   2.724   6.828   2.491
  414SOL    HW2 2142   2.566   6.840   2.527
  415SOL     OW 2143   5.874   3.063   1.197
  415SOL    HW1 2144   5.952   3.114   1.162
  415SOL    HW2 2145   5.907   2.985   1.251
  416SOL     OW 2146   6.205   3.092   0.062
  416SOL    HW1 2147   6.166   3.024   0.124
  416SOL    HW2 2148   6.212   3.180   0.109
  417SOL     OW 2149   2.377   2.594   5.621
  417SOL    HW1 2150   2.321   2.523   5.578
  417SOL    HW2 2151   2.333   2.683   5.610
  418SOL     OW 2152   4.022   6.192   6.643
  418SOL    HW1 2153   4.060   6.236   6.725
  418SOL    HW2 2154   3.976   6.107   6.669
  419SOL     OW 2155   5.952   0.009   0.453
  419SOL    HW1 2156   5.872   0.066   0.472
  419SOL    HW2 2157   6.035   0.061   0.474
  420SOL     OW 2158   3.287   6.700   1.162
  420SOL    HW1 2159   3.324   6.722   1.071
  420SOL    HW2 2160   3.224   6.623   1.154
  421SOL     OW 2161   5.197   4.754   2.945
  421SOL    HW1 2162   5.109   4.780   2.985
  421SOL    HW2 2163   5.264   4.826   2.963
  422SOL     OW 2164   4.194   1.540   2.196
  422SOL    HW1 2165   4.254   1.537   2.117
  422SOL    HW2 2166   4.102   1.570   2.168
  423SOL     OW 2167   2.196   0.840   5.842
  423SOL    HW1 2168   2.175   0.906   5.915
  423SOL    HW2 2169   2.124   0.771   5.838
  424SOL     OW 2170   1.521   4.434   4.358
  424SOL    HW1 2171   1.430   4.420   4.319
  424SOL    HW2 2172   1.512   4.451   4.456
  425SOL     OW 2173   3.133   1.287   6.763
  425SOL    HW1 2174   3.172   1.365   6.714
  425SOL    HW2 2175   3.088   1.226   6.699
  426SOL     OW 2176   2.548   2.402   3.005
  426SOL    HW1 2177   2.456   2.366   2.992
  426SOL    HW2 2178   2.559   2.487   2.953
  427SOL     OW 2179   4.340   1.491   4.196
  427SOL    HW1 2180   4.357   1.586   4.171
  427SOL    HW2 2181   4.352   1.433   4.116
  428SOL     OW 2182   2.060   1.898   6.177
  428SOL    HW1 2183   2.124   1.838   6.128
  428SOL    HW2 2184   1.976   1.909   6.123
  429SOL     OW 2185   6.834   6.829   3.361
  429SOL    HW1 2186   6.871   6.850   3.452
  429SOL    HW2 2187   6.813   6.914   3.313
  430SOL     OW 2188   1.774   1.510   3.497
  430SOL    HW1 2189   1.751   1.604   3.472
  430SOL    HW2 2190   1.741   1.447   3.427
  431SOL     OW 2191   2.623   1.002   1.612
  431SOL    HW1 2192   2.652   0.943   1.687
  431SOL    HW2 2193   2.616   0.949   1.528
  432SOL     OW 2194   5.347   1.925   2.049
  432SOL    HW1 2195   5.287   1.939   1.971
  432SOL    HW2 2196   5.419   1.860   2.025
  433SOL     OW 2197   2.173   4.059   6.933
  433SOL    HW1 2198   2.195   3.962   6.944
  433SOL    HW2 2199   2.113   4.088   7.007
  434SOL     OW 2200   3.815   5.766   2.726
  434SOL    HW1 2201   3.811   5.667   2.743
  434SOL    HW2 2202   3.722   5.802   2.720
  435SOL     OW 2203   2.739   2.746   6.770
  435SOL    HW1 2204   2.679   2.814   6.728
  435SOL    HW2 2205   2.779   2.688   6.699
  436SOL     OW 2206   5.295   6.329   2.502
  436SOL    HW1 2207   5.329   6.321   2.595
  436SOL    HW2 2208   5.197   6.309   2.501
  437SOL     OW 2209   6.942   1.225   5.514
  437SOL    HW1 2210   6.976   1.131   5.506
  437SOL    HW2 2211   0.001   1.289   5.503
  438SOL     OW 2212   0.777   3.831   1.675
  438SOL    HW1 2213   0.761   3.926   1.649
  438SOL    HW2 2214   0.870   3.821   1.711
  439SOL     OW 2215   0.800   1.406   6.658
  439SOL    HW1 2216   0.788   1.424   6.756
  439SOL    HW2 2217   0.764   1.483   6.605
  440SOL     OW 2218   3.656   1.383   1.056
  440SOL    HW1 2219   3.589   1.347   1.121
  440SOL    HW2 2220   3.746   1.347   1.077
  441SOL     OW 2221   1.274   4.478   2.727
  441SOL    HW1 2222   1.274   4.563   2.674
  441SOL    HW2 2223   1.360   4.430   2.713
  442SOL     OW 2224   3.121   3.333   4.829
  442SOL    HW1 2225   3.133   3.236   4.806
  442SOL    HW2 2226   3.083   3.341   4.921
  443SOL     OW 2227   4.949   2.570   1.926
  443SOL    HW1 2228   5.027   2.550   1.868
  443SOL    HW2 2229   4.955   2.664   1.959
  444SOL     OW 2230   4.219   2.323   0.922
  444SOL    HW1 2231   4.144   2.310   0.856
  444SOL    HW2 2232   4.181   2.352   1.010
  445SOL     OW 2233   2.167   5.993   3.656
  445SOL    HW1 2234   2.095   5.985   3.725
  445SOL    HW2 2235   2.217   5.906   3.649
  446SOL     OW 2236   0.277   6.607   0.505
  446SOL    HW1 2237   0.184   6.587   0.534
  446SOL    HW2 2238   0.307   6.694   0.545
  447SOL     OW 2239   6.489   3.336   0.191
  447SOL    HW1 2240   6.545   3.316   0.110
  447SOL    HW2 2241   6.401   3.373   0.161
  448SOL     OW 2242   3.474   6.845   4.341
  448SOL    HW1 2243   3.560   6.810   4.302
  448SOL    HW2 2244   3.475   6.945   4.337
  449SOL     OW 2245   0.984   3.812   4.996
  449SOL    HW1 2246   1.046   3.781   4.923
  449SOL    HW2 2247   0.982   3.912   4.997
  450SOL     OW 2248   6.434   3.797   3.949
  450SOL    HW1 2249   6.375   3.741   4.006
  450SOL    HW2 2250   6.445   3.754   3.859
  451SOL     OW 2251   2.522   1.600   6.340
  451SOL    HW1 2252   2.524   1.618   6.439
  451SOL    HW2 2253   2.530   1.501   6.325
  452SOL     OW 2254   4.732   5.068   1.493
  452SOL    HW1 2255   4.765   5.070   1.399
  452SOL    HW2 2256   4.632   5.081   1.493
  453SOL     OW 2257   4.227   1.053   0.091
  453SOL    HW1 2258   4.247   1.150   0.078
  453SOL    HW2 2259   4.136   1.042   0.130
  454SOL     OW 2260   6.877   2.960   3.528
  454SOL    HW1 2261   6.923   2.904   3.598
  454SOL    HW2 2262   6.806   2.905   3.483
  455SOL     OW 2263   5.842   5.250   0.236
  455SOL    HW1 2264   5.870   5.240   0.332
  455SOL    HW2 2265   5.762   5.310   0.231
  456SOL     OW 2266   1.565   1.161   3.210
  456SOL    HW1 2267   1.572   1.184   3.307
  456SOL    HW2 2268   1.495   1.090   3.197
  457SOL     OW 2269   2.947   5.927   0.919
  457SOL    HW1 2270   3.003   5.875   0.984
  457SOL    HW2 2271   2.958   5.890   0.827
  458SOL     OW 2272   2.976   0.872   4.199
  458SOL    HW1 2273   2.959   0.851   4.102
  458SOL    HW2 2274   2.890   0.867   4.249
  459SOL     OW 2275   3.185   1.280   4.118
  459SOL    HW1 2276   3.158   1.227   4.038
  459SOL    HW2 2277   3.282   1.303   4.112
  460SOL     OW 2278   1.029   1.515   6.733
  460SOL    HW1 2279   0.959   1.453   6.697
  460SOL    HW2 2280   0.989   1.605   6.750
  461SOL     OW 2281   1.166   0.051   4.505
  461SOL    HW1 2282   1.207   0.067   4.595
  461SOL    HW2 2283   1.238   0.042   4.436
  462SOL     OW 2284   3.809   3.980   5.352
  462SOL    HW1 2285   3.884   4.028   5.307
  462SOL    HW2 2286   3.768   4.040   5.422
  463SOL     OW 2287   5.614   6.423   3.256
  463SOL    HW1 2288   5.569   6.377   3.333
  463SOL    HW2 2289   5.548   6.483   3.211
  464SOL     OW 2290   4.331   6.034   4.911
  464SOL    HW1 2291   4.303   5.938   4.917
  464SOL    HW2 2292   4.328   6.076   5.002
  465SOL     OW 2293   0.745   5.481   0.967
  465SOL    HW1 2294   0.807   5.540   0.915
  465SOL    HW2 2295   0.739   5.392   0.922
  466SOL     OW 2296   3.409   4.948   3.752
  466SOL    HW1 2297   3.466   4.973   3.831
  466SOL    HW2 2298   3.317   4.924   3.784
  467SOL     OW 2299   0.005   6.606   1.220
  467SOL    HW1 2300   6.926   6.578   1.211
  467SOL    HW2 2301   0.032   6.603   1.316
  468SOL     OW 2302   2.616   6.866   6.990
  468SOL    HW1 2303   2.670   6.846   0.055
  468SOL    HW2 2304   2.599   6.782   6.939
  469SOL     OW 2305   3.856   5.000   5.400
  469SOL    HW1 2306   3.918   5.055   5.345
  469SOL    HW2 2307   3.878   4.903   5.389
  470SOL     OW 2308   2.838   4.978   2.150
  470SOL    HW1 2309   2.818   4.939   2.060
  470SOL    HW2 2310   2.889   5.064   2.139
  471SOL     OW 2311   1.380   2.096   4.226
  471SOL    HW1 2312   1.447   2.026   4.247
  471SOL    HW2 2313   1.414   2.185   4.257
  472SOL     OW 2314   5.073   3.824   6.611
  472SOL    HW1 2315   5.020   3.904   6.582
  472SOL    HW2 2316   5.070   3.754   6.539
  473SOL     OW 2317   5.544   3.260   2.025
  473SOL    HW1 2318   5.545   3.172   2.072
  473SOL    HW2 2319   5.582   3.249   1.933
  474SOL     OW 2320   5.069   4.748   3.757
  474SOL    HW1 2321   5.051   4.846   3.752
  474SOL    HW2 2322   5.167   4.733   3.769
  475SOL     OW 2323   4.590   1.464   0.331
  475SOL    HW1 2324   4.600   1.528   0.406
  475SOL    HW2 2325   4.545   1.381   0.364
  476SOL     OW 2326   1.209   2.747   6.919
  476SOL    HW1 2327   1.268   2.783   6.991
  476SOL    HW2 2328   1.113   2.764   6.943
  477SOL     OW 2329   5.719   5.665   4.005
  477SOL    HW1 2330   5.735   5.571   3.974
  477SOL    HW2 2331   5.709   5.665   4.105
  478SOL     OW 2332   6.613   5.019   1.643
  478SOL    HW1 2333   6.611   4.981   1.550
  478SOL    HW2 2334   6.572   5.110   1.642
  479SOL     OW 2335   3.567   3.787   2.854
  479SOL    HW1 2336   3.496   3.831   2.799
  479SOL    HW2 2337   3.596   3.849   2.927
  480SOL     OW 2338   0.104   0.324   1.823
  480SOL    HW1 2339   0.170   0.367   1.884
  480SOL    HW2 2340   0.020   0.302   1.874
  481SOL     OW 2341   6.199   6.288   1.134
  481SOL    HW1 2342   6.246   6.201   1.145
  481SOL    HW2 2343   6.110   6.272   1.091
  482SOL     OW 2344   3.728   4.979   2.920
  482SOL    HW1 2345   3.753   4.950   2.828
  482SOL    HW2 2346   3.633   4.952   2.939
  483SOL     OW 2347   5.819   2.003   4.657
  483SOL    HW1 2348   5.762   2.049   4.725
  483SOL    HW2 2349   5.803   2.045   4.567
  484SOL     OW 2350   2.697   5.291   3.603
  484SOL    HW1 2351   2.789   5.327   3.613
  484SOL    HW2 2352   2.701   5.196   3.572
  485SOL     OW 2353   4.705   2.500   0.955
  485SOL    HW1 2354   4.636   2.514   1.027
  485SOL    HW2 2355   4.684   2.416   0.905
  486SOL     OW 2356   5.906   6.250   5.372
  486SOL    HW1 2357   5.943   6.340   5.393
  486SOL    HW2 2358   5.965   6.179   5.411
  487SOL     OW 2359   6.636   0.936   6.751
  487SOL    HW1 2360   6.602   0.990   6.675
  487SOL    HW2 2361   6.568   0.866   6.775
  488SOL     OW 2362   1.720   6.276   3.881
  488SOL    HW1 2363   1.632   6.232   3.900
  488SOL    HW2 2364   1.749   6.329   3.960
  489SOL     OW 2365   2.699   4.472   5.342
  489SOL    HW1 2366   2.722   4.409   5.416
  489SOL    HW2 2367   2.778   4.482   5.281
  490SOL     OW 2368   1.218   3.789   5.186
  490SOL    HW1 2369   1.252   3.882   5.170
  490SOL    HW2 2370   1.147   3.768   5.119
  491SOL     OW 2371   6.347   3.215   1.429
  491SOL    HW1 2372   6.377   3.123   1.406
  491SOL    HW2 2373   6.371   3.235   1.525
  492SOL     OW 2374   1.565   2.583   5.589
  492SOL    HW1 2375   1.556   2.631   5.677
  492SOL    HW2 2376   1.475   2.573   5.548
  493SOL     OW 2377   1.425   5.691   3.674
  493SOL    HW1 2378   1.392   5.699   3.768
  493SOL    HW2 2379   1.478   5.607   3.664
  494SOL     OW 2380   2.835   0.154   2.577
  494SOL    HW1 2381   2.897   0.228   2.552
  494SOL    HW2 2382   2.844   0.134   2.675
  495SOL     OW 2383   4.034   4.331   0.271
  495SOL    HW1 2384   3.995   4.413   0.314
  495SOL    HW2 2385   3.975   4.303   0.194
  496SOL     OW 2386   4.954   6.986   3.156
  496SOL    HW1 2387   5.028   0.035   3.147
  496SOL    HW2 2388   4.868   0.011   3.127
  497SOL     OW 2389   4.914   3.025   1.076
  497SOL    HW1 2390   4.862   3.107   1.098
  497SOL    HW2 2391   4.866   2.972   1.006
  498SOL     OW 2392   1.093   6.991   0.876
  498SOL    HW1 2393   1.102   6.927   0.952
  498SOL    HW2 2394   1.119   0.066   0.908
  499SOL     OW 2395   2.911   6.681   6.473
  499SOL    HW1 2396   2.987   6.625   6.440
  499SOL    HW2 2397   2.827   6.627   6.469
  500SOL     OW 2398   6.068   1.467   6.061
  500SOL    HW1 2399   6.045   1.418   6.145
  500SOL    HW2 2400   5.984   1.499   6.017
  501SOL     OW 2401   1.673   2.167   4.508
  501SOL    HW1 2402   1.711   2.214   4.588
  501SOL    HW2 2403   1.715   2.077   4.499
  502SOL     OW 2404   3.001   2.769   0.019
  502SOL    HW1 2405   2.957   2.680   0.028
  502SOL    HW2 2406   2.988   2.822   0.103
  503SOL     OW 2407   4.055   5.496   1.144
  503SOL    HW1 2408   4.109   5.429   1.095
  503SOL    HW2 2409   3.962   5.499   1.105
  504SOL     OW 2410   6.203   0.892   7.007
  504SOL    HW1 2411   6.158   0.870   0.076
  504SOL    HW2 2412   6.160   0.972   6.966
  505SOL     OW 2413   0.437   3.654   5.422
  505SOL    HW1 2414   0.428   3.719   5.498
  505SOL    HW2 2415   0.359   3.591   5.423
  506SOL     OW 2416   2.726   5.810   2.048
  506SOL    HW1 2417   2.787   5.857   2.112
  506SOL    HW2 2418   2.686   5.731   2.094
  507SOL     OW 2419   2.834   6.723   3.966
  507SOL    HW1 2420   2.913   6.779   3.941
  507SOL    HW2 2421   2.752   6.757   3.920
  508SOL     OW 2422   0.591   5.101   2.783
  508SOL    HW1 2423   0.537   5.016   2.776
  508SOL    HW2 2424   0.542   5.174   2.735
  509SOL     OW 2425   4.913   0.587   5.917
  509SOL    HW1 2426   4.923   0.679   5.881
  509SOL    HW2 2427   4.937   0.587   6.014
  510SOL     OW 2428   6.704   4.493   0.291
  510SOL    HW1 2429   6.670   4.580   0.258
  510SOL    HW2 2430   6.745   4.442   0.215
  511SOL     OW 2431   6.974   2.099   0.603
  511SOL    HW1 2432   6.941   2.107   0.696
  511SOL    HW2 2433   0.038   2.158   0.591
  512SOL     OW 2434   1.584   1.951   4.855
  512SOL    HW1 2435   1.550   1.924   4.766
  512SOL    HW2 2436   1.528   2.026   4.891
  513SOL     OW 2437   5.595   5.708   2.864
  513SOL    HW1 2438   5.578   5.610   2.865
  513SOL    HW2 2439   5.524   5.755   2.917
  514SOL     OW 2440   5.018   1.189   4.447
  514SOL    HW1 2441   4.946   1.238   4.397
  514SOL    HW2 2442   4.977   1.112   4.497
  515SOL     OW 2443   3.234   0.467   6.582
  515SOL    HW1 2444   3.238   0.478   6.482
  515SOL    HW2 2445   3.138   0.465   6.611
  516SOL     OW 2446   0.435   5.495   2.917
  516SOL    HW1 2447   0.499   5.569   2.897
  516SOL    HW2 2448   0.345   5.534   2.937
  517SOL     OW 2449   3.786   5.603   0.654
  517SOL    HW1 2450   3.847   5.614   0.576
  517SOL    HW2 2451   3.735   5.517   0.646
  518SOL     OW 2452   1.868   0.180   3.735
  518SOL    HW1 2453   1.772   0.162   3.711
  518SOL    HW2 2454   1.925   0.170   3.654
  519SOL     OW 2455   6.594   6.864   3.015
  519SOL    HW1 2456   6.648   6.936   2.971
  519SOL    HW2 2457   6.621   6.775   2.978
  520SOL     OW 2458   3.542   5.676   0.759
  520SOL    HW1 2459   3.529   5.682   0.858
  520SOL    HW2 2460   3.637   5.654   0.739
  521SOL     OW 2461   0.291   6.941   5.195
  521SOL    HW1 2462   0.318   6.852   5.159
  521SOL    HW2 2463   0.371   6.990   5.228
  522SOL     OW 2464   3.307   5.344   6.569
  522SOL    HW1 2465   3.355   5.273   6.621
  522SOL    HW2 2466   3.314   5.431   6.617
  523SOL     OW 2467   1.796   6.691   6.128
  523SOL    HW1 2468   1.755   6.782   6.135
  523SOL    HW2 2469   1.753   6.641   6.053
  524SOL     OW 2470   6.617   1.317   1.307
  524SOL    HW1 2471   6.543   1.265   1.351
  524SOL    HW2 2472   6.581   1.404   1.274
  525SOL     OW 2473   0.794   3.276   3.585
  525SOL    HW1 2474   0.803   3.332   3.504
  525SOL    HW2 2475   0.857   3.199   3.580
  526SOL     OW 2476   3.853   6.113   4.627
  526SOL    HW1 2477   3.928   6.171   4.659
  526SOL    HW2 2478   3.879   6.070   4.540
  527SOL     OW 2479   6.523   1.245   0.762
  527SOL    HW1 2480   6.605   1.188   0.753
  527SOL    HW2 2481   6.445   1.187   0.784
  528SOL     OW 2482   0.176   1.548   3.878
  528SOL    HW1 2483   0.246   1.582   3.941
  528SOL    HW2 2484   0.184   1.596   3.791
  529SOL     OW 2485   1.009   1.492   5.863
  529SOL    HW1 2486   0.933   1.556   5.874
  529SOL    HW2 2487   1.082   1.516   5.928
  530SOL     OW 2488   3.534   4.329   1.490
  530SOL    HW1 2489   3.572   4.310   1.580
  530SOL    HW2 2490   3.534   4.246   1.435
  531SOL     OW 2491   0.149   1.523   5.904
  531SOL    HW1 2492   0.172   1.570   5.990
  531SOL    HW2 2493   0.052   1.536   5.884
  532SOL     OW 2494   3.530   0.782   6.688
  532SOL    HW1 2495   3.526   0.741   6.596
  532SOL    HW2 2496   3.515   0.881   6.681
  533SOL     OW 2497   3.677   0.365   4.893
  533SOL    HW1 2498   3.755   0.427   4.906
  533SOL    HW2 2499   3.633   0.385   4.805
  534SOL     OW 2500   2.262   4.291   1.276
  534SOL    HW1 2501   2.289   4.272   1.182
  534SOL    HW2 2502   2.343   4.312   1.330
  535SOL     OW 2503   4.625   4.304   3.427
  535SOL    HW1 2504   4.594   4.350   3.511
  535SOL    HW2 2505   4.670   4.218   3.452
  536SOL     OW 2506   6.710   6.971   0.980
  536SOL    HW1 2507   6.758   6.980   0.893
  536SOL    HW2 2508   6.776   6.977   1.055
  537SOL     OW 2509   3.171   1.691   2.675
  537SOL    HW1 2510   3.265   1.688   2.639
  537SOL    HW2 2511   3.109   1.654   2.606
  538SOL     OW 2512   3.891   5.298   5.884
  538SOL    HW1 2513   3.920   5.352   5.963
  538SOL    HW2 2514   3.884   5.358   5.804
  539SOL     OW 2515   2.483   0.307   0.134
  539SOL    HW1 2516   2.389   0.271   0.134
  539SOL    HW2 2517   2.533   0.270   0.056
  540SOL     OW 2518   2.348   1.558   5.342
  540SOL    HW1 2519   2.325   1.645   5.299
  540SOL    HW2 2520   2.442   1.562   5.376
  541SOL     OW 2521   5.459   5.591   1.978
  541SOL    HW1 2522   5.530   5.554   2.037
  541SOL    HW2 2523   5.476   5.688   1.962
  542SOL     OW 2524   3.889   5.641   5.978
  542SOL    HW1 2525   3.882   5.741   5.971
  542SOL    HW2 2526   3.943   5.617   6.059
  543SOL     OW 2527   6.716   1.990   4.990
  543SOL    HW1 2528   6.795   2.050   5.004
  543SOL    HW2 2529   6.702   1.975   4.892
  544SOL     OW 2530   1.184   2.331   1.408
  544SOL    HW1 2531   1.120   2.345   1.484
  544SOL    HW2 2532   1.137   2.285   1.333
  545SOL     OW 2533   0.059   5.519   0.607
  545SOL    HW1 2534   0.060   5.425   0.639
  545SOL    HW2 2535   0.106   5.525   0.519
  546SOL     OW 2536   6.498   6.117   2.986
  546SOL    HW1 2537   6.409   6.106   2.941
  546SOL    HW2 2538   6.558   6.173   2.929
  547SOL     OW 2539   3.684   6.069   6.960
  547SOL    HW1 2540   3.610   6.084   0.008
  547SOL    HW2 2541   3.720   6.157   6.928
  548SOL     OW 2542   4.064   3.044   6.525
  548SOL    HW1 2543   4.093   3.003   6.611
  548SOL    HW2 2544   3.968   3.071   6.532
  549SOL     OW 2545   5.479   2.643   3.612
  549SOL    HW1 2546   5.428   2.723   3.643
  549SOL    HW2 2547   5.417   2.580   3.566
  550SOL     OW 2548   0.215   5.422   3.803
  550SOL    HW1 2549   0.291   5.387   3.857
  550SOL    HW2 2550   0.239   5.418   3.706
  551SOL     OW 2551   5.336   0.708   0.358
  551SOL    HW1 2552   5.387   0.779   0.407
  551SOL    HW2 2553   5.381   0.688   0.271
  552SOL     OW 2554   0.739   0.533   4.715
  552SOL    HW1 2555   0.745   0.433   4.713
  552SOL    HW2 2556   0.812   0.572   4.659
  553SOL     OW 2557   3.933   2.325   5.310
  553SOL    HW1 2558   4.005   2.385   5.275
  553SOL    HW2 2559   3.885   2.371   5.384
  554SOL     OW 2560   0.260   5.043   0.508
  554SOL    HW1 2561   0.265   5.111   0.434
  554SOL    HW2 2562   0.344   5.047   0.563
  555SOL     OW 2563   3.588   4.874   6.010
  555SOL    HW1 2564   3.498   4.881   5.966
  555SOL    HW2 2565   3.650   4.822   5.952
  556SOL     OW 2566   5.705   6.057   3.346
  556SOL    HW1 2567   5.715   5.959   3.330
  556SOL    HW2 2568   5.677   6.073   3.441
  557SOL     OW 2569   6.683   3.580   0.204
  557SOL    HW1 2570   6.759   3.525   0.238
  557SOL    HW2 2571   6.597   3.532   0.220
  558SOL     OW 2572   3.342   3.337   1.964
  558SOL    HW1 2573   3.374   3.405   2.030
  558SOL    HW2 2574   3.253   3.301   1.994
  559SOL     OW 2575   6.263   0.915   6.241
  559SOL    HW1 2576   6.299   0.990   6.186
  559SOL    HW2 2577   6.292   0.926   6.336
  560SOL     OW 2578   1.810   2.395   3.364
  560SOL    HW1 2579   1.879   2.348   3.308
  560SOL    HW2 2580   1.848   2.415   3.454
  561SOL     OW 2581   0.126   3.969   0.250
  561SOL    HW1 2582   0.056   3.910   0.208
  561SOL    HW2 2583   0.084   4.023   0.323
  562SOL     OW 2584   3.309   5.998   3.503
  562SOL    HW1 2585   3.370   6.076   3.492
  562SOL    HW2 2586   3.362   5.917   3.527
  563SOL     OW 2587   0.764   1.141   4.111
  563SOL    HW1 2588   0.801   1.082   4.039
  563SOL    HW2 2589   0.677   1.105   4.142
  564SOL     OW 2590   6.131   1.788   5.789
  564SOL    HW1 2591   6.148   1.870   5.735
  564SOL    HW2 2592   6.064   1.730   5.742
  565SOL     OW 2593   3.392   3.485   3.656
  565SOL    HW1 2594   3.304   3.516   3.619
  565SOL    HW2 2595   3.402   3.518   3.750
  566SOL     OW 2596   1.167   2.704   3.514
  566SOL    HW1 2597   1.165   2.606   3.497
  566SOL    HW2 2598   1.079   2.733   3.552
  567SOL     OW 2599   1.547   3.139   5.203
  567SOL    HW1 2600   1.545   3.053   5.254
  567SOL    HW2 2601   1.533   3.215   5.266
  568SOL     OW 2602   1.097   0.533   6.745
  568SOL    HW1 2603   1.105   0.450   6.689
  568SOL    HW2 2604   1.008   0.575   6.729
  569SOL     OW 2605   5.201   3.434   5.230
  569SOL    HW1 2606   5.243   3.404   5.144
  569SOL    HW2 2607   5.270   3.434   5.302
  570SOL     OW 2608   3.331   0.408   5.843
  570SOL    HW1 2609   3.239   0.368   5.843
  570SOL    HW2 2610   3.341   0.465   5.924
  571SOL     OW 2611   2.369   4.351   2.088
  571SOL    HW1 2612   2.406   4.383   2.175
  571SOL    HW2 2613   2.378   4.423   2.019
  572SOL     OW 2614   2.778   1.576   4.970
  572SOL    HW1 2615   2.708   1.605   5.034
  572SOL    HW2 2616   2.846   1.649   4.959
  573SOL     OW 2617   0.591   6.879   5.798
  573SOL    HW1 2618   0.501   6.886   5.841
  573SOL    HW2 2619   0.654   6.943   5.843
  574SOL     OW 2620   2.416   0.716   5.751
  574SOL    HW1 2621   2.493   0.732   5.812
  574SOL    HW2 2622   2.338   0.772   5.779
  575SOL     OW 2623   4.142   3.547   0.484
  575SOL    HW1 2624   4.112   3.557   0.389
  575SOL    HW2 2625   4.062   3.546   0.544
  576SOL     OW 2626   6.881   0.564   3.501
  576SOL    HW1 2627   6.909   0.660   3.501
  576SOL    HW2 2628   6.786   0.557   3.469
  577SOL     OW 2629   0.084   0.119   2.211
  577SOL    HW1 2630   0.158   0.076   2.159
  577SOL    HW2 2631   0.079   0.078   2.302
  578SOL     OW 2632   3.985   6.654   0.882
  578SOL    HW1 2633   4.060   6.656   0.947
  578SOL    HW2 2634   3.988   6.736   0.825
  579SOL     OW 2635   0.527   4.031   1.779
  579SOL    HW1 2636   0.523   3.956   1.845
  579SOL    HW2 2637   0.595   4.009   1.708
  580SOL     OW 2638   4.503   4.879   4.928
  580SOL    HW1 2639   4.570   4.951   4.949
  580SOL    HW2 2640   4.429   4.882   4.995
  581SOL     OW 2641   2.601   2.441   3.884
  581SOL    HW1 2642   2.631   2.347   3.902
  581SOL    HW2 2643   2.638   2.471   3.796
  582SOL     OW 2644   5.396   4.080   4.766
  582SOL    HW1 2645   5.373   4.173   4.737
  582SOL    HW2 2646   5.361   4.063   4.858
  583SOL     OW 2647   3.278   5.665   5.662
  583SOL    HW1 2648   3.301   5.568   5.669
  583SOL    HW2 2649   3.345   5.718   5.714
  584SOL     OW 2650   3.666   0.611   5.238
  584SOL    HW1 2651   3.734   0.684   5.246
  584SOL    HW2 2652   3.706   0.525   5.271
  585SOL     OW 2653   3.709   6.409   1.729
  585SOL    HW1 2654   3.699   6.501   1.689
  585SOL    HW2 2655   3.798   6.372   1.703
  586SOL     OW 2656   3.758   0.336   0.827
  586SOL    HW1 2657   3.791   0.249   0.864
  586SOL    HW2 2658   3.691   0.318   0.756
  587SOL     OW 2659   4.760   0.603   2.795
  587SOL    HW1 2660   4.743   0.650   2.708
  587SOL    HW2 2661   4.812   0.663   2.856
  588SOL     OW 2662   2.217   4.102   2.654
  588SOL    HW1 2663   2.270   4.132   2.575
  588SOL    HW2 2664   2.167   4.019   2.630
  589SOL     OW 2665   3.286   4.470   6.162
  589SOL    HW1 2666   3.216   4.515   6.216
  589SOL    HW2 2667   3.342   4.411   6.221
  590SOL     OW 2668   2.396   1.877   5.814
  590SOL    HW1 2669   2.402   1.905   5.910
  590SOL    HW2 2670   2.302   1.850   5.793
  591SOL     OW 2671   2.867   0.351   4.159
  591SOL    HW1 2672   2.834   0.428   4.215
  591SOL    HW2 2673   2.803   0.275   4.167
  592SOL     OW 2674   4.510   2.127   4.291
  592SOL    HW1 2675   4.413   2.107   4.273
  592SOL    HW2 2676   4.539   2.203   4.234
  593SOL     OW 2677   1.516   0.082   0.205
  593SOL    HW1 2678   1.437   0.141   0.189
  593SOL    HW2 2679   1.570   0.118   0.282
  594SOL     OW 2680   3.255   1.158   5.316
  594SOL    HW1 2681   3.194   1.233   5.293
  594SOL    HW2 2682   3.218   1.107   5.393
  595SOL     OW 2683   6.364   3.899   2.434
  595SOL    HW1 2684   6.347   3.998   2.425
  595SOL    HW2 2685   6.395   3.863   2.346
  596SOL     OW 2686   6.401   4.591   4.412
  596SOL    HW1 2687   6.378   4.656   4.340
  596SOL    HW2 2688   6.422   4.502   4.371
  597SOL     OW 2689   3.995   1.588   6.655
  597SOL    HW1 2690   3.981   1.681   6.689
  597SOL    HW2 2691   3.993   1.525   6.732
  598SOL     OW 2692   3.213   2.939   2.282
  598SOL    HW1 2693   3.228   2.918   2.185
  598SOL    HW2 2694   3.293   2.911   2.335
  599SOL     OW 2695   1.828   4.746   1.445
  599SOL    HW1 2696   1.760   4.683   1.407
  599SOL    HW2 2697   1.900   4.762   1.378
  600SOL     OW 2698   0.354   3.284   5.962
  600SOL    HW1 2699   0.367   3.213   6.031
  600SOL    HW2 2700   0.340   3.241   5.872
  601SOL     OW 2701   0.129   0.015   5.682
  601SOL    HW1 2702   0.074   0.044   5.604
  601SOL    HW2 2703   0.121   0.083   5.755
  602SOL     OW 2704   0.432   0.580   3.115
  602SOL    HW1 2705   0.441   0.675   3.146
  602SOL    HW2 2706   0.336   0.553   3.121
  603SOL     OW 2707   1.457   1.724   3.739
  603SOL    HW1 2708   1.509   1.647   3.701
  603SOL    HW2 2709   1.426   1.701   3.831
  604SOL     OW 2710   5.417   1.908   0.815
  604SOL    HW1 2711   5.370   1.891   0.901
  604SOL    HW2 2712   5.363   1.870   0.739
  605SOL     OW 2713   5.430   6.509   2.056
  605SOL    HW1 2714   5.370   6.503   1.976
  605SOL    HW2 2715   5.375   6.510   2.139
  606SOL     OW 2716   3.115   6.390   5.276
  606SOL    HW1 2717   3.017   6.374   5.290
  606SOL    HW2 2718   3.129   6.432   5.186
  607SOL     OW 2719   1.690   3.427   6.021
  607SOL    HW1 2720   1.661   3.513   5.980
  607SOL    HW2 2721   1.770   3.392   5.972
  608SOL     OW 2722   2.946   1.284   6.969
  608SOL    HW1 2723   3.002   1.326   6.897
  608SOL    HW2 2724   2.928   1.351   0.024
  609SOL     OW 2725   3.935   3.092   2.497
  609SOL    HW1 2726   3.950   3.146   2.414
  609SOL    HW2 2727   3.997   3.124   2.569
  610SOL     OW 2728   5.053   2.748   2.118
  610SOL    HW1 2729   5.135   2.715   2.070
  610SOL    HW2 2730   5.080   2.814   2.189
  611SOL     OW 2731   3.643   1.441   2.058
  611SOL    HW1 2732   3.724   1.498   2.070
  611SOL    HW2 2733   3.570   1.495   2.015
  612SOL     OW 2734   4.230   5.371   4.350
  612SOL    HW1 2735   4.165   5.335   4.417
  612SOL    HW2 2736   4.320   5.332   4.366
  613SOL     OW 2737   3.923   5.584   6.553
  613SOL    HW1 2738   3.902   5.630   6.466
  613SOL    HW2 2739   3.838   5.570   6.604
  614SOL     OW 2740   3.452   6.075   6.084
  614SOL    HW1 2741   3.489   6.159   6.126
  614SOL    HW2 2742   3.383   6.100   6.016
  615SOL     OW 2743   6.629   5.088   3.505
  615SOL    HW1 2744   6.630   5.016   3.574
  615SOL    HW2 2745   6.700   5.156   3.526
  616SOL     OW 2746   5.870   2.562   3.802
  616SOL    HW1 2747   5.934   2.578   3.877
  616SOL    HW2 2748   5.819   2.478   3.818
  617SOL     OW 2749   2.245   0.529   6.094
  617SOL    HW1 2750   2.242   0.602   6.162
  617SOL    HW2 2751   2.276   0.445   6.137
  618SOL     OW 2752   2.190   0.585   2.754
  618SOL    HW1 2753   2.106   0.543   2.789
  618SOL    HW2 2754   2.236   0.521   2.692
  619SOL     OW 2755   1.009   2.271   6.676
  619SOL    HW1 2756   0.942   2.210   6.635
  619SOL    HW2 2757   0.981   2.294   6.769
  620SOL     OW 2758   4.632   3.953   0.750
  620SOL    HW1 2759   4.572   4.030   0.773
  620SOL    HW2 2760   4.687   3.929   0.829
  621SOL     OW 2761   0.118   6.054   1.177
  621SOL    HW1 2762   0.200   6.043   1.232
  621SOL    HW2 2763   0.140   6.100   1.091
  622SOL     OW 2764   0.976   1.158   6.552
  622SOL    HW1 2765   1.037   1.092   6.595
  622SOL    HW2 2766   0.934   1.215   6.623
  623SOL     OW 2767   6.520   6.060   5.399
  623SOL    HW1 2768   6.481   6.045   5.308
  623SOL    HW2 2769   6.453   6.108   5.456
  624SOL     OW 2770   7.011   1.583   1.263
  624SOL    HW1 2771   6.964   1.495   1.264
  624SOL    HW2 2772   6.997   1.627   1.174
  625SOL     OW 2773   1.314   0.827   1.860
  625SOL    HW1 2774   1.391   0.885   1.835
  625SOL    HW2 2775   1.259   0.873   1.929
  626SOL     OW 2776   3.698   5.289   5.104
  626SOL    HW1 2777   3.746   5.346   5.170
  626SOL    HW2 2778   3.655   5.348   5.035
  627SOL     OW 2779   4.318   5.788   0.331
  627SOL    HW1 2780   4.218   5.786   0.327
  627SOL    HW2 2781   4.355   5.746   0.249
  628SOL     OW 2782   4.932   3.656   3.853
  628SOL    HW1 2783   5.029   3.630   3.857
  628SOL    HW2 2784   4.892   3.622   3.768
  629SOL     OW 2785   1.539   6.746   1.267
  629SOL    HW1 2786   1.591   6.712   1.189
  629SOL    HW2 2787   1.509   6.839   1.249
  630SOL     OW 2788   2.690   1.410   1.996
  630SOL    HW1 2789   2.606   1.395   1.944
  630SOL    HW2 2790   2.687   1.358   2.081
  631SOL     OW 2791   2.342   1.492   4.251
  631SOL    HW1 2792   2.256   1.446   4.228
  631SOL    HW2 2793   2.401   1.495   4.171
  632SOL     OW 2794   3.198   0.946   0.343
  632SOL    HW1 2795   3.246   0.974   0.426
  632SOL    HW2 2796   3.165   1.027   0.294
  633SOL     OW 2797   1.976   0.372   4.553
  633SOL    HW1 2798   2.025   0.387   4.467
  633SOL    HW2 2799   1.963   0.274   4.567
  634SOL     OW 2800   2.974   5.592   1.949
  634SOL    HW1 2801   2.894   5.623   1.898
  634SOL    HW2 2802   2.963   5.616   2.045
  635SOL     OW 2803   3.285   0.275   2.017
  635SOL    HW1 2804   3.223   0.228   1.954
  635SOL    HW2 2805   3.306   0.215   2.094
  636SOL     OW 2806   5.103   4.798   6.804
  636SOL    HW1 2807   5.111   4.895   6.829
  636SOL    HW2 2808   5.184   4.749   6.837
  637SOL     OW 2809   5.989   4.993   6.168
  637SOL    HW1 2810   5.963   5.057   6.097
  637SOL    HW2 2811   5.907   4.953   6.209
  638SOL     OW 2812   5.684   1.897   3.539
  638SOL    HW1 2813   5.621   1.850   3.477
  638SOL    HW2 2814   5.720   1.832   3.606
  639SOL     OW 2815   3.759   3.663   1.613
  639SOL    HW1 2816   3.672   3.706   1.589
  639SOL    HW2 2817   3.792   3.700   1.699
  640SOL     OW 2818   2.940   2.463   5.362
  640SOL    HW1 2819   2.996   2.416   5.293
  640SOL    HW2 2820   2.999   2.522   5.418
  641SOL     OW 2821   0.097   0.142   4.976
  641SOL    HW1 2822   0.184   0.138   5.026
  641SOL    HW2 2823   0.112   0.185   4.887
  642SOL     OW 2824   0.351   4.576   5.852
  642SOL    HW1 2825   0.385   4.669   5.838
  642SOL    HW2 2826   0.392   4.537   5.935
  643SOL     OW 2827   5.460   6.361   4.607
  643SOL    HW1 2828   5.511   6.444   4.585
  643SOL    HW2 2829   5.375   6.385   4.653
  644SOL     OW 2830   3.328   5.911   1.677
  644SOL    HW1 2831   3.266   5.922   1.754
  644SOL    HW2 2832   3.320   5.818   1.641
  645SOL     OW 2833   0.758   2.973   2.839
  645SOL    HW1 2834   0.739   2.946   2.933
  645SOL    HW2 2835   0.676   3.013   2.798
  646SOL     OW 2836   1.750   3.246   4.321
  646SOL    HW1 2837   1.817   3.179   4.290
  646SOL    HW2 2838   1.692   3.206   4.392
  647SOL     OW 2839   5.655   4.955   0.443
  647SOL    HW1 2840   5.631   4.860   0.463
  647SOL    HW2 2841   5.575   5.013   0.454
  648SOL     OW 2842   4.134   2.294   4.029
  648SOL    HW1 2843   4.034   2.295   4.020
  648SOL    HW2 2844   4.174   2.359   3.964
  649SOL     OW 2845   3.963   4.582   1.499
  649SOL    HW1 2846   3.997   4.577   1.593
  649SOL    HW2 2847   4.020   4.645   1.446
  650SOL     OW 2848   5.612   5.435   0.165
  650SOL    HW1 2849   5.587   5.342   0.190
  650SOL    HW2 2850   5.534   5.496   0.180
  651SOL     OW 2851   1.326   5.739   6.215
  651SOL    HW1 2852   1.380   5.676   6.270
  651SOL    HW2 2853   1.357   5.833   6.232
  652SOL     OW 2854   5.035   2.857   1.242
  652SOL    HW1 2855   4.999   2.930   1.184
  652SOL    HW2 2856   5.129   2.835   1.213
  653SOL     OW 2857   3.534   5.231   3.157
  653SOL    HW1 2858   3.577   5.189   3.076
  653SOL    HW2 2859   3.564   5.183   3.239
  654SOL     OW 2860   0.075   5.396   6.948
  654SOL    HW1 2861   0.017   5.364   6.873
  654SOL    HW2 2862   0.121   5.318   6.990
  655SOL     OW 2863   1.832   1.667   0.726
  655SOL    HW1 2864   1.798   1.647   0.818
  655SOL    HW2 2865   1.929   1.691   0.731
  656SOL     OW 2866   1.816   6.832   1.092
  656SOL    HW1 2867   1.790   6.870   1.003
  656SOL    HW2 2868   1.915   6.824   1.098
  657SOL     OW 2869   3.956   0.231   6.874
  657SOL    HW1 2870   4.003   0.161   6.928
  657SOL    HW2 2871   3.940   0.311   6.931
  658SOL     OW 2872   3.484   5.634   0.232
  658SOL    HW1 2873   3.533   5.550   0.209
  658SOL    HW2 2874   3.440   5.671   0.151
  659SOL     OW 2875   3.839   0.283   6.310
  659SOL    HW1 2876   3.769   0.319   6.371
  659SOL    HW2 2877   3.853   0.186   6.328
  660SOL     OW 2878   2.804   6.774   3.636
  660SOL    HW1 2879   2.824   6.857   3.688
  660SOL    HW2 2880   2.851   6.779   3.548
  661SOL     OW 2881   6.725   4.849   2.867
  661SOL    HW1 2882   6.629   4.835   2.843
  661SOL    HW2 2883   6.741   4.947   2.882
  662SOL     OW 2884   4.426   2.274   6.849
  662SOL    HW1 2885   4.446   2.357   6.901
  662SOL    HW2 2886   4.478   2.198   6.888
  663SOL     OW 2887   1.398   4.259   4.650
  663SOL    HW1 2888   1.424   4.183   4.590
  663SOL    HW2 2889   1.480   4.307   4.681
  664SOL     OW 2890   5.903   6.643   6.158
  664SOL    HW1 2891   5.851   6.558   6.164
  664SOL    HW2 2892   5.990   6.625   6.113
  665SOL     OW 2893   1.869   4.011   2.214
  665SOL    HW1 2894   1.785   3.978   2.257
  665SOL    HW2 2895   1.938   3.939   2.215
  666SOL     OW 2896   4.177   0.699   2.614
  666SOL    HW1 2897   4.252   0.643   2.577
  666SOL    HW2 2898   4.133   0.650   2.689
  667SOL     OW 2899   0.168   0.516   1.270
  667SOL    HW1 2900   0.182   0.465   1.185
  667SOL    HW2 2901   0.253   0.521   1.322
  668SOL     OW 2902   5.078   3.217   6.650
  668SOL    HW1 2903   5.074   3.192   6.554
  668SOL    HW2 2904   5.152   3.282   6.665
  669SOL     OW 2905   5.273   1.387   2.999
  669SOL    HW1 2906   5.353   1.383   2.939
  669SOL    HW2 2907   5.222   1.471   2.981
  670SOL     OW 2908   4.034   1.872   2.064
  670SOL    HW1 2909   3.976   1.792   2.074
  670SOL    HW2 2910   3.979   1.950   2.034
  671SOL     OW 2911   1.185   5.735   1.925
  671SOL    HW1 2912   1.199   5.770   1.832
  671SOL    HW2 2913   1.250   5.662   1.944
  672SOL     OW 2914   0.478   0.024   1.056
  672SOL    HW1 2915   0.508   6.946   1.070
  672SOL    HW2 2916   0.417   0.050   1.131
  673SOL     OW 2917   6.175   6.883   6.269
  673SOL    HW1 2918   6.079   6.899   6.244
  673SOL    HW2 2919   6.227   6.967   6.255
  674SOL     OW 2920   5.081   6.804   4.559
  674SOL    HW1 2921   5.174   6.770   4.546
  674SOL    HW2 2922   5.018   6.752   4.502
  675SOL     OW 2923   1.287   5.285   2.551
  675SOL    HW1 2924   1.349   5.349   2.595
  675SOL    HW2 2925   1.284   5.304   2.453
  676SOL     OW 2926   2.429   5.768   6.735
  676SOL    HW1 2927   2.393   5.684   6.774
  676SOL    HW2 2928   2.529   5.762   6.727
  677SOL     OW 2929   5.656   0.579   1.322
  677SOL    HW1 2930   5.742   0.628   1.308
  677SOL    HW2 2931   5.672   0.481   1.312
  678SOL     OW 2932   0.562   5.317   4.145
  678SOL    HW1 2933   0.472   5.348   4.175
  678SOL    HW2 2934   0.632   5.381   4.179
  679SOL     OW 2935   5.572   1.094   5.857
  679SOL    HW1 2936   5.500   1.164   5.849
  679SOL    HW2 2937   5.607   1.072   5.766
  680SOL     OW 2938   5.718   0.017   4.416
  680SOL    HW1 2939   5.657   6.993   4.348
  680SOL    HW2 2940   5.813   7.011   4.392
  681SOL     OW 2941   4.428   4.550   2.782
  681SOL    HW1 2942   4.506   4.489   2.795
  681SOL    HW2 2943   4.403   4.552   2.685
  682SOL     OW 2944   6.025   1.206   3.014
  682SOL    HW1 2945   5.975   1.237   2.933
  682SOL    HW2 2946   6.102   1.267   3.032
  683SOL     OW 2947   3.321   5.252   6.923
  683SOL    HW1 2948   3.384   5.255   7.000
  683SOL    HW2 2949   3.254   5.327   6.931
  684SOL     OW 2950   5.952   1.927   6.347
  684SOL    HW1 2951   5.960   1.924   6.247
  684SOL    HW2 2952   5.989   2.014   6.380
  685SOL     OW 2953   3.281   6.682   3.504
  685SOL    HW1 2954   3.329   6.624   3.571
  685SOL    HW2 2955   3.183   6.663   3.508
  686SOL     OW 2956   3.476   0.759   5.550
  686SOL    HW1 2957   3.425   0.676   5.574
  686SOL    HW2 2958   3.571   0.749   5.579
  687SOL     OW 2959   0.428   0.812   4.371
  687SOL    HW1 2960   0.513   0.854   4.403
  687SOL    HW2 2961   0.377   0.776   4.449
  688SOL     OW 2962   5.022   3.811   6.884
  688SOL    HW1 2963   5.027   3.810   6.784
  688SOL    HW2 2964   5.092   3.751   6.922
  689SOL     OW 2965   2.646   5.736   0.176
  689SOL    HW1 2966   2.690   5.730   0.266
  689SOL    HW2 2967   2.663   5.826   0.137
  690SOL     OW 2968   5.802   3.767   3.922
  690SOL    HW1 2969   5.801   3.849   3.866
  690SOL    HW2 2970   5.779   3.687   3.866
  691SOL     OW 2971   5.281   0.458   2.669
  691SOL    HW1 2972   5.185   0.484   2.679
  691SOL    HW2 2973   5.336   0.538   2.647
  692SOL     OW 2974   1.164   0.396   3.311
  692SOL    HW1 2975   1.212   0.329   3.255
  692SOL    HW2 2976   1.189   0.489   3.282
  693SOL     OW 2977   5.965   4.183   2.139
  693SOL    HW1 2978   5.975   4.219   2.232
  693SOL    HW2 2979   6.046   4.131   2.114
  694SOL     OW 2980   4.502   4.470   4.290
  694SOL    HW1 2981   4.517   4.495   4.385
  694SOL    HW2 2982   4.551   4.385   4.269
  695SOL     OW 2983   4.600   6.995   4.003
  695SOL    HW1 2984   4.575   0.025   4.088
  695SOL    HW2 2985   4.630   0.045   3.935
  696SOL     OW 2986   6.864   4.635   1.851
  696SOL    HW1 2987   6.905   4.726   1.860
  696SOL    HW2 2988   6.890   4.595   1.763
  697SOL     OW 2989   0.212   6.161   3.400
  697SOL    HW1 2990   0.115   6.151   3.380
  697SOL    HW2 2991   0.265   6.128   3.322
  698SOL     OW 2992   5.840   6.387   5.687
  698SOL    HW1 2993   5.934   6.418   5.670
  698SOL    HW2 2994   5.781   6.417   5.613
  699SOL     OW 2995   3.963   2.979   0.597
  699SOL    HW1 2996   4.015   2.955   0.515
  699SOL    HW2 2997   4.017   3.043   0.652
  700SOL     OW 2998   3.813   6.533   5.598
  700SOL    HW1 2999   3.903   6.491   5.585
  700SOL    HW2 3000   3.814   6.626   5.562
  701SOL     OW 3001   4.595   4.479   1.815
  701SOL    HW1 3002   4.589   4.522   1.906
  701SOL    HW2 3003   4.564   4.384   1.821
  702SOL     OW 3004   4.110   0.729   5.122
  702SOL    HW1 3005   4.201   0.756   5.092
  702SOL    HW2 3006   4.043   0.759   5.054
  703SOL     OW 3007   3.746   2.826   0.701
  703SOL    HW1 3008   3.795   2.879   0.631
  703SOL    HW2 3009   3.746   2.876   0.787
  704SOL     OW 3010   3.945   1.975   0.279
  704SOL    HW1 3011   3.907   1.883   0.290
  704SOL    HW2 3012   3.963   1.991   0.182
  705SOL     OW 3013   6.994   6.481   5.933
  705SOL    HW1 3014   6.899   6.465   5.907
  705SOL    HW2 3015   0.026   6.394   5.934
  706SOL     OW 3016   4.011   0.199   5.043
  706SOL    HW1 3017   3.917   0.171   5.026
  706SOL    HW2 3018   4.014   0.297   5.062
  707SOL     OW 3019   3.208   4.918   4.119
  707SOL    HW1 3020   3.221   4.836   4.175
  707SOL    HW2 3021   3.288   4.977   4.128
  708SOL     OW 3022   3.046   6.323   4.188
  708SOL    HW1 3023   2.957   6.281   4.207
  708SOL    HW2 3024   3.118   6.268   4.231
  709SOL     OW 3025   2.110   6.865   1.782
  709SOL    HW1 3026   2.182   6.877   1.713
  709SOL    HW2 3027   2.121   6.934   1.853
  710SOL     OW 3028   4.883   2.533   2.321
  710SOL    HW1 3029   4.784   2.544   2.330
  710SOL    HW2 3030   4.929   2.608   2.369
  711SOL     OW 3031   6.964   1.156   1.088
  711SOL    HW1 3032   6.985   1.080   1.027
  711SOL    HW2 3033   6.896   1.126   1.156
  712SOL     OW 3034   4.576   4.464   6.939
  712SOL    HW1 3035   4.649   4.404   6.971
  712SOL    HW2 3036   4.558   4.535   7.007
  713SOL     OW 3037   4.016   2.742   5.865
  713SOL    HW1 3038   4.062   2.830   5.877
  713SOL    HW2 3039   3.999   2.701   5.955
  714SOL     OW 3040   4.238   6.683   3.129
  714SOL    HW1 3041   4.239   6.752   3.056
  714SOL    HW2 3042   4.190   6.602   3.097
  715SOL     OW 3043   6.090   4.190   5.528
  715SOL    HW1 3044   6.146   4.217   5.606
  715SOL    HW2 3045   6.085   4.265   5.462
  716SOL     OW 3046   3.256   1.604   3.471
  716SOL    HW1 3047   3.353   1.625   3.484
  716SOL    HW2 3048   3.216   1.669   3.406
  717SOL     OW 3049   5.491   4.544   3.369
  717SOL    HW1 3050   5.415   4.490   3.333
  717SOL    HW2 3051   5.511   4.621   3.308
  718SOL     OW 3052   6.566   1.952   5.395
  718SOL    HW1 3053   6.643   2.006   5.362
  718SOL    HW2 3054   6.593   1.903   5.478
  719SOL     OW 3055   4.706   5.378   2.456
  719SOL    HW1 3056   4.786   5.435   2.475
  719SOL    HW2 3057   4.659   5.356   2.542
  720SOL     OW 3058   2.805   1.632   1.179
  720SOL    HW1 3059   2.859   1.694   1.235
  720SOL    HW2 3060   2.767   1.681   1.101
  721SOL     OW 3061   0.268   2.846   2.494
  721SOL    HW1 3062   0.343   2.895   2.448
  721SOL    HW2 3063   0.268   2.750   2.465
  722SOL     OW 3064   5.272   6.434   1.832
  722SOL    HW1 3065   5.268   6.344   1.874
  722SOL    HW2 3066   5.358   6.443   1.780
  723SOL     OW 3067   2.229   0.502   4.579
  723SOL    HW1 3068   2.242   0.595   4.614
  723SOL    HW2 3069   2.236   0.503   4.479
  724SOL     OW 3070   1.268   2.840   4.628
  724SOL    HW1 3071   1.246   2.914   4.692
  724SOL    HW2 3072   1.302   2.761   4.680
  725SOL     OW 3073   1.624   4.511   3.393
  725SOL    HW1 3074   1.598   4.537   3.300
  725SOL    HW2 3075   1.673   4.424   3.391
  726SOL     OW 3076   2.323   3.623   0.358
  726SOL    HW1 3077   2.375   3.705   0.336
  726SOL    HW2 3078   2.372   3.542   0.325
  727SOL     OW 3079   3.918   5.178   4.985
  727SOL    HW1 3080   3.834   5.207   5.030
  727SOL    HW2 3081   3.989   5.248   4.998
  728SOL     OW 3082   6.148   3.580   3.461
  728SOL    HW1 3083   6.173   3.649   3.529
  728SOL    HW2 3084   6.136   3.624   3.372
  729SOL     OW 3085   0.883   4.971   0.439
  729SOL    HW1 3086   0.880   5.060   0.393
  729SOL    HW2 3087   0.826   4.973   0.521
  730SOL     OW 3088   4.158   1.545   3.169
  730SOL    HW1 3089   4.165   1.452   3.133
  730SOL    HW2 3090   4.230   1.602   3.129
  731SOL     OW 3091   4.849   4.511   4.848
  731SOL    HW1 3092   4.909   4.545   4.775
  731SOL    HW2 3093   4.905   4.463   4.917
  732SOL     OW 3094   4.631   1.029   4.350
  732SOL    HW1 3095   4.723   0.989   4.349
  732SOL    HW2 3096   4.611   1.063   4.442
  733SOL     OW 3097   0.623   4.950   4.504
  733SOL    HW1 3098   0.546   4.949   4.441
  733SOL    HW2 3099   0.611   4.878   4.573
  734SOL     OW 3100   6.078   5.750   3.253
  734SOL    HW1 3101   6.014   5.797   3.192
  734SOL    HW2 3102   6.038   5.663   3.284
  735SOL     OW 3103   4.605   0.376   2.864
  735SOL    HW1 3104   4.679   0.443   2.854
  735SOL    HW2 3105   4.526   0.420   2.908
  736SOL     OW 3106   2.110   1.751   3.374
  736SOL    HW1 3107   2.022   1.705   3.389
  736SOL    HW2 3108   2.096   1.832   3.318
  737SOL     OW 3109   3.626   1.329   6.284
  737SOL    HW1 3110   3.598   1.302   6.192
  737SOL    HW2 3111   3.721   1.303   6.299
  738SOL     OW 3112   1.439   5.437   0.226
  738SOL    HW1 3113   1.433   5.386   0.312
  738SOL    HW2 3114   1.400   5.383   0.152
  739SOL     OW 3115   1.601   0.612   2.940
  739SOL    HW1 3116   1.611   0.531   2.882
  739SOL    HW2 3117   1.690   0.655   2.954
  740SOL     OW 3118   4.593   2.406   2.794
  740SOL    HW1 3119   4.678   2.362   2.765
  740SOL    HW2 3120   4.566   2.473   2.725
  741SOL     OW 3121   3.157   1.506   2.256
  741SOL    HW1 3122   3.150   1.467   2.347
  741SOL    HW2 3123   3.197   1.598   2.262
  742SOL     OW 3124   2.351   0.781   2.437
  742SOL    HW1 3125   2.303   0.758   2.353
  742SOL    HW2 3126   2.332   0.712   2.507
  743SOL     OW 3127   0.039   6.556   2.609
  743SOL    HW1 3128   6.990   6.500   2.559
  743SOL    HW2 3129   0.034   6.534   2.707
  744SOL     OW 3130   5.629   1.157   1.161
  744SOL    HW1 3131   5.595   1.233   1.217
  744SOL    HW2 3132   5.721   1.178   1.128
  745SOL     OW 3133   1.515   6.963   5.822
  745SOL    HW1 3134   1.563   6.997   5.741
  745SOL    HW2 3135   1.510   0.018   5.891
  746SOL     OW 3136   6.508   5.913   4.699
  746SOL    HW1 3137   6.419   5.887   4.661
  746SOL    HW2 3138   6.526   6.009   4.675
  747SOL     OW 3139   3.649   5.201   2.695
  747SOL    HW1 3140   3.662   5.300   2.694
  747SOL    HW2 3141   3.653   5.167   2.601
  748SOL     OW 3142   6.110   4.624   2.727
  748SOL    HW1 3143   6.039   4.637   2.797
  748SOL    HW2 3144   6.067   4.590   2.643
  749SOL     OW 3145   4.618   4.385   4.760
  749SOL    HW1 3146   4.693   4.440   4.797
  749SOL    HW2 3147   4.596   4.312   4.824
  750SOL     OW 3148   2.869   1.896   2.998
  750SOL    HW1 3149   2.797   1.879   2.931
  750SOL    HW2 3150   2.935   1.961   2.961
  751SOL     OW 3151   4.278   0.222   0.405
  751SOL    HW1 3152   4.221   0.173   0.470
  751SOL    HW2 3153   4.226   0.239   0.321
  752SOL     OW 3154   2.949   3.340   4.179
  752SOL    HW1 3155   3.023   3.281   4.150
  752SOL    HW2 3156   2.865   3.317   4.130
  753SOL     OW 3157   3.653   3.680   3.791
  753SOL    HW1 3158   3.609   3.767   3.768
  753SOL    HW2 3159   3.687   3.637   3.708
  754SOL     OW 3160   4.839   0.964   6.496
  754SOL    HW1 3161   4.844   0.982   6.594
  754SOL    HW2 3162   4.931   0.968   6.457
  755SOL     OW 3163   4.795   4.559   5.289
  755SOL    HW1 3164   4.810   4.628   5.360
  755SOL    HW2 3165   4.730   4.594   5.222
  756SOL     OW 3166   3.017   5.561   5.982
  756SOL    HW1 3167   2.983   5.529   5.894
  756SOL    HW2 3168   2.996   5.493   6.053
  757SOL     OW 3169   0.987   0.023   1.841
  757SOL    HW1 3170   0.925   6.989   1.900
  757SOL    HW2 3171   1.081   7.015   1.862
  758SOL     OW 3172   3.538   1.247   4.938
  758SOL    HW1 3173   3.493   1.180   4.997
  758SOL    HW2 3174   3.495   1.336   4.949
  759SOL     OW 3175   6.901   2.756   3.775
  759SOL    HW1 3176   6.838   2.707   3.715
  759SOL    HW2 3177   6.866   2.755   3.869
  760SOL     OW 3178   0.082   5.673   4.396
  760SOL    HW1 3179   0.166   5.720   4.425
  760SOL    HW2 3180   0.002   5.728   4.422
  761SOL     OW 3181   4.975   4.825   6.194
  761SOL    HW1 3182   4.888   4.855   6.156
  761SOL    HW2 3183   4.979   4.725   6.192
  762SOL     OW 3184   4.090   5.845   3.294
  762SOL    HW1 3185   4.009   5.880   3.246
  762SOL    HW2 3186   4.072   5.842   3.392
  763SOL     OW 3187   5.686   1.297   0.492
  763SOL    HW1 3188   5.732   1.299   0.403
  763SOL    HW2 3189   5.699   1.384   0.539
  764SOL     OW 3190   4.961   6.276   4.644
  764SOL    HW1 3191   5.001   6.209   4.707
  764SOL    HW2 3192   4.958   6.237   4.552
  765SOL     OW 3193   5.430   5.963   0.282
  765SOL    HW1 3194   5.525   5.933   0.289
  765SOL    HW2 3195   5.409   5.986   0.187
  766SOL     OW 3196   2.195   1.870   3.755
  766SOL    HW1 3197   2.108   1.829   3.729
  766SOL    HW2 3198   2.185   1.918   3.842
  767SOL     OW 3199   6.575   6.490   3.649
  767SOL    HW1 3200   6.502   6.456   3.590
  767SOL    HW2 3201   6.621   6.413   3.693
  768SOL     OW 3202   2.772   5.623   1.465
  768SOL    HW1 3203   2.677   5.592   1.458
  768SOL    HW2 3204   2.799   5.667   1.380
  769SOL     OW 3205   3.577   1.803   5.353
  769SOL    HW1 3206   3.576   1.720   5.409
  769SOL    HW2 3207   3.553   1.779   5.259
  770SOL     OW 3208   0.904   4.744   6.002
  770SOL    HW1 3209   0.954   4.675   5.951
  770SOL    HW2 3210   0.960   4.778   6.077
  771SOL     OW 3211   1.420   4.953   2.684
  771SOL    HW1 3212   1.402   5.020   2.756
  771SOL    HW2 3213   1.476   4.878   2.722
  772SOL     OW 3214   6.356   4.891   0.503
  772SOL    HW1 3215   6.263   4.897   0.467
  772SOL    HW2 3216   6.378   4.796   0.523
  773SOL     OW 3217   1.452   4.892   4.427
  773SOL    HW1 3218   1.524   4.961   4.423
  773SOL    HW2 3219   1.421   4.883   4.522
  774SOL     OW 3220   1.908   2.452   3.618
  774SOL    HW1 3221   1.931   2.445   3.715
  774SOL    HW2 3222   1.819   2.498   3.608
  775SOL     OW 3223   0.705   4.853   2.482
  775SOL    HW1 3224   0.800   4.875   2.507
  775SOL    HW2 3225   0.705   4.779   2.415
  776SOL     OW 3226   2.733   4.761   0.108
  776SOL    HW1 3227   2.693   4.683   0.059
  776SOL    HW2 3228   2.708   4.756   0.205
  777SOL     OW 3229   1.834   3.790   6.736
  777SOL    HW1 3230   1.762   3.751   6.678
  777SOL    HW2 3231   1.901   3.838   6.678
  778SOL     OW 3232   3.611   5.558   6.789
  778SOL    HW1 3233   3.634   5.503   6.870
  778SOL    HW2 3234   3.513   5.548   6.768
  779SOL     OW 3235   5.805   1.710   3.668
  779SOL    HW1 3236   5.899   1.702   3.701
  779SOL    HW2 3237   5.790   1.643   3.596
  780SOL     OW 3238   5.934   1.478   5.055
  780SOL    HW1 3239   5.983   1.446   5.136
  780SOL    HW2 3240   5.995   1.476   4.975
  781SOL     OW 3241   0.143   5.159   6.540
  781SOL    HW1 3242   0.164   5.231   6.606
  781SOL    HW2 3243   0.068   5.189   6.480
  782SOL     OW 3244   2.077   4.034   5.498
  782SOL    HW1 3245   2.112   4.126   5.516
  782SOL    HW2 3246   2.122   3.996   5.417
  783SOL     OW 3247   0.386   5.268   6.104
  783SOL    HW1 3248   0.375   5.268   6.005
  783SOL    HW2 3249   0.397   5.174   6.137
  784SOL     OW 3250   1.910   6.006   5.918
  784SOL    HW1 3251   1.885   6.083   5.859
  784SOL    HW2 3252   1.995   6.027   5.967
  785SOL     OW 3253   0.538   0.099   3.955
  785SOL    HW1 3254   0.538   0.036   3.877
  785SOL    HW2 3255   0.572   0.053   4.036
  786SOL     OW 3256   6.230   1.497   4.904
  786SOL    HW1 3257   6.252   1.566   4.972
  786SOL    HW2 3258   6.314   1.461   4.863
  787SOL     OW 3259   2.052   6.747   0.572
  787SOL    HW1 3260   2.003   6.702   0.497
  787SOL    HW2 3261   2.131   6.692   0.597
  788SOL     OW 3262   2.084   3.311   2.311
  788SOL    HW1 3263   2.146   3.369   2.363
  788SOL    HW2 3264   1.999   3.360   2.292
  789SOL     OW 3265   3.484   5.374   2.423
  789SOL    HW1 3266   3.573   5.416   2.440
  789SOL    HW2 3267   3.453   5.399   2.331
  790SOL     OW 3268   0.219   3.317   2.444
  790SOL    HW1 3269   0.185   3.234   2.490
  790SOL    HW2 3270   0.180   3.322   2.352
  791SOL     OW 3271   3.450   1.170   3.871
  791SOL    HW1 3272   3.350   1.164   3.866
  791SOL    HW2 3273   3.484   1.103   3.937
  792SOL     OW 3274   2.844   0.924   0.535
  792SOL    HW1 3275   2.924   0.886   0.489
  792SOL    HW2 3276   2.873   0.977   0.614
  793SOL     OW 3277   1.991   5.857   4.425
  793SOL    HW1 3278   1.970   5.922   4.351
  793SOL    HW2 3279   1.908   5.841   4.480
  794SOL     OW 3280   3.429   3.505   2.180
  794SOL    HW1 3281   3.400   3.412   2.204
  794SOL    HW2 3282   3.380   3.570   2.239
  795SOL     OW 3283   4.287   6.618   5.784
  795SOL    HW1 3284   4.285   6.715   5.810
  795SOL    HW2 3285   4.337   6.608   5.697
  796SOL     OW 3286   1.010   2.524   6.504
  796SOL    HW1 3287   1.035   2.446   6.562
  796SOL    HW2 3288   0.945   2.493   6.435
  797SOL     OW 3289   3.091   6.603   0.808
  797SOL    HW1 3290   3.023   6.671   0.833
  797SOL    HW2 3291   3.046   6.520   0.775
  798SOL     OW 3292   5.063   4.128   1.874
  798SOL    HW1 3293   5.080   4.051   1.935
  798SOL    HW2 3294   5.083   4.214   1.921
  799SOL     OW 3295   3.611   3.411   4.919
  799SOL    HW1 3296   3.520   3.452   4.913
  799SOL    HW2 3297   3.680   3.482   4.904
  800SOL     OW 3298   5.694   3.041   3.071
  800SOL    HW1 3299   5.603   3.077   3.050
  800SOL    HW2 3300   5.685   2.951   3.114
  801SOL     OW 3301   1.804   5.408   6.807
  801SOL    HW1 3302   1.878   5.346   6.781
  801SOL    HW2 3303   1.800   5.484   6.742
  802SOL     OW 3304   3.912   2.445   6.064
  802SOL    HW1 3305   3.984   2.384   6.097
  802SOL    HW2 3306   3.930   2.538   6.096
  803SOL     OW 3307   3.044   2.092   2.878
  803SOL    HW1 3308   3.095   2.124   2.798
  803SOL    HW2 3309   3.002   2.171   2.924
  804SOL     OW 3310   4.634   6.790   2.867
  804SOL    HW1 3311   4.606   6.823   2.957
  804SOL    HW2 3312   4.732   6.803   2.856
  805SOL     OW 3313   3.538   1.777   3.754
  805SOL    HW1 3314   3.546   1.803   3.658
  805SOL    HW2 3315   3.539   1.859   3.811
  806SOL     OW 3316   4.312   6.120   6.069
  806SOL    HW1 3317   4.252   6.099   6.145
  806SOL    HW2 3318   4.407   6.108   6.097
  807SOL     OW 3319   1.046   6.523   6.358
  807SOL    HW1 3320   1.146   6.529   6.352
  807SOL    HW2 3321   1.006   6.556   6.272
  808SOL     OW 3322   5.099   1.719   5.903
  808SOL    HW1 3323   5.014   1.693   5.948
  808SOL    HW2 3324   5.091   1.812   5.866
  809SOL     OW 3325   2.851   6.411   5.672
  809SOL    HW1 3326   2.774   6.425   5.734
  809SOL    HW2 3327   2.871   6.314   5.664
  810SOL     OW 3328   3.834   3.913   6.295
  810SOL    HW1 3329   3.854   4.010   6.281
  810SOL    HW2 3330   3.745   3.904   6.340
  811SOL     OW 3331   5.633   5.276   5.398
  811SOL    HW1 3332   5.618   5.338   5.321
  811SOL    HW2 3333   5.549   5.264   5.449
  812SOL     OW 3334   1.412   2.519   1.032
  812SOL    HW1 3335   1.331   2.528   1.090
  812SOL    HW2 3336   1.492   2.502   1.089
  813SOL     OW 3337   2.951   2.048   5.046
  813SOL    HW1 3338   2.915   2.122   5.103
  813SOL    HW2 3339   3.016   2.085   4.980
  814SOL     OW 3340   0.712   4.673   0.990
  814SOL    HW1 3341   0.800   4.626   0.995
  814SOL    HW2 3342   0.638   4.606   1.003
  815SOL     OW 3343   4.569   0.816   3.935
  815SOL    HW1 3344   4.490   0.756   3.917
  815SOL    HW2 3345   4.576   0.833   4.033
  816SOL     OW 3346   5.081   3.533   6.469
  816SOL    HW1 3347   5.056   3.547   6.565
  816SOL    HW2 3348   5.098   3.436   6.452
  817SOL     OW 3349   6.857   5.531   7.017
  817SOL    HW1 3350   6.947   5.487   7.016
  817SOL    HW2 3351   6.831   5.556   6.924
  818SOL     OW 3352   6.533   1.209   5.358
  818SOL    HW1 3353   6.450   1.167   5.395
  818SOL    HW2 3354   6.594   1.138   5.323
  819SOL     OW 3355   5.624   3.790   2.055
  819SOL    HW1 3356   5.525   3.774   2.063
  819SOL    HW2 3357   5.649   3.798   1.958
  820SOL     OW 3358   2.136   2.270   5.420
  820SOL    HW1 3359   2.171   2.197   5.479
  820SOL    HW2 3360   2.186   2.269   5.333
  821SOL     OW 3361   4.997   3.186   5.989
  821SOL    HW1 3362   5.042   3.270   6.018
  821SOL    HW2 3363   5.043   3.151   5.907
  822SOL     OW 3364   6.476   4.296   3.319
  822SOL    HW1 3365   6.388   4.268   3.279
  822SOL    HW2 3366   6.483   4.396   3.315
  823SOL     OW 3367   1.711   2.835   3.968
  823SOL    HW1 3368   1.644   2.866   4.035
  823SOL    HW2 3369   1.671   2.840   3.876
  824SOL     OW 3370   5.291   0.288   6.597
  824SOL    HW1 3371   5.282   0.360   6.666
  824SOL    HW2 3372   5.294   0.330   6.506
  825SOL     OW 3373   6.068   5.841   1.192
  825SOL    HW1 3374   5.974   5.862   1.216
  825SOL    HW2 3375   6.097   5.757   1.238
  826SOL     OW 3376   3.539   2.236   0.403
  826SOL    HW1 3377   3.638   2.232   0.387
  826SOL    HW2 3378   3.518   2.317   0.457
  827SOL     OW 3379   3.574   3.284   5.153
  827SOL    HW1 3380   3.573   3.342   5.071
  827SOL    HW2 3381   3.659   3.300   5.204
  828SOL     OW 3382   0.392   6.372   5.928
  828SOL    HW1 3383   0.298   6.344   5.944
  828SOL    HW2 3384   0.393   6.444   5.858
  829SOL     OW 3385   3.876   3.427   1.545
  829SOL    HW1 3386   3.843   3.522   1.546
  829SOL    HW2 3387   3.831   3.375   1.618
  830SOL     OW 3388   0.349   3.523   6.103
  830SOL    HW1 3389   0.285   3.506   6.177
  830SOL    HW2 3390   0.361   3.439   6.049
  831SOL     OW 3391   5.884   1.583   3.228
  831SOL    HW1 3392   5.797   1.632   3.223
  831SOL    HW2 3393   5.868   1.489   3.260
  832SOL     OW 3394   3.275   2.065   4.805
  832SOL    HW1 3395   3.262   2.122   4.886
  832SOL    HW2 3396   3.188   2.058   4.755
  833SOL     OW 3397   3.526   3.070   6.396
  833SOL    HW1 3398   3.625   3.064   6.391
  833SOL    HW2 3399   3.492   3.009   6.467
  834SOL     OW 3400   5.986   3.534   1.200
  834SOL    HW1 3401   5.949   3.620   1.164
  834SOL    HW2 3402   6.017   3.549   1.294
  835SOL     OW 3403   6.219   6.418   5.083
  835SOL    HW1 3404   6.280   6.468   5.023
  835SOL    HW2 3405   6.148   6.373   5.029
  836SOL     OW 3406   5.753   6.932   4.070
  836SOL    HW1 3407   5.782   6.864   4.002
  836SOL    HW2 3408   5.667   6.902   4.112
  837SOL     OW 3409   0.661   0.468   6.492
  837SOL    HW1 3410   0.695   0.562   6.484
  837SOL    HW2 3411   0.603   0.461   6.574
  838SOL     OW 3412   1.020   6.007   3.345
  838SOL    HW1 3413   1.114   5.978   3.325
  838SOL    HW2 3414   0.967   6.009   3.260
  839SOL     OW 3415   1.471   2.235   6.997
  839SOL    HW1 3416   1.557   2.287   6.997
  839SOL    HW2 3417   1.435   2.233   0.073
  840SOL     OW 3418   4.871   5.270   0.653
  840SOL    HW1 3419   4.790   5.231   0.697
  840SOL    HW2 3420   4.910   5.341   0.711
  841SOL     OW 3421   2.724   4.945   6.938
  841SOL    HW1 3422   2.742   4.894   0.005
  841SOL    HW2 3423   2.722   4.881   6.861
  842SOL     OW 3424   4.523   6.804   1.187
  842SOL    HW1 3425   4.578   6.837   1.110
  842SOL    HW2 3426   4.492   6.882   1.241
  843SOL     OW 3427   1.851   7.005   2.538
  843SOL    HW1 3428   1.861   6.906   2.527
  843SOL    HW2 3429   1.755   0.011   2.549
  844SOL     OW 3430   6.869   6.911   1.532
  844SOL    HW1 3431   6.929   6.885   1.607
  844SOL    HW2 3432   6.774   6.906   1.562
  845SOL     OW 3433   4.153   1.178   1.673
  845SOL    HW1 3434   4.177   1.238   1.597
  845SOL    HW2 3435   4.082   1.114   1.644
  846SOL     OW 3436   1.512   1.013   0.964
  846SOL    HW1 3437   1.507   0.929   1.019
  846SOL    HW2 3438   1.605   1.026   0.931
  847SOL     OW 3439   2.526   3.321   1.349
  847SOL    HW1 3440   2.546   3.393   1.283
  847SOL    HW2 3441   2.437   3.337   1.391
  848SOL     OW 3442   6.461   5.909   0.979
  848SOL    HW1 3443   6.376   5.931   0.931
  848SOL    HW2 3444   6.535   5.898   0.912
  849SOL     OW 3445   5.215   3.389   6.096
  849SOL    HW1 3446   5.227   3.368   6.193
  849SOL    HW2 3447   5.298   3.363   6.046
  850SOL     OW 3448   2.213   1.396   5.052
  850SOL    HW1 3449   2.256   1.336   4.985
  850SOL    HW2 3450   2.143   1.345   5.103
  851SOL     OW 3451   4.579   2.568   6.578
  851SOL    HW1 3452   4.527   2.484   6.564
  851SOL    HW2 3453   4.632   2.561   6.662
  852SOL     OW 3454   6.979   5.122   1.342
  852SOL    HW1 3455   6.955   5.118   1.245
  852SOL    HW2 3456   6.906   5.166   1.394
  853SOL     OW 3457   3.603   2.599   1.019
  853SOL    HW1 3458   3.660   2.666   1.067
  853SOL    HW2 3459   3.506   2.619   1.037
  854SOL     OW 3460   6.908   0.373   6.349
  854SOL    HW1 3461   6.928   0.464   6.388
  854SOL    HW2 3462   6.954   0.303   6.404
  855SOL     OW 3463   4.490   2.017   6.997
  855SOL    HW1 3464   4.392   2.000   7.012
  855SOL    HW2 3465   4.541   1.932   7.010
  856SOL     OW 3466   1.802   5.795   1.609
  856SOL    HW1 3467   1.770   5.738   1.533
  856SOL    HW2 3468   1.735   5.792   1.683
  857SOL     OW 3469   0.422   6.714   5.120
  857SOL    HW1 3470   0.385   6.645   5.058
  857SOL    HW2 3471   0.505   6.678   5.164
  858SOL     OW 3472   3.198   4.281   0.197
  858SOL    HW1 3473   3.132   4.355   0.209
  858SOL    HW2 3474   3.246   4.292   0.110
  859SOL     OW 3475   4.810   5.865   5.689
  859SOL    HW1 3476   4.740   5.876   5.618
  859SOL    HW2 3477   4.842   5.955   5.719
  860SOL     OW 3478   4.633   3.068   6.829
  860SOL    HW1 3479   4.593   3.148   6.874
  860SOL    HW2 3480   4.671   3.007   6.898
  861SOL     OW 3481   0.637   5.981   2.548
  861SOL    HW1 3482   0.724   5.932   2.558
  861SOL    HW2 3483   0.592   5.988   2.637
  862SOL     OW 3484   0.778   4.818   4.195
  862SOL    HW1 3485   0.874   4.844   4.187
  862SOL    HW2 3486   0.721   4.900   4.196
  863SOL     OW 3487   5.434   0.374   1.414
  863SOL    HW1 3488   5.393   0.432   1.485
  863SOL    HW2 3489   5.488   0.431   1.352
  864SOL     OW 3490   6.224   4.709   3.889
  864SOL    HW1 3491   6.239   4.805   3.913
  864SOL    HW2 3492   6.126   4.692   3.876
  865SOL     OW 3493   1.600   5.086   4.972
  865SOL    HW1 3494   1.690   5.091   4.929
  865SOL    HW2 3495   1.598   5.148   5.051
  866SOL     OW 3496   3.692   6.568   1.253
  866SOL    HW1 3497   3.726   6.487   1.301
  866SOL    HW2 3498   3.595   6.580   1.272
  867SOL     OW 3499   5.961   3.770   4.987
  867SOL    HW1 3500   5.946   3.855   5.038
  867SOL    HW2 3501   6.058   3.745   4.992
  868SOL     OW 3502   0.421   1.434   2.088
  868SOL    HW1 3503   0.519   1.455   2.088
  868SOL    HW2 3504   0.379   1.471   2.006
  869SOL     OW 3505   0.821   3.319   1.783
  869SOL    HW1 3506   0.874   3.241   1.817
  869SOL    HW2 3507   0.872   3.403   1.800
  870SOL     OW 3508   3.725   4.498   1.673
  870SOL    HW1 3509   3.660   4.554   1.725
  870SOL    HW2 3510   3.816   4.540   1.677
  871SOL     OW 3511   4.467   1.788   3.887
  871SOL    HW1 3512   4.532   1.813   3.959
  871SOL    HW2 3513   4.409   1.866   3.865
  872SOL     OW 3514   1.857   2.732   5.335
  872SOL    HW1 3515   1.875   2.684   5.420
  872SOL    HW2 3516   1.933   2.718   5.271
  873SOL     OW 3517   3.841   0.361   6.657
  873SOL    HW1 3518   3.865   0.320   6.745
  873SOL    HW2 3519   3.914   0.341   6.591
  874SOL     OW 3520   5.828   3.816   2.444
  874SOL    HW1 3521   5.806   3.731   2.490
  874SOL    HW2 3522   5.845   3.799   2.347
  875SOL     OW 3523   5.371   5.257   2.024
  875SOL    HW1 3524   5.345   5.171   2.070
  875SOL    HW2 3525   5.365   5.245   1.925
  876SOL     OW 3526   6.229   1.254   6.289
  876SOL    HW1 3527   6.318   1.265   6.332
  876SOL    HW2 3528   6.175   1.338   6.299
  877SOL     OW 3529   1.393   3.368   6.618
  877SOL    HW1 3530   1.339   3.315   6.552
  877SOL    HW2 3531   1.490   3.344   6.609
  878SOL     OW 3532   4.121   6.191   4.491
  878SOL    HW1 3533   4.107   6.096   4.464
  878SOL    HW2 3534   4.203   6.198   4.547
  879SOL     OW 3535   5.917   6.923   6.183
  879SOL    HW1 3536   5.886   6.830   6.203
  879SOL    HW2 3537   5.841   6.987   6.193
  880SOL     OW 3538   3.394   2.875   2.899
  880SOL    HW1 3539   3.440   2.822   2.970
  880SOL    HW2 3540   3.300   2.893   2.926
  881SOL     OW 3541   4.673   2.268   0.806
  881SOL    HW1 3542   4.585   2.242   0.845
  881SOL    HW2 3543   4.659   2.307   0.715
  882SOL     OW 3544   1.698   3.031   3.466
  882SOL    HW1 3545   1.737   3.032   3.374
  882SOL    HW2 3546   1.773   3.037   3.533
  883SOL     OW 3547   2.317   6.461   2.718
  883SOL    HW1 3548   2.287   6.481   2.811
  883SOL    HW2 3549   2.280   6.531   2.656
  884SOL     OW 3550   2.644   3.249   6.114
  884SOL    HW1 3551   2.726   3.278   6.065
  884SOL    HW2 3552   2.585   3.197   6.052
  885SOL     OW 3553   4.201   3.492   6.636
  885SOL    HW1 3554   4.280   3.440   6.605
  885SOL    HW2 3555   4.138   3.432   6.684
  886SOL     OW 3556   3.582   2.002   6.400
  886SOL    HW1 3557   3.554   1.977   6.307
  886SOL    HW2 3558   3.517   1.963   6.466
  887SOL     OW 3559   3.874   0.853   5.326
  887SOL    HW1 3560   3.847   0.915   5.253
  887SOL    HW2 3561   3.953   0.799   5.296
  888SOL     OW 3562   0.706   6.975   2.258
  888SOL    HW1 3563   0.785   7.016   2.304
  888SOL    HW2 3564   0.696   6.880   2.288
  889SOL     OW 3565   0.300   3.771   0.682
  889SOL    HW1 3566   0.267   3.823   0.604
  889SOL    HW2 3567   0.355   3.830   0.741
  890SOL     OW 3568   2.420   5.929   4.696
  890SOL    HW1 3569   2.330   5.970   4.710
  890SOL    HW2 3570   2.411   5.830   4.685
  891SOL     OW 3571   4.869   4.546   2.481
  891SOL    HW1 3572   4.957   4.530   2.524
  891SOL    HW2 3573   4.878   4.536   2.382
  892SOL     OW 3574   2.089   4.468   1.370
  892SOL    HW1 3575   2.161   4.399   1.360
  892SOL    HW2 3576   2.001   4.422   1.377
  893SOL     OW 3577   1.651   5.123   2.494
  893SOL    HW1 3578   1.749   5.119   2.474
  893SOL    HW2 3579   1.636   5.102   2.591
  894SOL     OW 3580   0.944   4.561   1.138
  894SOL    HW1 3581   1.028   4.519   1.104
  894SOL    HW2 3582   0.885   4.490   1.178
  895SOL     OW 3583   6.987   5.463   4.527
  895SOL    HW1 3584   6.966   5.392   4.459
  895SOL    HW2 3585   0.020   5.538   4.483
  896SOL     OW 3586   6.996   0.849   6.140
  896SOL    HW1 3587   6.957   0.916   6.077
  896SOL    HW2 3588   0.077   0.839   6.120
  897SOL     OW 3589   5.665   1.088   0.660
  897SOL    HW1 3590   5.641   1.157   0.592
  897SOL    HW2 3591   5.643   1.122   0.751
  898SOL     OW 3592   4.058   1.788   3.351
  898SOL    HW1 3593   4.015   1.701   3.326
  898SOL    HW2 3594   4.156   1.775   3.362
  899SOL     OW 3595   6.529   6.684   0.265
  899SOL    HW1 3596   6.491   6.591   0.269
  899SOL    HW2 3597   6.456   6.751   0.281
  900SOL     OW 3598   5.347   5.243   6.312
  900SOL    HW1 3599   5.403   5.260   6.392
  900SOL    HW2 3600   5.314   5.330   6.275
  901SOL     OW 3601   1.531   0.907   3.018
  901SOL    HW1 3602   1.538   0.828   2.957
  901SOL    HW2 3603   1.566   0.988   2.971
  902SOL     OW 3604   0.165   3.228   2.183
  902SOL    HW1 3605   0.084   3.264   2.139
  902SOL    HW2 3606   0.169   3.129   2.169
  903SOL     OW 3607   6.660   0.966   0.457
  903SOL    HW1 3608   6.729   0.908   0.415
  903SOL    HW2 3609   6.614   0.916   0.531
  904SOL     OW 3610   2.770   1.234   3.411
  904SOL    HW1 3611   2.786   1.243   3.509
  904SOL    HW2 3612   2.846   1.186   3.368
  905SOL     OW 3613   5.825   2.208   6.134
  905SOL    HW1 3614   5.725   2.208   6.137
  905SOL    HW2 3615   5.862   2.251   6.217
  906SOL     OW 3616   6.104   3.391   0.971
  906SOL    HW1 3617   6.048   3.396   1.054
  906SOL    HW2 3618   6.050   3.355   0.895
  907SOL     OW 3619   5.738   4.437   6.999
  907SOL    HW1 3620   5.706   4.413   6.907
  907SOL    HW2 3621   5.761   4.353   0.031
  908SOL     OW 3622   0.460   3.801   3.121
  908SOL    HW1 3623   0.441   3.789   3.218
  908SOL    HW2 3624   0.454   3.713   3.074
  909SOL     OW 3625   5.053   4.580   6.096
  909SOL    HW1 3626   5.000   4.504   6.057
  909SOL    HW2 3627   5.149   4.554   6.101
  910SOL     OW 3628   3.439   4.858   0.124
  910SOL    HW1 3629   3.492   4.799   0.183
  910SOL    HW2 3630   3.407   4.806   0.044
  911SOL     OW 3631   1.318   4.659   6.258
  911SOL    HW1 3632   1.359   4.634   6.170
  911SOL    HW2 3633   1.322   4.580   6.320
  912SOL     OW 3634   5.118   1.458   5.284
  912SOL    HW1 3635   5.041   1.444   5.346
  912SOL    HW2 3636   5.109   1.547   5.240
  913SOL     OW 3637   4.875   5.796   3.272
  913SOL    HW1 3638   4.923   5.831   3.352
  913SOL    HW2 3639   4.777   5.798   3.288
  914SOL     OW 3640   2.494   6.525   5.417
  914SOL    HW1 3641   2.453   6.614   5.399
  914SOL    HW2 3642   2.589   6.537   5.444
  915SOL     OW 3643   5.500   5.232   1.562
  915SOL    HW1 3644   5.597   5.237   1.583
  915SOL    HW2 3645   5.467   5.323   1.535
  916SOL     OW 3646   0.985   3.943   3.252
  916SOL    HW1 3647   0.893   3.931   3.290
  916SOL    HW2 3648   0.994   4.035   3.215
  917SOL     OW 3649   0.493   6.908   6.554
  917SOL    HW1 3650   0.499   6.821   6.504
  917SOL    HW2 3651   0.563   6.971   6.520
  918SOL     OW 3652   3.517   6.114   6.458
  918SOL    HW1 3653   3.503   6.021   6.423
  918SOL    HW2 3654   3.535   6.110   6.556
  919SOL     OW 3655   4.749   0.540   6.314
  919SOL    HW1 3656   4.715   0.633   6.329
  919SOL    HW2 3657   4.674   0.481   6.287
  920SOL     OW 3658   3.167   4.811   1.809
  920SOL    HW1 3659   3.102   4.785   1.738
  920SOL    HW2 3660   3.232   4.736   1.823
  921SOL     OW 3661   4.878   5.762   5.318
  921SOL    HW1 3662   4.919   5.724   5.401
  921SOL    HW2 3663   4.778   5.762   5.327
  922SOL     OW 3664   3.351   3.933   3.177
  922SOL    HW1 3665   3.410   4.006   3.212
  922SOL    HW2 3666   3.402   3.879   3.110
  923SOL     OW 3667   2.550   3.918   5.706
  923SOL    HW1 3668   2.534   3.868   5.621
  923SOL    HW2 3669   2.497   3.876   5.780
  924SOL     OW 3670   1.020   3.112   1.163
  924SOL    HW1 3671   1.119   3.111   1.149
  924SOL    HW2 3672   0.991   3.204   1.190
  925SOL     OW 3673   0.775   1.390   6.939
  925SOL    HW1 3674   0.807   1.298   6.916
  925SOL    HW2 3675   0.766   1.397   0.021
  926SOL     OW 3676   2.097   2.123   1.271
  926SOL    HW1 3677   2.056   2.138   1.361
  926SOL    HW2 3678   2.031   2.075   1.212
  927SOL     OW 3679   6.922   3.259   5.140
  927SOL    HW1 3680   7.003   3.266   5.081
  927SOL    HW2 3681   6.948   3.275   5.235
  928SOL     OW 3682   2.753   5.046   6.009
  928SOL    HW1 3683   2.832   5.016   6.063
  928SOL    HW2 3684   2.784   5.094   5.927
  929SOL     OW 3685   0.881   2.081   4.923
  929SOL    HW1 3686   0.973   2.116   4.903
  929SOL    HW2 3687   0.813   2.139   4.880
  930SOL     OW 3688   5.877   5.101   5.085
  930SOL    HW1 3689   5.879   5.120   5.183
  930SOL    HW2 3690   5.969   5.112   5.047
  931SOL     OW 3691   6.359   0.724   3.670
  931SOL    HW1 3692   6.288   0.729   3.598
  931SOL    HW2 3693   6.320   0.683   3.752
  932SOL     OW 3694   4.141   6.990   3.786
  932SOL    HW1 3695   4.147   0.071   3.801
  932SOL    HW2 3696   4.210   6.962   3.719
  933SOL     OW 3697   1.118   5.957   2.053
  933SOL    HW1 3698   1.104   5.876   1.997
  933SOL    HW2 3699   1.082   6.037   2.005
  934SOL     OW 3700   2.063   3.194   0.928
  934SOL    HW1 3701   2.101   3.249   0.854
  934SOL    HW2 3702   1.965   3.178   0.911
  935SOL     OW 3703   5.526   2.784   5.363
  935SOL    HW1 3704   5.455   2.841   5.402
  935SOL    HW2 3705   5.614   2.831   5.371
  936SOL     OW 3706   1.980   0.958   6.289
  936SOL    HW1 3707   1.971   1.057   6.284
  936SOL    HW2 3708   2.007   0.931   6.382
  937SOL     OW 3709   3.179   2.367   6.318
  937SOL    HW1 3710   3.126   2.397   6.398
  937SOL    HW2 3711   3.125   2.302   6.265
  938SOL     OW 3712   4.984   6.111   5.062
  938SOL    HW1 3713   4.946   6.204   5.062
  938SOL    HW2 3714   4.996   6.080   4.968
  939SOL     OW 3715   1.643   0.360   4.546
  939SOL    HW1 3716   1.699   0.361   4.462
  939SOL    HW2 3717   1.639   0.452   4.584
  940SOL     OW 3718   1.947   5.273   0.621
  940SOL    HW1 3719   2.046   5.284   0.618
  940SOL    HW2 3720   1.925   5.176   0.633
  941SOL     OW 3721   3.721   6.629   0.987
  941SOL    HW1 3722   3.721   6.590   1.079
  941SOL    HW2 3723   3.811   6.616   0.946
  942SOL     OW 3724   6.589   5.243   0.239
  942SOL    HW1 3725   6.509   5.184   0.226
  942SOL    HW2 3726   6.667   5.187   0.269
  943SOL     OW 3727   3.508   6.042   0.958
  943SOL    HW1 3728   3.459   6.129   0.948
  943SOL    HW2 3729   3.452   5.978   1.011
  944SOL     OW 3730   6.111   6.261   3.157
  944SOL    HW1 3731   6.055   6.228   3.081
  944SOL    HW2 3732   6.057   6.262   3.240
  945SOL     OW 3733   0.417   5.263   6.907
  945SOL    HW1 3734   0.340   5.284   6.846
  945SOL    HW2 3735   0.434   5.165   6.907
  946SOL     OW 3736   5.569   1.829   4.017
  946SOL    HW1 3737   5.637   1.897   3.989
  946SOL    HW2 3738   5.481   1.874   4.031
  947SOL     OW 3739   3.792   4.055   2.833
  947SOL    HW1 3740   3.860   4.023   2.899
  947SOL    HW2 3741   3.798   4.001   2.749
  948SOL     OW 3742   3.379   1.554   3.821
  948SOL    HW1 3743   3.417   1.470   3.784
  948SOL    HW2 3744   3.417   1.632   3.771
  949SOL     OW 3745   2.573   6.898   5.302
  949SOL    HW1 3746   2.583   6.827   5.232
  949SOL    HW2 3747   2.479   6.933   5.302
  950SOL     OW 3748   0.214   6.820   1.799
  950SOL    HW1 3749   0.227   6.777   1.710
  950SOL    HW2 3750   0.130   6.873   1.798
  951SOL     OW 3751   1.276   0.277   3.081
  951SOL    HW1 3752   1.320   0.366   3.069
  951SOL    HW2 3753   1.246   0.242   2.992
  952SOL     OW 3754   3.636   1.700   2.524
  952SOL    HW1 3755   3.678   1.635   2.588
  952SOL    HW2 3756   3.599   1.651   2.445
  953SOL     OW 3757   0.863   6.080   5.658
  953SOL    HW1 3758   0.859   6.152   5.588
  953SOL    HW2 3759   0.890   6.120   5.745
  954SOL     OW 3760   4.605   6.737   2.481
  954SOL    HW1 3761   4.596   6.654   2.536
  954SOL    HW2 3762   4.536   6.736   2.408
  955SOL     OW 3763   3.357   4.557   1.655
  955SOL    HW1 3764   3.435   4.580   1.713
  955SOL    HW2 3765   3.365   4.461   1.626
  956SOL     OW 3766   3.477   0.191   0.834
  956SOL    HW1 3767   3.516   0.170   0.744
  956SOL    HW2 3768   3.474   0.290   0.847
  957SOL     OW 3769   5.987   6.832   3.095
  957SOL    HW1 3770   6.002   6.735   3.072
  957SOL    HW2 3771   6.067   6.867   3.143
  958SOL     OW 3772   5.634   5.627   1.519
  958SOL    HW1 3773   5.613   5.724   1.507
  958SOL    HW2 3774   5.578   5.589   1.593
  959SOL     OW 3775   4.748   0.153   2.252
  959SOL    HW1 3776   4.696   0.234   2.278
  959SOL    HW2 3777   4.752   0.089   2.329
  960SOL     OW 3778   1.214   6.467   5.434
  960SOL    HW1 3779   1.150   6.521   5.489
  960SOL    HW2 3780   1.185   6.468   5.339
  961SOL     OW 3781   3.887   1.121   3.797
  961SOL    HW1 3782   3.833   1.078   3.725
  961SOL    HW2 3783   3.871   1.220   3.797
  962SOL     OW 3784   6.821   0.238   4.972
  962SOL    HW1 3785   6.789   0.179   4.898
  962SOL    HW2 3786   6.921   0.240   4.972
  963SOL     OW 3787   5.791   2.493   1.197
  963SOL    HW1 3788   5.758   2.578   1.156
  963SOL    HW2 3789   5.741   2.415   1.158
  964SOL     OW 3790   3.718   6.535   5.031
  964SOL    HW1 3791   3.700   6.474   4.954
  964SOL    HW2 3792   3.634   6.584   5.055
  965SOL     OW 3793   4.793   1.680   4.257
  965SOL    HW1 3794   4.799   1.740   4.337
  965SOL    HW2 3795   4.744   1.596   4.282
  966SOL     OW 3796   5.200   1.061   3.300
  966SOL    HW1 3797   5.232   1.110   3.218
  966SOL    HW2 3798   5.103   1.078   3.313
  967SOL     OW 3799   3.469   5.397   5.962
  967SOL    HW1 3800   3.510   5.306   5.966
  967SOL    HW2 3801   3.492   5.440   5.875
  968SOL     OW 3802   4.163   0.589   1.509
  968SOL    HW1 3803   4.075   0.562   1.470
  968SOL    HW2 3804   4.235   0.529   1.474
  969SOL     OW 3805   2.963   3.562   6.709
  969SOL    HW1 3806   3.005   3.523   6.627
  969SOL    HW2 3807   2.952   3.491   6.778
  970SOL     OW 3808   4.277   5.991   5.369
  970SOL    HW1 3809   4.272   5.896   5.338
  970SOL    HW2 3810   4.292   6.051   5.290
  971SOL     OW 3811   5.163   3.317   3.623
  971SOL    HW1 3812   5.144   3.391   3.558
  971SOL    HW2 3813   5.183   3.233   3.574
  972SOL     OW 3814   0.401   1.720   0.795
  972SOL    HW1 3815   0.396   1.707   0.696
  972SOL    HW2 3816   0.445   1.641   0.837
  973SOL     OW 3817   6.533   2.615   5.020
  973SOL    HW1 3818   6.626   2.652   5.029
  973SOL    HW2 3819   6.473   2.685   4.981
  974SOL     OW 3820   1.169   3.424   1.797
  974SOL    HW1 3821   1.233   3.429   1.720
  974SOL    HW2 3822   1.124   3.335   1.797
  975SOL     OW 3823   3.192   0.434   1.670
  975SOL    HW1 3824   3.257   0.501   1.706
  975SOL    HW2 3825   3.176   0.364   1.739
  976SOL     OW 3826   0.152   2.978   3.913
  976SOL    HW1 3827   0.062   2.941   3.891
  976SOL    HW2 3828   0.222   2.929   3.860
  977SOL     OW 3829   6.408   1.349   1.881
  977SOL    HW1 3830   6.468   1.358   1.801
  977SOL    HW2 3831   6.408   1.436   1.932
  978SOL     OW 3832   5.571   1.942   0.473
  978SOL    HW1 3833   5.604   1.961   0.380
  978SOL    HW2 3834   5.551   2.028   0.520
  979SOL     OW 3835   0.343   4.966   6.554
  979SOL    HW1 3836   0.249   4.995   6.576
  979SOL    HW2 3837   0.397   5.046   6.528
  980SOL     OW 3838   4.739   1.888   3.806
  980SOL    HW1 3839   4.680   1.840   3.741
  980SOL    HW2 3840   4.772   1.824   3.875
  981SOL     OW 3841   0.558   6.097   5.810
  981SOL    HW1 3842   0.591   6.005   5.789
  981SOL    HW2 3843   0.573   6.116   5.907
  982SOL     OW 3844   0.406   1.044   6.566
  982SOL    HW1 3845   0.464   1.087   6.636
  982SOL    HW2 3846   0.310   1.062   6.587
  983SOL     OW 3847   6.965   3.872   2.310
  983SOL    HW1 3848   6.994   3.968   2.316
  983SOL    HW2 3849   6.980   3.839   2.217
  984SOL     OW 3850   0.378   3.957   3.844
  984SOL    HW1 3851   0.315   3.979   3.919
  984SOL    HW2 3852   0.397   4.040   3.791
  985SOL     OW 3853   5.562   4.861   5.644
  985SOL    HW1 3854   5.649   4.831   5.682
  985SOL    HW2 3855   5.526   4.937   5.699
  986SOL     OW 3856   4.070   5.543   1.736
  986SOL    HW1 3857   4.145   5.478   1.746
  986SOL    HW2 3858   4.105   5.636   1.738
  987SOL     OW 3859   4.507   4.528   4.548
  987SOL    HW1 3860   4.538   4.449   4.600
  987SOL    HW2 3861   4.456   4.590   4.608
  988SOL     OW 3862   3.138   4.893   2.287
  988SOL    HW1 3863   3.057   4.835   2.298
  988SOL    HW2 3864   3.193   4.860   2.210
  989SOL     OW 3865   0.631   2.692   1.441
  989SOL    HW1 3866   0.547   2.686   1.387
  989SOL    HW2 3867   0.703   2.639   1.397
  990SOL     OW 3868   3.790   0.196   5.325
  990SOL    HW1 3869   3.720   0.150   5.378
  990SOL    HW2 3870   3.783   0.170   5.229
  991SOL     OW 3871   1.401   6.415   3.893
  991SOL    HW1 3872   1.396   6.364   3.807
  991SOL    HW2 3873   1.421   6.352   3.968
  992SOL     OW 3874   6.487   3.350   0.719
  992SOL    HW1 3875   6.553   3.304   0.659
  992SOL    HW2 3876   6.399   3.302   0.716
  993SOL     OW 3877   2.092   5.291   6.512
  993SOL    HW1 3878   2.142   5.230   6.451
  993SOL    HW2 3879   2.156   5.352   6.559
  994SOL     OW 3880   3.129   0.144   1.365
  994SOL    HW1 3881   3.125   0.144   1.465
  994SOL    HW2 3882   3.224   0.157   1.336
  995SOL     OW 3883   5.155   4.230   5.323
  995SOL    HW1 3884   5.173   4.270   5.414
  995SOL    HW2 3885   5.142   4.132   5.332
  996SOL     OW 3886   4.017   6.744   5.364
  996SOL    HW1 3887   4.055   6.716   5.452
  996SOL    HW2 3888   3.995   6.841   5.367
  997SOL     OW 3889   1.280   6.317   3.342
  997SOL    HW1 3890   1.211   6.285   3.277
  997SOL    HW2 3891   1.327   6.238   3.382
  998SOL     OW 3892   4.747   0.110   0.225
  998SOL    HW1 3893   4.727   0.185   0.163
  998SOL    HW2 3894   4.840   0.076   0.209
  999SOL     OW 3895   6.081   3.319   2.402
  999SOL    HW1 3896   5.988   3.334   2.435
  999SOL    HW2 3897   6.140   3.298   2.480
 1000SOL     OW 3898   5.945   1.869   2.047
 1000SOL    HW1 3899   6.020   1.873   2.113
 1000SOL    HW2 3900   5.943   1.778   2.005
 1001SOL     OW 3901   2.382   6.604   3.216
 1001SOL    HW1 3902   2.312   6.540   3.250
 1001SOL    HW2 3903   2.375   6.691   3.264
 1002SOL     OW 3904   4.116   2.590   0.296
 1002SOL    HW1 3905   4.212   2.567   0.276
 1002SOL    HW2 3906   4.096   2.571   0.391
 1003SOL     OW 3907   0.817   1.661   3.830
 1003SOL    HW1 3908   0.816   1.565   3.857
 1003SOL    HW2 3909   0.809   1.667   3.730
 1004SOL     OW 3910   4.503   1.253   4.901
 1004SOL    HW1 3911   4.472   1.347   4.890
 1004SOL    HW2 3912   4.427   1.195   4.931
 1005SOL     OW 3913   0.730   5.786   2.020
 1005SOL    HW1 3914   0.813   5.754   1.975
 1005SOL    HW2 3915   0.751   5.810   2.115
 1006SOL     OW 3916   1.523   4.803   1.342
 1006SOL    HW1 3917   1.498   4.848   1.427
 1006SOL    HW2 3918   1.579   4.722   1.363
 1007SOL     OW 3919   4.664   1.108   6.369
 1007SOL    HW1 3920   4.583   1.087   6.424
 1007SOL    HW2 3921   4.745   1.067   6.411
 1008SOL     OW 3922   0.234   4.344   4.557
 1008SOL    HW1 3923   0.221   4.434   4.599
 1008SOL    HW2 3924   0.327   4.338   4.520
 1009SOL     OW 3925   6.185   6.229   6.477
 1009SOL    HW1 3926   6.177   6.306   6.540
 1009SOL    HW2 3927   6.270   6.238   6.424
 1010SOL     OW 3928   3.273   4.071   0.393
 1010SOL    HW1 3929   3.263   4.081   0.294
 1010SOL    HW2 3930   3.194   4.113   0.438
 1011SOL     OW 3931   6.941   5.195   2.140
 1011SOL    HW1 3932   6.910   5.223   2.231
 1011SOL    HW2 3933   6.984   5.273   2.094
 1012SOL     OW 3934   5.307   6.029   3.291
 1012SOL    HW1 3935   5.242   6.033   3.215
 1012SOL    HW2 3936   5.355   6.116   3.298
 1013SOL     OW 3937   0.662   1.168   6.643
 1013SOL    HW1 3938   0.687   1.264   6.633
 1013SOL    HW2 3939   0.655   1.126   6.552
 1014SOL     OW 3940   0.786   4.532   4.639
 1014SOL    HW1 3941   0.866   4.492   4.685
 1014SOL    HW2 3942   0.790   4.508   4.542
 1015SOL     OW 3943   3.426   6.418   0.025
 1015SOL    HW1 3944   3.417   6.455   0.118
 1015SOL    HW2 3945   3.336   6.396   7.005
 1016SOL     OW 3946   6.847   5.064   0.250
 1016SOL    HW1 3947   6.863   5.005   0.328
 1016SOL    HW2 3948   6.808   5.012   0.175
 1017SOL     OW 3949   1.605   0.570   2.438
 1017SOL    HW1 3950   1.553   0.494   2.477
 1017SOL    HW2 3951   1.606   0.647   2.502
 1018SOL     OW 3952   5.588   6.020   5.652
 1018SOL    HW1 3953   5.654   6.059   5.716
 1018SOL    HW2 3954   5.496   6.049   5.677
 1019SOL     OW 3955   6.412   3.301   1.680
 1019SOL    HW1 3956   6.355   3.286   1.761
 1019SOL    HW2 3957   6.498   3.344   1.707
 1020SOL     OW 3958   5.360   1.021   1.162
 1020SOL    HW1 3959   5.290   0.956   1.131
 1020SOL    HW2 3960   5.451   0.985   1.140
 1021SOL     OW 3961   1.653   6.659   0.641
 1021SOL    HW1 3962   1.559   6.690   0.627
 1021SOL    HW2 3963   1.654   6.562   0.662
 1022SOL     OW 3964   1.707   5.207   6.053
 1022SOL    HW1 3965   1.636   5.139   6.069
 1022SOL    HW2 3966   1.677   5.295   6.089
 1023SOL     OW 3967   1.166   1.408   2.173
 1023SOL    HW1 3968   1.067   1.412   2.160
 1023SOL    HW2 3969   1.193   1.468   2.248
 1024SOL     OW 3970   1.811   2.597   4.101
 1024SOL    HW1 3971   1.733   2.654   4.125
 1024SOL    HW2 3972   1.862   2.639   4.026
 1025SOL     OW 3973   4.689   4.628   1.089
 1025SOL    HW1 3974   4.761   4.570   1.049
 1025SOL    HW2 3975   4.668   4.703   1.027
 1026SOL     OW 3976   3.557   2.773   1.895
 1026SOL    HW1 3977   3.560   2.678   1.866
 1026SOL    HW2 3978   3.462   2.799   1.913
 1027SOL     OW 3979   6.563   0.274   0.068
 1027SOL    HW1 3980   6.611   0.362   0.066
 1027SOL    HW2 3981   6.601   0.213   7.016
 1028SOL     OW 3982   0.908   5.508   3.281
 1028SOL    HW1 3983   0.861   5.550   3.359
 1028SOL    HW2 3984   0.998   5.474   3.311
 1029SOL     OW 3985   0.668   1.036   4.975
 1029SOL    HW1 3986   0.734   1.026   4.901
 1029SOL    HW2 3987   0.605   1.111   4.953
 1030SOL     OW 3988   4.182   3.679   0.940
 1030SOL    HW1 3989   4.206   3.582   0.944
 1030SOL    HW2 3990   4.249   3.732   0.993
 1031SOL     OW 3991   4.053   2.701   0.584
 1031SOL    HW1 3992   4.094   2.733   0.499
 1031SOL    HW2 3993   4.008   2.777   0.630
 1032SOL     OW 3994   0.857   0.982   1.628
 1032SOL    HW1 3995   0.802   1.056   1.590
 1032SOL    HW2 3996   0.901   1.014   1.712
 1033SOL     OW 3997   6.212   6.886   2.056
 1033SOL    HW1 3998   6.145   6.852   1.990
 1033SOL    HW2 3999   6.247   6.975   2.027
 1034SOL     OW 4000   2.069   0.938   5.424
 1034SOL    HW1 4001   2.143   0.967   5.484
 1034SOL    HW2 4002   2.052   0.840   5.436
 1035SOL     OW 4003   1.594   0.422   0.251
 1035SOL    HW1 4004   1.606   0.514   0.287
 1035SOL    HW2 4005   1.683   0.381   0.233
 1036SOL     OW 4006   5.317   1.219   2.382
 1036SOL    HW1 4007   5.243   1.165   2.423
 1036SOL    HW2 4008   5.390   1.158   2.352
 1037SOL     OW 4009   0.930   4.070   2.950
 1037SOL    HW1 4010   0.844   4.042   2.994
 1037SOL    HW2 4011   0.991   4.108   3.020
 1038SOL     OW 4012   1.674   6.435   6.866
 1038SOL    HW1 4013   1.733   6.481   6.799
 1038SOL    HW2 4014   1.633   6.503   6.927
 1039SOL     OW 4015   2.945   3.840   2.920
 1039SOL    HW1 4016   2.982   3.892   2.843
 1039SOL    HW2 4017   2.988   3.870   3.005
 1040SOL     OW 4018   3.612   1.237   2.753
 1040SOL    HW1 4019   3.525   1.271   2.788
 1040SOL    HW2 4020   3.595   1.162   2.688
 1041SOL     OW 4021   6.759   6.726   6.738
 1041SOL    HW1 4022   6.725   6.632   6.729
 1041SOL    HW2 4023   6.743   6.758   6.831
 1042SOL     OW 4024   5.515   3.492   3.792
 1042SOL    HW1 4025   5.488   3.479   3.887
 1042SOL    HW2 4026   5.612   3.517   3.788
 1043SOL     OW 4027   2.657   2.046   3.391
 1043SOL    HW1 4028   2.623   2.119   3.450
 1043SOL    HW2 4029   2.709   2.086   3.315
 1044SOL     OW 4030   5.613   4.474   2.350
 1044SOL    HW1 4031   5.651   4.514   2.267
 1044SOL    HW2 4032   5.670   4.499   2.428
 1045SOL     OW 4033   2.418   0.457   2.651
 1045SOL    HW1 4034   2.362   0.410   2.583
 1045SOL    HW2 4035   2.492   0.397   2.681
 1046SOL     OW 4036   3.225   2.596   0.947
 1046SOL    HW1 4037   3.249   2.631   1.037
 1046SOL    HW2 4038   3.146   2.646   0.912
 1047SOL     OW 4039   3.519   0.633   3.400
 1047SOL    HW1 4040   3.486   0.570   3.470
 1047SOL    HW2 4041   3.486   0.726   3.421
 1048SOL     OW 4042   0.082   7.003   2.440
 1048SOL    HW1 4043   0.137   6.920   2.448
 1048SOL    HW2 4044   0.023   7.012   2.521
 1049SOL     OW 4045   3.333   6.664   0.532
 1049SOL    HW1 4046   3.327   6.626   0.624
 1049SOL    HW2 4047   3.395   6.609   0.477
 1050SOL     OW 4048   2.376   1.971   4.502
 1050SOL    HW1 4049   2.347   1.952   4.596
 1050SOL    HW2 4050   2.384   1.885   4.452
 1051SOL     OW 4051   1.513   2.275   5.222
 1051SOL    HW1 4052   1.598   2.226   5.243
 1051SOL    HW2 4053   1.442   2.247   5.287
 1052SOL     OW 4054   4.510   2.379   6.264
 1052SOL    HW1 4055   4.467   2.467   6.243
 1052SOL    HW2 4056   4.504   2.361   6.362
 1053SOL     OW 4057   4.689   2.748   4.165
 1053SOL    HW1 4058   4.692   2.700   4.077
 1053SOL    HW2 4059   4.626   2.700   4.227
 1054SOL     OW 4060   4.921   5.293   6.738
 1054SOL    HW1 4061   4.971   5.342   6.666
 1054SOL    HW2 4062   4.826   5.281   6.709
 1055SOL     OW 4063   5.441   5.625   6.174
 1055SOL    HW1 4064   5.437   5.677   6.089
 1055SOL    HW2 4065   5.496   5.543   6.160
 1056SOL     OW 4066   3.995   3.609   0.260
 1056SOL    HW1 4067   3.933   3.532   0.266
 1056SOL    HW2 4068   3.945   3.695   0.273
 1057SOL     OW 4069   2.821   3.403   6.409
 1057SOL    HW1 4070   2.753   3.330   6.413
 1057SOL    HW2 4071   2.903   3.375   6.459
 1058SOL     OW 4072   3.228   2.148   1.755
 1058SOL    HW1 4073   3.223   2.196   1.668
 1058SOL    HW2 4074   3.320   2.113   1.769
 1059SOL     OW 4075   2.425   5.662   2.529
 1059SOL    HW1 4076   2.345   5.716   2.501
 1059SOL    HW2 4077   2.427   5.654   2.629
 1060SOL     OW 4078   6.492   0.108   5.407
 1060SOL    HW1 4079   6.560   0.177   5.383
 1060SOL    HW2 4080   6.421   0.150   5.464
 1061SOL     OW 4081   0.184   3.779   6.639
 1061SOL    HW1 4082   0.282   3.795   6.647
 1061SOL    HW2 4083   0.143   3.852   6.585
 1062SOL     OW 4084   3.725   4.855   5.786
 1062SOL    HW1 4085   3.816   4.897   5.796
 1062SOL    HW2 4086   3.699   4.855   5.689
 1063SOL     OW 4087   2.902   6.554   4.229
 1063SOL    HW1 4088   2.950   6.469   4.207
 1063SOL    HW2 4089   2.863   6.593   4.145
 1064SOL     OW 4090   0.920   4.391   0.902
 1064SOL    HW1 4091   0.835   4.339   0.915
 1064SOL    HW2 4092   0.921   4.430   0.811
 1065SOL     OW 4093   5.684   0.728   5.070
 1065SOL    HW1 4094   5.751   0.727   5.144
 1065SOL    HW2 4095   5.695   0.811   5.015
 1066SOL     OW 4096   4.324   6.085   0.935
 1066SOL    HW1 4097   4.373   5.999   0.921
 1066SOL    HW2 4098   4.236   6.081   0.887
 1067SOL     OW 4099   3.528   0.990   0.298
 1067SOL    HW1 4100   3.479   1.065   0.343
 1067SOL    HW2 4101   3.546   0.918   0.365
 1068SOL     OW 4102   6.057   2.994   2.238
 1068SOL    HW1 4103   5.979   3.022   2.293
 1068SOL    HW2 4104   6.073   3.060   2.165
 1069SOL     OW 4105   6.944   2.199   2.492
 1069SOL    HW1 4106   6.982   2.194   2.400
 1069SOL    HW2 4107   6.876   2.272   2.496
 1070SOL     OW 4108   1.073   0.705   2.268
 1070SOL    HW1 4109   1.033   0.777   2.326
 1070SOL    HW2 4110   1.004   0.636   2.249
 1071SOL     OW 4111   0.520   2.782   5.851
 1071SOL    HW1 4112   0.553   2.757   5.760
 1071SOL    HW2 4113   0.522   2.882   5.861
 1072SOL     OW 4114   2.445   1.396   1.835
 1072SOL    HW1 4115   2.401   1.485   1.841
 1072SOL    HW2 4116   2.387   1.333   1.782
 1073SOL     OW 4117   5.088   2.025   2.820
 1073SOL    HW1 4118   5.003   2.002   2.773
 1073SOL    HW2 4119   5.160   2.040   2.752
 1074SOL     OW 4120   3.402   5.726   1.875
 1074SOL    HW1 4121   3.312   5.769   1.860
 1074SOL    HW2 4122   3.466   5.759   1.805
 1075SOL     OW 4123   0.071   3.448   4.555
 1075SOL    HW1 4124   7.003   3.419   4.600
 1075SOL    HW2 4125   0.050   3.515   4.484
 1076SOL     OW 4126   2.486   4.137   5.340
 1076SOL    HW1 4127   2.489   4.041   5.314
 1076SOL    HW2 4128   2.460   4.192   5.261
 1077SOL     OW 4129   6.942   6.367   0.637
 1077SOL    HW1 4130   6.958   6.329   0.546
 1077SOL    HW2 4131   6.985   6.458   0.643
 1078SOL     OW 4132   5.517   6.913   4.252
 1078SOL    HW1 4133   5.514   6.813   4.254
 1078SOL    HW2 4134   5.424   6.949   4.244
 1079SOL     OW 4135   1.154   5.841   1.678
 1079SOL    HW1 4136   1.061   5.803   1.681
 1079SOL    HW2 4137   1.153   5.926   1.626
 1080SOL     OW 4138   4.984   5.812   0.171
 1080SOL    HW1 4139   4.889   5.832   0.146
 1080SOL    HW2 4140   4.993   5.715   0.193
 1081SOL     OW 4141   6.808   6.653   3.144
 1081SOL    HW1 4142   6.728   6.593   3.133
 1081SOL    HW2 4143   6.791   6.716   3.219
 1082SOL     OW 4144   4.367   7.012   0.165
 1082SOL    HW1 4145   4.270   0.006   0.146
 1082SOL    HW2 4146   4.401   6.928   0.124
 1083SOL     OW 4147   6.739   4.029   2.402
 1083SOL    HW1 4148   6.819   4.086   2.385
 1083SOL    HW2 4149   6.656   4.081   2.381
 1084SOL     OW 4150   3.926   0.742   5.579
 1084SOL    HW1 4151   3.976   0.814   5.627
 1084SOL    HW2 4152   3.897   0.775   5.489
 1085SOL     OW 4153   1.708   3.221   4.900
 1085SOL    HW1 4154   1.767   3.257   4.829
 1085SOL    HW2 4155   1.635   3.286   4.919
 1086SOL     OW 4156   5.683   4.724   2.172
 1086SOL    HW1 4157   5.751   4.670   2.122
 1086SOL    HW2 4158   5.727   4.806   2.208
 1087SOL     OW 4159   3.843   0.310   5.778
 1087SOL    HW1 4160   3.866   0.312   5.875
 1087SOL    HW2 4161   3.896   0.239   5.732
 1088SOL     OW 4162   6.287   5.438   4.506
 1088SOL    HW1 4163   6.373   5.426   4.456
 1088SOL    HW2 4164   6.262   5.352   4.551
 1089SOL     OW 4165   5.815   5.012   4.364
 1089SOL    HW1 4166   5.777   5.009   4.457
 1089SOL    HW2 4167   5.910   4.983   4.365
 1090SOL     OW 4168   6.105   2.841   5.022
 1090SOL    HW1 4169   6.157   2.813   5.103
 1090SOL    HW2 4170   6.017   2.878   5.050
 1091SOL     OW 4171   2.002   3.537   3.321
 1091SOL    HW1 4172   2.016   3.541   3.222
 1091SOL    HW2 4173   1.904   3.531   3.341
 1092SOL     OW 4174   1.058   6.340   0.252
 1092SOL    HW1 4175   1.074   6.270   0.183
 1092SOL    HW2 4176   1.098   6.427   0.223
 1093SOL     OW 4177   1.731   0.407   2.811
 1093SOL    HW1 4178   1.716   0.398   2.712
 1093SOL    HW2 4179   1.763   0.320   2.848
 1094SOL     OW 4180   0.082   6.936   3.300
 1094SOL    HW1 4181   0.024   6.885   3.364
 1094SOL    HW2 4182   0.025   6.975   3.228
 1095SOL     OW 4183   6.099   4.156   1.041
 1095SOL    HW1 4184   6.189   4.122   1.068
 1095SOL    HW2 4185   6.078   4.239   1.092
 1096SOL     OW 4186   1.843   6.183   2.367
 1096SOL    HW1 4187   1.878   6.225   2.284
 1096SOL    HW2 4188   1.902   6.107   2.394
 1097SOL     OW 4189   3.142   6.270   4.884
 1097SOL    HW1 4190   3.205   6.303   4.954
 1097SOL    HW2 4191   3.176   6.297   4.794
 1098SOL     OW 4192   6.789   4.260   0.061
 1098SOL    HW1 4193   6.749   4.178   0.021
 1098SOL    HW2 4194   6.888   4.260   0.046
 1099SOL     OW 4195   5.488   0.098   6.852
 1099SOL    HW1 4196   5.509   0.188   6.892
 1099SOL    HW2 4197   5.490   0.105   6.752
 1100SOL     OW 4198   4.865   1.401   4.080
 1100SOL    HW1 4199   4.964   1.403   4.091
 1100SOL    HW2 4200   4.821   1.431   4.164
 1101SOL     OW 4201   4.875   3.236   6.823
 1101SOL    HW1 4202   4.790   3.183   6.820
 1101SOL    HW2 4203   4.919   3.233   6.733
 1102SOL     OW 4204   3.345   0.958   4.430
 1102SOL    HW1 4205   3.260   0.962   4.483
 1102SOL    HW2 4206   3.391   0.872   4.449
 1103SOL     OW 4207   3.342   6.546   0.799
 1103SOL    HW1 4208   3.400   6.604   0.857
 1103SOL    HW2 4209   3.246   6.572   0.811
 1104SOL     OW 4210   6.380   1.426   3.460
 1104SOL    HW1 4211   6.348   1.455   3.370
 1104SOL    HW2 4212   6.479   1.414   3.458
 1105SOL     OW 4213   5.054   0.859   6.280
 1105SOL    HW1 4214   5.103   0.916   6.214
 1105SOL    HW2 4215   5.017   0.778   6.234
 1106SOL     OW 4216   6.054   1.451   1.650
 1106SOL    HW1 4217   6.144   1.444   1.694
 1106SOL    HW2 4218   5.986   1.479   1.717
 1107SOL     OW 4219   1.671   2.404   6.723
 1107SOL    HW1 4220   1.699   2.398   6.819
 1107SOL    HW2 4221   1.606   2.479   6.712
 1108SOL     OW 4222   2.285   1.685   3.007
 1108SOL    HW1 4223   2.226   1.740   2.947
 1108SOL    HW2 4224   2.364   1.739   3.035
 1109SOL     OW 4225   4.779   1.652   5.184
 1109SOL    HW1 4226   4.700   1.597   5.213
 1109SOL    HW2 4227   4.840   1.666   5.261
 1110SOL     OW 4228   1.318   0.796   2.728
 1110SOL    HW1 4229   1.330   0.698   2.709
 1110SOL    HW2 4230   1.225   0.812   2.761
 1111SOL     OW 4231   5.587   2.817   6.177
 1111SOL    HW1 4232   5.655   2.770   6.119
 1111SOL    HW2 4233   5.576   2.911   6.144
 1112SOL     OW 4234   5.733   0.501   2.609
 1112SOL    HW1 4235   5.656   0.513   2.547
 1112SOL    HW2 4236   5.702   0.516   2.703
 1113SOL     OW 4237   0.102   1.763   2.700
 1113SOL    HW1 4238   0.070   1.857   2.707
 1113SOL    HW2 4239   0.161   1.741   2.778
 1114SOL     OW 4240   3.350   3.526   4.894
 1114SOL    HW1 4241   3.273   3.464   4.879
 1114SOL    HW2 4242   3.324   3.619   4.867
 1115SOL     OW 4243   2.450   5.269   5.946
 1115SOL    HW1 4244   2.489   5.285   5.855
 1115SOL    HW2 4245   2.393   5.187   5.944
 1116SOL     OW 4246   4.528   0.101   0.422
 1116SOL    HW1 4247   4.441   0.151   0.429
 1116SOL    HW2 4248   4.573   0.125   0.336
 1117SOL     OW 4249   2.171   2.472   1.582
 1117SOL    HW1 4250   2.206   2.488   1.674
 1117SOL    HW2 4251   2.245   2.443   1.522
 1118SOL     OW 4252   4.495   6.502   6.855
 1118SOL    HW1 4253   4.562   6.557   6.904
 1118SOL    HW2 4254   4.504   6.518   6.757
 1119SOL     OW 4255   2.612   5.849   4.042
 1119SOL    HW1 4256   2.621   5.941   4.005
 1119SOL    HW2 4257   2.697   5.823   4.088
 1120SOL     OW 4258   0.351   3.351   1.655
 1120SOL    HW1 4259   0.293   3.375   1.733
 1120SOL    HW2 4260   0.443   3.385   1.669
 1121SOL     OW 4261   5.462   4.341   5.743
 1121SOL    HW1 4262   5.484   4.366   5.837
 1121SOL    HW2 4263   5.547   4.330   5.691
 1122SOL     OW 4264   6.054   0.738   2.182
 1122SOL    HW1 4265   6.062   0.715   2.279
 1122SOL    HW2 4266   6.048   0.655   2.128
 1123SOL     OW 4267   3.449   1.555   4.671
 1123SOL    HW1 4268   3.505   1.477   4.641
 1123SOL    HW2 4269   3.509   1.629   4.701
 1124SOL     OW 4270   2.425   2.682   3.344
 1124SOL    HW1 4271   2.411   2.604   3.283
 1124SOL    HW2 4272   2.397   2.766   3.296
 1125SOL     OW 4273   1.143   3.597   4.267
 1125SOL    HW1 4274   1.214   3.539   4.306
 1125SOL    HW2 4275   1.144   3.589   4.168
 1126SOL     OW 4276   4.705   4.311   3.854
 1126SOL    HW1 4277   4.802   4.295   3.871
 1126SOL    HW2 4278   4.666   4.359   3.932
 1127SOL     OW 4279   6.038   6.698   1.016
 1127SOL    HW1 4280   6.006   6.614   0.972
 1127SOL    HW2 4281   6.000   6.777   0.966
 1128SOL     OW 4282   3.858   1.907   4.878
 1128SOL    HW1 4283   3.853   1.992   4.931
 1128SOL    HW2 4284   3.846   1.928   4.781
 1129SOL     OW 4285   1.306   1.008   0.237
 1129SOL    HW1 4286   1.359   0.930   0.269
 1129SOL    HW2 4287   1.341   1.091   0.281
 1130SOL     OW 4288   2.114   5.331   1.400
 1130SOL    HW1 4289   2.070   5.283   1.323
 1130SOL    HW2 4290   2.056   5.407   1.429
 1131SOL     OW 4291   1.296   5.418   3.961
 1131SOL    HW1 4292   1.359   5.495   3.951
 1131SOL    HW2 4293   1.239   5.410   3.880
 1132SOL     OW 4294   1.494   2.095   3.267
 1132SOL    HW1 4295   1.463   2.102   3.172
 1132SOL    HW2 4296   1.417   2.068   3.325
 1133SOL     OW 4297   1.626   6.291   6.616
 1133SOL    HW1 4298   1.713   6.246   6.635
 1133SOL    HW2 4299   1.607   6.358   6.688
 1134SOL     OW 4300   4.397   5.722   1.009
 1134SOL    HW1 4301   4.475   5.764   1.055
 1134SOL    HW2 4302   4.422   5.699   0.915
 1135SOL     OW 4303   2.102   0.079   2.951
 1135SOL    HW1 4304   2.068   0.009   3.013
 1135SOL    HW2 4305   2.202   0.076   2.949
 1136SOL     OW 4306   1.752   4.506   2.803
 1136SOL    HW1 4307   1.834   4.509   2.745
 1136SOL    HW2 4308   1.671   4.522   2.747
 1137SOL     OW 4309   0.951   5.576   4.443
 1137SOL    HW1 4310   1.016   5.500   4.448
 1137SOL    HW2 4311   0.858   5.542   4.458
 1138SOL     OW 4312   2.237   4.090   4.395
 1138SOL    HW1 4313   2.265   4.069   4.489
 1138SOL    HW2 4314   2.140   4.069   4.383
 1139SOL     OW 4315   3.625   5.616   5.238
 1139SOL    HW1 4316   3.567   5.696   5.255
 1139SOL    HW2 4317   3.596   5.572   5.153
 1140SOL     OW 4318   1.999   2.547   1.203
 1140SOL    HW1 4319   1.998   2.612   1.127
 1140SOL    HW2 4320   2.006   2.598   1.290
 1141SOL     OW 4321   6.368   4.909   5.567
 1141SOL    HW1 4322   6.317   4.931   5.484
 1141SOL    HW2 4323   6.314   4.849   5.625
 1142SOL     OW 4324   0.574   5.293   3.021
 1142SOL    HW1 4325   0.514   5.368   2.994
 1142SOL    HW2 4326   0.586   5.230   2.944
 1143SOL     OW 4327   6.857   4.457   1.623
 1143SOL    HW1 4328   6.909   4.536   1.589
 1143SOL    HW2 4329   6.920   4.382   1.644
 1144SOL     OW 4330   5.254   4.797   0.225
 1144SOL    HW1 4331   5.240   4.706   0.262
 1144SOL    HW2 4332   5.325   4.794   0.154
 1145SOL     OW 4333   6.177   6.675   0.566
 1145SOL    HW1 4334   6.091   6.714   0.601
 1145SOL    HW2 4335   6.206   6.601   0.626
 1146SOL     OW 4336   1.874   0.682   1.488
 1146SOL    HW1 4337   1.967   0.718   1.494
 1146SOL    HW2 4338   1.848   0.642   1.576
 1147SOL     OW 4339   1.614   6.562   1.004
 1147SOL    HW1 4340   1.531   6.509   1.018
 1147SOL    HW2 4341   1.593   6.646   0.954
 1148SOL     OW 4342   3.420   6.025   2.049
 1148SOL    HW1 4343   3.416   5.926   2.062
 1148SOL    HW2 4344   3.473   6.067   2.122
 1149SOL     OW 4345   5.625   1.911   1.172
 1149SOL    HW1 4346   5.710   1.924   1.222
 1149SOL    HW2 4347   5.621   1.974   1.095
 1150SOL     OW 4348   1.456   1.926   1.017
 1150SOL    HW1 4349   1.514   1.922   0.936
 1150SOL    HW2 4350   1.361   1.911   0.991
 1151SOL     OW 4351   5.651   5.617   4.294
 1151SOL    HW1 4352   5.711   5.539   4.314
 1151SOL    HW2 4353   5.598   5.639   4.376
 1152SOL     OW 4354   3.123   6.410   5.666
 1152SOL    HW1 4355   3.092   6.350   5.740
 1152SOL    HW2 4356   3.047   6.470   5.639
 1153SOL     OW 4357   5.436   6.628   1.181
 1153SOL    HW1 4358   5.429   6.697   1.253
 1153SOL    HW2 4359   5.506   6.656   1.115
 1154SOL     OW 4360   1.809   3.223   0.739
 1154SOL    HW1 4361   1.712   3.242   0.752
 1154SOL    HW2 4362   1.823   3.126   0.721
 1155SOL     OW 4363   3.692   5.880   4.182
 1155SOL    HW1 4364   3.741   5.830   4.253
 1155SOL    HW2 4365   3.646   5.816   4.121
 1156SOL     OW 4366   2.759   1.223   1.556
 1156SOL    HW1 4367   2.792   1.179   1.473
 1156SOL    HW2 4368   2.703   1.158   1.608
 1157SOL     OW 4369   2.411   2.096   0.541
 1157SOL    HW1 4370   2.488   2.077   0.603
 1157SOL    HW2 4371   2.331   2.044   0.570
 1158SOL     OW 4372   5.948   4.455   4.113
 1158SOL    HW1 4373   5.985   4.479   4.203
 1158SOL    HW2 4374   5.883   4.526   4.084
 1159SOL     OW 4375   5.442   4.945   0.698
 1159SOL    HW1 4376   5.540   4.942   0.719
 1159SOL    HW2 4377   5.420   4.872   0.633
 1160SOL     OW 4378   4.473   2.002   0.836
 1160SOL    HW1 4379   4.439   2.090   0.870
 1160SOL    HW2 4380   4.429   1.928   0.888
 1161SOL     OW 4381   0.317   5.246   0.827
 1161SOL    HW1 4382   0.368   5.180   0.771
 1161SOL    HW2 4383   0.355   5.337   0.813
 1162SOL     OW 4384   2.125   2.613   4.886
 1162SOL    HW1 4385   2.195   2.618   4.956
 1162SOL    HW2 4386   2.128   2.695   4.828
 1163SOL     OW 4387   4.959   1.973   1.881
 1163SOL    HW1 4388   4.975   2.020   1.968
 1163SOL    HW2 4389   5.047   1.952   1.837
 1164SOL     OW 4390   4.250   1.965   5.515
 1164SOL    HW1 4391   4.167   2.020   5.515
 1164SOL    HW2 4392   4.311   1.995   5.589
 1165SOL     OW 4393   4.243   0.250   2.993
 1165SOL    HW1 4394   4.277   0.157   3.008
 1165SOL    HW2 4395   4.186   0.279   3.069
 1166SOL     OW 4396   3.701   4.221   6.478
 1166SOL    HW1 4397   3.647   4.148   6.435
 1166SOL    HW2 4398   3.784   4.236   6.425
 1167SOL     OW 4399   5.511   4.030   3.465
 1167SOL    HW1 4400   5.554   4.024   3.374
 1167SOL    HW2 4401   5.414   4.050   3.454
 1168SOL     OW 4402   0.799   6.664   1.053
 1168SOL    HW1 4403   0.850   6.646   0.969
 1168SOL    HW2 4404   0.701   6.653   1.036
 1169SOL     OW 4405   5.027   2.384   5.368
 1169SOL    HW1 4406   5.119   2.364   5.400
 1169SOL    HW2 4407   4.963   2.315   5.403
 1170SOL     OW 4408   4.750   4.626   2.713
 1170SOL    HW1 4409   4.764   4.547   2.773
 1170SOL    HW2 4410   4.807   4.616   2.632
 1171SOL     OW 4411   0.423   6.298   0.864
 1171SOL    HW1 4412   0.509   6.263   0.826
 1171SOL    HW2 4413   0.382   6.362   0.799
 1172SOL     OW 4414   5.877   3.225   6.851
 1172SOL    HW1 4415   5.968   3.210   6.814
 1172SOL    HW2 4416   5.884   3.258   6.945
 1173SOL     OW 4417   4.484   2.872   1.391
 1173SOL    HW1 4418   4.551   2.944   1.408
 1173SOL    HW2 4419   4.466   2.822   1.476
 1174SOL     OW 4420   3.026   5.013   0.316
 1174SOL    HW1 4421   3.068   4.993   0.227
 1174SOL    HW2 4422   3.096   5.010   0.387
 1175SOL     OW 4423   3.487   4.164   3.760
 1175SOL    HW1 4424   3.416   4.141   3.826
 1175SOL    HW2 4425   3.511   4.260   3.769
 1176SOL     OW 4426   5.634   3.292   0.275
 1176SOL    HW1 4427   5.615   3.379   0.229
 1176SOL    HW2 4428   5.553   3.234   0.273
 1177SOL     OW 4429   0.932   1.657   4.885
 1177SOL    HW1 4430   1.024   1.692   4.900
 1177SOL    HW2 4431   0.889   1.637   4.974
 1178SOL     OW 4432   4.208   6.469   0.052
 1178SOL    HW1 4433   4.146   6.472   0.130
 1178SOL    HW2 4434   4.279   6.400   0.069
 1179SOL     OW 4435   0.268   5.837   0.413
 1179SOL    HW1 4436   0.260   5.738   0.401
 1179SOL    HW2 4437   0.342   5.857   0.479
 1180SOL     OW 4438   3.788   6.384   0.533
 1180SOL    HW1 4439   3.791   6.303   0.475
 1180SOL    HW2 4440   3.853   6.375   0.607
 1181SOL     OW 4441   6.002   6.067   6.284
 1181SOL    HW1 4442   6.078   6.004   6.270
 1181SOL    HW2 4443   6.026   6.131   6.358
 1182SOL     OW 4444   5.011   3.623   4.307
 1182SOL    HW1 4445   4.979   3.532   4.334
 1182SOL    HW2 4446   5.014   3.682   4.388
 1183SOL     OW 4447   1.878   4.637   6.968
 1183SOL    HW1 4448   1.877   4.554   0.007
 1183SOL    HW2 4449   1.965   4.644   6.920
 1184SOL     OW 4450   0.089   1.456   5.297
 1184SOL    HW1 4451   0.164   1.389   5.300
 1184SOL    HW2 4452   0.014   1.419   5.243
 1185SOL     OW 4453   6.706   1.604   6.375
 1185SOL    HW1 4454   6.675   1.529   6.317
 1185SOL    HW2 4455   6.642   1.680   6.368
 1186SOL     OW 4456   5.329   6.681   4.569
 1186SOL    HW1 4457   5.290   6.589   4.575
 1186SOL    HW2 4458   5.423   6.674   4.537
 1187SOL     OW 4459   6.333   2.311   6.453
 1187SOL    HW1 4460   6.402   2.243   6.478
 1187SOL    HW2 4461   6.323   2.314   6.354
 1188SOL     OW 4462   3.985   1.852   6.631
 1188SOL    HW1 4463   4.070   1.901   6.613
 1188SOL    HW2 4464   3.922   1.865   6.555
 1189SOL     OW 4465   5.900   3.504   3.540
 1189SOL    HW1 4466   5.995   3.516   3.512
 1189SOL    HW2 4467   5.846   3.580   3.506
 1190SOL     OW 4468   2.919   0.234   3.905
 1190SOL    HW1 4469   2.924   0.281   3.817
 1190SOL    HW2 4470   2.903   0.300   3.978
 1191SOL     OW 4471   3.423   6.920   3.042
 1191SOL    HW1 4472   3.450   6.924   3.138
 1191SOL    HW2 4473   3.504   6.920   2.984
 1192SOL     OW 4474   6.118   5.642   3.951
 1192SOL    HW1 4475   6.126   5.603   3.859
 1192SOL    HW2 4476   6.144   5.574   4.019
 1193SOL     OW 4477   6.504   6.191   4.580
 1193SOL    HW1 4478   6.489   6.240   4.494
 1193SOL    HW2 4479   6.481   6.250   4.657
 1194SOL     OW 4480   3.870   0.582   0.845
 1194SOL    HW1 4481   3.939   0.601   0.915
 1194SOL    HW2 4482   3.850   0.484   0.843
 1195SOL     OW 4483   5.130   2.722   2.819
 1195SOL    HW1 4484   5.046   2.767   2.789
 1195SOL    HW2 4485   5.199   2.792   2.842
 1196SOL     OW 4486   0.377   6.535   4.894
 1196SOL    HW1 4487   0.457   6.556   4.837
 1196SOL    HW2 4488   0.312   6.480   4.842
 1197SOL     OW 4489   2.352   6.656   6.913
 1197SOL    HW1 4490   2.274   6.614   6.866
 1197SOL    HW2 4491   2.385   6.734   6.860
 1198SOL     OW 4492   1.501   2.661   0.265
 1198SOL    HW1 4493   1.428   2.593   0.270
 1198SOL    HW2 4494   1.562   2.640   0.188
 1199SOL     OW 4495   5.727   4.034   2.594
 1199SOL    HW1 4496   5.764   3.951   2.552
 1199SOL    HW2 4497   5.652   4.010   2.655
 1200SOL     OW 4498   3.241   3.951   2.336
 1200SOL    HW1 4499   3.147   3.969   2.367
 1200SOL    HW2 4500   3.291   4.037   2.330
 1201SOL     OW 4501   1.512   2.217   4.946
 1201SOL    HW1 4502   1.437   2.272   4.911
 1201SOL    HW2 4503   1.525   2.235   5.044
 1202SOL     OW 4504   1.231   6.188   5.128
 1202SOL    HW1 4505   1.315   6.193   5.182
 1202SOL    HW2 4506   1.247   6.131   5.047
 1203SOL     OW 4507   4.013   5.838   5.190
 1203SOL    HW1 4508   4.025   5.936   5.174
 1203SOL    HW2 4509   4.045   5.815   5.282
 1204SOL     OW 4510   2.247   6.666   2.544
 1204SOL    HW1 4511   2.263   6.745   2.603
 1204SOL    HW2 4512   2.151   6.662   2.519
 1205SOL     OW 4513   5.813   3.304   2.543
 1205SOL    HW1 4514   5.714   3.316   2.529
 1205SOL    HW2 4515   5.832   3.295   2.641
 1206SOL     OW 4516   3.021   3.948   4.238
 1206SOL    HW1 4517   2.954   3.874   4.233
 1206SOL    HW2 4518   3.101   3.924   4.183
 1207SOL     OW 4519   0.913   5.700   2.990
 1207SOL    HW1 4520   0.879   5.756   3.066
 1207SOL    HW2 4521   0.934   5.609   3.024
 1208SOL     OW 4522   3.500   2.873   6.574
 1208SOL    HW1 4523   3.478   2.900   6.667
 1208SOL    HW2 4524   3.511   2.774   6.569
 1209SOL     OW 4525   3.877   6.457   5.234
 1209SOL    HW1 4526   3.871   6.537   5.293
 1209SOL    HW2 4527   3.822   6.471   5.152
 1210SOL     OW 4528   3.168   0.963   2.641
 1210SOL    HW1 4529   3.252   0.959   2.696
 1210SOL    HW2 4530   3.190   0.990   2.548
 1211SOL     OW 4531   0.832   2.546   0.637
 1211SOL    HW1 4532   0.800   2.625   0.690
 1211SOL    HW2 4533   0.772   2.532   0.559
 1212SOL     OW 4534   0.907   6.751   0.476
 1212SOL    HW1 4535   0.900   6.702   0.389
 1212SOL    HW2 4536   0.854   6.703   0.546
 1213SOL     OW 4537   5.680   2.966   1.537
 1213SOL    HW1 4538   5.745   2.984   1.610
 1213SOL    HW2 4539   5.627   2.884   1.558
 1214SOL     OW 4540   6.987   2.518   2.382
 1214SOL    HW1 4541   6.958   2.587   2.449
 1214SOL    HW2 4542   6.911   2.500   2.319
 1215SOL     OW 4543   1.998   5.781   2.922
 1215SOL    HW1 4544   1.959   5.849   2.984
 1215SOL    HW2 4545   2.092   5.808   2.897
 1216SOL     OW 4546   4.281   0.168   1.400
 1216SOL    HW1 4547   4.256   0.261   1.374
 1216SOL    HW2 4548   4.198   0.116   1.420
 1217SOL     OW 4549   2.880   4.264   6.938
 1217SOL    HW1 4550   2.938   4.342   6.962
 1217SOL    HW2 4551   2.933   4.180   6.947
 1218SOL     OW 4552   2.254   4.792   4.080
 1218SOL    HW1 4553   2.271   4.699   4.046
 1218SOL    HW2 4554   2.303   4.805   4.167
 1219SOL     OW 4555   3.696   5.242   2.180
 1219SOL    HW1 4556   3.651   5.200   2.101
 1219SOL    HW2 4557   3.686   5.182   2.259
 1220SOL     OW 4558   0.442   4.919   2.136
 1220SOL    HW1 4559   0.499   4.899   2.056
 1220SOL    HW2 4560   0.388   5.001   2.118
 1221SOL     OW 4561   4.659   4.208   6.815
 1221SOL    HW1 4562   4.708   4.280   6.765
 1221SOL    HW2 4563   4.605   4.154   6.750
 1222SOL     OW 4564   0.137   1.144   6.619
 1222SOL    HW1 4565   0.085   1.100   6.545
 1222SOL    HW2 4566   0.153   1.240   6.595
 1223SOL     OW 4567   3.987   6.239   1.125
 1223SOL    HW1 4568   3.929   6.273   1.051
 1223SOL    HW2 4569   3.938   6.170   1.177
 1224SOL     OW 4570   3.078   1.003   1.564
 1224SOL    HW1 4571   3.096   1.089   1.516
 1224SOL    HW2 4572   3.052   1.023   1.659
 1225SOL     OW 4573   3.449   4.210   6.103
 1225SOL    HW1 4574   3.390   4.146   6.152
 1225SOL    HW2 4575   3.479   4.168   6.017
 1226SOL     OW 4576   2.229   4.963   0.586
 1226SOL    HW1 4577   2.206   4.993   0.493
 1226SOL    HW2 4578   2.328   4.964   0.597
 1227SOL     OW 4579   1.583   4.545   5.631
 1227SOL    HW1 4580   1.537   4.612   5.690
 1227SOL    HW2 4581   1.595   4.459   5.682
 1228SOL     OW 4582   3.889   2.547   0.140
 1228SOL    HW1 4583   3.805   2.599   0.156
 1228SOL    HW2 4584   3.943   2.544   0.225
 1229SOL     OW 4585   3.408   3.818   6.736
 1229SOL    HW1 4586   3.398   3.754   6.659
 1229SOL    HW2 4587   3.324   3.819   6.790
 1230SOL     OW 4588   4.339   0.613   3.816
 1230SOL    HW1 4589   4.403   0.579   3.747
 1230SOL    HW2 4590   4.248   0.576   3.798
 1231SOL     OW 4591   0.682   3.577   3.773
 1231SOL    HW1 4592   0.650   3.587   3.679
 1231SOL    HW2 4593   0.782   3.587   3.776
 1232SOL     OW 4594   1.764   2.747   2.579
 1232SOL    HW1 4595   1.708   2.676   2.536
 1232SOL    HW2 4596   1.811   2.710   2.659
 1233SOL     OW 4597   0.694   2.109   4.445
 1233SOL    HW1 4598   0.631   2.162   4.388
 1233SOL    HW2 4599   0.641   2.057   4.513
 1234SOL     OW 4600   6.538   4.372   4.347
 1234SOL    HW1 4601   6.582   4.281   4.351
 1234SOL    HW2 4602   6.605   4.439   4.315
 1235SOL     OW 4603   6.364   5.092   3.464
 1235SOL    HW1 4604   6.462   5.095   3.486
 1235SOL    HW2 4605   6.321   5.176   3.496
 1236SOL     OW 4606   5.651   0.671   6.657
 1236SOL    HW1 4607   5.556   0.647   6.680
 1236SOL    HW2 4608   5.651   0.755   6.602
 1237SOL     OW 4609   2.134   4.637   6.404
 1237SOL    HW1 4610   2.167   4.731   6.415
 1237SOL    HW2 4611   2.191   4.576   6.459
 1238SOL     OW 4612   1.896   1.403   1.379
 1238SOL    HW1 4613   1.895   1.403   1.279
 1238SOL    HW2 4614   1.945   1.484   1.411
 1239SOL     OW 4615   0.854   6.843   5.978
 1239SOL    HW1 4616   0.926   6.863   5.911
 1239SOL    HW2 4617   0.849   6.917   6.045
 1240SOL     OW 4618   5.794   5.448   0.684
 1240SOL    HW1 4619   5.696   5.433   0.669
 1240SOL    HW2 4620   5.807   5.515   0.757
 1241SOL     OW 4621   0.234   2.194   4.061
 1241SOL    HW1 4622   0.275   2.134   3.993
 1241SOL    HW2 4623   0.163   2.144   4.111
 1242SOL     OW 4624   2.069   2.422   6.790
 1242SOL    HW1 4625   2.081   2.358   6.866
 1242SOL    HW2 4626   2.136   2.403   6.719
 1243SOL     OW 4627   3.111   5.119   5.078
 1243SOL    HW1 4628   3.077   5.027   5.058
 1243SOL    HW2 4629   3.099   5.177   4.997
 1244SOL     OW 4630   0.730   1.870   2.925
 1244SOL    HW1 4631   0.808   1.828   2.877
 1244SOL    HW2 4632   0.754   1.883   3.021
 1245SOL     OW 4633   3.110   3.057   5.337
 1245SOL    HW1 4634   3.032   3.004   5.370
 1245SOL    HW2 4635   3.123   3.041   5.239
 1246SOL     OW 4636   1.289   6.520   2.046
 1246SOL    HW1 4637   1.291   6.421   2.051
 1246SOL    HW2 4638   1.373   6.553   2.002
 1247SOL     OW 4639   1.049   6.050   6.606
 1247SOL    HW1 4640   0.970   6.037   6.665
 1247SOL    HW2 4641   1.112   5.972   6.616
 1248SOL     OW 4642   2.125   0.030   4.022
 1248SOL    HW1 4643   2.157   7.007   4.108
 1248SOL    HW2 4644   2.026   0.014   4.013
 1249SOL     OW 4645   6.064   3.178   3.311
 1249SOL    HW1 4646   6.109   3.100   3.266
 1249SOL    HW2 4647   6.034   3.151   3.402
 1250SOL     OW 4648   0.143   3.041   4.698
 1250SOL    HW1 4649   0.154   3.104   4.621
 1250SOL    HW2 4650   0.220   2.978   4.702
 1251SOL     OW 4651   3.412   0.616   6.130
 1251SOL    HW1 4652   3.370   0.544   6.185
 1251SOL    HW2 4653   3.510   0.622   6.152
 1252SOL     OW 4654   3.641   3.667   0.425
 1252SOL    HW1 4655   3.720   3.699   0.478
 1252SOL    HW2 4656   3.558   3.678   0.479
 1253SOL     OW 4657   4.919   1.240   2.920
 1253SOL    HW1 4658   4.867   1.187   2.987
 1253SOL    HW2 4659   4.868   1.322   2.895
 1254SOL     OW 4660   5.657   0.942   3.564
 1254SOL    HW1 4661   5.726   0.982   3.624
 1254SOL    HW2 4662   5.566   0.972   3.594
 1255SOL     OW 4663   6.028   0.535   1.967
 1255SOL    HW1 4664   6.037   0.600   1.891
 1255SOL    HW2 4665   5.990   0.449   1.933
 1256SOL     OW 4666   5.305   3.077   3.536
 1256SOL    HW1 4667   5.305   2.994   3.591
 1256SOL    HW2 4668   5.395   3.089   3.494
 1257SOL     OW 4669   5.730   1.085   4.064
 1257SOL    HW1 4670   5.810   1.128   4.107
 1257SOL    HW2 4671   5.753   0.991   4.040
 1258SOL     OW 4672   6.956   5.111   3.685
 1258SOL    HW1 4673   6.903   5.180   3.636
 1258SOL    HW2 4674   0.018   5.084   3.629
 1259SOL     OW 4675   5.349   2.154   4.640
 1259SOL    HW1 4676   5.410   2.192   4.571
 1259SOL    HW2 4677   5.297   2.227   4.683
 1260SOL     OW 4678   0.814   1.612   5.145
 1260SOL    HW1 4679   0.826   1.689   5.208
 1260SOL    HW2 4680   0.723   1.615   5.104
 1261SOL     OW 4681   6.725   3.448   1.205
 1261SOL    HW1 4682   6.647   3.454   1.268
 1261SOL    HW2 4683   6.696   3.405   1.120
 1262SOL     OW 4684   4.778   6.263   2.108
 1262SOL    HW1 4685   4.853   6.205   2.078
 1262SOL    HW2 4686   4.788   6.282   2.206
 1263SOL     OW 4687   1.035   2.227   3.175
 1263SOL    HW1 4688   1.052   2.209   3.271
 1263SOL    HW2 4689   1.035   2.326   3.159
 1264SOL     OW 4690   1.137   2.767   5.227
 1264SOL    HW1 4691   1.203   2.832   5.188
 1264SOL    HW2 4692   1.142   2.680   5.178
 1265SOL     OW 4693   6.204   0.532   5.791
 1265SOL    HW1 4694   6.194   0.615   5.847
 1265SOL    HW2 4695   6.291   0.488   5.811
 1266SOL     OW 4696   3.256   1.309   5.685
 1266SOL    HW1 4697   3.281   1.389   5.631
 1266SOL    HW2 4698   3.338   1.257   5.708
 1267SOL     OW 4699   3.259   1.077   2.119
 1267SOL    HW1 4700   3.253   1.022   2.037
 1267SOL    HW2 4701   3.293   1.168   2.096
 1268SOL     OW 4702   4.183   2.125   5.242
 1268SOL    HW1 4703   4.242   2.090   5.314
 1268SOL    HW2 4704   4.096   2.075   5.243
 1269SOL     OW 4705   5.682   2.163   3.441
 1269SOL    HW1 4706   5.665   2.252   3.483
 1269SOL    HW2 4707   5.687   2.092   3.511
 1270SOL     OW 4708   5.886   5.309   3.482
 1270SOL    HW1 4709   5.975   5.276   3.450
 1270SOL    HW2 4710   5.816   5.242   3.459
 1271SOL     OW 4711   1.410   0.439   2.176
 1271SOL    HW1 4712   1.385   0.514   2.238
 1271SOL    HW2 4713   1.482   0.469   2.115
 1272SOL     OW 4714   6.552   2.067   0.349
 1272SOL    HW1 4715   6.577   1.975   0.378
 1272SOL    HW2 4716   6.586   2.084   0.256
 1273SOL     OW 4717   2.008   4.333   5.578
 1273SOL    HW1 4718   2.043   4.378   5.660
 1273SOL    HW2 4719   2.074   4.345   5.503
 1274SOL     OW 4720   0.085   4.760   4.354
 1274SOL    HW1 4721   0.065   4.736   4.259
 1274SOL    HW2 4722   0.004   4.800   4.396
 1275SOL     OW 4723   1.668   1.629   2.995
 1275SOL    HW1 4724   1.732   1.564   2.954
 1275SOL    HW2 4725   1.657   1.708   2.934
 1276SOL     OW 4726   5.843   4.261   3.874
 1276SOL    HW1 4727   5.816   4.178   3.825
 1276SOL    HW2 4728   5.812   4.255   3.969
 1277SOL     OW 4729   1.491   6.307   6.365
 1277SOL    HW1 4730   1.549   6.334   6.442
 1277SOL    HW2 4731   1.497   6.208   6.351
 1278SOL     OW 4732   0.085   6.310   3.126
 1278SOL    HW1 4733   7.006   6.290   3.146
 1278SOL    HW2 4734   0.123   6.237   3.069
 1279SOL     OW 4735   2.995   3.220   0.450
 1279SOL    HW1 4736   3.012   3.308   0.408
 1279SOL    HW2 4737   2.989   3.230   0.549
 1280SOL     OW 4738   2.988   2.246   3.890
 1280SOL    HW1 4739   2.917   2.279   3.828
 1280SOL    HW2 4740   3.053   2.190   3.840
 1281SOL     OW 4741   5.292   6.213   5.387
 1281SOL    HW1 4742   5.311   6.130   5.438
 1281SOL    HW2 4743   5.358   6.223   5.313
 1282SOL     OW 4744   1.234   2.578   1.228
 1282SOL    HW1 4745   1.182   2.504   1.270
 1282SOL    HW2 4746   1.308   2.606   1.289
 1283SOL     OW 4747   1.088   0.742   4.142
 1283SOL    HW1 4748   1.048   0.796   4.216
 1283SOL    HW2 4749   1.049   0.651   4.141
 1284SOL     OW 4750   3.897   2.342   1.808
 1284SOL    HW1 4751   3.806   2.318   1.844
 1284SOL    HW2 4752   3.913   2.440   1.822
 1285SOL     OW 4753   4.023   1.067   4.555
 1285SOL    HW1 4754   3.934   1.031   4.526
 1285SOL    HW2 4755   4.016   1.166   4.569
 1286SOL     OW 4756   4.783   1.258   2.051
 1286SOL    HW1 4757   4.853   1.272   1.982
 1286SOL    HW2 4758   4.721   1.185   2.022
 1287SOL     OW 4759   5.396   4.860   6.379
 1287SOL    HW1 4760   5.489   4.894   6.385
 1287SOL    HW2 4761   5.351   4.899   6.298
 1288SOL     OW 4762   4.468   4.614   6.166
 1288SOL    HW1 4763   4.431   4.577   6.252
 1288SOL    HW2 4764   4.554   4.568   6.145
 1289SOL     OW 4765   1.421   6.769   0.329
 1289SOL    HW1 4766   1.461   6.683   0.297
 1289SOL    HW2 4767   1.495   6.834   0.349
 1290SOL     OW 4768   1.190   6.666   4.324
 1290SOL    HW1 4769   1.256   6.692   4.253
 1290SOL    HW2 4770   1.213   6.576   4.361
 1291SOL     OW 4771   5.303   5.493   3.233
 1291SOL    HW1 4772   5.230   5.493   3.301
 1291SOL    HW2 4773   5.308   5.583   3.189
 1292SOL     OW 4774   0.203   6.774   3.011
 1292SOL    HW1 4775   0.132   6.721   3.056
 1292SOL    HW2 4776   0.218   6.859   3.061
 1293SOL     OW 4777   5.174   0.244   0.838
 1293SOL    HW1 4778   5.170   0.203   0.929
 1293SOL    HW2 4779   5.089   0.226   0.789
 1294SOL     OW 4780   2.156   4.498   5.756
 1294SOL    HW1 4781   2.125   4.550   5.836
 1294SOL    HW2 4782   2.247   4.462   5.773
 1295SOL     OW 4783   0.025   4.817   0.161
 1295SOL    HW1 4784   0.006   4.842   0.256
 1295SOL    HW2 4785   0.018   4.718   0.151
 1296SOL     OW 4786   4.051   0.590   6.001
 1296SOL    HW1 4787   4.040   0.605   5.902
 1296SOL    HW2 4788   4.122   0.522   6.016
 1297SOL     OW 4789   6.068   6.716   6.727
 1297SOL    HW1 4790   6.096   6.806   6.760
 1297SOL    HW2 4791   6.149   6.662   6.705
 1298SOL     OW 4792   5.039   0.434   3.187
 1298SOL    HW1 4793   5.097   0.451   3.266
 1298SOL    HW2 4794   5.024   0.520   3.138
 1299SOL     OW 4795   1.068   4.887   4.956
 1299SOL    HW1 4796   1.157   4.925   4.981
 1299SOL    HW2 4797   1.071   4.854   4.861
 1300SOL     OW 4798   1.505   5.597   6.986
 1300SOL    HW1 4799   1.487   5.597   6.887
 1300SOL    HW2 4800   1.494   5.690   0.004
 1301SOL     OW 4801   6.255   1.298   6.739
 1301SOL    HW1 4802   6.330   1.341   6.689
 1301SOL    HW2 4803   6.168   1.337   6.709
 1302SOL     OW 4804   6.558   6.722   4.956
 1302SOL    HW1 4805   6.550   6.670   5.042
 1302SOL    HW2 4806   6.651   6.713   4.920
 1303SOL     OW 4807   3.119   6.626   1.491
 1303SOL    HW1 4808   3.051   6.699   1.481
 1303SOL    HW2 4809   3.203   6.663   1.531
 1304SOL     OW 4810   6.782   0.424   0.256
 1304SOL    HW1 4811   6.878   0.434   0.282
 1304SOL    HW2 4812   6.748   0.335   0.288
 1305SOL     OW 4813   4.047   4.158   6.049
 1305SOL    HW1 4814   4.090   4.247   6.034
 1305SOL    HW2 4815   3.955   4.158   6.008
 1306SOL     OW 4816   2.822   6.490   4.466
 1306SOL    HW1 4817   2.829   6.524   4.373
 1306SOL    HW2 4818   2.867   6.401   4.473
 1307SOL     OW 4819   2.058   3.475   3.816
 1307SOL    HW1 4820   2.138   3.527   3.786
 1307SOL    HW2 4821   2.076   3.433   3.905
 1308SOL     OW 4822   0.873   3.871   6.405
 1308SOL    HW1 4823   0.853   3.785   6.358
 1308SOL    HW2 4824   0.890   3.852   6.502
 1309SOL     OW 4825   6.088   3.897   6.612
 1309SOL    HW1 4826   6.048   3.821   6.662
 1309SOL    HW2 4827   6.019   3.968   6.597
 1310SOL     OW 4828   2.202   2.996   3.377
 1310SOL    HW1 4829   2.111   3.037   3.363
 1310SOL    HW2 4830   2.214   2.974   3.474
 1311SOL     OW 4831   6.359   5.070   0.235
 1311SOL    HW1 4832   6.264   5.062   0.203
 1311SOL    HW2 4833   6.362   5.058   0.334
 1312SOL     OW 4834   2.302   1.428   6.470
 1312SOL    HW1 4835   2.401   1.416   6.461
 1312SOL    HW2 4836   2.279   1.525   6.462
 1313SOL     OW 4837   5.316   4.907   2.650
 1313SOL    HW1 4838   5.223   4.942   2.664
 1313SOL    HW2 4839   5.318   4.851   2.567
 1314SOL     OW 4840   2.541   1.474   4.038
 1314SOL    HW1 4841   2.536   1.571   4.014
 1314SOL    HW2 4842   2.626   1.435   4.004
 1315SOL     OW 4843   5.974   0.961   3.311
 1315SOL    HW1 4844   5.986   0.909   3.227
 1315SOL    HW2 4845   5.955   1.057   3.289
 1316SOL     OW 4846   5.499   0.368   6.351
 1316SOL    HW1 4847   5.585   0.360   6.402
 1316SOL    HW2 4848   5.507   0.442   6.284
 1317SOL     OW 4849   4.056   3.172   4.110
 1317SOL    HW1 4850   4.148   3.140   4.135
 1317SOL    HW2 4851   3.997   3.169   4.190
 1318SOL     OW 4852   1.951   1.272   6.774
 1318SOL    HW1 4853   2.031   1.225   6.811
 1318SOL    HW2 4854   1.871   1.252   6.830
 1319SOL     OW 4855   6.703   1.844   0.465
 1319SOL    HW1 4856   6.702   1.805   0.373
 1319SOL    HW2 4857   6.628   1.807   0.518
 1320SOL     OW 4858   2.659   2.879   5.986
 1320SOL    HW1 4859   2.593   2.803   5.977
 1320SOL    HW2 4860   2.675   2.920   5.896
 1321SOL     OW 4861   0.146   3.058   1.431
 1321SOL    HW1 4862   0.184   3.146   1.403
 1321SOL    HW2 4863   0.149   3.050   1.530
 1322SOL     OW 4864   2.243   2.775   0.299
 1322SOL    HW1 4865   2.310   2.742   0.232
 1322SOL    HW2 4866   2.283   2.851   0.351
 1323SOL     OW 4867   4.274   0.457   1.211
 1323SOL    HW1 4868   4.176   0.469   1.195
 1323SOL    HW2 4869   4.321   0.544   1.194
 1324SOL     OW 4870   2.386   3.804   5.892
 1324SOL    HW1 4871   2.321   3.816   5.817
 1324SOL    HW2 4872   2.400   3.706   5.908
 1325SOL     OW 4873   4.120   5.706   4.665
 1325SOL    HW1 4874   4.068   5.622   4.678
 1325SOL    HW2 4875   4.193   5.711   4.733
 1326SOL     OW 4876   4.164   1.021   4.885
 1326SOL    HW1 4877   4.249   0.994   4.842
 1326SOL    HW2 4878   4.169   1.117   4.913
 1327SOL     OW 4879   4.889   5.850   1.954
 1327SOL    HW1 4880   4.927   5.758   1.950
 1327SOL    HW2 4881   4.792   5.847   1.930
 1328SOL     OW 4882   1.514   1.972   5.548
 1328SOL    HW1 4883   1.472   2.027   5.476
 1328SOL    HW2 4884   1.446   1.956   5.621
 1329SOL     OW 4885   1.181   3.343   3.845
 1329SOL    HW1 4886   1.081   3.351   3.846
 1329SOL    HW2 4887   1.211   3.312   3.754
 1330SOL     OW 4888   6.836   3.257   2.638
 1330SOL    HW1 4889   6.846   3.226   2.733
 1330SOL    HW2 4890   6.797   3.349   2.638
 1331SOL     OW 4891   3.719   1.597   2.900
 1331SOL    HW1 4892   3.724   1.522   2.835
 1331SOL    HW2 4893   3.811   1.624   2.927
 1332SOL     OW 4894   2.461   6.173   6.775
 1332SOL    HW1 4895   2.378   6.125   6.803
 1332SOL    HW2 4896   2.490   6.137   6.686
 1333SOL     OW 4897   3.927   3.618   2.520
 1333SOL    HW1 4898   3.973   3.535   2.553
 1333SOL    HW2 4899   3.839   3.593   2.481
 1334SOL     OW 4900   6.765   4.069   1.244
 1334SOL    HW1 4901   6.833   4.135   1.277
 1334SOL    HW2 4902   6.710   4.036   1.321
 1335SOL     OW 4903   0.114   3.589   2.967
 1335SOL    HW1 4904   0.056   3.617   3.044
 1335SOL    HW2 4905   0.102   3.491   2.950
 1336SOL     OW 4906   2.374   6.477   6.154
 1336SOL    HW1 4907   2.404   6.562   6.197
 1336SOL    HW2 4908   2.390   6.482   6.056
 1337SOL     OW 4909   0.660   6.729   2.330
 1337SOL    HW1 4910   0.585   6.696   2.274
 1337SOL    HW2 4911   0.717   6.652   2.360
 1338SOL     OW 4912   0.281   3.731   5.199
 1338SOL    HW1 4913   0.361   3.728   5.140
 1338SOL    HW2 4914   0.301   3.685   5.286
 1339SOL     OW 4915   5.734   1.044   0.121
 1339SOL    HW1 4916   5.718   0.987   0.202
 1339SOL    HW2 4917   5.723   0.989   0.039
 1340SOL     OW 4918   2.741   2.643   1.038
 1340SOL    HW1 4919   2.765   2.665   1.133
 1340SOL    HW2 4920   2.642   2.641   1.028
 1341SOL     OW 4921   5.741   5.879   6.532
 1341SOL    HW1 4922   5.795   5.796   6.544
 1341SOL    HW2 4923   5.727   5.896   6.434
 1342SOL     OW 4924   1.878   5.978   1.820
 1342SOL    HW1 4925   1.819   5.936   1.889
 1342SOL    HW2 4926   1.880   5.921   1.738
 1343SOL     OW 4927   4.944   5.948   3.042
 1343SOL    HW1 4928   4.919   6.040   3.073
 1343SOL    HW2 4929   4.948   5.886   3.120
 1344SOL     OW 4930   1.223   0.539   3.604
 1344SOL    HW1 4931   1.315   0.505   3.622
 1344SOL    HW2 4932   1.173   0.472   3.549
 1345SOL     OW 4933   1.474   6.615   5.473
 1345SOL    HW1 4934   1.412   6.539   5.456
 1345SOL    HW2 4935   1.429   6.701   5.448
 1346SOL     OW 4936   2.934   5.938   3.661
 1346SOL    HW1 4937   2.997   5.979   3.595
 1346SOL    HW2 4938   2.947   5.980   3.750
 1347SOL     OW 4939   1.440   0.685   6.423
 1347SOL    HW1 4940   1.366   0.720   6.480
 1347SOL    HW2 4941   1.418   0.698   6.327
 1348SOL     OW 4942   1.492   0.038   4.910
 1348SOL    HW1 4943   1.415   0.046   4.847
 1348SOL    HW2 4944   1.540   6.969   4.893
 1349SOL     OW 4945   5.703   3.895   4.130
 1349SOL    HW1 4946   5.662   3.828   4.192
 1349SOL    HW2 4947   5.717   3.852   4.040
 1350SOL     OW 4948   5.353   4.617   6.575
 1350SOL    HW1 4949   5.294   4.582   6.502
 1350SOL    HW2 4950   5.413   4.688   6.538
 1351SOL     OW 4951   6.743   2.743   6.651
 1351SOL    HW1 4952   6.718   2.795   6.732
 1351SOL    HW2 4953   6.688   2.660   6.646
 1352SOL     OW 4954   6.860   1.034   3.206
 1352SOL    HW1 4955   6.807   0.970   3.262
 1352SOL    HW2 4956   6.800   1.106   3.171
 1353SOL     OW 4957   6.409   2.501   6.098
 1353SOL    HW1 4958   6.508   2.485   6.096
 1353SOL    HW2 4959   6.362   2.413   6.103
 1354SOL     OW 4960   4.932   4.778   3.064
 1354SOL    HW1 4961   4.844   4.730   3.065
 1354SOL    HW2 4962   4.931   4.848   2.992
 1355SOL     OW 4963   4.024   3.425   5.074
 1355SOL    HW1 4964   4.047   3.459   4.983
 1355SOL    HW2 4965   4.101   3.439   5.136
 1356SOL     OW 4966   2.936   3.149   6.713
 1356SOL    HW1 4967   2.875   3.084   6.668
 1356SOL    HW2 4968   3.024   3.152   6.665
 1357SOL     OW 4969   0.546   3.026   5.731
 1357SOL    HW1 4970   0.519   3.115   5.694
 1357SOL    HW2 4971   0.639   3.032   5.768
 1358SOL     OW 4972   2.168   6.994   6.705
 1358SOL    HW1 4973   2.112   6.972   6.785
 1358SOL    HW2 4974   2.171   0.076   6.693
 1359SOL     OW 4975   6.295   4.771   0.171
 1359SOL    HW1 4976   6.321   4.757   0.075
 1359SOL    HW2 4977   6.221   4.839   0.175
 1360SOL     OW 4978   2.613   1.725   5.810
 1360SOL    HW1 4979   2.632   1.728   5.908
 1360SOL    HW2 4980   2.532   1.781   5.790
 1361SOL     OW 4981   6.118   5.151   4.995
 1361SOL    HW1 4982   6.098   5.112   4.905
 1361SOL    HW2 4983   6.148   5.079   5.057
 1362SOL     OW 4984   3.283   3.792   3.837
 1362SOL    HW1 4985   3.193   3.835   3.835
 1362SOL    HW2 4986   3.329   3.805   3.749
 1363SOL     OW 4987   0.230   6.745   3.641
 1363SOL    HW1 4988   0.266   6.838   3.653
 1363SOL    HW2 4989   0.226   6.724   3.543
 1364SOL     OW 4990   3.889   4.042   6.956
 1364SOL    HW1 4991   3.812   3.994   6.913
 1364SOL    HW2 4992   3.975   4.002   6.926
 1365SOL     OW 4993   5.407   2.215   5.913
 1365SOL    HW1 4994   5.394   2.147   5.840
 1365SOL    HW2 4995   5.420   2.305   5.872
 1366SOL     OW 4996   1.786   0.878   5.023
 1366SOL    HW1 4997   1.692   0.877   5.058
 1366SOL    HW2 4998   1.809   0.969   4.990
 1367SOL     OW 4999   2.387   1.620   2.282
 1367SOL    HW1 5000   2.413   1.688   2.214
 1367SOL    HW2 5001   2.391   1.662   2.373
 1368SOL     OW 5002   6.531   0.411   3.305
 1368SOL    HW1 5003   6.564   0.504   3.324
 1368SOL    HW2 5004   6.474   0.380   3.380
 1369SOL     OW 5005   6.924   0.579   2.832
 1369SOL    HW1 5006   6.905   0.656   2.771
 1369SOL    HW2 5007   7.004   0.529   2.799
 1370SOL     OW 5008   1.650   1.134   2.892
 1370SOL    HW1 5009   1.724   1.110   2.955
 1370SOL    HW2 5010   1.656   1.076   2.810
 1371SOL     OW 5011   3.064   0.385   5.781
 1371SOL    HW1 5012   2.996   0.312   5.783
 1371SOL    HW2 5013   3.027   0.464   5.732
 1372SOL     OW 5014   2.838   1.811   1.373
 1372SOL    HW1 5015   2.856   1.769   1.462
 1372SOL    HW2 5016   2.796   1.901   1.386
 1373SOL     OW 5017   1.716   5.467   6.219
 1373SOL    HW1 5018   1.772   5.436   6.295
 1373SOL    HW2 5019   1.740   5.561   6.196
 1374SOL     OW 5020   5.541   3.572   4.976
 1374SOL    HW1 5021   5.573   3.666   4.988
 1374SOL    HW2 5022   5.484   3.567   4.894
 1375SOL     OW 5023   1.386   4.122   4.204
 1375SOL    HW1 5024   1.422   4.120   4.297
 1375SOL    HW2 5025   1.297   4.168   4.203
 1376SOL     OW 5026   4.841   0.448   1.653
 1376SOL    HW1 5027   4.932   0.462   1.692
 1376SOL    HW2 5028   4.783   0.526   1.675
 1377SOL     OW 5029   7.005   4.199   5.054
 1377SOL    HW1 5030   0.076   4.170   5.091
 1377SOL    HW2 5031   6.934   4.135   5.082
 1378SOL     OW 5032   1.970   1.818   0.448
 1378SOL    HW1 5033   1.977   1.864   0.359
 1378SOL    HW2 5034   1.949   1.721   0.434
 1379SOL     OW 5035   4.305   5.241   2.032
 1379SOL    HW1 5036   4.291   5.249   2.130
 1379SOL    HW2 5037   4.380   5.301   2.004
 1380SOL     OW 5038   6.061   5.124   2.740
 1380SOL    HW1 5039   6.037   5.061   2.813
 1380SOL    HW2 5040   6.160   5.135   2.735
 1381SOL     OW 5041   4.246   6.775   2.862
 1381SOL    HW1 5042   4.159   6.765   2.815
 1381SOL    HW2 5043   4.318   6.795   2.795
 1382SOL     OW 5044   0.266   4.142   0.754
 1382SOL    HW1 5045   0.210   4.181   0.827
 1382SOL    HW2 5046   0.207   4.109   0.680
 1383SOL     OW 5047   2.924   6.969   0.573
 1383SOL    HW1 5048   2.966   6.940   0.487
 1383SOL    HW2 5049   2.985   6.947   0.649
 1384SOL     OW 5050   1.392   1.330   2.331
 1384SOL    HW1 5051   1.476   1.346   2.280
 1384SOL    HW2 5052   1.322   1.291   2.271
 1385SOL     OW 5053   4.977   3.462   4.044
 1385SOL    HW1 5054   4.911   3.456   4.119
 1385SOL    HW2 5055   4.984   3.556   4.013
 1386SOL     OW 5056   2.923   2.296   3.409
 1386SOL    HW1 5057   2.984   2.324   3.335
 1386SOL    HW2 5058   2.828   2.309   3.381
 1387SOL     OW 5059   3.325   0.602   4.066
 1387SOL    HW1 5060   3.319   0.702   4.071
 1387SOL    HW2 5061   3.253   0.568   4.006
 1388SOL     OW 5062   4.791   2.271   3.743
 1388SOL    HW1 5063   4.836   2.201   3.687
 1388SOL    HW2 5064   4.733   2.226   3.811
 1389SOL     OW 5065   6.298   0.657   4.423
 1389SOL    HW1 5066   6.315   0.611   4.510
 1389SOL    HW2 5067   6.275   0.589   4.354
 1390SOL     OW 5068   5.379   2.083   2.377
 1390SOL    HW1 5069   5.370   2.153   2.306
 1390SOL    HW2 5070   5.337   1.998   2.345
 1391SOL     OW 5071   5.880   0.726   5.266
 1391SOL    HW1 5072   5.947   0.652   5.255
 1391SOL    HW2 5073   5.847   0.726   5.360
 1392SOL     OW 5074   3.530   0.316   5.137
 1392SOL    HW1 5075   3.509   0.397   5.192
 1392SOL    HW2 5076   3.572   0.344   5.051
 1393SOL     OW 5077   5.157   6.760   6.837
 1393SOL    HW1 5078   5.116   6.817   6.765
 1393SOL    HW2 5079   5.236   6.712   6.799
 1394SOL     OW 5080   4.283   0.943   4.524
 1394SOL    HW1 5081   4.271   0.845   4.540
 1394SOL    HW2 5082   4.194   0.989   4.530
 1395SOL     OW 5083   0.881   5.050   2.263
 1395SOL    HW1 5084   0.871   5.100   2.177
 1395SOL    HW2 5085   0.792   5.042   2.308
 1396SOL     OW 5086   1.281   1.745   3.366
 1396SOL    HW1 5087   1.307   1.768   3.272
 1396SOL    HW2 5088   1.301   1.649   3.384
 1397SOL     OW 5089   2.409   4.376   5.846
 1397SOL    HW1 5090   2.457   4.446   5.898
 1397SOL    HW2 5091   2.449   4.369   5.754
 1398SOL     OW 5092   3.196   6.885   6.038
 1398SOL    HW1 5093   3.241   6.939   6.108
 1398SOL    HW2 5094   3.263   6.825   5.993
 1399SOL     OW 5095   3.569   0.039   6.898
 1399SOL    HW1 5096   3.584   6.971   6.847
 1399SOL    HW2 5097   3.479   0.076   6.875
 1400SOL     OW 5098   0.492   1.810   5.574
 1400SOL    HW1 5099   0.568   1.753   5.606
 1400SOL    HW2 5100   0.406   1.774   5.609
 1401SOL     OW 5101   4.513   0.023   2.154
 1401SOL    HW1 5102   4.449   0.038   2.229
 1401SOL    HW2 5103   4.587   0.089   2.159
 1402SOL     OW 5104   4.861   3.849   2.116
 1402SOL    HW1 5105   4.803   3.887   2.044
 1402SOL    HW2 5106   4.868   3.914   2.192
 1403SOL     OW 5107   3.399   2.982   6.830
 1403SOL    HW1 5108   3.369   2.901   6.879
 1403SOL    HW2 5109   3.458   3.037   6.889
 1404SOL     OW 5110   3.621   6.328   6.876
 1404SOL    HW1 5111   3.566   6.344   6.958
 1404SOL    HW2 5112   3.565   6.347   6.795
 1405SOL     OW 5113   1.025   4.474   6.460
 1405SOL    HW1 5114   0.994   4.379   6.461
 1405SOL    HW2 5115   1.035   4.505   6.366
 1406SOL     OW 5116   1.902   2.580   0.285
 1406SOL    HW1 5117   1.921   2.628   0.370
 1406SOL    HW2 5118   1.836   2.507   0.302
 1407SOL     OW 5119   6.732   2.749   1.270
 1407SOL    HW1 5120   6.697   2.702   1.351
 1407SOL    HW2 5121   6.827   2.777   1.286
 1408SOL     OW 5122   5.515   6.088   1.312
 1408SOL    HW1 5123   5.429   6.139   1.315
 1408SOL    HW2 5124   5.550   6.088   1.218
 1409SOL     OW 5125   5.990   2.087   5.963
 1409SOL    HW1 5126   5.994   1.993   5.998
 1409SOL    HW2 5127   5.924   2.140   6.016
 1410SOL     OW 5128   3.314   0.817   0.722
 1410SOL    HW1 5129   3.329   0.753   0.797
 1410SOL    HW2 5130   3.402   0.850   0.688
 1411SOL     OW 5131   3.015   6.995   0.269
 1411SOL    HW1 5132   3.057   6.916   0.313
 1411SOL    HW2 5133   2.980   0.041   0.339
 1412SOL     OW 5134   2.199   1.686   6.403
 1412SOL    HW1 5135   2.132   1.728   6.343
 1412SOL    HW2 5136   2.278   1.747   6.413
 1413SOL     OW 5137   2.475   1.579   5.069
 1413SOL    HW1 5138   2.516   1.512   5.007
 1413SOL    HW2 5139   2.428   1.531   5.143
 1414SOL     OW 5140   0.285   5.346   2.402
 1414SOL    HW1 5141   0.189   5.319   2.415
 1414SOL    HW2 5142   0.320   5.388   2.486
 1415SOL     OW 5143   3.721   1.989   5.217
 1415SOL    HW1 5144   3.650   2.018   5.153
 1415SOL    HW2 5145   3.679   1.949   5.298
 1416SOL     OW 5146   4.474   0.607   5.446
 1416SOL    HW1 5147   4.476   0.593   5.347
 1416SOL    HW2 5148   4.546   0.671   5.472
 1417SOL     OW 5149   3.934   3.929   4.139
 1417SOL    HW1 5150   3.851   3.947   4.192
 1417SOL    HW2 5151   3.913   3.865   4.065
 1418SOL     OW 5152   3.251   3.741   5.235
 1418SOL    HW1 5153   3.169   3.690   5.207
 1418SOL    HW2 5154   3.247   3.834   5.198
 1419SOL     OW 5155   0.470   5.378   1.986
 1419SOL    HW1 5156   0.440   5.434   1.909
 1419SOL    HW2 5157   0.570   5.368   1.983
 1420SOL     OW 5158   2.530   6.653   3.502
 1420SOL    HW1 5159   2.613   6.699   3.533
 1420SOL    HW2 5160   2.545   6.615   3.411
 1421SOL     OW 5161   1.791   5.370   0.271
 1421SOL    HW1 5162   1.730   5.339   0.344
 1421SOL    HW2 5163   1.883   5.384   0.308
 1422SOL     OW 5164   1.608   3.912   6.902
 1422SOL    HW1 5165   1.621   3.946   6.996
 1422SOL    HW2 5166   1.685   3.942   6.846
 1423SOL     OW 5167   4.927   1.092   4.779
 1423SOL    HW1 5168   4.982   1.156   4.834
 1423SOL    HW2 5169   4.847   1.064   4.831
 1424SOL     OW 5170   6.530   3.683   1.443
 1424SOL    HW1 5171   6.502   3.594   1.406
 1424SOL    HW2 5172   6.500   3.690   1.538
 1425SOL     OW 5173   5.939   6.274   3.364
 1425SOL    HW1 5174   5.892   6.333   3.298
 1425SOL    HW2 5175   5.879   6.199   3.392
 1426SOL     OW 5176   3.895   1.112   1.304
 1426SOL    HW1 5177   3.896   1.165   1.219
 1426SOL    HW2 5178   3.810   1.061   1.311
 1427SOL     OW 5179   1.260   1.166   4.082
 1427SOL    HW1 5180   1.292   1.184   3.989
 1427SOL    HW2 5181   1.291   1.076   4.112
 1428SOL     OW 5182   2.051   3.807   4.011
 1428SOL    HW1 5183   2.100   3.785   3.927
 1428SOL    HW2 5184   2.097   3.882   4.059
 1429SOL     OW 5185   6.058   0.571   1.459
 1429SOL    HW1 5186   5.998   0.546   1.383
 1429SOL    HW2 5187   6.150   0.536   1.443
 1430SOL     OW 5188   2.096   3.694   4.396
 1430SOL    HW1 5189   2.195   3.679   4.385
 1430SOL    HW2 5190   2.046   3.644   4.326
 1431SOL     OW 5191   3.425   2.037   0.661
 1431SOL    HW1 5192   3.515   2.026   0.704
 1431SOL    HW2 5193   3.365   2.088   0.722
 1432SOL     OW 5194   3.013   0.379   2.560
 1432SOL    HW1 5195   3.028   0.386   2.659
 1432SOL    HW2 5196   3.091   0.332   2.518
 1433SOL     OW 5197   3.612   1.529   4.080
 1433SOL    HW1 5198   3.522   1.562   4.055
 1433SOL    HW2 5199   3.678   1.605   4.079
 1434SOL     OW 5200   5.855   3.649   0.847
 1434SOL    HW1 5201   5.934   3.650   0.909
 1434SOL    HW2 5202   5.775   3.686   0.894
 1435SOL     OW 5203   6.914   6.404   4.265
 1435SOL    HW1 5204   6.839   6.471   4.267
 1435SOL    HW2 5205   6.914   6.352   4.350
 1436SOL     OW 5206   5.878   0.701   0.080
 1436SOL    HW1 5207   5.966   0.666   0.113
 1436SOL    HW2 5208   5.803   0.657   0.129
 1437SOL     OW 5209   4.339   0.849   0.232
 1437SOL    HW1 5210   4.277   0.829   0.308
 1437SOL    HW2 5211   4.307   0.930   0.184
 1438SOL     OW 5212   2.740   6.977   3.345
 1438SOL    HW1 5213   2.798   0.036   3.377
 1438SOL    HW2 5214   2.790   6.891   3.354
 1439SOL     OW 5215   6.586   5.293   4.941
 1439SOL    HW1 5216   6.539   5.284   4.853
 1439SOL    HW2 5217   6.522   5.323   5.011
 1440SOL     OW 5218   3.411   3.164   2.588
 1440SOL    HW1 5219   3.328   3.205   2.627
 1440SOL    HW2 5220   3.415   3.068   2.612
 1441SOL     OW 5221   0.567   2.397   6.417
 1441SOL    HW1 5222   0.620   2.405   6.502
 1441SOL    HW2 5223   0.473   2.373   6.439
 1442SOL     OW 5224   5.427   6.028   7.004
 1442SOL    HW1 5225   5.491   6.017   6.929
 1442SOL    HW2 5226   5.338   5.991   6.978
 1443SOL     OW 5227   1.675   3.246   4.020
 1443SOL    HW1 5228   1.649   3.333   3.976
 1443SOL    HW2 5229   1.684   3.260   4.118
 1444SOL     OW 5230   4.729   6.712   4.744
 1444SOL    HW1 5231   4.777   6.794   4.777
 1444SOL    HW2 5232   4.779   6.630   4.773
 1445SOL     OW 5233   6.886   2.320   0.210
 1445SOL    HW1 5234   6.797   2.344   0.172
 1445SOL    HW2 5235   6.907   2.225   0.187
 1446SOL     OW 5236   2.868   5.827   2.301
 1446SOL    HW1 5237   2.837   5.769   2.376
 1446SOL    HW2 5238   2.822   5.916   2.307
 1447SOL     OW 5239   6.480   1.143   4.886
 1447SOL    HW1 5240   6.411   1.122   4.816
 1447SOL    HW2 5241   6.570   1.114   4.854
 1448SOL     OW 5242   5.395   1.205   0.509
 1448SOL    HW1 5243   5.474   1.262   0.528
 1448SOL    HW2 5244   5.314   1.243   0.553
 1449SOL     OW 5245   4.689   5.659   0.293
 1449SOL    HW1 5246   4.774   5.609   0.308
 1449SOL    HW2 5247   4.641   5.619   0.215
 1450SOL     OW 5248   5.479   1.397   3.720
 1450SOL    HW1 5249   5.495   1.480   3.773
 1450SOL    HW2 5250   5.516   1.318   3.770
 1451SOL     OW 5251   0.163   6.743   2.474
 1451SOL    HW1 5252   0.263   6.732   2.479
 1451SOL    HW2 5253   0.119   6.665   2.517
 1452SOL     OW 5254   1.919   0.210   6.292
 1452SOL    HW1 5255   1.923   0.156   6.377
 1452SOL    HW2 5256   1.915   0.307   6.315
 1453SOL     OW 5257   6.029   4.159   4.335
 1453SOL    HW1 5258   6.028   4.071   4.287
 1453SOL    HW2 5259   6.092   4.221   4.290
 1454SOL     OW 5260   5.730   4.254   1.416
 1454SOL    HW1 5261   5.824   4.251   1.450
 1454SOL    HW2 5262   5.727   4.302   1.329
 1455SOL     OW 5263   1.926   1.883   2.012
 1455SOL    HW1 5264   1.855   1.836   1.959
 1455SOL    HW2 5265   1.970   1.952   1.955
 1456SOL     OW 5266   5.404   5.044   5.018
 1456SOL    HW1 5267   5.382   5.124   5.074
 1456SOL    HW2 5268   5.413   4.963   5.077
 1457SOL     OW 5269   2.018   1.370   4.448
 1457SOL    HW1 5270   2.095   1.343   4.390
 1457SOL    HW2 5271   1.970   1.447   4.405
 1458SOL     OW 5272   6.674   5.471   0.341
 1458SOL    HW1 5273   6.620   5.398   0.299
 1458SOL    HW2 5274   6.730   5.432   0.415
 1459SOL     OW 5275   2.815   6.971   1.725
 1459SOL    HW1 5276   2.873   6.891   1.741
 1459SOL    HW2 5277   2.757   6.987   1.804
 1460SOL     OW 5278   0.627   1.869   6.646
 1460SOL    HW1 5279   0.568   1.852   6.725
 1460SOL    HW2 5280   0.665   1.782   6.614
 1461SOL     OW 5281   4.815   4.087   2.612
 1461SOL    HW1 5282   4.791   4.063   2.706
 1461SOL    HW2 5283   4.754   4.159   2.579
 1462SOL     OW 5284   5.701   0.437   5.529
 1462SOL    HW1 5285   5.681   0.340   5.512
 1462SOL    HW2 5286   5.800   0.452   5.523
 1463SOL     OW 5287   0.745   2.487   5.777
 1463SOL    HW1 5288   0.744   2.571   5.832
 1463SOL    HW2 5289   0.692   2.416   5.824
 1464SOL     OW 5290   0.677   0.781   1.006
 1464SOL    HW1 5291   0.677   0.798   1.105
 1464SOL    HW2 5292   0.701   0.686   0.988
 1465SOL     OW 5293   2.117   1.227   3.903
 1465SOL    HW1 5294   2.075   1.139   3.878
 1465SOL    HW2 5295   2.126   1.283   3.821
 1466SOL     OW 5296   5.769   6.146   4.112
 1466SOL    HW1 5297   5.831   6.087   4.060
 1466SOL    HW2 5298   5.739   6.097   4.194
 1467SOL     OW 5299   0.499   4.312   4.832
 1467SOL    HW1 5300   0.484   4.375   4.908
 1467SOL    HW2 5301   0.446   4.229   4.846
 1468SOL     OW 5302   4.537   0.347   2.607
 1468SOL    HW1 5303   4.481   0.270   2.638
 1468SOL    HW2 5304   4.579   0.391   2.686
 1469SOL     OW 5305   6.842   0.155   2.558
 1469SOL    HW1 5306   6.808   0.114   2.474
 1469SOL    HW2 5307   6.778   0.226   2.589
 1470SOL     OW 5308   0.192   0.483   2.740
 1470SOL    HW1 5309   0.206   0.396   2.788
 1470SOL    HW2 5310   0.277   0.509   2.694
 1471SOL     OW 5311   5.988   1.112   1.291
 1471SOL    HW1 5312   5.990   1.143   1.386
 1471SOL    HW2 5313   5.936   1.177   1.235
 1472SOL     OW 5314   4.352   5.309   5.114
 1472SOL    HW1 5315   4.448   5.333   5.132
 1472SOL    HW2 5316   4.335   5.215   5.144
 1473SOL     OW 5317   0.250   3.063   4.172
 1473SOL    HW1 5318   0.343   3.086   4.144
 1473SOL    HW2 5319   0.192   3.054   4.092
 1474SOL     OW 5320   4.631   6.192   2.526
 1474SOL    HW1 5321   4.585   6.142   2.453
 1474SOL    HW2 5322   4.634   6.136   2.609
 1475SOL     OW 5323   6.295   6.390   2.945
 1475SOL    HW1 5324   6.284   6.306   2.893
 1475SOL    HW2 5325   6.235   6.388   3.025
 1476SOL     OW 5326   1.261   2.245   1.087
 1476SOL    HW1 5327   1.207   2.161   1.093
 1476SOL    HW2 5328   1.358   2.223   1.091
 1477SOL     OW 5329   2.379   6.421   4.620
 1477SOL    HW1 5330   2.329   6.350   4.570
 1477SOL    HW2 5331   2.316   6.466   4.684
 1478SOL     OW 5332   0.414   3.955   0.889
 1478SOL    HW1 5333   0.362   3.930   0.971
 1478SOL    HW2 5334   0.371   4.033   0.845
 1479SOL     OW 5335   1.535   5.037   6.978
 1479SOL    HW1 5336   1.590   4.954   6.990
 1479SOL    HW2 5337   1.452   5.029   0.016
 1480SOL     OW 5338   3.171   0.471   0.006
 1480SOL    HW1 5339   3.109   0.548   0.018
 1480SOL    HW2 5340   3.260   0.504   6.991
 1481SOL     OW 5341   0.116   3.045   0.923
 1481SOL    HW1 5342   0.161   2.990   0.852
 1481SOL    HW2 5343   0.170   3.127   0.941
 1482SOL     OW 5344   5.518   0.744   5.795
 1482SOL    HW1 5345   5.499   0.746   5.893
 1482SOL    HW2 5346   5.537   0.836   5.762
 1483SOL     OW 5347   6.912   2.638   1.008
 1483SOL    HW1 5348   6.906   2.592   0.920
 1483SOL    HW2 5349   6.832   2.697   1.021
 1484SOL     OW 5350   6.212   6.927   3.319
 1484SOL    HW1 5351   6.308   6.916   3.295
 1484SOL    HW2 5352   6.197   7.017   3.360
 1485SOL     OW 5353   5.670   3.434   4.366
 1485SOL    HW1 5354   5.724   3.354   4.340
 1485SOL    HW2 5355   5.676   3.447   4.465
 1486SOL     OW 5356   5.083   2.945   1.481
 1486SOL    HW1 5357   5.051   2.886   1.555
 1486SOL    HW2 5358   5.061   2.904   1.393
 1487SOL     OW 5359   0.767   6.885   5.581
 1487SOL    HW1 5360   0.763   6.818   5.506
 1487SOL    HW2 5361   0.709   6.855   5.656
 1488SOL     OW 5362   4.679   2.305   4.151
 1488SOL    HW1 5363   4.738   2.385   4.139
 1488SOL    HW2 5364   4.660   2.264   4.062
 1489SOL     OW 5365   3.313   4.907   4.855
 1489SOL    HW1 5366   3.346   4.986   4.907
 1489SOL    HW2 5367   3.388   4.842   4.842
 1490SOL     OW 5368   2.753   3.203   0.349
 1490SOL    HW1 5369   2.847   3.206   0.385
 1490SOL    HW2 5370   2.690   3.235   0.420
 1491SOL     OW 5371   1.253   1.911   3.874
 1491SOL    HW1 5372   1.222   1.910   3.969
 1491SOL    HW2 5373   1.271   1.818   3.844
 1492SOL     OW 5374   0.109   2.043   1.410
 1492SOL    HW1 5375   0.185   2.088   1.458
 1492SOL    HW2 5376   0.025   2.096   1.425
 1493SOL     OW 5377   6.489   3.088   5.230
 1493SOL    HW1 5378   6.467   3.086   5.132
 1493SOL    HW2 5379   6.490   2.995   5.266
 1494SOL     OW 5380   5.193   1.821   3.698
 1494SOL    HW1 5381   5.223   1.728   3.680
 1494SOL    HW2 5382   5.184   1.871   3.611
 1495SOL     OW 5383   1.647   3.948   1.392
 1495SOL    HW1 5384   1.559   3.919   1.355
 1495SOL    HW2 5385   1.709   3.972   1.317
 1496SOL     OW 5386   0.427   0.403   2.569
 1496SOL    HW1 5387   0.368   0.342   2.516
 1496SOL    HW2 5388   0.519   0.364   2.574
 1497SOL     OW 5389   5.496   4.664   5.925
 1497SOL    HW1 5390   5.468   4.618   5.841
 1497SOL    HW2 5391   5.503   4.762   5.910
 1498SOL     OW 5392   3.152   5.465   6.948
 1498SOL    HW1 5393   3.142   5.546   7.007
 1498SOL    HW2 5394   3.064   5.417   6.943
 1499SOL     OW 5395   1.756   4.349   4.034
 1499SOL    HW1 5396   1.742   4.428   3.975
 1499SOL    HW2 5397   1.744   4.376   4.129
 1500SOL     OW 5398   4.159   5.979   5.904
 1500SOL    HW1 5399   4.206   5.989   5.816
 1500SOL    HW2 5400   4.209   6.028   5.975
 1501SOL     OW 5401   3.650   0.729   0.936
 1501SOL    HW1 5402   3.661   0.773   1.026
 1501SOL    HW2 5403   3.737   0.688   0.908
 1502SOL     OW 5404   0.117   0.932   6.773
 1502SOL    HW1 5405   0.100   1.020   6.728
 1502SOL    HW2 5406   0.056   0.863   6.736
 1503SOL     OW 5407   3.750   3.686   5.002
 1503SOL    HW1 5408   3.723   3.702   4.907
 1503SOL    HW2 5409   3.791   3.595   5.010
 1504SOL     OW 5410   2.900   0.017   3.715
 1504SOL    HW1 5411   2.986   0.067   3.711
 1504SOL    HW2 5412   2.828   0.077   3.749
 1505SOL     OW 5413   5.431   6.591   3.133
 1505SOL    HW1 5414   5.416   6.674   3.187
 1505SOL    HW2 5415   5.423   6.612   3.036
 1506SOL     OW 5416   0.060   6.600   4.127
 1506SOL    HW1 5417   0.027   6.532   4.062
 1506SOL    HW2 5418   0.095   6.555   4.209
 1507SOL     OW 5419   2.283   1.855   6.763
 1507SOL    HW1 5420   2.364   1.797   6.767
 1507SOL    HW2 5421   2.204   1.804   6.794
 1508SOL     OW 5422   4.270   6.605   0.994
 1508SOL    HW1 5423   4.317   6.520   0.971
 1508SOL    HW2 5424   4.310   6.680   0.942
 1509SOL     OW 5425   5.223   1.677   6.775
 1509SOL    HW1 5426   5.220   1.755   6.838
 1509SOL    HW2 5427   5.264   1.598   6.822
 1510SOL     OW 5428   6.364   1.632   1.958
 1510SOL    HW1 5429   6.429   1.700   1.993
 1510SOL    HW2 5430   6.305   1.601   2.033
 1511SOL     OW 5431   0.509   2.761   0.660
 1511SOL    HW1 5432   0.472   2.795   0.746
 1511SOL    HW2 5433   0.498   2.662   0.655
 1512SOL     OW 5434   0.023   0.889   2.782
 1512SOL    HW1 5435   0.052   0.853   2.870
 1512SOL    HW2 5436   0.005   0.813   2.719
 1513SOL     OW 5437   2.379   1.009   2.611
 1513SOL    HW1 5438   2.415   0.923   2.574
 1513SOL    HW2 5439   2.352   0.995   2.706
 1514SOL     OW 5440   4.676   0.409   5.838
 1514SOL    HW1 5441   4.736   0.340   5.798
 1514SOL    HW2 5442   4.731   0.482   5.879
 1515SOL     OW 5443   5.569   5.399   5.817
 1515SOL    HW1 5444   5.481   5.441   5.793
 1515SOL    HW2 5445   5.639   5.429   5.753
 1516SOL     OW 5446   5.983   1.561   2.353
 1516SOL    HW1 5447   5.912   1.594   2.291
 1516SOL    HW2 5448   6.073   1.574   2.310
 1517SOL     OW 5449   3.480   5.191   1.874
 1517SOL    HW1 5450   3.464   5.289   1.864
 1517SOL    HW2 5451   3.552   5.162   1.811
 1518SOL     OW 5452   1.106   5.102   1.071
 1518SOL    HW1 5453   1.072   5.009   1.055
 1518SOL    HW2 5454   1.140   5.109   1.165
 1519SOL     OW 5455   0.643   4.330   0.828
 1519SOL    HW1 5456   0.626   4.390   0.750
 1519SOL    HW2 5457   0.586   4.360   0.905
 1520SOL     OW 5458   1.560   4.299   2.908
 1520SOL    HW1 5459   1.599   4.244   2.982
 1520SOL    HW2 5460   1.634   4.330   2.848
 1521SOL     OW 5461   2.291   5.942   5.454
 1521SOL    HW1 5462   2.303   5.965   5.550
 1521SOL    HW2 5463   2.262   5.847   5.445
 1522SOL     OW 5464   1.443   2.318   5.644
 1522SOL    HW1 5465   1.514   2.287   5.706
 1522SOL    HW2 5466   1.449   2.417   5.632
 1523SOL     OW 5467   5.600   0.592   1.631
 1523SOL    HW1 5468   5.590   0.572   1.533
 1523SOL    HW2 5469   5.605   0.691   1.644
 1524SOL     OW 5470   0.950   1.652   0.910
 1524SOL    HW1 5471   0.866   1.673   0.961
 1524SOL    HW2 5472   0.937   1.567   0.860
 1525SOL     OW 5473   5.249   1.041   5.005
 1525SOL    HW1 5474   5.221   1.100   5.081
 1525SOL    HW2 5475   5.269   1.098   4.925
 1526SOL     OW 5476   5.307   2.842   0.383
 1526SOL    HW1 5477   5.325   2.826   0.480
 1526SOL    HW2 5478   5.393   2.846   0.333
 1527SOL     OW 5479   2.255   0.378   5.060
 1527SOL    HW1 5480   2.348   0.407   5.037
 1527SOL    HW2 5481   2.197   0.459   5.072
 1528SOL     OW 5482   5.163   6.169   3.580
 1528SOL    HW1 5483   5.234   6.122   3.632
 1528SOL    HW2 5484   5.189   6.172   3.483
 1529SOL     OW 5485   1.520   6.522   5.111
 1529SOL    HW1 5486   1.550   6.489   5.200
 1529SOL    HW2 5487   1.491   6.618   5.119
 1530SOL     OW 5488   3.338   6.700   1.642
 1530SOL    HW1 5489   3.436   6.717   1.635
 1530SOL    HW2 5490   3.292   6.785   1.668
 1531SOL     OW 5491   5.754   1.284   6.683
 1531SOL    HW1 5492   5.716   1.220   6.615
 1531SOL    HW2 5493   5.689   1.295   6.758
 1532SOL     OW 5494   2.951   0.941   5.399
 1532SOL    HW1 5495   3.010   0.994   5.460
 1532SOL    HW2 5496   2.956   0.977   5.306
 1533SOL     OW 5497   4.731   3.387   0.717
 1533SOL    HW1 5498   4.633   3.399   0.737
 1533SOL    HW2 5499   4.747   3.405   0.620
 1534SOL     OW 5500   0.152   0.183   0.490
 1534SOL    HW1 5501   0.214   0.190   0.411
 1534SOL    HW2 5502   0.097   0.100   0.481
 1535SOL     OW 5503   4.867   4.521   4.415
 1535SOL    HW1 5504   4.877   4.504   4.317
 1535SOL    HW2 5505   4.797   4.460   4.452
 1536SOL     OW 5506   3.184   6.421   3.088
 1536SOL    HW1 5507   3.200   6.418   2.989
 1536SOL    HW2 5508   3.196   6.329   3.126
 1537SOL     OW 5509   1.625   5.834   4.421
 1537SOL    HW1 5510   1.543   5.889   4.405
 1537SOL    HW2 5511   1.656   5.793   4.336
 1538SOL     OW 5512   3.277   6.049   6.977
 1538SOL    HW1 5513   3.210   6.083   0.026
 1538SOL    HW2 5514   3.238   6.053   6.885
 1539SOL     OW 5515   2.761   6.688   1.939
 1539SOL    HW1 5516   2.749   6.772   1.991
 1539SOL    HW2 5517   2.684   6.675   1.877
 1540SOL     OW 5518   5.951   0.444   5.664
 1540SOL    HW1 5519   5.888   0.419   5.737
 1540SOL    HW2 5520   6.045   0.432   5.696
 1541SOL     OW 5521   5.358   2.247   1.659
 1541SOL    HW1 5522   5.295   2.278   1.588
 1541SOL    HW2 5523   5.427   2.318   1.675
 1542SOL     OW 5524   6.804   5.272   1.459
 1542SOL    HW1 5525   6.772   5.360   1.424
 1542SOL    HW2 5526   6.795   5.270   1.559
 1543SOL     OW 5527   3.186   3.271   2.716
 1543SOL    HW1 5528   3.169   3.331   2.638
 1543SOL    HW2 5529   3.100   3.227   2.743
 1544SOL     OW 5530   3.508   3.161   1.634
 1544SOL    HW1 5531   3.513   3.182   1.536
 1544SOL    HW2 5532   3.570   3.222   1.684
 1545SOL     OW 5533   0.473   6.510   5.576
 1545SOL    HW1 5534   0.498   6.414   5.590
 1545SOL    HW2 5535   0.383   6.515   5.532
 1546SOL     OW 5536   0.716   6.640   0.640
 1546SOL    HW1 5537   0.744   6.558   0.689
 1546SOL    HW2 5538   0.642   6.617   0.576
 1547SOL     OW 5539   2.990   6.357   0.675
 1547SOL    HW1 5540   3.013   6.301   0.596
 1547SOL    HW2 5541   2.962   6.298   0.751
 1548SOL     OW 5542   6.253   4.150   3.296
 1548SOL    HW1 5543   6.201   4.080   3.246
 1548SOL    HW2 5544   6.210   4.165   3.385
 1549SOL     OW 5545   5.972   1.823   1.220
 1549SOL    HW1 5546   5.947   1.916   1.249
 1549SOL    HW2 5547   5.976   1.763   1.300
 1550SOL     OW 5548   2.465   5.016   2.309
 1550SOL    HW1 5549   2.461   5.098   2.252
 1550SOL    HW2 5550   2.473   5.043   2.405
 1551SOL     OW 5551   1.030   2.370   1.683
 1551SOL    HW1 5552   1.076   2.315   1.753
 1551SOL    HW2 5553   0.932   2.353   1.685
 1552SOL     OW 5554   1.520   6.408   2.284
 1552SOL    HW1 5555   1.609   6.384   2.322
 1552SOL    HW2 5556   1.498   6.348   2.207
 1553SOL     OW 5557   5.795   1.927   5.528
 1553SOL    HW1 5558   5.786   2.021   5.561
 1553SOL    HW2 5559   5.752   1.864   5.594
 1554SOL     OW 5560   2.938   3.260   0.119
 1554SOL    HW1 5561   2.987   3.195   0.061
 1554SOL    HW2 5562   2.873   3.211   0.177
 1555SOL     OW 5563   4.782   1.741   0.867
 1555SOL    HW1 5564   4.879   1.727   0.848
 1555SOL    HW2 5565   4.732   1.658   0.846
 1556SOL     OW 5566   2.896   2.450   0.878
 1556SOL    HW1 5567   2.867   2.543   0.896
 1556SOL    HW2 5568   2.968   2.424   0.942
 1557SOL     OW 5569   2.342   2.296   1.410
 1557SOL    HW1 5570   2.429   2.315   1.456
 1557SOL    HW2 5571   2.353   2.309   1.312
 1558SOL     OW 5572   4.781   2.522   0.141
 1558SOL    HW1 5573   4.802   2.591   0.073
 1558SOL    HW2 5574   4.687   2.489   0.128
 1559SOL     OW 5575   2.282   6.651   3.884
 1559SOL    HW1 5576   2.341   6.671   3.963
 1559SOL    HW2 5577   2.318   6.572   3.835
 1560SOL     OW 5578   4.552   3.241   1.364
 1560SOL    HW1 5579   4.461   3.238   1.404
 1560SOL    HW2 5580   4.593   3.150   1.370
 1561SOL     OW 5581   5.972   6.513   0.833
 1561SOL    HW1 5582   6.054   6.514   0.776
 1561SOL    HW2 5583   5.899   6.462   0.787
 1562SOL     OW 5584   2.845   6.995   2.825
 1562SOL    HW1 5585   2.747   6.981   2.837
 1562SOL    HW2 5586   2.888   7.011   2.914
 1563SOL     OW 5587   2.332   4.320   3.540
 1563SOL    HW1 5588   2.312   4.293   3.635
 1563SOL    HW2 5589   2.289   4.256   3.477
 1564SOL     OW 5590   2.081   1.980   3.214
 1564SOL    HW1 5591   2.043   1.999   3.305
 1564SOL    HW2 5592   2.166   2.030   3.202
 1565SOL     OW 5593   5.230   1.642   5.661
 1565SOL    HW1 5594   5.182   1.677   5.742
 1565SOL    HW2 5595   5.327   1.668   5.666
 1566SOL     OW 5596   0.980   3.598   3.772
 1566SOL    HW1 5597   1.028   3.602   3.685
 1566SOL    HW2 5598   0.989   3.686   3.819
 1567SOL     OW 5599   5.332   0.849   4.822
 1567SOL    HW1 5600   5.307   0.883   4.913
 1567SOL    HW2 5601   5.387   0.765   4.832
 1568SOL     OW 5602   1.906   4.855   0.857
 1568SOL    HW1 5603   1.868   4.921   0.921
 1568SOL    HW2 5604   1.988   4.814   0.896
 1569SOL     OW 5605   2.109   1.119   2.306
 1569SOL    HW1 5606   2.189   1.101   2.363
 1569SOL    HW2 5607   2.089   1.217   2.308
 1570SOL     OW 5608   2.988   5.798   6.496
 1570SOL    HW1 5609   2.910   5.760   6.446
 1570SOL    HW2 5610   3.069   5.741   6.479
 1571SOL     OW 5611   0.941   1.129   4.607
 1571SOL    HW1 5612   0.900   1.199   4.548
 1571SOL    HW2 5613   1.018   1.168   4.657
 1572SOL     OW 5614   2.170   5.693   3.346
 1572SOL    HW1 5615   2.267   5.671   3.334
 1572SOL    HW2 5616   2.115   5.630   3.291
 1573SOL     OW 5617   5.286   5.737   0.358
 1573SOL    HW1 5618   5.200   5.737   0.408
 1573SOL    HW2 5619   5.327   5.828   0.360
 1574SOL     OW 5620   0.365   3.039   3.180
 1574SOL    HW1 5621   0.330   3.019   3.271
 1574SOL    HW2 5622   0.462   3.014   3.176
 1575SOL     OW 5623   6.819   1.996   6.967
 1575SOL    HW1 5624   6.866   2.028   0.032
 1575SOL    HW2 5625   6.862   1.912   6.934
 1576SOL     OW 5626   0.866   6.311   2.694
 1576SOL    HW1 5627   0.785   6.321   2.637
 1576SOL    HW2 5628   0.902   6.218   2.686
 1577SOL     OW 5629   4.444   5.940   3.542
 1577SOL    HW1 5630   4.396   5.858   3.574
 1577SOL    HW2 5631   4.404   6.021   3.584
 1578SOL     OW 5632   5.258   2.006   1.766
 1578SOL    HW1 5633   5.250   1.964   1.676
 1578SOL    HW2 5634   5.274   2.104   1.755
 1579SOL     OW 5635   1.469   3.591   2.291
 1579SOL    HW1 5636   1.489   3.512   2.233
 1579SOL    HW2 5637   1.371   3.597   2.307
 1580SOL     OW 5638   3.253   3.498   3.999
 1580SOL    HW1 5639   3.329   3.442   3.967
 1580SOL    HW2 5640   3.269   3.593   3.973
 1581SOL     OW 5641   5.160   3.958   5.380
 1581SOL    HW1 5642   5.085   3.891   5.383
 1581SOL    HW2 5643   5.234   3.922   5.323
 1582SOL     OW 5644   3.846   5.849   3.896
 1582SOL    HW1 5645   3.830   5.946   3.915
 1582SOL    HW2 5646   3.936   5.822   3.931
 1583SOL     OW 5647   0.604   5.761   4.793
 1583SOL    HW1 5648   0.672   5.728   4.858
 1583SOL    HW2 5649   0.531   5.694   4.783
 1584SOL     OW 5650   0.247   4.423   0.205
 1584SOL    HW1 5651   0.280   4.338   0.245
 1584SOL    HW2 5652   0.164   4.453   0.252
 1585SOL     OW 5653   4.480   6.566   4.075
 1585SOL    HW1 5654   4.494   6.594   3.980
 1585SOL    HW2 5655   4.509   6.641   4.136
 1586SOL     OW 5656   2.743   6.208   3.643
 1586SOL    HW1 5657   2.728   6.160   3.729
 1586SOL    HW2 5658   2.841   6.222   3.628
 1587SOL     OW 5659   4.292   0.071   6.807
 1587SOL    HW1 5660   4.355   7.011   6.793
 1587SOL    HW2 5661   4.222   0.046   6.874
 1588SOL     OW 5662   6.248   1.685   4.140
 1588SOL    HW1 5663   6.184   1.721   4.209
 1588SOL    HW2 5664   6.198   1.640   4.067
 1589SOL     OW 5665   0.046   1.381   4.042
 1589SOL    HW1 5666   0.100   1.447   3.990
 1589SOL    HW2 5667   6.983   1.426   4.082
 1590SOL     OW 5668   5.693   0.271   3.396
 1590SOL    HW1 5669   5.685   0.178   3.432
 1590SOL    HW2 5670   5.777   0.279   3.343
 1591SOL     OW 5671   0.392   5.486   0.751
 1591SOL    HW1 5672   0.301   5.496   0.710
 1591SOL    HW2 5673   0.461   5.482   0.678
 1592SOL     OW 5674   6.914   4.471   4.641
 1592SOL    HW1 5675   6.959   4.491   4.554
 1592SOL    HW2 5676   6.935   4.377   4.668
 1593SOL     OW 5677   3.894   5.407   1.504
 1593SOL    HW1 5678   3.941   5.473   1.562
 1593SOL    HW2 5679   3.942   5.319   1.509
 1594SOL     OW 5680   5.452   0.686   2.623
 1594SOL    HW1 5681   5.404   0.755   2.568
 1594SOL    HW2 5682   5.499   0.730   2.699
 1595SOL     OW 5683   6.741   3.933   0.262
 1595SOL    HW1 5684   6.649   3.968   0.277
 1595SOL    HW2 5685   6.806   3.988   0.314
 1596SOL     OW 5686   5.168   4.463   4.257
 1596SOL    HW1 5687   5.078   4.476   4.216
 1596SOL    HW2 5688   5.162   4.398   4.333
 1597SOL     OW 5689   4.230   6.722   1.277
 1597SOL    HW1 5690   4.179   6.640   1.249
 1597SOL    HW2 5691   4.300   6.742   1.209
 1598SOL     OW 5692   0.625   5.791   6.011
 1598SOL    HW1 5693   0.601   5.879   6.053
 1598SOL    HW2 5694   0.547   5.729   6.017
 1599SOL     OW 5695   5.330   5.109   4.251
 1599SOL    HW1 5696   5.273   5.028   4.236
 1599SOL    HW2 5697   5.276   5.191   4.231
 1600SOL     OW 5698   5.255   1.266   1.393
 1600SOL    HW1 5699   5.271   1.273   1.295
 1600SOL    HW2 5700   5.176   1.209   1.410
 1601SOL     OW 5701   6.058   0.671   4.938
 1601SOL    HW1 5702   6.009   0.617   5.006
 1601SOL    HW2 5703   6.017   0.656   4.848
 1602SOL     OW 5704   3.650   5.830   3.370
 1602SOL    HW1 5705   3.672   5.878   3.285
 1602SOL    HW2 5706   3.692   5.739   3.369
 1603SOL     OW 5707   3.253   5.670   1.557
 1603SOL    HW1 5708   3.192   5.620   1.619
 1603SOL    HW2 5709   3.227   5.651   1.462
 1604SOL     OW 5710   4.492   5.607   1.723
 1604SOL    HW1 5711   4.399   5.641   1.709
 1604SOL    HW2 5712   4.557   5.680   1.702
 1605SOL     OW 5713   4.381   4.927   0.412
 1605SOL    HW1 5714   4.297   4.953   0.364
 1605SOL    HW2 5715   4.375   4.955   0.508
 1606SOL     OW 5716   4.636   5.690   4.707
 1606SOL    HW1 5717   4.581   5.620   4.753
 1606SOL    HW2 5718   4.613   5.780   4.744
 1607SOL     OW 5719   4.636   4.243   4.273
 1607SOL    HW1 5720   4.695   4.248   4.353
 1607SOL    HW2 5721   4.663   4.166   4.216
 1608SOL     OW 5722   6.722   3.512   2.704
 1608SOL    HW1 5723   6.678   3.469   2.783
 1608SOL    HW2 5724   6.709   3.611   2.709
 1609SOL     OW 5725   1.284   0.118   0.535
 1609SOL    HW1 5726   1.204   0.105   0.593
 1609SOL    HW2 5727   1.290   0.214   0.507
 1610SOL     OW 5728   5.837   5.650   1.176
 1610SOL    HW1 5729   5.740   5.673   1.175
 1610SOL    HW2 5730   5.849   5.555   1.145
 1611SOL     OW 5731   0.091   4.529   6.727
 1611SOL    HW1 5732   0.123   4.623   6.717
 1611SOL    HW2 5733   0.141   4.484   6.800
 1612SOL     OW 5734   5.461   0.915   1.967
 1612SOL    HW1 5735   5.553   0.884   1.942
 1612SOL    HW2 5736   5.422   0.853   2.035
 1613SOL     OW 5737   0.459   6.105   2.787
 1613SOL    HW1 5738   0.506   6.193   2.786
 1613SOL    HW2 5739   0.377   6.111   2.844
 1614SOL     OW 5740   5.808   1.053   5.929
 1614SOL    HW1 5741   5.712   1.063   5.904
 1614SOL    HW2 5742   5.836   1.132   5.984
 1615SOL     OW 5743   6.578   3.419   5.927
 1615SOL    HW1 5744   6.578   3.477   6.009
 1615SOL    HW2 5745   6.502   3.445   5.868
 1616SOL     OW 5746   1.168   1.500   3.530
 1616SOL    HW1 5747   1.102   1.572   3.552
 1616SOL    HW2 5748   1.172   1.433   3.604
 1617SOL     OW 5749   0.178   6.052   4.350
 1617SOL    HW1 5750   0.126   6.034   4.434
 1617SOL    HW2 5751   0.177   5.970   4.293
 1618SOL     OW 5752   2.902   5.491   3.202
 1618SOL    HW1 5753   2.927   5.584   3.176
 1618SOL    HW2 5754   2.805   5.486   3.224
 1619SOL     OW 5755   0.808   3.699   5.998
 1619SOL    HW1 5756   0.826   3.680   6.094
 1619SOL    HW2 5757   0.852   3.629   5.941
 1620SOL     OW 5758   2.137   0.273   4.814
 1620SOL    HW1 5759   2.124   0.340   4.740
 1620SOL    HW2 5760   2.175   0.319   4.894
 1621SOL     OW 5761   5.831   4.659   1.012
 1621SOL    HW1 5762   5.768   4.727   0.974
 1621SOL    HW2 5763   5.797   4.629   1.101
 1622SOL     OW 5764   6.403   2.937   2.999
 1622SOL    HW1 5765   6.421   2.947   2.901
 1622SOL    HW2 5766   6.395   2.840   3.022
 1623SOL     OW 5767   0.484   2.092   3.951
 1623SOL    HW1 5768   0.537   2.168   3.990
 1623SOL    HW2 5769   0.543   2.012   3.943
 1624SOL     OW 5770   4.318   3.062   0.701
 1624SOL    HW1 5771   4.301   3.142   0.758
 1624SOL    HW2 5772   4.381   3.000   0.747
 1625SOL     OW 5773   0.859   6.337   0.478
 1625SOL    HW1 5774   0.916   6.347   0.397
 1625SOL    HW2 5775   0.763   6.349   0.454
 1626SOL     OW 5776   2.829   1.698   2.004
 1626SOL    HW1 5777   2.811   1.730   2.097
 1626SOL    HW2 5778   2.778   1.614   1.987
 1627SOL     OW 5779   4.620   1.151   6.101
 1627SOL    HW1 5780   4.692   1.211   6.065
 1627SOL    HW2 5781   4.643   1.123   6.194
 1628SOL     OW 5782   5.549   5.691   1.191
 1628SOL    HW1 5783   5.488   5.621   1.156
 1628SOL    HW2 5784   5.516   5.723   1.280
 1629SOL     OW 5785   1.540   6.451   2.878
 1629SOL    HW1 5786   1.481   6.379   2.916
 1629SOL    HW2 5787   1.492   6.496   2.802
 1630SOL     OW 5788   0.362   5.010   6.266
 1630SOL    HW1 5789   0.414   5.064   6.332
 1630SOL    HW2 5790   0.331   4.925   6.309
 1631SOL     OW 5791   5.283   4.466   6.957
 1631SOL    HW1 5792   5.198   4.495   7.002
 1631SOL    HW2 5793   5.336   4.546   6.931
 1632SOL     OW 5794   6.136   5.901   2.602
 1632SOL    HW1 5795   6.080   5.858   2.673
 1632SOL    HW2 5796   6.112   5.863   2.513
 1633SOL     OW 5797   6.988   3.720   4.539
 1633SOL    HW1 5798   0.036   3.791   4.564
 1633SOL    HW2 5799   6.925   3.703   4.614
 1634SOL     OW 5800   1.383   3.809   6.130
 1634SOL    HW1 5801   1.315   3.827   6.201
 1634SOL    HW2 5802   1.449   3.884   6.127
 1635SOL     OW 5803   2.581   1.153   4.610
 1635SOL    HW1 5804   2.567   1.196   4.521
 1635SOL    HW2 5805   2.676   1.162   4.638
 1636SOL     OW 5806   0.094   6.198   1.746
 1636SOL    HW1 5807   0.087   6.290   1.783
 1636SOL    HW2 5808   0.055   6.132   1.810
 1637SOL     OW 5809   0.926   1.220   1.758
 1637SOL    HW1 5810   0.834   1.260   1.751
 1637SOL    HW2 5811   0.956   1.223   1.853
 1638SOL     OW 5812   5.390   2.068   3.725
 1638SOL    HW1 5813   5.308   2.104   3.680
 1638SOL    HW2 5814   5.391   1.968   3.717
 1639SOL     OW 5815   5.266   2.197   0.976
 1639SOL    HW1 5816   5.198   2.223   1.044
 1639SOL    HW2 5817   5.300   2.105   0.996
 1640SOL     OW 5818   6.531   1.046   6.506
 1640SOL    HW1 5819   6.446   1.002   6.536
 1640SOL    HW2 5820   6.530   1.054   6.407
 1641SOL     OW 5821   5.762   1.697   2.227
 1641SOL    HW1 5822   5.725   1.777   2.273
 1641SOL    HW2 5823   5.687   1.645   2.185
 1642SOL     OW 5824   6.853   3.074   6.639
 1642SOL    HW1 5825   6.885   2.981   6.659
 1642SOL    HW2 5826   6.784   3.071   6.567
 1643SOL     OW 5827   2.386   5.658   4.647
 1643SOL    HW1 5828   2.308   5.700   4.601
 1643SOL    HW2 5829   2.451   5.623   4.579
 1644SOL     OW 5830   5.855   1.787   0.957
 1644SOL    HW1 5831   5.887   1.798   1.051
 1644SOL    HW2 5832   5.924   1.821   0.893
 1645SOL     OW 5833   2.467   0.979   3.873
 1645SOL    HW1 5834   2.535   0.954   3.941
 1645SOL    HW2 5835   2.446   1.076   3.880
 1646SOL     OW 5836   6.957   5.760   2.051
 1646SOL    HW1 5837   6.894   5.743   2.126
 1646SOL    HW2 5838   7.005   5.676   2.028
 1647SOL     OW 5839   6.608   3.674   5.216
 1647SOL    HW1 5840   6.512   3.700   5.205
 1647SOL    HW2 5841   6.615   3.574   5.219
 1648SOL     OW 5842   5.701   6.046   2.276
 1648SOL    HW1 5843   5.763   5.969   2.258
 1648SOL    HW2 5844   5.752   6.119   2.321
 1649SOL     OW 5845   3.933   0.788   3.050
 1649SOL    HW1 5846   3.879   0.846   3.112
 1649SOL    HW2 5847   3.892   0.697   3.046
 1650SOL     OW 5848   2.483   2.240   4.988
 1650SOL    HW1 5849   2.534   2.160   4.955
 1650SOL    HW2 5850   2.419   2.271   4.918
 1651SOL     OW 5851   1.705   2.287   3.997
 1651SOL    HW1 5852   1.728   2.190   3.992
 1651SOL    HW2 5853   1.651   2.305   4.079
 1652SOL     OW 5854   0.355   4.244   1.132
 1652SOL    HW1 5855   0.385   4.237   1.227
 1652SOL    HW2 5856   0.391   4.167   1.080
 1653SOL     OW 5857   6.251   4.257   1.871
 1653SOL    HW1 5858   6.179   4.263   1.802
 1653SOL    HW2 5859   6.239   4.173   1.924
 1654SOL     OW 5860   6.980   3.726   1.739
 1654SOL    HW1 5861   0.054   3.744   1.703
 1654SOL    HW2 5862   6.949   3.636   1.710
 1655SOL     OW 5863   0.075   0.389   5.575
 1655SOL    HW1 5864   0.112   0.453   5.508
 1655SOL    HW2 5865   0.137   0.382   5.653
 1656SOL     OW 5866   1.936   4.068   2.972
 1656SOL    HW1 5867   1.882   4.022   2.901
 1656SOL    HW2 5868   2.033   4.049   2.958
 1657SOL     OW 5869   0.499   1.536   6.363
 1657SOL    HW1 5870   0.422   1.482   6.328
 1657SOL    HW2 5871   0.507   1.620   6.310
 1658SOL     OW 5872   4.979   0.471   5.534
 1658SOL    HW1 5873   4.981   0.516   5.445
 1658SOL    HW2 5874   4.888   0.431   5.549
 1659SOL     OW 5875   2.815   0.758   6.488
 1659SOL    HW1 5876   2.742   0.820   6.459
 1659SOL    HW2 5877   2.893   0.767   6.425
 1660SOL     OW 5878   2.915   1.461   1.615
 1660SOL    HW1 5879   2.853   1.388   1.589
 1660SOL    HW2 5880   2.939   1.451   1.712
 1661SOL     OW 5881   4.684   4.979   3.562
 1661SOL    HW1 5882   4.621   5.029   3.502
 1661SOL    HW2 5883   4.693   4.885   3.529
 1662SOL     OW 5884   0.549   1.829   3.474
 1662SOL    HW1 5885   0.513   1.763   3.409
 1662SOL    HW2 5886   0.474   1.865   3.530
 1663SOL     OW 5887   5.983   3.950   0.926
 1663SOL    HW1 5888   6.005   4.039   0.965
 1663SOL    HW2 5889   6.032   3.878   0.976
 1664SOL     OW 5890   1.429   1.677   6.234
 1664SOL    HW1 5891   1.487   1.633   6.304
 1664SOL    HW2 5892   1.428   1.776   6.250
 1665SOL     OW 5893   1.667   3.944   0.162
 1665SOL    HW1 5894   1.737   3.947   0.233
 1665SOL    HW2 5895   1.576   3.946   0.203
 1666SOL     OW 5896   5.163   6.407   5.254
 1666SOL    HW1 5897   5.196   6.335   5.315
 1666SOL    HW2 5898   5.145   6.490   5.307
 1667SOL     OW 5899   6.759   4.895   1.042
 1667SOL    HW1 5900   6.752   4.861   1.135
 1667SOL    HW2 5901   6.829   4.966   1.037
 1668SOL     OW 5902   6.668   3.309   1.945
 1668SOL    HW1 5903   6.664   3.406   1.967
 1668SOL    HW2 5904   6.690   3.298   1.848
 1669SOL     OW 5905   6.238   2.845   5.416
 1669SOL    HW1 5906   6.230   2.936   5.376
 1669SOL    HW2 5907   6.334   2.821   5.425
 1670SOL     OW 5908   3.080   4.332   5.367
 1670SOL    HW1 5909   3.035   4.401   5.311
 1670SOL    HW2 5910   3.109   4.256   5.309
 1671SOL     OW 5911   6.052   2.443   0.600
 1671SOL    HW1 5912   6.023   2.437   0.504
 1671SOL    HW2 5913   5.981   2.406   0.659
 1672SOL     OW 5914   0.589   2.006   1.036
 1672SOL    HW1 5915   0.502   1.962   1.057
 1672SOL    HW2 5916   0.576   2.105   1.032
 1673SOL     OW 5917   0.816   0.689   6.374
 1673SOL    HW1 5918   0.809   0.784   6.402
 1673SOL    HW2 5919   0.753   0.672   6.298
 1674SOL     OW 5920   4.872   2.901   3.332
 1674SOL    HW1 5921   4.885   2.996   3.361
 1674SOL    HW2 5922   4.896   2.891   3.236
 1675SOL     OW 5923   5.223   0.700   1.875
 1675SOL    HW1 5924   5.262   0.737   1.791
 1675SOL    HW2 5925   5.170   0.770   1.922
 1676SOL     OW 5926   1.381   2.445   3.841
 1676SOL    HW1 5927   1.392   2.518   3.774
 1676SOL    HW2 5928   1.420   2.473   3.928
 1677SOL     OW 5929   3.169   3.940   1.611
 1677SOL    HW1 5930   3.136   3.994   1.534
 1677SOL    HW2 5931   3.142   3.984   1.697
 1678SOL     OW 5932   0.041   6.945   0.504
 1678SOL    HW1 5933   0.093   6.902   0.578
 1678SOL    HW2 5934   6.966   6.907   0.502
 1679SOL     OW 5935   5.922   2.011   0.100
 1679SOL    HW1 5936   5.956   1.971   0.015
 1679SOL    HW2 5937   5.974   2.093   0.122
 1680SOL     OW 5938   5.517   2.062   3.212
 1680SOL    HW1 5939   5.589   2.002   3.176
 1680SOL    HW2 5940   5.553   2.115   3.289
 1681SOL     OW 5941   4.244   6.440   4.083
 1681SOL    HW1 5942   4.316   6.509   4.078
 1681SOL    HW2 5943   4.155   6.485   4.076
 1682SOL     OW 5944   3.882   1.717   5.513
 1682SOL    HW1 5945   3.977   1.732   5.539
 1682SOL    HW2 5946   3.879   1.684   5.418
 1683SOL     OW 5947   0.736   3.878   3.330
 1683SOL    HW1 5948   0.660   3.935   3.364
 1683SOL    HW2 5949   0.718   3.852   3.235
 1684SOL     OW 5950   3.180   5.645   1.310
 1684SOL    HW1 5951   3.114   5.589   1.360
 1684SOL    HW2 5952   3.136   5.728   1.277
 1685SOL     OW 5953   0.231   2.075   5.662
 1685SOL    HW1 5954   0.168   2.105   5.591
 1685SOL    HW2 5955   0.192   1.997   5.711
 1686SOL     OW 5956   3.452   5.541   1.264
 1686SOL    HW1 5957   3.362   5.578   1.288
 1686SOL    HW2 5958   3.477   5.571   1.172
 1687SOL     OW 5959   4.671   4.345   0.255
 1687SOL    HW1 5960   4.584   4.320   0.297
 1687SOL    HW2 5961   4.745   4.331   0.322
 1688SOL     OW 5962   2.971   0.498   3.095
 1688SOL    HW1 5963   3.061   0.487   3.138
 1688SOL    HW2 5964   2.982   0.521   2.999
 1689SOL     OW 5965   4.223   0.927   1.796
 1689SOL    HW1 5966   4.172   0.976   1.725
 1689SOL    HW2 5967   4.176   0.938   1.884
 1690SOL     OW 5968   0.026   4.465   4.367
 1690SOL    HW1 5969   0.084   4.388   4.395
 1690SOL    HW2 5970   0.033   4.477   4.268
 1691SOL     OW 5971   4.404   2.747   5.336
 1691SOL    HW1 5972   4.404   2.782   5.430
 1691SOL    HW2 5973   4.386   2.648   5.337
 1692SOL     OW 5974   5.343   5.183   2.377
 1692SOL    HW1 5975   5.412   5.252   2.357
 1692SOL    HW2 5976   5.381   5.092   2.363
 1693SOL     OW 5977   5.786   0.419   5.889
 1693SOL    HW1 5978   5.832   0.359   5.956
 1693SOL    HW2 5979   5.778   0.511   5.926
 1694SOL     OW 5980   4.675   1.401   6.811
 1694SOL    HW1 5981   4.679   1.501   6.801
 1694SOL    HW2 5982   4.710   1.376   6.901
 1695SOL     OW 5983   4.893   0.267   5.260
 1695SOL    HW1 5984   4.809   0.298   5.304
 1695SOL    HW2 5985   4.882   0.272   5.161
 1696SOL     OW 5986   5.168   6.861   0.904
 1696SOL    HW1 5987   5.194   6.872   1.000
 1696SOL    HW2 5988   5.219   6.785   0.864
 1697SOL     OW 5989   4.092   3.718   1.945
 1697SOL    HW1 5990   4.071   3.749   2.038
 1697SOL    HW2 5991   4.006   3.704   1.896
 1698SOL     OW 5992   4.796   1.462   1.257
 1698SOL    HW1 5993   4.699   1.445   1.238
 1698SOL    HW2 5994   4.810   1.471   1.356
 1699SOL     OW 5995   1.697   0.650   0.899
 1699SOL    HW1 5996   1.733   0.560   0.923
 1699SOL    HW2 5997   1.652   0.690   0.979
 1700SOL     OW 5998   6.177   3.017   3.129
 1700SOL    HW1 5999   6.101   2.971   3.082
 1700SOL    HW2 6000   6.258   3.014   3.071
 1701SOL     OW 6001   1.149   5.530   5.058
 1701SOL    HW1 6002   1.120   5.600   4.993
 1701SOL    HW2 6003   1.090   5.533   5.139
 1702SOL     OW 6004   2.062   2.317   0.060
 1702SOL    HW1 6005   2.115   2.396   0.090
 1702SOL    HW2 6006   2.083   2.238   0.118
 1703SOL     OW 6007   1.365   1.693   1.541
 1703SOL    HW1 6008   1.283   1.663   1.591
 1703SOL    HW2 6009   1.434   1.621   1.543
 1704SOL     OW 6010   3.138   2.846   6.638
 1704SOL    HW1 6011   3.152   2.832   6.540
 1704SOL    HW2 6012   3.135   2.944   6.658
 1705SOL     OW 6013   5.670   2.976   0.981
 1705SOL    HW1 6014   5.761   2.996   1.020
 1705SOL    HW2 6015   5.618   3.061   0.974
 1706SOL     OW 6016   5.757   0.795   5.552
 1706SOL    HW1 6017   5.813   0.816   5.633
 1706SOL    HW2 6018   5.730   0.698   5.555
 1707SOL     OW 6019   2.973   1.314   2.199
 1707SOL    HW1 6020   3.013   1.404   2.216
 1707SOL    HW2 6021   2.984   1.290   2.103
 1708SOL     OW 6022   2.765   4.850   1.931
 1708SOL    HW1 6023   2.759   4.754   1.959
 1708SOL    HW2 6024   2.794   4.855   1.836
 1709SOL     OW 6025   6.001   4.754   1.991
 1709SOL    HW1 6026   5.977   4.674   2.046
 1709SOL    HW2 6027   6.065   4.812   2.043
 1710SOL     OW 6028   4.680   2.682   2.033
 1710SOL    HW1 6029   4.673   2.778   2.060
 1710SOL    HW2 6030   4.777   2.657   2.022
 1711SOL     OW 6031   4.387   5.340   0.147
 1711SOL    HW1 6032   4.408   5.315   0.242
 1711SOL    HW2 6033   4.472   5.353   0.096
 1712SOL     OW 6034   0.305   2.354   2.039
 1712SOL    HW1 6035   0.218   2.399   2.021
 1712SOL    HW2 6036   0.311   2.329   2.136
 1713SOL     OW 6037   2.855   1.178   2.428
 1713SOL    HW1 6038   2.876   1.263   2.379
 1713SOL    HW2 6039   2.881   1.188   2.524
 1714SOL     OW 6040   3.030   4.992   1.259
 1714SOL    HW1 6041   3.066   4.976   1.351
 1714SOL    HW2 6042   3.085   5.063   1.215
 1715SOL     OW 6043   1.376   6.445   0.724
 1715SOL    HW1 6044   1.464   6.412   0.688
 1715SOL    HW2 6045   1.306   6.437   0.653
 1716SOL     OW 6046   5.166   1.609   2.866
 1716SOL    HW1 6047   5.209   1.601   2.776
 1716SOL    HW2 6048   5.174   1.703   2.899
 1717SOL     OW 6049   3.552   6.599   4.084
 1717SOL    HW1 6050   3.575   6.650   4.002
 1717SOL    HW2 6051   3.592   6.643   4.164
 1718SOL     OW 6052   1.754   4.142   1.588
 1718SOL    HW1 6053   1.742   4.134   1.687
 1718SOL    HW2 6054   1.704   4.068   1.542
 1719SOL     OW 6055   1.585   4.831   3.934
 1719SOL    HW1 6056   1.618   4.882   4.013
 1719SOL    HW2 6057   1.542   4.746   3.965
 1720SOL     OW 6058   1.443   2.980   5.492
 1720SOL    HW1 6059   1.537   2.948   5.479
 1720SOL    HW2 6060   1.379   2.909   5.464
 1721SOL     OW 6061   2.383   2.491   0.316
 1721SOL    HW1 6062   2.297   2.539   0.334
 1721SOL    HW2 6063   2.430   2.474   0.402
 1722SOL     OW 6064   3.663   2.067   2.783
 1722SOL    HW1 6065   3.758   2.062   2.751
 1722SOL    HW2 6066   3.603   2.029   2.713
 1723SOL     OW 6067   6.512   5.207   1.218
 1723SOL    HW1 6068   6.583   5.274   1.198
 1723SOL    HW2 6069   6.469   5.229   1.306
 1724SOL     OW 6070   6.105   3.934   1.332
 1724SOL    HW1 6071   6.009   3.909   1.327
 1724SOL    HW2 6072   6.160   3.852   1.349
 1725SOL     OW 6073   1.574   6.557   4.567
 1725SOL    HW1 6074   1.530   6.533   4.653
 1725SOL    HW2 6075   1.588   6.475   4.512
 1726SOL     OW 6076   5.644   4.722   2.921
 1726SOL    HW1 6077   5.601   4.649   2.973
 1726SOL    HW2 6078   5.582   4.800   2.915
 1727SOL     OW 6079   2.945   3.549   3.704
 1727SOL    HW1 6080   2.914   3.633   3.748
 1727SOL    HW2 6081   2.985   3.489   3.773
 1728SOL     OW 6082   5.528   2.276   4.465
 1728SOL    HW1 6083   5.541   2.329   4.549
 1728SOL    HW2 6084   5.616   2.259   4.422
 1729SOL     OW 6085   1.402   4.080   3.304
 1729SOL    HW1 6086   1.331   4.012   3.285
 1729SOL    HW2 6087   1.359   4.170   3.316
 1730SOL     OW 6088   2.461   1.050   4.849
 1730SOL    HW1 6089   2.479   1.093   4.761
 1730SOL    HW2 6090   2.368   1.071   4.879
 1731SOL     OW 6091   5.872   4.529   3.695
 1731SOL    HW1 6092   5.881   4.614   3.747
 1731SOL    HW2 6093   5.908   4.452   3.748
 1732SOL     OW 6094   3.907   3.152   5.109
 1732SOL    HW1 6095   3.867   3.159   5.018
 1732SOL    HW2 6096   3.983   3.217   5.117
 1733SOL     OW 6097   1.220   1.751   6.999
 1733SOL    HW1 6098   1.299   1.758   6.938
 1733SOL    HW2 6099   1.177   1.662   6.987
 1734SOL     OW 6100   0.924   4.515   2.463
 1734SOL    HW1 6101   0.839   4.562   2.442
 1734SOL    HW2 6102   0.909   4.416   2.461
 1735SOL     OW 6103   3.232   5.345   6.104
 1735SOL    HW1 6104   3.153   5.401   6.082
 1735SOL    HW2 6105   3.312   5.378   6.054
 1736SOL     OW 6106   4.471   1.810   5.370
 1736SOL    HW1 6107   4.475   1.822   5.271
 1736SOL    HW2 6108   4.386   1.849   5.405
 1737SOL     OW 6109   2.483   0.611   6.900
 1737SOL    HW1 6110   2.420   0.689   6.905
 1737SOL    HW2 6111   2.546   0.623   6.824
 1738SOL     OW 6112   1.254   3.927   2.031
 1738SOL    HW1 6113   1.301   4.000   1.981
 1738SOL    HW2 6114   1.233   3.958   2.123
 1739SOL     OW 6115   4.387   5.390   2.311
 1739SOL    HW1 6116   4.461   5.389   2.378
 1739SOL    HW2 6117   4.379   5.482   2.272
 1740SOL     OW 6118   6.387   2.509   4.421
 1740SOL    HW1 6119   6.435   2.434   4.375
 1740SOL    HW2 6120   6.374   2.486   4.518
 1741SOL     OW 6121   1.221   2.904   4.104
 1741SOL    HW1 6122   1.222   2.804   4.094
 1741SOL    HW2 6123   1.237   2.928   4.199
 1742SOL     OW 6124   5.835   6.992   6.773
 1742SOL    HW1 6125   5.879   6.980   6.862
 1742SOL    HW2 6126   5.825   0.073   6.754
 1743SOL     OW 6127   0.787   2.036   1.776
 1743SOL    HW1 6128   0.797   2.023   1.677
 1743SOL    HW2 6129   0.706   2.093   1.794
 1744SOL     OW 6130   3.068   1.891   5.368
 1744SOL    HW1 6131   3.111   1.967   5.320
 1744SOL    HW2 6132   3.139   1.833   5.409
 1745SOL     OW 6133   6.321   6.671   0.945
 1745SOL    HW1 6134   6.227   6.697   0.966
 1745SOL    HW2 6135   6.361   6.738   0.882
 1746SOL     OW 6136   2.240   5.186   2.704
 1746SOL    HW1 6137   2.237   5.112   2.637
 1746SOL    HW2 6138   2.185   5.161   2.784
 1747SOL     OW 6139   2.931   6.707   1.697
 1747SOL    HW1 6140   2.996   6.637   1.670
 1747SOL    HW2 6141   2.869   6.671   1.767
 1748SOL     OW 6142   0.153   1.691   3.648
 1748SOL    HW1 6143   0.160   1.683   3.549
 1748SOL    HW2 6144   0.101   1.773   3.671
 1749SOL     OW 6145   6.451   5.573   2.424
 1749SOL    HW1 6146   6.433   5.648   2.487
 1749SOL    HW2 6147   6.447   5.607   2.330
 1750SOL     OW 6148   2.607   1.302   1.235
 1750SOL    HW1 6149   2.630   1.333   1.142
 1750SOL    HW2 6150   2.668   1.227   1.262
 1751SOL     OW 6151   6.426   4.526   4.806
 1751SOL    HW1 6152   6.372   4.461   4.858
 1751SOL    HW2 6153   6.486   4.477   4.743
 1752SOL     OW 6154   5.621   0.502   2.850
 1752SOL    HW1 6155   5.575   0.414   2.839
 1752SOL    HW2 6156   5.563   0.564   2.904
 1753SOL     OW 6157   6.513   1.469   0.946
 1753SOL    HW1 6158   6.460   1.525   0.881
 1753SOL    HW2 6159   6.548   1.388   0.900
 1754SOL     OW 6160   1.989   4.479   3.580
 1754SOL    HW1 6161   2.047   4.470   3.499
 1754SOL    HW2 6162   1.937   4.395   3.594
 1755SOL     OW 6163   5.829   6.692   5.181
 1755SOL    HW1 6164   5.828   6.608   5.127
 1755SOL    HW2 6165   5.788   6.674   5.271
 1756SOL     OW 6166   4.656   5.488   1.528
 1756SOL    HW1 6167   4.700   5.544   1.459
 1756SOL    HW2 6168   4.585   5.542   1.574
 1757SOL     OW 6169   2.862   5.120   4.833
 1757SOL    HW1 6170   2.879   5.022   4.820
 1757SOL    HW2 6171   2.949   5.168   4.840
 1758SOL     OW 6172   0.575   6.261   4.016
 1758SOL    HW1 6173   0.532   6.307   4.094
 1758SOL    HW2 6174   0.674   6.255   4.032
 1759SOL     OW 6175   1.940   5.090   6.144
 1759SOL    HW1 6176   2.009   5.086   6.071
 1759SOL    HW2 6177   1.860   5.142   6.112
 1760SOL     OW 6178   5.917   1.288   4.136
 1760SOL    HW1 6179   5.841   1.344   4.105
 1760SOL    HW2 6180   5.934   1.305   4.233
 1761SOL     OW 6181   5.311   2.229   3.936
 1761SOL    HW1 6182   5.347   2.151   3.885
 1761SOL    HW2 6183   5.239   2.274   3.884
 1762SOL     OW 6184   1.059   1.556   5.451
 1762SOL    HW1 6185   1.104   1.504   5.523
 1762SOL    HW2 6186   1.030   1.645   5.487
 1763SOL     OW 6187   1.621   5.134   4.297
 1763SOL    HW1 6188   1.592   5.150   4.202
 1763SOL    HW2 6189   1.720   5.144   4.303
 1764SOL     OW 6190   0.301   5.432   3.540
 1764SOL    HW1 6191   0.248   5.468   3.463
 1764SOL    HW2 6192   0.343   5.345   3.514
 1765SOL     OW 6193   5.345   3.807   2.028
 1765SOL    HW1 6194   5.294   3.889   2.053
 1765SOL    HW2 6195   5.321   3.732   2.089
 1766SOL     OW 6196   4.122   5.076   3.371
 1766SOL    HW1 6197   4.071   5.127   3.440
 1766SOL    HW2 6198   4.070   5.073   3.286
 1767SOL     OW 6199   1.761   4.403   1.543
 1767SOL    HW1 6200   1.769   4.304   1.550
 1767SOL    HW2 6201   1.843   4.447   1.580
 1768SOL     OW 6202   3.461   5.190   2.886
 1768SOL    HW1 6203   3.540   5.161   2.833
 1768SOL    HW2 6204   3.387   5.217   2.824
 1769SOL     OW 6205   5.558   0.072   0.736
 1769SOL    HW1 6206   5.491   0.056   0.808
 1769SOL    HW2 6207   5.585   7.002   0.696
 1770SOL     OW 6208   2.339   4.429   0.373
 1770SOL    HW1 6209   2.339   4.393   0.466
 1770SOL    HW2 6210   2.388   4.516   0.371
 1771SOL     OW 6211   1.361   3.228   5.982
 1771SOL    HW1 6212   1.419   3.304   5.954
 1771SOL    HW2 6213   1.388   3.146   5.932
 1772SOL     OW 6214   3.181   5.369   2.112
 1772SOL    HW1 6215   3.133   5.446   2.153
 1772SOL    HW2 6216   3.279   5.380   2.124
 1773SOL     OW 6217   2.035   6.364   4.748
 1773SOL    HW1 6218   2.062   6.292   4.812
 1773SOL    HW2 6219   1.951   6.337   4.700
 1774SOL     OW 6220   5.730   5.221   1.426
 1774SOL    HW1 6221   5.816   5.195   1.381
 1774SOL    HW2 6222   5.676   5.139   1.443
 1775SOL     OW 6223   2.040   0.102   1.195
 1775SOL    HW1 6224   1.941   0.114   1.207
 1775SOL    HW2 6225   2.074   0.035   1.261
 1776SOL     OW 6226   5.156   3.359   5.585
 1776SOL    HW1 6227   5.063   3.386   5.561
 1776SOL    HW2 6228   5.181   3.400   5.673
 1777SOL     OW 6229   4.808   4.916   6.729
 1777SOL    HW1 6230   4.844   4.894   6.638
 1777SOL    HW2 6231   4.881   4.907   6.796
 1778SOL     OW 6232   6.720   0.343   3.099
 1778SOL    HW1 6233   6.654   0.360   3.026
 1778SOL    HW2 6234   6.678   0.364   3.187
 1779SOL     OW 6235   6.698   6.949   4.706
 1779SOL    HW1 6236   6.604   6.984   4.717
 1779SOL    HW2 6237   6.705   6.858   4.747
 1780SOL     OW 6238   2.723   6.871   4.738
 1780SOL    HW1 6239   2.639   6.845   4.787
 1780SOL    HW2 6240   2.764   6.789   4.698
 1781SOL     OW 6241   4.655   0.945   5.797
 1781SOL    HW1 6242   4.654   1.045   5.788
 1781SOL    HW2 6243   4.582   0.917   5.861
 1782SOL     OW 6244   4.977   0.336   2.419
 1782SOL    HW1 6245   4.889   0.316   2.376
 1782SOL    HW2 6246   5.050   0.319   2.353
 1783SOL     OW 6247   1.906   3.381   0.106
 1783SOL    HW1 6248   1.817   3.379   0.152
 1783SOL    HW2 6249   1.932   3.289   0.078
 1784SOL     OW 6250   2.166   5.706   1.535
 1784SOL    HW1 6251   2.168   5.693   1.634
 1784SOL    HW2 6252   2.137   5.800   1.515
 1785SOL     OW 6253   2.302   5.136   4.756
 1785SOL    HW1 6254   2.253   5.049   4.769
 1785SOL    HW2 6255   2.238   5.212   4.768
 1786SOL     OW 6256   0.526   5.679   2.401
 1786SOL    HW1 6257   0.513   5.779   2.399
 1786SOL    HW2 6258   0.619   5.659   2.431
 1787SOL     OW 6259   2.599   2.314   6.322
 1787SOL    HW1 6260   2.587   2.311   6.223
 1787SOL    HW2 6261   2.519   2.357   6.364
 1788SOL     OW 6262   3.859   3.851   0.549
 1788SOL    HW1 6263   3.918   3.819   0.624
 1788SOL    HW2 6264   3.833   3.946   0.565
 1789SOL     OW 6265   5.973   2.783   3.090
 1789SOL    HW1 6266   5.974   2.686   3.068
 1789SOL    HW2 6267   5.881   2.809   3.120
 1790SOL     OW 6268   2.228   2.342   5.141
 1790SOL    HW1 6269   2.138   2.345   5.097
 1790SOL    HW2 6270   2.299   2.342   5.071
 1791SOL     OW 6271   6.050   0.445   3.241
 1791SOL    HW1 6272   6.074   0.515   3.308
 1791SOL    HW2 6273   6.134   0.407   3.201
 1792SOL     OW 6274   0.153   3.189   6.268
 1792SOL    HW1 6275   0.153   3.266   6.331
 1792SOL    HW2 6276   0.247   3.163   6.247
 1793SOL     OW 6277   0.451   1.732   4.947
 1793SOL    HW1 6278   0.469   1.662   5.015
 1793SOL    HW2 6279   0.521   1.804   4.953
 1794SOL     OW 6280   6.487   1.759   6.302
 1794SOL    HW1 6281   6.434   1.675   6.292
 1794SOL    HW2 6282   6.478   1.814   6.220
 1795SOL     OW 6283   5.825   4.286   0.831
 1795SOL    HW1 6284   5.865   4.210   0.779
 1795SOL    HW2 6285   5.898   4.347   0.863
 1796SOL     OW 6286   6.127   0.170   6.824
 1796SOL    HW1 6287   6.104   0.266   6.808
 1796SOL    HW2 6288   6.074   0.135   6.901
 1797SOL     OW 6289   3.053   6.250   5.910
 1797SOL    HW1 6290   2.979   6.308   5.945
 1797SOL    HW2 6291   3.060   6.168   5.966
 1798SOL     OW 6292   2.677   3.802   6.828
 1798SOL    HW1 6293   2.605   3.852   6.876
 1798SOL    HW2 6294   2.676   3.826   6.731
 1799SOL     OW 6295   3.851   1.686   1.415
 1799SOL    HW1 6296   3.764   1.673   1.366
 1799SOL    HW2 6297   3.871   1.604   1.469
 1800SOL     OW 6298   5.674   2.223   5.658
 1800SOL    HW1 6299   5.637   2.284   5.728
 1800SOL    HW2 6300   5.766   2.195   5.683
 1801SOL     OW 6301   0.612   1.861   1.986
 1801SOL    HW1 6302   0.684   1.909   2.036
 1801SOL    HW2 6303   0.566   1.797   2.047
 1802SOL     OW 6304   6.181   4.692   4.948
 1802SOL    HW1 6305   6.133   4.634   4.883
 1802SOL    HW2 6306   6.261   4.732   4.903
 1803SOL     OW 6307   6.508   6.993   3.902
 1803SOL    HW1 6308   6.554   6.940   3.831
 1803SOL    HW2 6309   6.413   7.011   3.873
 1804SOL     OW 6310   1.466   3.007   6.404
 1804SOL    HW1 6311   1.536   2.967   6.464
 1804SOL    HW2 6312   1.381   3.019   6.456
 1805SOL     OW 6313   6.399   5.074   5.770
 1805SOL    HW1 6314   6.402   5.163   5.723
 1805SOL    HW2 6315   6.404   5.001   5.702
 1806SOL     OW 6316   0.669   1.240   1.637
 1806SOL    HW1 6317   0.609   1.164   1.612
 1806SOL    HW2 6318   0.614   1.322   1.651
 1807SOL     OW 6319   6.337   2.301   2.435
 1807SOL    HW1 6320   6.364   2.369   2.367
 1807SOL    HW2 6321   6.272   2.342   2.499
 1808SOL     OW 6322   6.434   0.579   0.163
 1808SOL    HW1 6323   6.395   0.536   0.082
 1808SOL    HW2 6324   6.390   0.543   0.245
 1809SOL     OW 6325   4.374   0.303   4.727
 1809SOL    HW1 6326   4.350   0.233   4.660
 1809SOL    HW2 6327   4.362   0.266   4.819
 1810SOL     OW 6328   1.103   1.320   4.749
 1810SOL    HW1 6329   1.196   1.288   4.769
 1810SOL    HW2 6330   1.061   1.356   4.833
 1811SOL     OW 6331   3.514   5.477   1.875
 1811SOL    HW1 6332   3.592   5.481   1.812
 1811SOL    HW2 6333   3.464   5.564   1.871
 1812SOL     OW 6334   4.103   0.976   6.891
 1812SOL    HW1 6335   4.154   1.020   6.965
 1812SOL    HW2 6336   4.008   1.006   6.893
 1813SOL     OW 6337   6.039   3.604   1.836
 1813SOL    HW1 6338   6.050   3.642   1.928
 1813SOL    HW2 6339   6.067   3.672   1.768
 1814SOL     OW 6340   6.582   5.756   1.169
 1814SOL    HW1 6341   6.546   5.807   1.091
 1814SOL    HW2 6342   6.652   5.811   1.215
 1815SOL     OW 6343   6.331   5.241   1.431
 1815SOL    HW1 6344   6.303   5.334   1.407
 1815SOL    HW2 6345   6.250   5.185   1.448
 1816SOL     OW 6346   3.532   4.976   4.413
 1816SOL    HW1 6347   3.627   4.962   4.441
 1816SOL    HW2 6348   3.471   4.931   4.478
 1817SOL     OW 6349   6.207   2.837   3.976
 1817SOL    HW1 6350   6.219   2.809   3.881
 1817SOL    HW2 6351   6.198   2.937   3.980
 1818SOL     OW 6352   2.359   1.796   0.252
 1818SOL    HW1 6353   2.354   1.782   0.351
 1818SOL    HW2 6354   2.428   1.867   0.232
 1819SOL     OW 6355   1.112   3.060   0.760
 1819SOL    HW1 6356   1.191   3.103   0.804
 1819SOL    HW2 6357   1.101   3.097   0.668
 1820SOL     OW 6358   3.903   6.790   5.080
 1820SOL    HW1 6359   3.898   6.769   4.982
 1820SOL    HW2 6360   3.881   6.708   5.133
 1821SOL     OW 6361   3.901   1.362   2.445
 1821SOL    HW1 6362   3.828   1.326   2.387
 1821SOL    HW2 6363   3.983   1.306   2.435
 1822SOL     OW 6364   2.201   4.147   4.866
 1822SOL    HW1 6365   2.262   4.101   4.929
 1822SOL    HW2 6366   2.149   4.079   4.813
 1823SOL     OW 6367   4.563   6.820   4.255
 1823SOL    HW1 6368   4.514   6.790   4.337
 1823SOL    HW2 6369   4.654   6.851   4.281
 1824SOL     OW 6370   4.503   2.633   1.793
 1824SOL    HW1 6371   4.541   2.650   1.884
 1824SOL    HW2 6372   4.496   2.720   1.743
 1825SOL     OW 6373   1.408   3.669   0.242
 1825SOL    HW1 6374   1.349   3.698   0.317
 1825SOL    HW2 6375   1.462   3.746   0.210
 1826SOL     OW 6376   3.913   3.289   0.066
 1826SOL    HW1 6377   3.948   3.358   0.003
 1826SOL    HW2 6378   3.871   3.334   0.145
 1827SOL     OW 6379   5.413   4.655   0.942
 1827SOL    HW1 6380   5.377   4.730   0.997
 1827SOL    HW2 6381   5.463   4.691   0.864
 1828SOL     OW 6382   2.662   5.585   5.106
 1828SOL    HW1 6383   2.579   5.630   5.072
 1828SOL    HW2 6384   2.723   5.654   5.144
 1829SOL     OW 6385   1.680   6.311   2.572
 1829SOL    HW1 6386   1.648   6.246   2.642
 1829SOL    HW2 6387   1.729   6.261   2.500
 1830SOL     OW 6388   4.134   1.224   6.733
 1830SOL    HW1 6389   4.160   1.136   6.773
 1830SOL    HW2 6390   4.040   1.220   6.701
 1831SOL     OW 6391   3.874   4.536   6.679
 1831SOL    HW1 6392   3.781   4.545   6.716
 1831SOL    HW2 6393   3.932   4.491   6.747
 1832SOL     OW 6394   2.088   2.478   5.631
 1832SOL    HW1 6395   2.118   2.396   5.583
 1832SOL    HW2 6396   1.997   2.505   5.597
 1833SOL     OW 6397   5.834   1.700   0.111
 1833SOL    HW1 6398   5.763   1.705   0.181
 1833SOL    HW2 6399   5.867   1.793   0.090
 1834SOL     OW 6400   2.061   3.953   6.692
 1834SOL    HW1 6401   2.144   3.958   6.637
 1834SOL    HW2 6402   2.066   4.019   6.767
 1835SOL     OW 6403   6.267   7.007   6.563
 1835SOL    HW1 6404   6.223   0.050   6.630
 1835SOL    HW2 6405   6.207   6.997   6.483
 1836SOL     OW 6406   6.110   1.246   4.813
 1836SOL    HW1 6407   6.122   1.246   4.713
 1836SOL    HW2 6408   6.130   1.337   4.849
 1837SOL     OW 6409   1.049   1.938   1.374
 1837SOL    HW1 6410   1.145   1.933   1.403
 1837SOL    HW2 6411   1.003   1.853   1.399
 1838SOL     OW 6412   5.275   0.288   0.351
 1838SOL    HW1 6413   5.273   0.209   0.290
 1838SOL    HW2 6414   5.358   0.285   0.406
 1839SOL     OW 6415   6.784   1.925   6.249
 1839SOL    HW1 6416   6.843   1.934   6.330
 1839SOL    HW2 6417   6.841   1.905   6.169
 1840SOL     OW 6418   2.164   0.093   5.632
 1840SOL    HW1 6419   2.206   0.003   5.646
 1840SOL    HW2 6420   2.235   0.163   5.636
 1841SOL     OW 6421   2.685   6.988   1.958
 1841SOL    HW1 6422   2.691   6.982   2.058
 1841SOL    HW2 6423   2.598   0.013   1.933
 1842SOL     OW 6424   0.155   4.540   1.770
 1842SOL    HW1 6425   0.136   4.442   1.760
 1842SOL    HW2 6426   0.183   4.559   1.864
 1843SOL     OW 6427   3.253   0.717   6.700
 1843SOL    HW1 6428   3.245   0.621   6.674
 1843SOL    HW2 6429   3.350   0.742   6.704
 1844SOL     OW 6430   4.955   3.802   1.353
 1844SOL    HW1 6431   4.856   3.818   1.354
 1844SOL    HW2 6432   4.990   3.802   1.446
 1845SOL     OW 6433   0.676   2.445   4.506
 1845SOL    HW1 6434   0.618   2.395   4.443
 1845SOL    HW2 6435   0.772   2.424   4.486
 1846SOL     OW 6436   3.917   1.591   2.149
 1846SOL    HW1 6437   3.877   1.638   2.228
 1846SOL    HW2 6438   3.950   1.501   2.178
 1847SOL     OW 6439   3.268   6.083   6.650
 1847SOL    HW1 6440   3.278   6.107   6.554
 1847SOL    HW2 6441   3.355   6.096   6.698
 1848SOL     OW 6442   3.263   5.727   4.656
 1848SOL    HW1 6443   3.269   5.659   4.583
 1848SOL    HW2 6444   3.334   5.797   4.643
 1849SOL     OW 6445   4.600   2.603   2.274
 1849SOL    HW1 6446   4.621   2.628   2.179
 1849SOL    HW2 6447   4.523   2.540   2.275
 1850SOL     OW 6448   4.764   1.412   0.871
 1850SOL    HW1 6449   4.823   1.400   0.951
 1850SOL    HW2 6450   4.672   1.379   0.892
 1851SOL     OW 6451   1.181   4.958   3.715
 1851SOL    HW1 6452   1.217   5.050   3.703
 1851SOL    HW2 6453   1.101   4.961   3.774
 1852SOL     OW 6454   0.270   0.208   3.929
 1852SOL    HW1 6455   0.221   0.139   3.875
 1852SOL    HW2 6456   0.366   0.183   3.935
 1853SOL     OW 6457   1.216   1.955   5.058
 1853SOL    HW1 6458   1.195   2.052   5.045
 1853SOL    HW2 6459   1.287   1.945   5.127
 1854SOL     OW 6460   0.977   6.944   3.997
 1854SOL    HW1 6461   0.906   6.981   3.937
 1854SOL    HW2 6462   1.060   6.998   3.987
 1855SOL     OW 6463   6.682   1.473   5.175
 1855SOL    HW1 6464   6.657   1.543   5.242
 1855SOL    HW2 6465   6.745   1.408   5.217
 1856SOL     OW 6466   4.946   4.064   0.061
 1856SOL    HW1 6467   4.977   4.009   7.000
 1856SOL    HW2 6468   4.849   4.085   0.050
 1857SOL     OW 6469   4.850   0.704   6.797
 1857SOL    HW1 6470   4.883   0.799   6.788
 1857SOL    HW2 6471   4.759   0.705   6.839
 1858SOL     OW 6472   4.888   2.154   4.714
 1858SOL    HW1 6473   4.859   2.244   4.682
 1858SOL    HW2 6474   4.925   2.102   4.638
 1859SOL     OW 6475   6.262   6.151   2.837
 1859SOL    HW1 6476   6.309   6.127   2.752
 1859SOL    HW2 6477   6.195   6.080   2.859
 1860SOL     OW 6478   2.243   0.610   0.811
 1860SOL    HW1 6479   2.282   0.672   0.743
 1860SOL    HW2 6480   2.247   0.653   0.901
 1861SOL     OW 6481   6.624   6.901   5.598
 1861SOL    HW1 6482   6.625   6.999   5.579
 1861SOL    HW2 6483   6.631   6.850   5.513
 1862SOL     OW 6484   3.817   4.933   5.064
 1862SOL    HW1 6485   3.726   4.941   5.105
 1862SOL    HW2 6486   3.860   5.023   5.062
 1863SOL     OW 6487   0.248   1.088   1.439
 1863SOL    HW1 6488   0.345   1.067   1.428
 1863SOL    HW2 6489   0.194   1.006   1.419
 1864SOL     OW 6490   2.413   6.115   2.383
 1864SOL    HW1 6491   2.428   6.183   2.311
 1864SOL    HW2 6492   2.407   6.024   2.343
 1865SOL     OW 6493   6.076   2.413   5.727
 1865SOL    HW1 6494   6.001   2.473   5.699
 1865SOL    HW2 6495   6.160   2.441   5.682
 1866SOL     OW 6496   0.242   4.179   5.179
 1866SOL    HW1 6497   0.229   4.268   5.223
 1866SOL    HW2 6498   0.259   4.110   5.249
 1867SOL     OW 6499   1.228   0.739   0.805
 1867SOL    HW1 6500   1.238   0.826   0.853
 1867SOL    HW2 6501   1.264   0.749   0.712
 1868SOL     OW 6502   5.615   3.490   5.819
 1868SOL    HW1 6503   5.626   3.439   5.733
 1868SOL    HW2 6504   5.674   3.571   5.818
 1869SOL     OW 6505   5.163   0.685   5.060
 1869SOL    HW1 6506   5.250   0.699   5.107
 1869SOL    HW2 6507   5.108   0.768   5.067
 1870SOL     OW 6508   5.601   1.009   5.617
 1870SOL    HW1 6509   5.638   0.927   5.574
 1870SOL    HW2 6510   5.524   1.043   5.563
 1871SOL     OW 6511   2.976   4.711   0.129
 1871SOL    HW1 6512   2.882   4.742   0.117
 1871SOL    HW2 6513   2.986   4.672   0.220
 1872SOL     OW 6514   2.375   3.379   6.973
 1872SOL    HW1 6515   2.305   3.444   7.002
 1872SOL    HW2 6516   2.361   3.292   0.002
 1873SOL     OW 6517   6.161   1.240   1.900
 1873SOL    HW1 6518   6.161   1.208   1.995
 1873SOL    HW2 6519   6.256   1.253   1.870
 1874SOL     OW 6520   2.441   5.213   6.542
 1874SOL    HW1 6521   2.483   5.282   6.484
 1874SOL    HW2 6522   2.498   5.131   6.544
 1875SOL     OW 6523   0.964   6.031   2.624
 1875SOL    HW1 6524   0.958   5.932   2.634
 1875SOL    HW2 6525   0.982   6.054   2.528
 1876SOL     OW 6526   0.585   4.968   5.447
 1876SOL    HW1 6527   0.612   5.062   5.467
 1876SOL    HW2 6528   0.660   4.922   5.398
 1877SOL     OW 6529   0.529   1.251   3.715
 1877SOL    HW1 6530   0.565   1.317   3.650
 1877SOL    HW2 6531   0.452   1.290   3.764
 1878SOL     OW 6532   5.747   3.861   4.542
 1878SOL    HW1 6533   5.762   3.871   4.444
 1878SOL    HW2 6534   5.670   3.799   4.558
 1879SOL     OW 6535   3.998   6.206   5.190
 1879SOL    HW1 6536   3.989   6.156   5.276
 1879SOL    HW2 6537   3.937   6.285   5.191
 1880SOL     OW 6538   1.557   3.758   4.392
 1880SOL    HW1 6539   1.575   3.723   4.300
 1880SOL    HW2 6540   1.643   3.767   4.442
 1881SOL     OW 6541   2.821   2.104   3.160
 1881SOL    HW1 6542   2.797   2.182   3.102
 1881SOL    HW2 6543   2.842   2.025   3.103
 1882SOL     OW 6544   4.144   6.728   0.064
 1882SOL    HW1 6545   4.044   6.733   0.063
 1882SOL    HW2 6546   4.174   6.634   0.052
 1883SOL     OW 6547   2.022   3.540   3.031
 1883SOL    HW1 6548   2.049   3.446   3.008
 1883SOL    HW2 6549   2.058   3.603   2.962
 1884SOL     OW 6550   4.814   0.968   0.043
 1884SOL    HW1 6551   4.865   1.036   0.095
 1884SOL    HW2 6552   4.778   0.898   0.106
 1885SOL     OW 6553   6.941   1.712   0.996
 1885SOL    HW1 6554   6.857   1.666   0.967
 1885SOL    HW2 6555   7.015   1.688   0.934
 1886SOL     OW 6556   3.718   3.271   4.604
 1886SOL    HW1 6557   3.641   3.335   4.607
 1886SOL    HW2 6558   3.753   3.256   4.696
 1887SOL     OW 6559   0.753   5.871   5.511
 1887SOL    HW1 6560   0.814   5.928   5.566
 1887SOL    HW2 6561   0.670   5.851   5.563
 1888SOL     OW 6562   2.132   1.789   5.744
 1888SOL    HW1 6563   2.139   1.698   5.782
 1888SOL    HW2 6564   2.036   1.817   5.741
 1889SOL     OW 6565   3.885   3.868   0.246
 1889SOL    HW1 6566   3.818   3.872   0.320
 1889SOL    HW2 6567   3.870   3.946   0.184
 1890SOL     OW 6568   6.032   6.385   6.247
 1890SOL    HW1 6569   6.032   6.369   6.148
 1890SOL    HW2 6570   6.111   6.338   6.288
 1891SOL     OW 6571   5.313   3.408   6.597
 1891SOL    HW1 6572   5.314   3.502   6.563
 1891SOL    HW2 6573   5.360   3.404   6.686
 1892SOL     OW 6574   3.792   1.040   3.154
 1892SOL    HW1 6575   3.797   1.099   3.073
 1892SOL    HW2 6576   3.700   1.047   3.194
 1893SOL     OW 6577   2.822   2.272   6.975
 1893SOL    HW1 6578   2.807   2.371   6.982
 1893SOL    HW2 6579   2.883   2.253   6.898
 1894SOL     OW 6580   5.041   3.261   0.893
 1894SOL    HW1 6581   4.984   3.330   0.939
 1894SOL    HW2 6582   4.982   3.200   0.839
 1895SOL     OW 6583   4.558   5.582   2.986
 1895SOL    HW1 6584   4.501   5.532   2.920
 1895SOL    HW2 6585   4.526   5.677   2.992
 1896SOL     OW 6586   0.278   1.394   4.742
 1896SOL    HW1 6587   0.259   1.403   4.840
 1896SOL    HW2 6588   0.223   1.320   4.704
 1897SOL     OW 6589   5.396   5.270   3.402
 1897SOL    HW1 6590   5.343   5.204   3.456
 1897SOL    HW2 6591   5.335   5.320   3.341
 1898SOL     OW 6592   5.195   6.296   0.335
 1898SOL    HW1 6593   5.149   6.207   0.335
 1898SOL    HW2 6594   5.126   6.369   0.335
 1899SOL     OW 6595   1.565   3.135   3.798
 1899SOL    HW1 6596   1.630   3.160   3.869
 1899SOL    HW2 6597   1.478   3.109   3.840
 1900SOL     OW 6598   2.745   5.961   1.510
 1900SOL    HW1 6599   2.814   5.943   1.580
 1900SOL    HW2 6600   2.657   5.923   1.540
 1901SOL     OW 6601   0.521   1.771   6.200
 1901SOL    HW1 6602   0.561   1.759   6.109
 1901SOL    HW2 6603   0.500   1.867   6.214
 1902SOL     OW 6604   1.345   2.617   4.758
 1902SOL    HW1 6605   1.445   2.609   4.762
 1902SOL    HW2 6606   1.308   2.621   4.851
 1903SOL     OW 6607   6.960   6.045   3.874
 1903SOL    HW1 6608   0.009   6.080   3.940
 1903SOL    HW2 6609   6.888   5.995   3.922
 1904SOL     OW 6610   0.501   0.552   3.992
 1904SOL    HW1 6611   0.431   0.605   4.040
 1904SOL    HW2 6612   0.471   0.535   3.898
 1905SOL     OW 6613   5.812   3.310   5.916
 1905SOL    HW1 6614   5.829   3.266   6.004
 1905SOL    HW2 6615   5.725   3.361   5.920
 1906SOL     OW 6616   1.923   6.287   5.753
 1906SOL    HW1 6617   1.937   6.385   5.740
 1906SOL    HW2 6618   1.978   6.236   5.687
 1907SOL     OW 6619   4.324   6.790   3.361
 1907SOL    HW1 6620   4.291   6.753   3.273
 1907SOL    HW2 6621   4.419   6.764   3.374
 1908SOL     OW 6622   5.108   4.605   0.884
 1908SOL    HW1 6623   5.048   4.562   0.951
 1908SOL    HW2 6624   5.201   4.613   0.921
 1909SOL     OW 6625   5.089   5.282   3.578
 1909SOL    HW1 6626   5.044   5.267   3.490
 1909SOL    HW2 6627   5.174   5.230   3.581
 1910SOL     OW 6628   5.570   3.687   4.258
 1910SOL    HW1 6629   5.611   3.609   4.306
 1910SOL    HW2 6630   5.498   3.654   4.197
 1911SOL     OW 6631   0.998   2.512   5.640
 1911SOL    HW1 6632   0.926   2.463   5.689
 1911SOL    HW2 6633   0.986   2.610   5.652
 1912SOL     OW 6634   3.459   0.089   2.521
 1912SOL    HW1 6635   3.437   0.055   2.613
 1912SOL    HW2 6636   3.453   0.014   2.456
 1913SOL     OW 6637   3.116   3.951   6.860
 1913SOL    HW1 6638   3.034   3.947   6.918
 1913SOL    HW2 6639   3.143   4.046   6.848
 1914SOL     OW 6640   4.127   1.436   5.280
 1914SOL    HW1 6641   4.137   1.518   5.223
 1914SOL    HW2 6642   4.078   1.366   5.228
 1915SOL     OW 6643   2.347   6.479   5.135
 1915SOL    HW1 6644   2.378   6.469   5.230
 1915SOL    HW2 6645   2.285   6.557   5.128
 1916SOL     OW 6646   3.631   6.406   2.696
 1916SOL    HW1 6647   3.588   6.401   2.606
 1916SOL    HW2 6648   3.582   6.346   2.760
 1917SOL     OW 6649   4.141   3.642   3.355
 1917SOL    HW1 6650   4.051   3.633   3.312
 1917SOL    HW2 6651   4.130   3.680   3.448
 1918SOL     OW 6652   0.972   6.458   5.765
 1918SOL    HW1 6653   0.995   6.366   5.796
 1918SOL    HW2 6654   0.876   6.477   5.785
 1919SOL     OW 6655   5.552   0.382   2.085
 1919SOL    HW1 6656   5.523   0.396   1.990
 1919SOL    HW2 6657   5.577   0.286   2.098
 1920SOL     OW 6658   6.102   6.691   4.325
 1920SOL    HW1 6659   6.073   6.602   4.290
 1920SOL    HW2 6660   6.201   6.695   4.330
 1921SOL     OW 6661   2.459   6.835   6.707
 1921SOL    HW1 6662   2.538   6.821   6.647
 1921SOL    HW2 6663   2.439   6.933   6.713
 1922SOL     OW 6664   3.816   4.786   6.902
 1922SOL    HW1 6665   3.799   4.722   6.978
 1922SOL    HW2 6666   3.890   4.751   6.845
 1923SOL     OW 6667   1.716   2.934   1.004
 1923SOL    HW1 6668   1.814   2.939   1.025
 1923SOL    HW2 6669   1.704   2.897   0.912
 1924SOL     OW 6670   0.753   4.082   1.605
 1924SOL    HW1 6671   0.760   4.060   1.508
 1924SOL    HW2 6672   0.834   4.132   1.634
 1925SOL     OW 6673   3.529   4.663   0.317
 1925SOL    HW1 6674   3.476   4.578   0.326
 1925SOL    HW2 6675   3.553   4.697   0.408
 1926SOL     OW 6676   0.313   0.301   3.347
 1926SOL    HW1 6677   0.330   0.208   3.379
 1926SOL    HW2 6678   0.233   0.339   3.395
 1927SOL     OW 6679   5.451   3.244   1.588
 1927SOL    HW1 6680   5.412   3.336   1.576
 1927SOL    HW2 6681   5.423   3.186   1.512
 1928SOL     OW 6682   0.397   5.626   4.683
 1928SOL    HW1 6683   0.407   5.672   4.595
 1928SOL    HW2 6684   0.391   5.527   4.668
 1929SOL     OW 6685   1.535   4.673   3.187
 1929SOL    HW1 6686   1.609   4.652   3.123
 1929SOL    HW2 6687   1.531   4.772   3.202
 1930SOL     OW 6688   6.459   5.750   5.821
 1930SOL    HW1 6689   6.511   5.826   5.784
 1930SOL    HW2 6690   6.480   5.667   5.769
 1931SOL     OW 6691   2.184   2.477   3.546
 1931SOL    HW1 6692   2.224   2.521   3.626
 1931SOL    HW2 6693   2.084   2.489   3.548
 1932SOL     OW 6694   6.351   3.287   2.212
 1932SOL    HW1 6695   6.426   3.341   2.249
 1932SOL    HW2 6696   6.264   3.323   2.245
 1933SOL     OW 6697   2.415   5.395   0.302
 1933SOL    HW1 6698   2.345   5.460   0.332
 1933SOL    HW2 6699   2.430   5.327   0.373
 1934SOL     OW 6700   6.758   6.278   3.265
 1934SOL    HW1 6701   6.766   6.278   3.166
 1934SOL    HW2 6702   6.665   6.250   3.291
 1935SOL     OW 6703   1.166   1.549   2.614
 1935SOL    HW1 6704   1.089   1.490   2.637
 1935SOL    HW2 6705   1.250   1.511   2.653
 1936SOL     OW 6706   0.415   5.957   4.702
 1936SOL    HW1 6707   0.457   5.973   4.613
 1936SOL    HW2 6708   0.458   5.877   4.745
 1937SOL     OW 6709   4.651   1.631   3.340
 1937SOL    HW1 6710   4.616   1.725   3.338
 1937SOL    HW2 6711   4.611   1.583   3.418
 1938SOL     OW 6712   4.923   6.952   3.902
 1938SOL    HW1 6713   4.886   0.016   3.947
 1938SOL    HW2 6714   4.902   6.954   3.805
 1939SOL     OW 6715   2.565   0.851   4.560
 1939SOL    HW1 6716   2.588   0.796   4.640
 1939SOL    HW2 6717   2.538   0.943   4.589
 1940SOL     OW 6718   6.493   6.881   6.602
 1940SOL    HW1 6719   6.409   6.936   6.596
 1940SOL    HW2 6720   6.567   6.939   6.636
 1941SOL     OW 6721   4.399   4.803   2.824
 1941SOL    HW1 6722   4.430   4.708   2.820
 1941SOL    HW2 6723   4.331   4.812   2.897
 1942SOL     OW 6724   0.247   3.486   2.655
 1942SOL    HW1 6725   0.223   3.439   2.570
 1942SOL    HW2 6726   0.175   3.551   2.680
 1943SOL     OW 6727   3.535   5.332   3.630
 1943SOL    HW1 6728   3.483   5.363   3.709
 1943SOL    HW2 6729   3.475   5.328   3.550
 1944SOL     OW 6730   6.785   6.406   1.973
 1944SOL    HW1 6731   6.851   6.413   1.899
 1944SOL    HW2 6732   6.706   6.353   1.942
 1945SOL     OW 6733   2.793   5.404   2.520
 1945SOL    HW1 6734   2.838   5.323   2.483
 1945SOL    HW2 6735   2.790   5.399   2.620
 1946SOL     OW 6736   1.556   6.794   6.782
 1946SOL    HW1 6737   1.485   6.864   6.781
 1946SOL    HW2 6738   1.642   6.833   6.817
 1947SOL     OW 6739   4.106   0.829   3.755
 1947SOL    HW1 6740   4.127   0.836   3.853
 1947SOL    HW2 6741   4.022   0.777   3.742
 1948SOL     OW 6742   6.402   2.961   4.987
 1948SOL    HW1 6743   6.305   2.981   4.985
 1948SOL    HW2 6744   6.443   2.984   4.899
 1949SOL     OW 6745   4.839   3.707   0.051
 1949SOL    HW1 6746   4.857   3.609   0.054
 1949SOL    HW2 6747   4.920   3.755   0.017
 1950SOL     OW 6748   2.512   4.758   0.653
 1950SOL    HW1 6749   2.523   4.854   0.627
 1950SOL    HW2 6750   2.515   4.700   0.572
 1951SOL     OW 6751   5.744   2.905   6.561
 1951SOL    HW1 6752   5.735   2.905   6.661
 1951SOL    HW2 6753   5.680   2.838   6.522
 1952SOL     OW 6754   2.893   3.666   3.454
 1952SOL    HW1 6755   2.883   3.622   3.365
 1952SOL    HW2 6756   2.884   3.598   3.527
 1953SOL     OW 6757   0.365   2.256   4.653
 1953SOL    HW1 6758   0.311   2.279   4.572
 1953SOL    HW2 6759   0.315   2.189   4.707
 1954SOL     OW 6760   2.242   2.515   4.334
 1954SOL    HW1 6761   2.332   2.471   4.336
 1954SOL    HW2 6762   2.175   2.457   4.379
 1955SOL     OW 6763   6.674   5.394   2.797
 1955SOL    HW1 6764   6.582   5.396   2.837
 1955SOL    HW2 6765   6.667   5.402   2.698
 1956SOL     OW 6766   3.773   6.006   3.167
 1956SOL    HW1 6767   3.727   6.084   3.125
 1956SOL    HW2 6768   3.840   5.969   3.103
 1957SOL     OW 6769   2.308   6.449   5.869
 1957SOL    HW1 6770   2.360   6.373   5.829
 1957SOL    HW2 6771   2.347   6.535   5.837
 1958SOL     OW 6772   4.154   3.701   6.182
 1958SOL    HW1 6773   4.185   3.691   6.088
 1958SOL    HW2 6774   4.187   3.624   6.237
 1959SOL     OW 6775   2.702   0.188   0.861
 1959SOL    HW1 6776   2.628   0.185   0.928
 1959SOL    HW2 6777   2.666   0.171   0.770
 1960SOL     OW 6778   5.267   4.997   3.279
 1960SOL    HW1 6779   5.272   4.924   3.347
 1960SOL    HW2 6780   5.180   5.046   3.289
 1961SOL     OW 6781   5.505   4.064   5.160
 1961SOL    HW1 6782   5.581   4.120   5.191
 1961SOL    HW2 6783   5.448   4.039   5.239
 1962SOL     OW 6784   0.683   6.783   3.959
 1962SOL    HW1 6785   0.659   6.872   3.999
 1962SOL    HW2 6786   0.636   6.711   4.009
 1963SOL     OW 6787   2.544   1.332   3.642
 1963SOL    HW1 6788   2.475   1.288   3.584
 1963SOL    HW2 6789   2.529   1.307   3.737
 1964SOL     OW 6790   6.788   2.746   2.058
 1964SOL    HW1 6791   6.752   2.812   1.993
 1964SOL    HW2 6792   6.861   2.789   2.112
 1965SOL     OW 6793   2.066   0.288   3.228
 1965SOL    HW1 6794   2.127   0.260   3.154
 1965SOL    HW2 6795   2.042   0.208   3.283
 1966SOL     OW 6796   6.834   6.516   6.986
 1966SOL    HW1 6797   6.826   6.443   0.036
 1966SOL    HW2 6798   6.832   6.477   6.894
 1967SOL     OW 6799   6.278   2.744   4.813
 1967SOL    HW1 6800   6.357   2.805   4.810
 1967SOL    HW2 6801   6.226   2.761   4.896
 1968SOL     OW 6802   4.297   5.632   4.460
 1968SOL    HW1 6803   4.225   5.642   4.528
 1968SOL    HW2 6804   4.311   5.535   4.439
 1969SOL     OW 6805   6.347   0.772   1.480
 1969SOL    HW1 6806   6.345   0.725   1.568
 1969SOL    HW2 6807   6.440   0.771   1.444
 1970SOL     OW 6808   2.204   1.513   4.609
 1970SOL    HW1 6809   2.131   1.459   4.567
 1970SOL    HW2 6810   2.265   1.453   4.660
 1971SOL     OW 6811   0.284   1.414   6.238
 1971SOL    HW1 6812   0.333   1.362   6.169
 1971SOL    HW2 6813   0.215   1.356   6.281
 1972SOL     OW 6814   1.095   7.012   3.689
 1972SOL    HW1 6815   1.138   0.085   3.695
 1972SOL    HW2 6816   1.004   7.015   3.730
 1973SOL     OW 6817   3.390   3.133   0.212
 1973SOL    HW1 6818   3.391   3.036   0.189
 1973SOL    HW2 6819   3.388   3.187   0.128
 1974SOL     OW 6820   6.190   6.401   4.243
 1974SOL    HW1 6821   6.177   6.367   4.150
 1974SOL    HW2 6822   6.283   6.379   4.274
 1975SOL     OW 6823   2.539   6.974   4.108
 1975SOL    HW1 6824   2.532   7.017   4.018
 1975SOL    HW2 6825   2.608   0.006   4.163
 1976SOL     OW 6826   6.424   4.768   6.009
 1976SOL    HW1 6827   6.363   4.826   6.062
 1976SOL    HW2 6828   6.382   4.747   5.920
 1977SOL     OW 6829   3.202   2.094   5.235
 1977SOL    HW1 6830   3.168   2.186   5.220
 1977SOL    HW2 6831   3.190   2.039   5.152
 1978SOL     OW 6832   0.218   2.480   4.766
 1978SOL    HW1 6833   0.251   2.570   4.738
 1978SOL    HW2 6834   0.290   2.412   4.751
 1979SOL     OW 6835   6.940   4.008   2.707
 1979SOL    HW1 6836   6.891   3.944   2.647
 1979SOL    HW2 6837   6.880   4.085   2.728
 1980SOL     OW 6838   2.574   0.670   3.034
 1980SOL    HW1 6839   2.561   0.572   3.050
 1980SOL    HW2 6840   2.524   0.697   2.952
 1981SOL     OW 6841   5.814   3.390   2.061
 1981SOL    HW1 6842   5.764   3.446   1.995
 1981SOL    HW2 6843   5.756   3.314   2.090
 1982SOL     OW 6844   0.224   6.825   5.496
 1982SOL    HW1 6845   0.193   6.890   5.566
 1982SOL    HW2 6846   0.223   6.870   5.407
 1983SOL     OW 6847   0.752   4.979   1.527
 1983SOL    HW1 6848   0.799   4.934   1.452
 1983SOL    HW2 6849   0.669   4.929   1.550
 1984SOL     OW 6850   4.042   0.971   5.708
 1984SOL    HW1 6851   4.049   0.944   5.804
 1984SOL    HW2 6852   3.979   1.047   5.699
 1985SOL     OW 6853   1.313   5.493   2.003
 1985SOL    HW1 6854   1.333   5.402   1.968
 1985SOL    HW2 6855   1.365   5.509   2.087
 1986SOL     OW 6856   6.614   2.272   0.822
 1986SOL    HW1 6857   6.620   2.232   0.731
 1986SOL    HW2 6858   6.536   2.335   0.826
 1987SOL     OW 6859   2.488   3.414   0.312
 1987SOL    HW1 6860   2.436   3.335   0.278
 1987SOL    HW2 6861   2.559   3.438   0.246
 1988SOL     OW 6862   5.133   2.689   0.923
 1988SOL    HW1 6863   5.095   2.766   0.873
 1988SOL    HW2 6864   5.230   2.706   0.942
 1989SOL     OW 6865   2.818   2.315   3.670
 1989SOL    HW1 6866   2.876   2.323   3.588
 1989SOL    HW2 6867   2.740   2.257   3.650
 1990SOL     OW 6868   1.068   0.818   2.835
 1990SOL    HW1 6869   1.051   0.756   2.912
 1990SOL    HW2 6870   0.996   0.804   2.766
 1991SOL     OW 6871   4.676   6.019   2.759
 1991SOL    HW1 6872   4.604   5.955   2.736
 1991SOL    HW2 6873   4.761   5.969   2.776
 1992SOL     OW 6874   2.246   5.674   5.430
 1992SOL    HW1 6875   2.297   5.661   5.345
 1992SOL    HW2 6876   2.180   5.600   5.440
 1993SOL     OW 6877   3.117   3.113   4.089
 1993SOL    HW1 6878   3.174   3.033   4.101
 1993SOL    HW2 6879   3.133   3.153   3.998
 1994SOL     OW 6880   6.152   2.174   1.390
 1994SOL    HW1 6881   6.175   2.099   1.453
 1994SOL    HW2 6882   6.209   2.254   1.412
 1995SOL     OW 6883   3.942   2.410   1.364
 1995SOL    HW1 6884   3.994   2.364   1.437
 1995SOL    HW2 6885   3.914   2.342   1.296
 1996SOL     OW 6886   2.194   4.697   5.504
 1996SOL    HW1 6887   2.248   4.666   5.426
 1996SOL    HW2 6888   2.232   4.657   5.588
 1997SOL     OW 6889   5.577   6.317   4.037
 1997SOL    HW1 6890   5.600   6.413   4.018
 1997SOL    HW2 6891   5.661   6.265   4.050
 1998SOL     OW 6892   3.056   4.892   4.733
 1998SOL    HW1 6893   3.139   4.924   4.780
 1998SOL    HW2 6894   2.988   4.864   4.801
 1999SOL     OW 6895   3.407   1.796   1.765
 1999SOL    HW1 6896   3.421   1.862   1.839
 1999SOL    HW2 6897   3.480   1.805   1.698
 2000SOL     OW 6898   2.697   1.144   5.360
 2000SOL    HW1 6899   2.791   1.111   5.350
 2000SOL    HW2 6900   2.644   1.080   5.415
 2001SOL     OW 6901   2.246   2.598   6.989
 2001SOL    HW1 6902   2.161   2.631   0.013
 2001SOL    HW2 6903   2.269   2.654   6.909
 2002SOL     OW 6904   1.623   4.734   4.990
 2002SOL    HW1 6905   1.672   4.790   5.057
 2002SOL    HW2 6906   1.531   4.714   5.024
 2003SOL     OW 6907   6.516   3.654   3.369
 2003SOL    HW1 6908   6.444   3.612   3.312
 2003SOL    HW2 6909   6.578   3.705   3.310
 2004SOL     OW 6910   3.310   0.141   6.878
 2004SOL    HW1 6911   3.212   0.157   6.886
 2004SOL    HW2 6912   3.353   0.218   6.831
 2005SOL     OW 6913   2.591   6.687   5.117
 2005SOL    HW1 6914   2.512   6.632   5.091
 2005SOL    HW2 6915   2.673   6.651   5.073
 2006SOL     OW 6916   4.752   0.022   3.433
 2006SOL    HW1 6917   4.823   6.972   3.411
 2006SOL    HW2 6918   4.672   0.004   3.376
 2007SOL     OW 6919   6.801   5.594   6.728
 2007SOL    HW1 6920   6.767   5.665   6.666
 2007SOL    HW2 6921   6.895   5.571   6.704
 2008SOL     OW 6922   0.589   5.816   5.738
 2008SOL    HW1 6923   0.646   5.805   5.819
 2008SOL    HW2 6924   0.504   5.766   5.749
 2009SOL     OW 6925   1.195   0.665   0.207
 2009SOL    HW1 6926   1.186   0.584   0.149
 2009SOL    HW2 6927   1.104   0.695   0.237
 2010SOL     OW 6928   2.391   0.937   0.972
 2010SOL    HW1 6929   2.393   0.854   1.027
 2010SOL    HW2 6930   2.388   1.017   1.032
 2011SOL     OW 6931   6.396   1.404   4.511
 2011SOL    HW1 6932   6.422   1.466   4.437
 2011SOL    HW2 6933   6.473   1.391   4.573
 2012SOL     OW 6934   6.754   3.550   1.539
 2012SOL    HW1 6935   6.681   3.587   1.480
 2012SOL    HW2 6936   6.839   3.547   1.487
 2013SOL     OW 6937   3.723   2.614   1.567
 2013SOL    HW1 6938   3.672   2.542   1.614
 2013SOL    HW2 6939   3.673   2.644   1.486
 2014SOL     OW 6940   3.084   5.417   3.550
 2014SOL    HW1 6941   3.094   5.425   3.649
 2014SOL    HW2 6942   3.139   5.489   3.505
 2015SOL     OW 6943   2.796   5.385   0.371
 2015SOL    HW1 6944   2.705   5.427   0.364
 2015SOL    HW2 6945   2.806   5.344   0.462
 2016SOL     OW 6946   6.009   5.568   4.960
 2016SOL    HW1 6947   5.956   5.633   5.014
 2016SOL    HW2 6948   6.072   5.618   4.900
 2017SOL     OW 6949   1.802   5.211   1.930
 2017SOL    HW1 6950   1.848   5.296   1.903
 2017SOL    HW2 6951   1.713   5.206   1.885
 2018SOL     OW 6952   0.358   4.288   5.517
 2018SOL    HW1 6953   0.267   4.297   5.477
 2018SOL    HW2 6954   0.353   4.228   5.597
 2019SOL     OW 6955   4.994   0.510   2.640
 2019SOL    HW1 6956   4.901   0.546   2.643
 2019SOL    HW2 6957   4.997   0.432   2.578
 2020SOL     OW 6958   2.566   5.180   3.347
 2020SOL    HW1 6959   2.614   5.140   3.424
 2020SOL    HW2 6960   2.468   5.185   3.367
 2021SOL     OW 6961   1.737   5.880   2.021
 2021SOL    HW1 6962   1.650   5.857   2.064
 2021SOL    HW2 6963   1.808   5.819   2.055
 2022SOL     OW 6964   3.600   5.493   1.472
 2022SOL    HW1 6965   3.566   5.487   1.379
 2022SOL    HW2 6966   3.700   5.482   1.472
 2023SOL     OW 6967   6.358   2.245   5.628
 2023SOL    HW1 6968   6.359   2.184   5.549
 2023SOL    HW2 6969   6.357   2.340   5.598
 2024SOL     OW 6970   5.476   0.443   3.268
 2024SOL    HW1 6971   5.535   0.515   3.232
 2024SOL    HW2 6972   5.530   0.361   3.286
 2025SOL     OW 6973   6.221   0.989   1.256
 2025SOL    HW1 6974   6.128   1.022   1.238
 2025SOL    HW2 6975   6.222   0.937   1.342
 2026SOL     OW 6976   1.718   1.723   4.876
 2026SOL    HW1 6977   1.779   1.723   4.797
 2026SOL    HW2 6978   1.692   1.817   4.898
 2027SOL     OW 6979   6.747   0.035   2.310
 2027SOL    HW1 6980   6.670   7.012   2.358
 2027SOL    HW2 6981   6.716   0.077   2.225
 2028SOL     OW 6982   4.164   4.334   5.659
 2028SOL    HW1 6983   4.089   4.387   5.622
 2028SOL    HW2 6984   4.163   4.242   5.618
 2029SOL     OW 6985   1.928   0.425   0.514
 2029SOL    HW1 6986   1.982   0.355   0.562
 2029SOL    HW2 6987   1.925   0.403   0.416
 2030SOL     OW 6988   2.258   2.954   2.551
 2030SOL    HW1 6989   2.304   2.879   2.503
 2030SOL    HW2 6990   2.236   2.926   2.644
 2031SOL     OW 6991   5.805   6.892   2.283
 2031SOL    HW1 6992   5.870   6.937   2.222
 2031SOL    HW2 6993   5.785   6.951   2.361
 2032SOL     OW 6994   4.256   6.203   2.037
 2032SOL    HW1 6995   4.194   6.252   2.097
 2032SOL    HW2 6996   4.350   6.231   2.056
 2033SOL     OW 6997   0.422   4.712   6.608
 2033SOL    HW1 6998   0.370   4.790   6.574
 2033SOL    HW2 6999   0.410   4.635   6.546
 2034SOL     OW 7000   2.209   5.239   4.196
 2034SOL    HW1 7001   2.171   5.168   4.137
 2034SOL    HW2 7002   2.284   5.201   4.249
 2035SOL     OW 7003   0.656   2.034   3.329
 2035SOL    HW1 7004   0.615   1.955   3.375
 2035SOL    HW2 7005   0.673   2.106   3.395
 2036SOL     OW 7006   0.819   4.828   0.813
 2036SOL    HW1 7007   0.909   4.846   0.852
 2036SOL    HW2 7008   0.754   4.807   0.886
 2037SOL     OW 7009   0.585   2.756   6.872
 2037SOL    HW1 7010   0.578   2.688   6.944
 2037SOL    HW2 7011   0.645   2.722   6.799
 2038SOL     OW 7012   1.701   0.196   4.801
 2038SOL    HW1 7013   1.682   0.261   4.728
 2038SOL    HW2 7014   1.617   0.176   4.851
 2039SOL     OW 7015   1.083   5.477   2.218
 2039SOL    HW1 7016   0.991   5.484   2.181
 2039SOL    HW2 7017   1.142   5.546   2.177
 2040SOL     OW 7018   3.950   3.125   4.354
 2040SOL    HW1 7019   3.865   3.129   4.406
 2040SOL    HW2 7020   4.004   3.047   4.386
 2041SOL     OW 7021   5.217   2.953   6.799
 2041SOL    HW1 7022   5.185   2.890   6.870
 2041SOL    HW2 7023   5.139   2.983   6.744
 2042SOL     OW 7024   3.272   6.331   0.662
 2042SOL    HW1 7025   3.173   6.340   0.654
 2042SOL    HW2 7026   3.307   6.403   0.722
 2043SOL     OW 7027   4.481   5.613   2.494
 2043SOL    HW1 7028   4.554   5.625   2.427
 2043SOL    HW2 7029   4.512   5.552   2.567
 2044SOL     OW 7030   6.569   0.775   2.651
 2044SOL    HW1 7031   6.482   0.779   2.602
 2044SOL    HW2 7032   6.585   0.863   2.696
 2045SOL     OW 7033   3.035   6.648   6.024
 2045SOL    HW1 7034   3.104   6.576   6.020
 2045SOL    HW2 7035   3.079   6.737   6.037
 2046SOL     OW 7036   5.664   6.864   5.792
 2046SOL    HW1 7037   5.649   6.854   5.693
 2046SOL    HW2 7038   5.638   6.956   5.821
 2047SOL     OW 7039   5.162   3.433   0.133
 2047SOL    HW1 7040   5.097   3.466   0.201
 2047SOL    HW2 7041   5.131   3.345   0.098
 2048SOL     OW 7042   4.468   6.261   5.724
 2048SOL    HW1 7043   4.433   6.320   5.652
 2048SOL    HW2 7044   4.464   6.309   5.812
 2049SOL     OW 7045   5.250   5.226   6.668
 2049SOL    HW1 7046   5.259   5.126   6.664
 2049SOL    HW2 7047   5.336   5.268   6.639
 2050SOL     OW 7048   5.685   1.171   3.226
 2050SOL    HW1 7049   5.613   1.229   3.189
 2050SOL    HW2 7050   5.645   1.103   3.287
 2051SOL     OW 7051   3.088   5.902   1.250
 2051SOL    HW1 7052   3.077   6.000   1.262
 2051SOL    HW2 7053   3.004   5.855   1.278
 2052SOL     OW 7054   2.073   2.664   0.888
 2052SOL    HW1 7055   1.984   2.640   0.849
 2052SOL    HW2 7056   2.134   2.584   0.884
 2053SOL     OW 7057   4.637   0.832   0.862
 2053SOL    HW1 7058   4.646   0.774   0.780
 2053SOL    HW2 7059   4.543   0.866   0.868
 2054SOL     OW 7060   0.926   2.983   0.945
 2054SOL    HW1 7061   0.949   3.053   1.012
 2054SOL    HW2 7062   0.970   3.004   0.858
 2055SOL     OW 7063   6.667   1.143   3.671
 2055SOL    HW1 7064   6.758   1.135   3.712
 2055SOL    HW2 7065   6.599   1.148   3.743
 2056SOL     OW 7066   0.349   6.158   2.538
 2056SOL    HW1 7067   0.417   6.157   2.612
 2056SOL    HW2 7068   0.261   6.126   2.572
 2057SOL     OW 7069   4.847   3.177   4.216
 2057SOL    HW1 7070   4.822   3.105   4.280
 2057SOL    HW2 7071   4.862   3.138   4.125
 2058SOL     OW 7072   0.795   1.074   1.214
 2058SOL    HW1 7073   0.867   1.129   1.256
 2058SOL    HW2 7074   0.817   1.058   1.118
 2059SOL     OW 7075   1.564   1.035   6.873
 2059SOL    HW1 7076   1.501   1.107   6.842
 2059SOL    HW2 7077   1.560   0.958   6.810
 2060SOL     OW 7078   0.473   4.977   3.204
 2060SOL    HW1 7079   0.520   4.946   3.122
 2060SOL    HW2 7080   0.472   4.903   3.272
 2061SOL     OW 7081   1.564   0.377   0.682
 2061SOL    HW1 7082   1.598   0.470   0.688
 2061SOL    HW2 7083   1.498   0.370   0.607
 2062SOL     OW 7084   3.739   0.454   3.912
 2062SOL    HW1 7085   3.793   0.445   3.829
 2062SOL    HW2 7086   3.701   0.365   3.937
 2063SOL     OW 7087   2.290   2.863   1.419
 2063SOL    HW1 7088   2.372   2.807   1.427
 2063SOL    HW2 7089   2.292   2.937   1.487
 2064SOL     OW 7090   1.162   1.834   0.915
 2064SOL    HW1 7091   1.191   1.860   0.823
 2064SOL    HW2 7092   1.090   1.766   0.910
 2065SOL     OW 7093   0.221   2.847   2.789
 2065SOL    HW1 7094   0.307   2.872   2.743
 2065SOL    HW2 7095   0.210   2.748   2.787
 2066SOL     OW 7096   0.886   6.346   3.328
 2066SOL    HW1 7097   0.887   6.313   3.422
 2066SOL    HW2 7098   0.847   6.277   3.268
 2067SOL     OW 7099   0.195   0.699   0.661
 2067SOL    HW1 7100   0.114   0.642   0.645
 2067SOL    HW2 7101   0.277   0.644   0.645
 2068SOL     OW 7102   1.940   2.411   5.258
 2068SOL    HW1 7103   1.883   2.481   5.300
 2068SOL    HW2 7104   2.002   2.373   5.327
 2069SOL     OW 7105   1.623   2.225   2.258
 2069SOL    HW1 7106   1.553   2.154   2.258
 2069SOL    HW2 7107   1.713   2.183   2.258
 2070SOL     OW 7108   7.005   1.652   2.355
 2070SOL    HW1 7109   0.060   1.697   2.302
 2070SOL    HW2 7110   7.016   1.552   2.348
 2071SOL     OW 7111   2.455   6.243   5.756
 2071SOL    HW1 7112   2.450   6.203   5.664
 2071SOL    HW2 7113   2.426   6.175   5.823
 2072SOL     OW 7114   5.076   4.827   2.431
 2072SOL    HW1 7115   5.171   4.796   2.425
 2072SOL    HW2 7116   5.033   4.787   2.512
 2073SOL     OW 7117   3.402   6.882   5.045
 2073SOL    HW1 7118   3.330   6.893   5.114
 2073SOL    HW2 7119   3.391   6.951   4.974
 2074SOL     OW 7120   5.728   1.926   3.045
 2074SOL    HW1 7121   5.806   1.866   3.061
 2074SOL    HW2 7122   5.662   1.881   2.984
 2075SOL     OW 7123   3.997   3.085   6.052
 2075SOL    HW1 7124   3.937   3.048   6.123
 2075SOL    HW2 7125   3.954   3.166   6.011
 2076SOL     OW 7126   5.269   6.768   0.112
 2076SOL    HW1 7127   5.319   6.681   0.112
 2076SOL    HW2 7128   5.221   6.778   0.024
 2077SOL     OW 7129   4.607   1.162   4.615
 2077SOL    HW1 7130   4.575   1.128   4.704
 2077SOL    HW2 7131   4.578   1.257   4.604
 2078SOL     OW 7132   4.096   5.914   4.001
 2078SOL    HW1 7133   4.094   6.010   4.027
 2078SOL    HW2 7134   4.187   5.890   3.967
 2079SOL     OW 7135   5.700   0.152   3.931
 2079SOL    HW1 7136   5.768   0.222   3.910
 2079SOL    HW2 7137   5.745   0.071   3.969
 2080SOL     OW 7138   2.946   1.993   3.509
 2080SOL    HW1 7139   2.973   2.089   3.516
 2080SOL    HW2 7140   2.859   1.986   3.462
 2081SOL     OW 7141   0.690   6.048   4.222
 2081SOL    HW1 7142   0.700   5.957   4.262
 2081SOL    HW2 7143   0.743   6.114   4.275
 2082SOL     OW 7144   5.159   0.865   2.238
 2082SOL    HW1 7145   5.111   0.923   2.305
 2082SOL    HW2 7146   5.257   0.882   2.244
 2083SOL     OW 7147   3.500   4.806   6.256
 2083SOL    HW1 7148   3.531   4.832   6.165
 2083SOL    HW2 7149   3.404   4.832   6.268
 2084SOL     OW 7150   0.276   2.543   2.953
 2084SOL    HW1 7151   0.256   2.513   2.859
 2084SOL    HW2 7152   0.368   2.513   2.978
 2085SOL     OW 7153   5.913   6.539   0.164
 2085SOL    HW1 7154   5.992   6.564   0.221
 2085SOL    HW2 7155   5.938   6.462   0.105
 2086SOL     OW 7156   3.546   5.212   6.762
 2086SOL    HW1 7157   3.473   5.238   6.826
 2086SOL    HW2 7158   3.509   5.146   6.696
 2087SOL     OW 7159   5.633   6.057   3.635
 2087SOL    HW1 7160   5.589   6.080   3.722
 2087SOL    HW2 7161   5.636   5.957   3.625
 2088SOL     OW 7162   2.459   6.432   1.646
 2088SOL    HW1 7163   2.501   6.351   1.606
 2088SOL    HW2 7164   2.400   6.404   1.722
 2089SOL     OW 7165   2.620   0.971   6.423
 2089SOL    HW1 7166   2.556   0.895   6.421
 2089SOL    HW2 7167   2.619   1.019   6.335
 2090SOL     OW 7168   3.075   3.972   3.823
 2090SOL    HW1 7169   3.047   3.992   3.729
 2090SOL    HW2 7170   3.017   3.900   3.861
 2091SOL     OW 7171   2.688   4.152   1.192
 2091SOL    HW1 7172   2.595   4.114   1.194
 2091SOL    HW2 7173   2.754   4.077   1.195
 2092SOL     OW 7174   6.329   0.057   0.787
 2092SOL    HW1 7175   6.398   0.128   0.773
 2092SOL    HW2 7176   6.366   6.985   0.760
 2093SOL     OW 7177   1.673   1.436   1.534
 2093SOL    HW1 7178   1.664   1.386   1.619
 2093SOL    HW2 7179   1.757   1.408   1.487
 2094SOL     OW 7180   6.921   0.542   2.137
 2094SOL    HW1 7181   7.010   0.580   2.111
 2094SOL    HW2 7182   6.931   0.487   2.220
 2095SOL     OW 7183   6.079   4.507   5.140
 2095SOL    HW1 7184   6.158   4.474   5.190
 2095SOL    HW2 7185   6.105   4.583   5.081
 2096SOL     OW 7186   5.223   4.265   3.618
 2096SOL    HW1 7187   5.147   4.328   3.632
 2096SOL    HW2 7188   5.303   4.297   3.668
 2097SOL     OW 7189   6.331   3.519   5.860
 2097SOL    HW1 7190   6.256   3.480   5.807
 2097SOL    HW2 7191   6.294   3.570   5.938
 2098SOL     OW 7192   4.078   0.513   3.825
 2098SOL    HW1 7193   4.012   0.481   3.892
 2098SOL    HW2 7194   4.030   0.560   3.751
 2099SOL     OW 7195   2.583   1.842   3.621
 2099SOL    HW1 7196   2.673   1.819   3.586
 2099SOL    HW2 7197   2.567   1.940   3.609
 2100SOL     OW 7198   4.494   5.062   6.026
 2100SOL    HW1 7199   4.493   5.154   6.064
 2100SOL    HW2 7200   4.477   4.996   6.100
 2101SOL     OW 7201   6.182   6.788   1.702
 2101SOL    HW1 7202   6.264   6.732   1.716
 2101SOL    HW2 7203   6.102   6.729   1.692
 2102SOL     OW 7204   0.433   5.461   1.373
 2102SOL    HW1 7205   0.343   5.417   1.379
 2102SOL    HW2 7206   0.443   5.526   1.448
 2103SOL     OW 7207   3.107   3.438   6.520
 2103SOL    HW1 7208   3.181   3.377   6.492
 2103SOL    HW2 7209   3.112   3.522   6.466
 2104SOL     OW 7210   1.069   4.847   6.193
 2104SOL    HW1 7211   1.140   4.808   6.252
 2104SOL    HW2 7212   1.068   4.946   6.203
 2105SOL     OW 7213   5.903   5.740   2.738
 2105SOL    HW1 7214   5.882   5.651   2.778
 2105SOL    HW2 7215   5.820   5.780   2.699
 2106SOL     OW 7216   5.668   6.472   6.157
 2106SOL    HW1 7217   5.637   6.497   6.065
 2106SOL    HW2 7218   5.693   6.376   6.158
 2107SOL     OW 7219   2.536   5.188   0.420
 2107SOL    HW1 7220   2.592   5.159   0.497
 2107SOL    HW2 7221   2.580   5.161   0.335
 2108SOL     OW 7222   5.715   4.482   6.300
 2108SOL    HW1 7223   5.652   4.407   6.276
 2108SOL    HW2 7224   5.799   4.473   6.245
 2109SOL     OW 7225   5.034   5.623   2.960
 2109SOL    HW1 7226   4.951   5.645   2.909
 2109SOL    HW2 7227   5.107   5.686   2.934
 2110SOL     OW 7228   1.017   4.937   5.317
 2110SOL    HW1 7229   1.072   4.854   5.326
 2110SOL    HW2 7230   0.934   4.917   5.266
 2111SOL     OW 7231   1.981   2.102   6.679
 2111SOL    HW1 7232   1.973   2.163   6.601
 2111SOL    HW2 7233   1.945   2.012   6.655
 2112SOL     OW 7234   5.229   3.983   0.712
 2112SOL    HW1 7235   5.187   4.073   0.701
 2112SOL    HW2 7236   5.175   3.914   0.664
 2113SOL     OW 7237   0.174   1.374   3.521
 2113SOL    HW1 7238   0.183   1.296   3.583
 2113SOL    HW2 7239   0.220   1.354   3.435
 2114SOL     OW 7240   1.526   3.250   7.005
 2114SOL    HW1 7241   1.485   3.341   7.005
 2114SOL    HW2 7242   1.554   3.225   6.912
 2115SOL     OW 7243   3.985   5.299   2.157
 2115SOL    HW1 7244   3.996   5.256   2.067
 2115SOL    HW2 7245   3.893   5.279   2.191
 2116SOL     OW 7246   0.621   4.037   4.116
 2116SOL    HW1 7247   0.698   4.088   4.153
 2116SOL    HW2 7248   0.653   3.978   4.042
 2117SOL     OW 7249   6.712   5.892   5.449
 2117SOL    HW1 7250   6.631   5.933   5.407
 2117SOL    HW2 7251   6.699   5.793   5.456
 2118SOL     OW 7252   0.223   2.967   2.154
 2118SOL    HW1 7253   0.318   2.954   2.184
 2118SOL    HW2 7254   0.162   2.917   2.216
 2119SOL     OW 7255   4.064   6.455   0.317
 2119SOL    HW1 7256   4.132   6.382   0.308
 2119SOL    HW2 7257   4.069   6.494   0.409
 2120SOL     OW 7258   6.709   3.844   2.168
 2120SOL    HW1 7259   6.752   3.896   2.094
 2120SOL    HW2 7260   6.733   3.885   2.256
 2121SOL     OW 7261   0.663   3.729   5.259
 2121SOL    HW1 7262   0.584   3.718   5.318
 2121SOL    HW2 7263   0.638   3.705   5.165
 2122SOL     OW 7264   3.539   4.910   5.211
 2122SOL    HW1 7265   3.552   4.981   5.280
 2122SOL    HW2 7266   3.462   4.852   5.237
 2123SOL     OW 7267   4.220   5.587   3.214
 2123SOL    HW1 7268   4.292   5.587   3.283
 2123SOL    HW2 7269   4.151   5.656   3.236
 2124SOL     OW 7270   2.244   2.114   1.939
 2124SOL    HW1 7271   2.334   2.131   1.899
 2124SOL    HW2 7272   2.245   2.025   1.986
 2125SOL     OW 7273   5.016   6.076   0.278
 2125SOL    HW1 7274   5.011   5.984   0.240
 2125SOL    HW2 7275   4.936   6.094   0.335
 2126SOL     OW 7276   3.145   2.008   1.151
 2126SOL    HW1 7277   3.104   1.987   1.063
 2126SOL    HW2 7278   3.205   2.088   1.142
 2127SOL     OW 7279   5.045   2.717   4.304
 2127SOL    HW1 7280   5.030   2.618   4.299
 2127SOL    HW2 7281   5.037   2.756   4.213
 2128SOL     OW 7282   0.708   3.897   4.358
 2128SOL    HW1 7283   0.789   3.847   4.327
 2128SOL    HW2 7284   0.649   3.916   4.280
 2129SOL     OW 7285   4.425   2.119   5.028
 2129SOL    HW1 7286   4.361   2.050   4.992
 2129SOL    HW2 7287   4.515   2.077   5.040
 2130SOL     OW 7288   4.911   6.834   3.373
 2130SOL    HW1 7289   4.918   6.893   3.292
 2130SOL    HW2 7290   4.911   6.739   3.344
 2131SOL     OW 7291   4.931   1.814   6.665
 2131SOL    HW1 7292   4.996   1.845   6.735
 2131SOL    HW2 7293   4.949   1.862   6.579
 2132SOL     OW 7294   1.432   3.488   1.247
 2132SOL    HW1 7295   1.364   3.420   1.221
 2132SOL    HW2 7296   1.524   3.456   1.222
 2133SOL     OW 7297   2.654   3.850   6.256
 2133SOL    HW1 7298   2.675   3.786   6.182
 2133SOL    HW2 7299   2.574   3.905   6.232
 2134SOL     OW 7300   6.778   6.576   0.323
 2134SOL    HW1 7301   6.750   6.485   0.356
 2134SOL    HW2 7302   6.697   6.632   0.309
 2135SOL     OW 7303   6.380   5.327   5.635
 2135SOL    HW1 7304   6.475   5.355   5.623
 2135SOL    HW2 7305   6.345   5.290   5.549
 2136SOL     OW 7306   1.314   5.355   6.789
 2136SOL    HW1 7307   1.394   5.414   6.781
 2136SOL    HW2 7308   1.254   5.369   6.710
 2137SOL     OW 7309   1.482   6.935   3.456
 2137SOL    HW1 7310   1.403   6.996   3.449
 2137SOL    HW2 7311   1.450   6.843   3.478
 2138SOL     OW 7312   5.337   1.565   1.797
 2138SOL    HW1 7313   5.355   1.609   1.709
 2138SOL    HW2 7314   5.280   1.625   1.853
 2139SOL     OW 7315   2.856   6.132   5.650
 2139SOL    HW1 7316   2.772   6.080   5.634
 2139SOL    HW2 7317   2.934   6.069   5.653
 2140SOL     OW 7318   2.324   2.049   3.071
 2140SOL    HW1 7319   2.338   2.091   3.160
 2140SOL    HW2 7320   2.399   2.075   3.010
 2141SOL     OW 7321   6.686   3.419   3.168
 2141SOL    HW1 7322   6.756   3.351   3.144
 2141SOL    HW2 7323   6.716   3.471   3.248
 2142SOL     OW 7324   2.023   1.645   2.093
 2142SOL    HW1 7325   1.981   1.735   2.084
 2142SOL    HW2 7326   2.075   1.641   2.179
 2143SOL     OW 7327   6.283   5.584   5.621
 2143SOL    HW1 7328   6.365   5.613   5.572
 2143SOL    HW2 7329   6.295   5.490   5.653
 2144SOL     OW 7330   6.070   4.249   2.922
 2144SOL    HW1 7331   6.063   4.164   2.870
 2144SOL    HW2 7332   5.979   4.285   2.939
 2145SOL     OW 7333   3.653   1.398   3.109
 2145SOL    HW1 7334   3.647   1.343   3.193
 2145SOL    HW2 7335   3.648   1.495   3.132
 2146SOL     OW 7336   1.830   1.574   6.889
 2146SOL    HW1 7337   1.927   1.590   6.872
 2146SOL    HW2 7338   1.817   1.481   6.925
 2147SOL     OW 7339   6.128   0.106   5.446
 2147SOL    HW1 7340   6.135   0.116   5.545
 2147SOL    HW2 7341   6.127   0.008   5.423
 2148SOL     OW 7342   1.140   2.174   4.925
 2148SOL    HW1 7343   1.113   2.226   5.006
 2148SOL    HW2 7344   1.197   2.231   4.866
 2149SOL     OW 7345   0.283   6.793   0.116
 2149SOL    HW1 7346   0.215   6.720   0.114
 2149SOL    HW2 7347   0.251   6.871   0.063
 2150SOL     OW 7348   1.978   2.745   0.509
 2150SOL    HW1 7349   1.975   2.836   0.466
 2150SOL    HW2 7350   2.069   2.730   0.546
 2151SOL     OW 7351   0.786   5.031   6.578
 2151SOL    HW1 7352   0.876   4.994   6.600
 2151SOL    HW2 7353   0.715   4.974   6.620
 2152SOL     OW 7354   5.341   6.222   4.197
 2152SOL    HW1 7355   5.257   6.252   4.151
 2152SOL    HW2 7356   5.415   6.287   4.178
 2153SOL     OW 7357   4.839   6.720   4.025
 2153SOL    HW1 7358   4.767   6.767   4.075
 2153SOL    HW2 7359   4.885   6.784   3.964
 2154SOL     OW 7360   2.594   6.591   2.306
 2154SOL    HW1 7361   2.495   6.578   2.308
 2154SOL    HW2 7362   2.620   6.651   2.381
 2155SOL     OW 7363   5.349   0.512   0.742
 2155SOL    HW1 7364   5.269   0.452   0.754
 2155SOL    HW2 7365   5.328   0.602   0.779
 2156SOL     OW 7366   6.390   1.846   4.607
 2156SOL    HW1 7367   6.388   1.930   4.662
 2156SOL    HW2 7368   6.305   1.795   4.621
 2157SOL     OW 7369   4.321   6.520   3.685
 2157SOL    HW1 7370   4.412   6.562   3.678
 2157SOL    HW2 7371   4.312   6.450   3.614
 2158SOL     OW 7372   2.871   6.740   0.898
 2158SOL    HW1 7373   2.786   6.694   0.873
 2158SOL    HW2 7374   2.861   6.781   0.988
 2159SOL     OW 7375   0.046   1.583   5.560
 2159SOL    HW1 7376   6.968   1.594   5.589
 2159SOL    HW2 7377   0.048   1.561   5.462
 2160SOL     OW 7378   5.397   6.606   6.786
 2160SOL    HW1 7379   5.378   6.593   6.689
 2160SOL    HW2 7380   5.495   6.612   6.801
 2161SOL     OW 7381   1.638   3.806   0.835
 2161SOL    HW1 7382   1.613   3.891   0.881
 2161SOL    HW2 7383   1.651   3.824   0.738
 2162SOL     OW 7384   1.886   7.016   0.188
 2162SOL    HW1 7385   1.843   7.011   0.279
 2162SOL    HW2 7386   1.891   0.095   0.159
 2163SOL     OW 7387   0.974   2.961   4.385
 2163SOL    HW1 7388   1.030   3.015   4.449
 2163SOL    HW2 7389   1.005   2.866   4.387
 2164SOL     OW 7390   2.319   4.549   1.885
 2164SOL    HW1 7391   2.368   4.633   1.863
 2164SOL    HW2 7392   2.224   4.557   1.856
 2165SOL     OW 7393   6.343   1.663   5.583
 2165SOL    HW1 7394   6.272   1.693   5.519
 2165SOL    HW2 7395   6.349   1.728   5.659
 2166SOL     OW 7396   0.159   2.469   1.710
 2166SOL    HW1 7397   0.253   2.472   1.746
 2166SOL    HW2 7398   0.160   2.489   1.612
 2167SOL     OW 7399   1.576   2.604   2.833
 2167SOL    HW1 7400   1.512   2.664   2.785
 2167SOL    HW2 7401   1.526   2.527   2.872
 2168SOL     OW 7402   1.630   2.842   3.187
 2168SOL    HW1 7403   1.700   2.774   3.211
 2168SOL    HW2 7404   1.670   2.933   3.193
 2169SOL     OW 7405   6.999   6.847   1.033
 2169SOL    HW1 7406   0.024   6.862   1.123
 2169SOL    HW2 7407   6.929   6.776   1.041
 2170SOL     OW 7408   1.780   2.859   6.428
 2170SOL    HW1 7409   1.756   2.764   6.450
 2170SOL    HW2 7410   1.799   2.866   6.330
 2171SOL     OW 7411   6.858   6.331   1.442
 2171SOL    HW1 7412   6.934   6.394   1.456
 2171SOL    HW2 7413   6.779   6.362   1.495
 2172SOL     OW 7414   2.457   2.597   4.792
 2172SOL    HW1 7415   2.552   2.569   4.804
 2172SOL    HW2 7416   2.429   2.653   4.871
 2173SOL     OW 7417   4.534   0.592   5.152
 2173SOL    HW1 7418   4.618   0.645   5.159
 2173SOL    HW2 7419   4.467   0.643   5.097
 2174SOL     OW 7420   5.380   0.129   6.288
 2174SOL    HW1 7421   5.470   0.086   6.280
 2174SOL    HW2 7422   5.391   0.225   6.313
 2175SOL     OW 7423   3.606   2.818   5.658
 2175SOL    HW1 7424   3.572   2.856   5.572
 2175SOL    HW2 7425   3.630   2.893   5.720
 2176SOL     OW 7426   6.548   1.739   2.865
 2176SOL    HW1 7427   6.558   1.701   2.773
 2176SOL    HW2 7428   6.614   1.813   2.878
 2177SOL     OW 7429   0.250   1.376   5.656
 2177SOL    HW1 7430   0.175   1.434   5.686
 2177SOL    HW2 7431   0.249   1.290   5.707
 2178SOL     OW 7432   1.707   2.731   2.158
 2178SOL    HW1 7433   1.739   2.795   2.227
 2178SOL    HW2 7434   1.666   2.651   2.203
 2179SOL     OW 7435   1.629   4.239   6.949
 2179SOL    HW1 7436   1.582   4.317   6.909
 2179SOL    HW2 7437   1.711   4.218   6.896
 2180SOL     OW 7438   0.378   5.164   2.626
 2180SOL    HW1 7439   0.347   5.166   2.531
 2180SOL    HW2 7440   0.341   5.084   2.672
 2181SOL     OW 7441   4.403   4.717   4.260
 2181SOL    HW1 7442   4.459   4.634   4.268
 2181SOL    HW2 7443   4.393   4.760   4.350
 2182SOL     OW 7444   0.225   6.857   1.498
 2182SOL    HW1 7445   0.285   6.855   1.418
 2182SOL    HW2 7446   0.177   6.944   1.502
 2183SOL     OW 7447   3.843   3.137   6.817
 2183SOL    HW1 7448   3.897   3.161   6.898
 2183SOL    HW2 7449   3.749   3.169   6.829
 2184SOL     OW 7450   6.588   1.541   6.806
 2184SOL    HW1 7451   6.526   1.612   6.771
 2184SOL    HW2 7452   6.563   1.519   6.900
 2185SOL     OW 7453   0.767   1.213   6.355
 2185SOL    HW1 7454   0.760   1.289   6.290
 2185SOL    HW2 7455   0.863   1.203   6.383
 2186SOL     OW 7456   6.991   6.259   5.317
 2186SOL    HW1 7457   0.034   6.219   5.247
 2186SOL    HW2 7458   0.005   6.229   5.407
 2187SOL     OW 7459   6.014   4.227   1.745
 2187SOL    HW1 7460   5.992   4.132   1.768
 2187SOL    HW2 7461   5.951   4.288   1.792
 2188SOL     OW 7462   3.182   1.282   1.169
 2188SOL    HW1 7463   3.085   1.304   1.181
 2188SOL    HW2 7464   3.205   1.288   1.072
 2189SOL     OW 7465   2.027   0.505   2.196
 2189SOL    HW1 7466   2.081   0.588   2.182
 2189SOL    HW2 7467   2.056   0.460   2.281
 2190SOL     OW 7468   6.624   4.647   2.013
 2190SOL    HW1 7469   6.566   4.674   1.936
 2190SOL    HW2 7470   6.719   4.640   1.983
 2191SOL     OW 7471   3.320   6.832   6.686
 2191SOL    HW1 7472   3.251   6.828   6.758
 2191SOL    HW2 7473   3.411   6.822   6.725
 2192SOL     OW 7474   4.474   2.380   1.604
 2192SOL    HW1 7475   4.439   2.407   1.514
 2192SOL    HW2 7476   4.398   2.366   1.667
 2193SOL     OW 7477   1.397   0.890   5.344
 2193SOL    HW1 7478   1.344   0.896   5.429
 2193SOL    HW2 7479   1.480   0.944   5.352
 2194SOL     OW 7480   0.805   4.620   5.527
 2194SOL    HW1 7481   0.779   4.717   5.537
 2194SOL    HW2 7482   0.750   4.579   5.454
 2195SOL     OW 7483   0.286   4.081   5.741
 2195SOL    HW1 7484   0.275   4.077   5.840
 2195SOL    HW2 7485   0.331   3.998   5.708
 2196SOL     OW 7486   3.941   1.501   6.934
 2196SOL    HW1 7487   3.884   1.421   6.956
 2196SOL    HW2 7488   4.009   1.514   7.006
 2197SOL     OW 7489   4.196   5.428   6.971
 2197SOL    HW1 7490   4.259   5.365   7.017
 2197SOL    HW2 7491   4.138   5.377   6.908
 2198SOL     OW 7492   1.749   1.179   6.303
 2198SOL    HW1 7493   1.834   1.219   6.337
 2198SOL    HW2 7494   1.676   1.194   6.369
 2199SOL     OW 7495   4.121   6.662   3.801
 2199SOL    HW1 7496   4.184   6.609   3.745
 2199SOL    HW2 7497   4.165   6.748   3.828
 2200SOL     OW 7498   2.671   2.045   4.756
 2200SOL    HW1 7499   2.680   2.092   4.667
 2200SOL    HW2 7500   2.759   2.047   4.803
 2201SOL     OW 7501   5.993   3.373   4.851
 2201SOL    HW1 7502   5.992   3.296   4.915
 2201SOL    HW2 7503   5.929   3.444   4.882
 2202SOL     OW 7504   4.361   0.017   4.185
 2202SOL    HW1 7505   4.368   0.075   4.266
 2202SOL    HW2 7506   4.433   6.964   4.187
 2203SOL     OW 7507   2.025   6.021   1.193
 2203SOL    HW1 7508   2.121   6.042   1.178
 2203SOL    HW2 7509   1.971   6.105   1.191
 2204SOL     OW 7510   4.948   2.939   0.789
 2204SOL    HW1 7511   4.882   2.864   0.782
 2204SOL    HW2 7512   4.925   3.010   0.723
 2205SOL     OW 7513   5.010   5.727   0.948
 2205SOL    HW1 7514   5.033   5.813   0.902
 2205SOL    HW2 7515   5.011   5.741   1.047
 2206SOL     OW 7516   3.480   2.887   5.384
 2206SOL    HW1 7517   3.408   2.820   5.367
 2206SOL    HW2 7518   3.561   2.864   5.329
 2207SOL     OW 7519   4.589   5.038   1.779
 2207SOL    HW1 7520   4.654   4.981   1.829
 2207SOL    HW2 7521   4.579   5.004   1.686
 2208SOL     OW 7522   6.392   6.417   3.470
 2208SOL    HW1 7523   6.413   6.353   3.397
 2208SOL    HW2 7524   6.307   6.389   3.515
 2209SOL     OW 7525   2.300   5.745   3.678
 2209SOL    HW1 7526   2.386   5.754   3.628
 2209SOL    HW2 7527   2.261   5.654   3.661
 2210SOL     OW 7528   5.260   6.829   1.919
 2210SOL    HW1 7529   5.298   6.917   1.888
 2210SOL    HW2 7530   5.277   6.818   2.017
 2211SOL     OW 7531   1.386   0.789   1.553
 2211SOL    HW1 7532   1.308   0.727   1.562
 2211SOL    HW2 7533   1.389   0.849   1.633
 2212SOL     OW 7534   2.860   6.248   6.382
 2212SOL    HW1 7535   2.827   6.287   6.469
 2212SOL    HW2 7536   2.922   6.313   6.338
 2213SOL     OW 7537   3.261   1.305   4.745
 2213SOL    HW1 7538   3.241   1.382   4.806
 2213SOL    HW2 7539   3.243   1.332   4.651
 2214SOL     OW 7540   4.186   4.895   6.544
 2214SOL    HW1 7541   4.225   4.808   6.515
 2214SOL    HW2 7542   4.108   4.879   6.604
 2215SOL     OW 7543   5.950   5.431   6.264
 2215SOL    HW1 7544   5.923   5.434   6.168
 2215SOL    HW2 7545   6.049   5.419   6.271
 2216SOL     OW 7546   0.407   6.383   6.999
 2216SOL    HW1 7547   0.346   6.446   6.951
 2216SOL    HW2 7548   0.411   6.296   6.949
 2217SOL     OW 7549   3.867   1.273   3.422
 2217SOL    HW1 7550   3.769   1.253   3.419
 2217SOL    HW2 7551   3.915   1.198   3.468
 2218SOL     OW 7552   6.019   5.622   5.477
 2218SOL    HW1 7553   6.102   5.580   5.513
 2218SOL    HW2 7554   5.988   5.571   5.397
 2219SOL     OW 7555   5.493   2.140   0.213
 2219SOL    HW1 7556   5.415   2.086   0.181
 2219SOL    HW2 7557   5.462   2.231   0.242
 2220SOL     OW 7558   6.935   6.772   4.539
 2220SOL    HW1 7559   6.925   6.770   4.440
 2220SOL    HW2 7560   6.973   6.860   4.567
 2221SOL     OW 7561   5.057   0.348   3.688
 2221SOL    HW1 7562   5.091   0.287   3.617
 2221SOL    HW2 7563   5.051   0.299   3.775
 2222SOL     OW 7564   3.534   1.306   3.654
 2222SOL    HW1 7565   3.512   1.247   3.731
 2222SOL    HW2 7566   3.632   1.327   3.655
 2223SOL     OW 7567   0.919   0.127   5.646
 2223SOL    HW1 7568   0.873   0.038   5.648
 2223SOL    HW2 7569   0.859   0.195   5.604
 2224SOL     OW 7570   5.457   4.409   6.717
 2224SOL    HW1 7571   5.387   4.403   6.788
 2224SOL    HW2 7572   5.441   4.490   6.661
 2225SOL     OW 7573   6.508   0.241   0.702
 2225SOL    HW1 7574   6.566   0.169   0.664
 2225SOL    HW2 7575   6.503   0.317   0.638
 2226SOL     OW 7576   2.922   3.358   6.878
 2226SOL    HW1 7577   2.921   3.276   6.821
 2226SOL    HW2 7578   2.931   3.333   6.974
 2227SOL     OW 7579   4.479   1.431   1.455
 2227SOL    HW1 7580   4.438   1.520   1.436
 2227SOL    HW2 7581   4.533   1.402   1.377
 2228SOL     OW 7582   5.014   6.587   6.258
 2228SOL    HW1 7583   5.053   6.632   6.338
 2228SOL    HW2 7584   5.041   6.491   6.258
 2229SOL     OW 7585   2.956   3.273   4.455
 2229SOL    HW1 7586   2.955   3.325   4.369
 2229SOL    HW2 7587   2.868   3.225   4.465
 2230SOL     OW 7588   6.784   0.998   5.989
 2230SOL    HW1 7589   6.807   1.039   5.901
 2230SOL    HW2 7590   6.724   0.919   5.973
 2231SOL     OW 7591   1.066   6.968   6.254
 2231SOL    HW1 7592   1.074   6.903   6.330
 2231SOL    HW2 7593   1.133   0.024   6.265
 2232SOL     OW 7594   1.705   0.925   6.467
 2232SOL    HW1 7595   1.655   1.011   6.476
 2232SOL    HW2 7596   1.760   0.927   6.384
 2233SOL     OW 7597   2.871   5.461   1.192
 2233SOL    HW1 7598   2.772   5.464   1.208
 2233SOL    HW2 7599   2.918   5.461   1.280
 2234SOL     OW 7600   5.259   1.971   1.473
 2234SOL    HW1 7601   5.335   2.035   1.466
 2234SOL    HW2 7602   5.184   2.001   1.414
 2235SOL     OW 7603   0.952   2.518   3.374
 2235SOL    HW1 7604   1.000   2.445   3.421
 2235SOL    HW2 7605   1.012   2.557   3.304
 2236SOL     OW 7606   2.588   4.605   5.104
 2236SOL    HW1 7607   2.603   4.560   5.192
 2236SOL    HW2 7608   2.666   4.664   5.083
 2237SOL     OW 7609   5.938   6.858   5.899
 2237SOL    HW1 7610   5.862   6.837   5.838
 2237SOL    HW2 7611   5.903   6.871   5.992
 2238SOL     OW 7612   5.608   3.978   2.322
 2238SOL    HW1 7613   5.645   3.916   2.253
 2238SOL    HW2 7614   5.678   4.044   2.348
 2239SOL     OW 7615   4.002   0.047   2.834
 2239SOL    HW1 7616   3.940   0.014   2.763
 2239SOL    HW2 7617   4.086   0.082   2.792
 2240SOL     OW 7618   4.983   5.467   2.377
 2240SOL    HW1 7619   4.972   5.467   2.476
 2240SOL    HW2 7620   5.037   5.387   2.350
 2241SOL     OW 7621   1.043   1.973   3.063
 2241SOL    HW1 7622   1.037   2.068   3.091
 2241SOL    HW2 7623   0.967   1.921   3.102
 2242SOL     OW 7624   5.475   2.316   4.166
 2242SOL    HW1 7625   5.456   2.284   4.073
 2242SOL    HW2 7626   5.489   2.415   4.165
 2243SOL     OW 7627   2.579   0.565   0.125
 2243SOL    HW1 7628   2.547   0.473   0.148
 2243SOL    HW2 7629   2.546   0.589   0.034
 2244SOL     OW 7630   2.347   1.734   1.312
 2244SOL    HW1 7631   2.422   1.674   1.287
 2244SOL    HW2 7632   2.337   1.735   1.412
 2245SOL     OW 7633   0.114   0.878   0.464
 2245SOL    HW1 7634   0.073   0.961   0.501
 2245SOL    HW2 7635   0.139   0.817   0.539
 2246SOL     OW 7636   5.206   0.733   5.669
 2246SOL    HW1 7637   5.296   0.716   5.630
 2246SOL    HW2 7638   5.141   0.752   5.595
 2247SOL     OW 7639   3.408   3.463   1.670
 2247SOL    HW1 7640   3.392   3.561   1.676
 2247SOL    HW2 7641   3.376   3.419   1.754
 2248SOL     OW 7642   5.379   3.263   4.837
 2248SOL    HW1 7643   5.430   3.225   4.760
 2248SOL    HW2 7644   5.342   3.188   4.892
 2249SOL     OW 7645   1.876   6.108   3.327
 2249SOL    HW1 7646   1.871   6.199   3.284
 2249SOL    HW2 7647   1.964   6.098   3.372
 2250SOL     OW 7648   4.508   5.752   6.184
 2250SOL    HW1 7649   4.457   5.748   6.099
 2250SOL    HW2 7650   4.535   5.847   6.203
 2251SOL     OW 7651   3.924   6.789   4.802
 2251SOL    HW1 7652   3.858   6.728   4.758
 2251SOL    HW2 7653   3.941   6.867   4.744
 2252SOL     OW 7654   3.600   1.086   2.513
 2252SOL    HW1 7655   3.517   1.031   2.499
 2252SOL    HW2 7656   3.680   1.029   2.502
 2253SOL     OW 7657   1.438   3.005   1.583
 2253SOL    HW1 7658   1.454   2.906   1.584
 2253SOL    HW2 7659   1.360   3.026   1.642
 2254SOL     OW 7660   2.947   3.171   2.890
 2254SOL    HW1 7661   2.954   3.196   2.987
 2254SOL    HW2 7662   2.888   3.237   2.843
 2255SOL     OW 7663   1.184   2.079   6.425
 2255SOL    HW1 7664   1.201   2.043   6.517
 2255SOL    HW2 7665   1.174   2.179   6.430
 2256SOL     OW 7666   5.093   0.518   1.085
 2256SOL    HW1 7667   5.031   0.593   1.110
 2256SOL    HW2 7668   5.061   0.476   1.001
 2257SOL     OW 7669   0.271   0.705   6.435
 2257SOL    HW1 7670   0.322   0.738   6.514
 2257SOL    HW2 7671   0.192   0.652   6.467
 2258SOL     OW 7672   2.607   0.242   3.326
 2258SOL    HW1 7673   2.548   0.162   3.330
 2258SOL    HW2 7674   2.596   0.296   3.410
 2259SOL     OW 7675   6.035   0.521   5.413
 2259SOL    HW1 7676   6.009   0.473   5.496
 2259SOL    HW2 7677   6.090   0.601   5.436
 2260SOL     OW 7678   1.535   3.787   1.177
 2260SOL    HW1 7679   1.606   3.719   1.198
 2260SOL    HW2 7680   1.470   3.748   1.111
 2261SOL     OW 7681   4.941   4.314   6.626
 2261SOL    HW1 7682   4.963   4.393   6.682
 2261SOL    HW2 7683   4.873   4.340   6.557
 2262SOL     OW 7684   6.643   0.221   3.854
 2262SOL    HW1 7685   6.619   0.138   3.904
 2262SOL    HW2 7686   6.644   0.299   3.917
 2263SOL     OW 7687   2.288   4.450   6.576
 2263SOL    HW1 7688   2.220   4.409   6.636
 2263SOL    HW2 7689   2.336   4.378   6.525
 2264SOL     OW 7690   1.888   0.307   6.723
 2264SOL    HW1 7691   1.865   0.403   6.735
 2264SOL    HW2 7692   1.819   0.263   6.665
 2265SOL     OW 7693   0.366   6.068   3.708
 2265SOL    HW1 7694   0.388   6.160   3.741
 2265SOL    HW2 7695   0.295   6.074   3.638
 2266SOL     OW 7696   4.922   3.975   6.460
 2266SOL    HW1 7697   4.866   3.892   6.451
 2266SOL    HW2 7698   4.869   4.045   6.506
 2267SOL     OW 7699   5.611   2.887   4.533
 2267SOL    HW1 7700   5.527   2.859   4.578
 2267SOL    HW2 7701   5.589   2.928   4.444
 2268SOL     OW 7702   1.003   6.127   4.525
 2268SOL    HW1 7703   0.920   6.147   4.473
 2268SOL    HW2 7704   0.981   6.063   4.598
 2269SOL     OW 7705   1.804   2.510   5.512
 2269SOL    HW1 7706   1.722   2.549   5.555
 2269SOL    HW2 7707   1.792   2.412   5.500
 2270SOL     OW 7708   4.688   1.907   6.330
 2270SOL    HW1 7709   4.682   1.952   6.241
 2270SOL    HW2 7710   4.614   1.840   6.338
 2271SOL     OW 7711   4.026   5.809   5.483
 2271SOL    HW1 7712   3.958   5.735   5.488
 2271SOL    HW2 7713   4.093   5.797   5.556
 2272SOL     OW 7714   6.008   0.778   6.214
 2272SOL    HW1 7715   5.994   0.714   6.289
 2272SOL    HW2 7716   6.086   0.837   6.234
 2273SOL     OW 7717   1.141   2.001   4.142
 2273SOL    HW1 7718   1.093   1.984   4.228
 2273SOL    HW2 7719   1.218   2.063   4.159
 2274SOL     OW 7720   1.169   1.494   6.977
 2274SOL    HW1 7721   1.127   1.483   6.887
 2274SOL    HW2 7722   1.115   1.445   0.029
 2275SOL     OW 7723   5.761   3.556   3.066
 2275SOL    HW1 7724   5.837   3.493   3.084
 2275SOL    HW2 7725   5.678   3.504   3.045
 2276SOL     OW 7726   2.023   1.658   1.479
 2276SOL    HW1 7727   2.087   1.682   1.552
 2276SOL    HW2 7728   1.930   1.682   1.507
 2277SOL     OW 7729   3.697   2.872   3.066
 2277SOL    HW1 7730   3.657   2.958   3.099
 2277SOL    HW2 7731   3.719   2.881   2.969
 2278SOL     OW 7732   6.740   3.476   4.001
 2278SOL    HW1 7733   6.742   3.562   3.949
 2278SOL    HW2 7734   6.645   3.448   4.016
 2279SOL     OW 7735   0.639   5.206   5.563
 2279SOL    HW1 7736   0.730   5.185   5.599
 2279SOL    HW2 7737   0.625   5.305   5.562
 2280SOL     OW 7738   4.948   2.367   5.699
 2280SOL    HW1 7739   4.869   2.427   5.708
 2280SOL    HW2 7740   4.989   2.379   5.609
 2281SOL     OW 7741   4.928   6.732   2.104
 2281SOL    HW1 7742   4.915   6.651   2.047
 2281SOL    HW2 7743   4.903   6.711   2.199
 2282SOL     OW 7744   3.290   5.388   5.628
 2282SOL    HW1 7745   3.252   5.314   5.685
 2282SOL    HW2 7746   3.229   5.404   5.551
 2283SOL     OW 7747   6.986   0.933   5.095
 2283SOL    HW1 7748   6.920   1.002   5.125
 2283SOL    HW2 7749   6.943   0.843   5.098
 2284SOL     OW 7750   1.621   3.924   6.459
 2284SOL    HW1 7751   1.525   3.927   6.486
 2284SOL    HW2 7752   1.663   3.841   6.495
 2285SOL     OW 7753   1.361   5.155   6.320
 2285SOL    HW1 7754   1.406   5.206   6.393
 2285SOL    HW2 7755   1.353   5.059   6.348
 2286SOL     OW 7756   4.671   4.297   2.505
 2286SOL    HW1 7757   4.674   4.394   2.482
 2286SOL    HW2 7758   4.689   4.243   2.423
 2287SOL     OW 7759   1.319   1.226   4.355
 2287SOL    HW1 7760   1.295   1.316   4.390
 2287SOL    HW2 7761   1.280   1.214   4.263
 2288SOL     OW 7762   6.143   5.209   3.094
 2288SOL    HW1 7763   6.239   5.181   3.086
 2288SOL    HW2 7764   6.084   5.142   3.048
 2289SOL     OW 7765   0.277   5.188   0.303
 2289SOL    HW1 7766   0.209   5.194   0.231
 2289SOL    HW2 7767   0.352   5.251   0.284
 2290SOL     OW 7768   0.939   5.444   6.805
 2290SOL    HW1 7769   0.841   5.458   6.819
 2290SOL    HW2 7770   0.967   5.359   6.849
 2291SOL     OW 7771   1.861   1.852   6.639
 2291SOL    HW1 7772   1.766   1.857   6.605
 2291SOL    HW2 7773   1.861   1.810   6.730
 2292SOL     OW 7774   2.007   0.839   4.531
 2292SOL    HW1 7775   1.942   0.907   4.564
 2292SOL    HW2 7776   1.977   0.803   4.443
 2293SOL     OW 7777   5.002   4.358   2.830
 2293SOL    HW1 7778   5.056   4.276   2.849
 2293SOL    HW2 7779   5.063   4.437   2.824
 2294SOL     OW 7780   3.586   6.803   6.751
 2294SOL    HW1 7781   3.648   6.762   6.818
 2294SOL    HW2 7782   3.591   6.751   6.666
 2295SOL     OW 7783   1.129   0.940   2.028
 2295SOL    HW1 7784   1.084   1.002   1.964
 2295SOL    HW2 7785   1.077   0.854   2.032
 2296SOL     OW 7786   3.014   6.167   0.476
 2296SOL    HW1 7787   2.940   6.169   0.409
 2296SOL    HW2 7788   3.097   6.130   0.433
 2297SOL     OW 7789   4.171   6.324   6.835
 2297SOL    HW1 7790   4.194   6.405   6.888
 2297SOL    HW2 7791   4.206   6.334   6.742
 2298SOL     OW 7792   4.136   3.297   6.871
 2298SOL    HW1 7793   4.164   3.208   6.836
 2298SOL    HW2 7794   4.215   3.343   6.913
 2299SOL     OW 7795   4.282   0.056   0.833
 2299SOL    HW1 7796   4.317   6.980   0.828
 2299SOL    HW2 7797   4.280   0.086   0.928
 2300SOL     OW 7798   1.309   5.437   1.084
 2300SOL    HW1 7799   1.320   5.338   1.088
 2300SOL    HW2 7800   1.252   5.461   1.005
 2301SOL     OW 7801   3.678   3.373   1.723
 2301SOL    HW1 7802   3.589   3.397   1.683
 2301SOL    HW2 7803   3.697   3.434   1.800
 2302SOL     OW 7804   2.736   5.072   2.621
 2302SOL    HW1 7805   2.693   5.147   2.671
 2302SOL    HW2 7806   2.671   4.998   2.607
 2303SOL     OW 7807   0.273   3.609   6.387
 2303SOL    HW1 7808   0.356   3.592   6.440
 2303SOL    HW2 7809   0.212   3.670   6.438
 2304SOL     OW 7810   1.656   1.125   4.694
 2304SOL    HW1 7811   1.650   1.223   4.677
 2304SOL    HW2 7812   1.631   1.075   4.611
 2305SOL     OW 7813   4.026   4.827   1.927
 2305SOL    HW1 7814   3.933   4.847   1.959
 2305SOL    HW2 7815   4.036   4.856   1.832
 2306SOL     OW 7816   0.467   4.209   0.318
 2306SOL    HW1 7817   0.532   4.259   0.261
 2306SOL    HW2 7818   0.410   4.150   0.260
 2307SOL     OW 7819   0.311   0.886   3.223
 2307SOL    HW1 7820   0.287   0.813   3.286
 2307SOL    HW2 7821   0.410   0.897   3.219
 2308SOL     OW 7822   1.259   6.975   0.261
 2308SOL    HW1 7823   1.288   0.040   0.311
 2308SOL    HW2 7824   1.323   6.901   0.278
 2309SOL     OW 7825   2.306   4.888   6.401
 2309SOL    HW1 7826   2.299   4.883   6.500
 2309SOL    HW2 7827   2.275   4.977   6.369
 2310SOL     OW 7828   5.498   1.694   3.313
 2310SOL    HW1 7829   5.512   1.634   3.233
 2310SOL    HW2 7830   5.555   1.661   3.389
 2311SOL     OW 7831   2.596   0.264   2.742
 2311SOL    HW1 7832   2.689   0.273   2.778
 2311SOL    HW2 7833   2.599   0.245   2.644
 2312SOL     OW 7834   2.454   1.135   2.345
 2312SOL    HW1 7835   2.475   1.226   2.382
 2312SOL    HW2 7836   2.452   1.068   2.419
 2313SOL     OW 7837   5.061   4.338   2.077
 2313SOL    HW1 7838   5.101   4.276   2.145
 2313SOL    HW2 7839   4.964   4.317   2.066
 2314SOL     OW 7840   6.371   5.711   2.923
 2314SOL    HW1 7841   6.272   5.720   2.922
 2314SOL    HW2 7842   6.396   5.618   2.951
 2315SOL     OW 7843   4.676   6.395   5.060
 2315SOL    HW1 7844   4.649   6.347   5.143
 2315SOL    HW2 7845   4.770   6.428   5.070
 2316SOL     OW 7846   3.457   1.583   6.041
 2316SOL    HW1 7847   3.405   1.666   6.020
 2316SOL    HW2 7848   3.472   1.578   6.140
 2317SOL     OW 7849   6.848   4.942   2.489
 2317SOL    HW1 7850   6.858   4.887   2.407
 2317SOL    HW2 7851   6.938   4.970   2.522
 2318SOL     OW 7852   1.144   4.570   4.057
 2318SOL    HW1 7853   1.190   4.607   3.976
 2318SOL    HW2 7854   1.058   4.527   4.030
 2319SOL     OW 7855   2.315   5.492   3.089
 2319SOL    HW1 7856   2.369   5.452   3.015
 2319SOL    HW2 7857   2.376   5.528   3.160
 2320SOL     OW 7858   0.883   1.793   5.325
 2320SOL    HW1 7859   0.861   1.888   5.303
 2320SOL    HW2 7860   0.979   1.786   5.349
 2321SOL     OW 7861   1.775   4.886   5.164
 2321SOL    HW1 7862   1.772   4.956   5.093
 2321SOL    HW2 7863   1.822   4.922   5.245
 2322SOL     OW 7864   2.236   4.303   1.668
 2322SOL    HW1 7865   2.289   4.270   1.590
 2322SOL    HW2 7866   2.293   4.302   1.750
 2323SOL     OW 7867   2.606   5.749   0.630
 2323SOL    HW1 7868   2.509   5.730   0.619
 2323SOL    HW2 7869   2.649   5.758   0.539
 2324SOL     OW 7870   6.565   4.881   2.538
 2324SOL    HW1 7871   6.535   4.815   2.468
 2324SOL    HW2 7872   6.652   4.922   2.511
 2325SOL     OW 7873   6.473   4.804   2.778
 2325SOL    HW1 7874   6.510   4.825   2.687
 2325SOL    HW2 7875   6.389   4.750   2.767
 2326SOL     OW 7876   1.875   0.430   0.220
 2326SOL    HW1 7877   1.896   0.527   0.209
 2326SOL    HW2 7878   1.914   0.378   0.143
 2327SOL     OW 7879   6.621   6.223   2.180
 2327SOL    HW1 7880   6.673   6.276   2.246
 2327SOL    HW2 7881   6.683   6.179   2.115
 2328SOL     OW 7882   2.073   3.838   2.296
 2328SOL    HW1 7883   2.156   3.894   2.288
 2328SOL    HW2 7884   2.065   3.780   2.215
 2329SOL     OW 7885   0.570   4.753   2.685
 2329SOL    HW1 7886   0.556   4.658   2.655
 2329SOL    HW2 7887   0.603   4.808   2.609
 2330SOL     OW 7888   6.193   2.889   1.313
 2330SOL    HW1 7889   6.218   2.800   1.351
 2330SOL    HW2 7890   6.097   2.908   1.333
 2331SOL     OW 7891   5.022   5.953   1.335
 2331SOL    HW1 7892   5.068   5.872   1.299
 2331SOL    HW2 7893   4.934   5.964   1.289
 2332SOL     OW 7894   6.123   0.064   5.985
 2332SOL    HW1 7895   6.095   6.986   5.999
 2332SOL    HW2 7896   6.213   0.078   6.027
 2333SOL     OW 7897   1.303   4.685   2.559
 2333SOL    HW1 7898   1.323   4.783   2.561
 2333SOL    HW2 7899   1.235   4.666   2.489
 2334SOL     OW 7900   3.282   1.369   6.315
 2334SOL    HW1 7901   3.339   1.287   6.324
 2334SOL    HW2 7902   3.340   1.450   6.307
 2335SOL     OW 7903   6.912   1.472   3.592
 2335SOL    HW1 7904   7.001   1.452   3.550
 2335SOL    HW2 7905   6.913   1.442   3.687
 2336SOL     OW 7906   1.888   2.095   3.344
 2336SOL    HW1 7907   1.817   2.125   3.408
 2336SOL    HW2 7908   1.848   2.082   3.253
 2337SOL     OW 7909   3.868   0.970   1.755
 2337SOL    HW1 7910   3.817   1.056   1.758
 2337SOL    HW2 7911   3.907   0.958   1.664
 2338SOL     OW 7912   6.815   3.893   3.556
 2338SOL    HW1 7913   6.753   3.851   3.622
 2338SOL    HW2 7914   6.895   3.930   3.604
 2339SOL     OW 7915   3.121   2.998   3.005
 2339SOL    HW1 7916   3.179   3.067   3.049
 2339SOL    HW2 7917   3.058   3.043   2.943
 2340SOL     OW 7918   2.477   3.994   6.930
 2340SOL    HW1 7919   2.388   4.038   6.940
 2340SOL    HW2 7920   2.547   4.063   6.916
 2341SOL     OW 7921   2.671   4.639   4.161
 2341SOL    HW1 7922   2.621   4.572   4.215
 2341SOL    HW2 7923   2.652   4.625   4.064
 2342SOL     OW 7924   3.779   1.015   4.462
 2342SOL    HW1 7925   3.704   0.961   4.423
 2342SOL    HW2 7926   3.750   1.110   4.473
 2343SOL     OW 7927   0.177   0.071   1.096
 2343SOL    HW1 7928   0.078   0.079   1.110
 2343SOL    HW2 7929   0.224   0.136   1.154
 2344SOL     OW 7930   6.068   4.283   0.342
 2344SOL    HW1 7931   5.976   4.273   0.304
 2344SOL    HW2 7932   6.063   4.324   0.433
 2345SOL     OW 7933   3.536   6.171   4.918
 2345SOL    HW1 7934   3.457   6.230   4.937
 2345SOL    HW2 7935   3.576   6.140   5.004
 2346SOL     OW 7936   4.800   3.484   0.438
 2346SOL    HW1 7937   4.880   3.426   0.451
 2346SOL    HW2 7938   4.756   3.463   0.351
 2347SOL     OW 7939   1.428   1.373   1.441
 2347SOL    HW1 7940   1.521   1.409   1.449
 2347SOL    HW2 7941   1.396   1.385   1.348
 2348SOL     OW 7942   0.356   5.578   2.192
 2348SOL    HW1 7943   0.376   5.530   2.107
 2348SOL    HW2 7944   0.439   5.582   2.249
 2349SOL     OW 7945   1.116   4.362   5.058
 2349SOL    HW1 7946   1.209   4.373   5.025
 2349SOL    HW2 7947   1.110   4.390   5.154
 2350SOL     OW 7948   5.264   3.838   0.112
 2350SOL    HW1 7949   5.343   3.870   0.060
 2350SOL    HW2 7950   5.253   3.894   0.194
 2351SOL     OW 7951   2.503   5.852   1.588
 2351SOL    HW1 7952   2.476   5.876   1.682
 2351SOL    HW2 7953   2.446   5.777   1.555
 2352SOL     OW 7954   6.663   2.395   3.342
 2352SOL    HW1 7955   6.661   2.300   3.373
 2352SOL    HW2 7956   6.636   2.455   3.417
 2353SOL     OW 7957   3.240   5.382   4.210
 2353SOL    HW1 7958   3.302   5.339   4.276
 2353SOL    HW2 7959   3.184   5.311   4.167
 2354SOL     OW 7960   2.498   2.572   4.103
 2354SOL    HW1 7961   2.547   2.546   4.020
 2354SOL    HW2 7962   2.463   2.665   4.093
 2355SOL     OW 7963   2.567   5.588   4.486
 2355SOL    HW1 7964   2.595   5.504   4.439
 2355SOL    HW2 7965   2.619   5.665   4.449
 2356SOL     OW 7966   0.022   2.346   6.656
 2356SOL    HW1 7967   0.013   2.279   6.730
 2356SOL    HW2 7968   0.034   2.437   6.694
 2357SOL     OW 7969   2.225   6.562   2.953
 2357SOL    HW1 7970   2.126   6.570   2.960
 2357SOL    HW2 7971   2.265   6.562   3.045
 2358SOL     OW 7972   3.931   5.057   5.748
 2358SOL    HW1 7973   3.880   5.127   5.697
 2358SOL    HW2 7974   3.980   5.100   5.824
 2359SOL     OW 7975   1.693   0.591   5.182
 2359SOL    HW1 7976   1.669   0.639   5.098
 2359SOL    HW2 7977   1.759   0.519   5.161
 2360SOL     OW 7978   6.692   3.995   0.007
 2360SOL    HW1 7979   6.713   3.974   0.102
 2360SOL    HW2 7980   6.744   3.934   6.964
 2361SOL     OW 7981   3.727   1.211   0.243
 2361SOL    HW1 7982   3.671   1.225   0.161
 2361SOL    HW2 7983   3.698   1.126   0.288
 2362SOL     OW 7984   2.685   6.017   3.221
 2362SOL    HW1 7985   2.653   6.099   3.174
 2362SOL    HW2 7986   2.658   6.021   3.317
 2363SOL     OW 7987   3.870   0.696   3.729
 2363SOL    HW1 7988   3.790   0.737   3.772
 2363SOL    HW2 7989   3.844   0.657   3.641
 2364SOL     OW 7990   1.439   2.696   1.371
 2364SOL    HW1 7991   1.471   2.783   1.335
 2364SOL    HW2 7992   1.487   2.675   1.456
 2365SOL     OW 7993   5.080   2.051   0.302
 2365SOL    HW1 7994   5.137   2.067   0.383
 2365SOL    HW2 7995   4.988   2.086   0.319
 2366SOL     OW 7996   4.422   5.606   0.745
 2366SOL    HW1 7997   4.424   5.518   0.795
 2366SOL    HW2 7998   4.485   5.601   0.668
 2367SOL     OW 7999   2.015   3.367   6.174
 2367SOL    HW1 8000   2.100   3.376   6.122
 2367SOL    HW2 8001   1.961   3.291   6.137
 2368SOL     OW 8002   5.976   6.211   1.932
 2368SOL    HW1 8003   5.979   6.132   1.871
 2368SOL    HW2 8004   6.063   6.220   1.980
 2369SOL     OW 8005   2.664   1.311   3.158
 2369SOL    HW1 8006   2.717   1.391   3.129
 2369SOL    HW2 8007   2.705   1.272   3.240
 2370SOL     OW 8008   5.355   2.733   6.022
 2370SOL    HW1 8009   5.312   2.645   6.045
 2370SOL    HW2 8010   5.419   2.758   6.094
 2371SOL     OW 8011   2.068   6.160   1.846
 2371SOL    HW1 8012   2.003   6.084   1.846
 2371SOL    HW2 8013   2.062   6.209   1.760
 2372SOL     OW 8014   6.220   2.861   2.636
 2372SOL    HW1 8015   6.126   2.896   2.640
 2372SOL    HW2 8016   6.221   2.766   2.668
 2373SOL     OW 8017   2.248   3.582   6.447
 2373SOL    HW1 8018   2.256   3.640   6.366
 2373SOL    HW2 8019   2.151   3.568   6.469
 2374SOL     OW 8020   5.515   2.457   4.716
 2374SOL    HW1 8021   5.560   2.425   4.799
 2374SOL    HW2 8022   5.577   2.517   4.665
 2375SOL     OW 8023   1.750   6.963   6.080
 2375SOL    HW1 8024   1.715   6.980   5.987
 2375SOL    HW2 8025   1.716   0.018   6.141
 2376SOL     OW 8026   6.844   2.506   4.230
 2376SOL    HW1 8027   6.921   2.568   4.245
 2376SOL    HW2 8028   6.846   2.473   4.136
 2377SOL     OW 8029   3.305   2.916   4.084
 2377SOL    HW1 8030   3.322   2.924   3.986
 2377SOL    HW2 8031   3.350   2.834   4.119
 2378SOL     OW 8032   5.321   2.439   0.853
 2378SOL    HW1 8033   5.300   2.354   0.902
 2378SOL    HW2 8034   5.247   2.458   0.788
 2379SOL     OW 8035   6.818   6.860   6.440
 2379SOL    HW1 8036   6.780   6.791   6.379
 2379SOL    HW2 8037   6.886   6.818   6.500
 2380SOL     OW 8038   6.252   2.041   2.669
 2380SOL    HW1 8039   6.268   1.963   2.731
 2380SOL    HW2 8040   6.160   2.077   2.684
 2381SOL     OW 8041   1.925   6.049   2.618
 2381SOL    HW1 8042   1.862   6.094   2.681
 2381SOL    HW2 8043   2.016   6.044   2.659
 2382SOL     OW 8044   1.604   3.223   5.685
 2382SOL    HW1 8045   1.589   3.158   5.610
 2382SOL    HW2 8046   1.588   3.177   5.773
 2383SOL     OW 8047   5.771   5.678   2.324
 2383SOL    HW1 8048   5.842   5.646   2.386
 2383SOL    HW2 8049   5.795   5.767   2.287
 2384SOL     OW 8050   4.014   0.981   1.527
 2384SOL    HW1 8051   4.095   0.926   1.507
 2384SOL    HW2 8052   3.997   1.044   1.451
 2385SOL     OW 8053   1.676   2.620   0.043
 2385SOL    HW1 8054   1.732   2.677   7.000
 2385SOL    HW2 8055   1.687   2.524   0.018
 2386SOL     OW 8056   4.562   5.003   4.153
 2386SOL    HW1 8057   4.481   5.027   4.207
 2386SOL    HW2 8058   4.594   4.913   4.180
 2387SOL     OW 8059   1.375   1.435   3.115
 2387SOL    HW1 8060   1.367   1.534   3.126
 2387SOL    HW2 8061   1.371   1.392   3.205
 2388SOL     OW 8062   0.186   1.763   4.179
 2388SOL    HW1 8063   0.254   1.719   4.121
 2388SOL    HW2 8064   0.200   1.735   4.274
 2389SOL     OW 8065   3.696   6.644   2.531
 2389SOL    HW1 8066   3.645   6.592   2.462
 2389SOL    HW2 8067   3.647   6.642   2.618
 2390SOL     OW 8068   3.086   4.742   1.034
 2390SOL    HW1 8069   3.168   4.771   0.984
 2390SOL    HW2 8070   3.100   4.754   1.132
 2391SOL     OW 8071   4.142   5.365   4.948
 2391SOL    HW1 8072   4.108   5.457   4.970
 2391SOL    HW2 8073   4.217   5.342   5.010
 2392SOL     OW 8074   3.773   1.289   6.938
 2392SOL    HW1 8075   3.795   1.193   6.922
 2392SOL    HW2 8076   3.676   1.305   6.920
 2393SOL     OW 8077   3.692   5.098   4.774
 2393SOL    HW1 8078   3.628   5.068   4.845
 2393SOL    HW2 8079   3.784   5.066   4.798
 2394SOL     OW 8080   6.993   4.687   5.583
 2394SOL    HW1 8081   0.056   4.739   5.613
 2394SOL    HW2 8082   7.005   4.658   5.488
 2395SOL     OW 8083   4.528   6.746   6.470
 2395SOL    HW1 8084   4.596   6.815   6.443
 2395SOL    HW2 8085   4.442   6.764   6.422
 2396SOL     OW 8086   2.769   5.367   0.889
 2396SOL    HW1 8087   2.701   5.344   0.958
 2396SOL    HW2 8088   2.841   5.423   0.931
 2397SOL     OW 8089   0.526   3.600   4.735
 2397SOL    HW1 8090   0.590   3.661   4.689
 2397SOL    HW2 8091   0.573   3.549   4.806
 2398SOL     OW 8092   4.753   3.652   5.421
 2398SOL    HW1 8093   4.720   3.744   5.443
 2398SOL    HW2 8094   4.729   3.630   5.326
 2399SOL     OW 8095   4.312   2.468   1.400
 2399SOL    HW1 8096   4.245   2.537   1.427
 2399SOL    HW2 8097   4.269   2.377   1.405
 2400SOL     OW 8098   1.971   5.081   6.992
 2400SOL    HW1 8099   1.903   5.134   0.025
 2400SOL    HW2 8100   1.979   5.117   6.898
 2401SOL     OW 8101   6.421   5.930   6.539
 2401SOL    HW1 8102   6.336   5.877   6.538
 2401SOL    HW2 8103   6.420   5.997   6.464
 2402SOL     OW 8104   6.886   6.743   4.269
 2402SOL    HW1 8105   6.958   6.693   4.222
 2402SOL    HW2 8106   6.832   6.794   4.203
 2403SOL     OW 8107   0.891   1.328   4.408
 2403SOL    HW1 8108   0.959   1.296   4.342
 2403SOL    HW2 8109   0.831   1.394   4.364
 2404SOL     OW 8110   1.188   0.441   0.051
 2404SOL    HW1 8111   1.210   0.343   0.054
 2404SOL    HW2 8112   1.247   0.487   7.002
 2405SOL     OW 8113   2.911   4.565   1.328
 2405SOL    HW1 8114   2.879   4.593   1.418
 2405SOL    HW2 8115   2.842   4.508   1.284
 2406SOL     OW 8116   5.037   1.137   1.432
 2406SOL    HW1 8117   5.037   1.043   1.466
 2406SOL    HW2 8118   4.950   1.156   1.387
 2407SOL     OW 8119   5.360   6.916   3.568
 2407SOL    HW1 8120   5.381   7.012   3.583
 2407SOL    HW2 8121   5.261   6.906   3.554
 2408SOL     OW 8122   4.456   4.783   2.117
 2408SOL    HW1 8123   4.473   4.693   2.158
 2408SOL    HW2 8124   4.506   4.853   2.169
 2409SOL     OW 8125   1.138   4.522   0.514
 2409SOL    HW1 8126   1.140   4.496   0.418
 2409SOL    HW2 8127   1.060   4.583   0.531
 2410SOL     OW 8128   3.762   2.899   2.815
 2410SOL    HW1 8129   3.842   2.956   2.833
 2410SOL    HW2 8130   3.768   2.861   2.723
 2411SOL     OW 8131   4.204   0.663   4.529
 2411SOL    HW1 8132   4.153   0.602   4.469
 2411SOL    HW2 8133   4.140   0.729   4.570
 2412SOL     OW 8134   4.231   3.898   1.207
 2412SOL    HW1 8135   4.323   3.938   1.200
 2412SOL    HW2 8136   4.167   3.967   1.241
 2413SOL     OW 8137   4.134   0.325   3.214
 2413SOL    HW1 8138   4.212   0.379   3.246
 2413SOL    HW2 8139   4.136   0.235   3.259
 2414SOL     OW 8140   5.288   2.974   4.191
 2414SOL    HW1 8141   5.231   2.994   4.270
 2414SOL    HW2 8142   5.247   3.015   4.109
 2415SOL     OW 8143   4.481   0.533   3.566
 2415SOL    HW1 8144   4.488   0.608   3.501
 2415SOL    HW2 8145   4.544   0.548   3.642
 2416SOL     OW 8146   5.518   1.733   6.565
 2416SOL    HW1 8147   5.522   1.799   6.640
 2416SOL    HW2 8148   5.534   1.781   6.478
 2417SOL     OW 8149   3.383   3.998   5.248
 2417SOL    HW1 8150   3.433   4.056   5.313
 2417SOL    HW2 8151   3.439   3.918   5.225
 2418SOL     OW 8152   2.958   3.403   2.431
 2418SOL    HW1 8153   3.057   3.398   2.443
 2418SOL    HW2 8154   2.930   3.338   2.360
 2419SOL     OW 8155   6.662   0.805   3.784
 2419SOL    HW1 8156   6.615   0.796   3.697
 2419SOL    HW2 8157   6.601   0.777   3.858
 2420SOL     OW 8158   2.299   0.061   1.896
 2420SOL    HW1 8159   2.265   0.155   1.905
 2420SOL    HW2 8160   2.386   0.061   1.847
 2421SOL     OW 8161   3.566   2.117   3.062
 2421SOL    HW1 8162   3.635   2.180   3.099
 2421SOL    HW2 8163   3.586   2.099   2.966
 2422SOL     OW 8164   5.216   1.572   1.029
 2422SOL    HW1 8165   5.229   1.477   1.055
 2422SOL    HW2 8166   5.235   1.584   0.931
 2423SOL     OW 8167   1.644   4.821   2.469
 2423SOL    HW1 8168   1.718   4.862   2.415
 2423SOL    HW2 8169   1.562   4.877   2.462
 2424SOL     OW 8170   6.665   0.221   0.388
 2424SOL    HW1 8171   6.597   0.204   0.316
 2424SOL    HW2 8172   6.654   0.153   0.461
 2425SOL     OW 8173   0.049   0.004   4.597
 2425SOL    HW1 8174   6.992   0.067   4.621
 2425SOL    HW2 8175   0.078   0.021   4.503
 2426SOL     OW 8176   2.125   5.442   4.516
 2426SOL    HW1 8177   2.148   5.345   4.511
 2426SOL    HW2 8178   2.155   5.488   4.433
 2427SOL     OW 8179   6.455   0.409   5.805
 2427SOL    HW1 8180   6.451   0.351   5.887
 2427SOL    HW2 8181   6.550   0.416   5.774
 2428SOL     OW 8182   5.438   1.523   0.205
 2428SOL    HW1 8183   5.462   1.438   0.253
 2428SOL    HW2 8184   5.521   1.579   0.193
 2429SOL     OW 8185   4.812   5.058   2.651
 2429SOL    HW1 8186   4.783   5.146   2.613
 2429SOL    HW2 8187   4.740   4.990   2.637
 2430SOL     OW 8188   4.471   6.926   2.686
 2430SOL    HW1 8189   4.510   6.916   2.595
 2430SOL    HW2 8190   4.529   6.881   2.753
 2431SOL     OW 8191   4.383   6.726   2.307
 2431SOL    HW1 8192   4.363   6.824   2.317
 2431SOL    HW2 8193   4.415   6.708   2.214
 2432SOL     OW 8194   2.408   5.903   2.211
 2432SOL    HW1 8195   2.501   5.892   2.176
 2432SOL    HW2 8196   2.362   5.814   2.212
 2433SOL     OW 8197   5.105   7.012   0.452
 2433SOL    HW1 8198   5.059   6.929   0.484
 2433SOL    HW2 8199   5.196   0.000   0.492
 2434SOL     OW 8200   3.129   3.063   4.552
 2434SOL    HW1 8201   3.193   3.032   4.482
 2434SOL    HW2 8202   3.073   3.137   4.516
 2435SOL     OW 8203   5.791   5.892   6.256
 2435SOL    HW1 8204   5.810   5.796   6.237
 2435SOL    HW2 8205   5.874   5.938   6.286
 2436SOL     OW 8206   2.881   4.503   0.806
 2436SOL    HW1 8207   2.964   4.525   0.858
 2436SOL    HW2 8208   2.825   4.585   0.798
 2437SOL     OW 8209   0.154   0.871   5.831
 2437SOL    HW1 8210   0.082   0.801   5.826
 2437SOL    HW2 8211   0.227   0.848   5.766
 2438SOL     OW 8212   3.644   3.490   0.701
 2438SOL    HW1 8213   3.620   3.393   0.710
 2438SOL    HW2 8214   3.568   3.538   0.657
 2439SOL     OW 8215   6.168   4.526   5.986
 2439SOL    HW1 8216   6.222   4.518   6.070
 2439SOL    HW2 8217   6.116   4.611   5.988
 2440SOL     OW 8218   6.092   5.323   5.767
 2440SOL    HW1 8219   6.027   5.349   5.695
 2440SOL    HW2 8220   6.172   5.279   5.726
 2441SOL     OW 8221   6.451   1.760   0.572
 2441SOL    HW1 8222   6.440   1.831   0.641
 2441SOL    HW2 8223   6.411   1.675   0.604
 2442SOL     OW 8224   6.414   2.135   4.311
 2442SOL    HW1 8225   6.342   2.130   4.381
 2442SOL    HW2 8226   6.437   2.043   4.281
 2443SOL     OW 8227   2.753   4.719   5.563
 2443SOL    HW1 8228   2.815   4.642   5.545
 2443SOL    HW2 8229   2.771   4.792   5.498
 2444SOL     OW 8230   3.746   2.327   5.855
 2444SOL    HW1 8231   3.729   2.245   5.909
 2444SOL    HW2 8232   3.809   2.387   5.904
 2445SOL     OW 8233   1.206   0.222   0.967
 2445SOL    HW1 8234   1.302   0.234   0.944
 2445SOL    HW2 8235   1.191   0.244   1.063
 2446SOL     OW 8236   4.693   3.068   6.550
 2446SOL    HW1 8237   4.676   3.048   6.646
 2446SOL    HW2 8238   4.606   3.070   6.500
 2447SOL     OW 8239   1.350   3.915   6.591
 2447SOL    HW1 8240   1.344   3.826   6.547
 2447SOL    HW2 8241   1.288   3.919   6.668
 2448SOL     OW 8242   6.776   0.711   4.872
 2448SOL    HW1 8243   6.865   0.742   4.837
 2448SOL    HW2 8244   6.783   0.692   4.969
 2449SOL     OW 8245   6.905   3.087   5.614
 2449SOL    HW1 8246   6.826   3.114   5.668
 2449SOL    HW2 8247   6.942   3.001   5.648
 2450SOL     OW 8248   2.303   3.521   1.419
 2450SOL    HW1 8249   2.317   3.590   1.348
 2450SOL    HW2 8250   2.322   3.561   1.509
 2451SOL     OW 8251   1.844   5.800   3.710
 2451SOL    HW1 8252   1.902   5.869   3.752
 2451SOL    HW2 8253   1.777   5.844   3.649
 2452SOL     OW 8254   2.529   1.827   4.805
 2452SOL    HW1 8255   2.567   1.917   4.782
 2452SOL    HW2 8256   2.578   1.756   4.755
 2453SOL     OW 8257   0.125   4.269   0.943
 2453SOL    HW1 8258   0.175   4.230   1.020
 2453SOL    HW2 8259   0.081   4.354   0.971
 2454SOL     OW 8260   1.037   6.779   2.175
 2454SOL    HW1 8261   1.045   6.680   2.185
 2454SOL    HW2 8262   0.989   6.800   2.090
 2455SOL     OW 8263   5.497   3.595   1.233
 2455SOL    HW1 8264   5.505   3.611   1.331
 2455SOL    HW2 8265   5.582   3.553   1.199
 2456SOL     OW 8266   2.835   6.608   1.437
 2456SOL    HW1 8267   2.855   6.515   1.468
 2456SOL    HW2 8268   2.867   6.674   1.506
 2457SOL     OW 8269   5.520   5.781   0.953
 2457SOL    HW1 8270   5.546   5.742   1.041
 2457SOL    HW2 8271   5.440   5.840   0.965
 2458SOL     OW 8272   0.642   6.401   1.705
 2458SOL    HW1 8273   0.544   6.387   1.722
 2458SOL    HW2 8274   0.680   6.320   1.661
 2459SOL     OW 8275   1.387   2.225   0.287
 2459SOL    HW1 8276   1.330   2.201   0.365
 2459SOL    HW2 8277   1.469   2.168   0.286
 2460SOL     OW 8278   2.106   4.509   0.924
 2460SOL    HW1 8279   2.127   4.548   1.013
 2460SOL    HW2 8280   2.178   4.533   0.859
 2461SOL     OW 8281   4.515   1.449   3.022
 2461SOL    HW1 8282   4.469   1.527   3.064
 2461SOL    HW2 8283   4.598   1.428   3.074
 2462SOL     OW 8284   3.063   4.146   6.250
 2462SOL    HW1 8285   3.032   4.203   6.174
 2462SOL    HW2 8286   3.010   4.061   6.252
 2463SOL     OW 8287   0.927   2.943   5.222
 2463SOL    HW1 8288   1.004   2.879   5.214
 2463SOL    HW2 8289   0.930   2.988   5.311
 2464SOL     OW 8290   1.391   3.580   0.665
 2464SOL    HW1 8291   1.440   3.624   0.740
 2464SOL    HW2 8292   1.355   3.650   0.603
 2465SOL     OW 8293   6.016   4.035   2.777
 2465SOL    HW1 8294   6.050   3.962   2.837
 2465SOL    HW2 8295   6.024   4.005   2.681
 2466SOL     OW 8296   3.836   1.517   1.636
 2466SOL    HW1 8297   3.887   1.433   1.618
 2466SOL    HW2 8298   3.900   1.591   1.659
 2467SOL     OW 8299   0.651   1.365   4.598
 2467SOL    HW1 8300   0.581   1.432   4.572
 2467SOL    HW2 8301   0.733   1.378   4.543
 2468SOL     OW 8302   6.203   5.329   6.257
 2468SOL    HW1 8303   6.210   5.254   6.192
 2468SOL    HW2 8304   6.275   5.321   6.326
 2469SOL     OW 8305   2.599   2.269   6.065
 2469SOL    HW1 8306   2.645   2.180   6.055
 2469SOL    HW2 8307   2.650   2.338   6.014
 2470SOL     OW 8308   5.312   2.752   1.208
 2470SOL    HW1 8309   5.381   2.822   1.190
 2470SOL    HW2 8310   5.318   2.680   1.140
 2471SOL     OW 8311   0.122   1.334   2.919
 2471SOL    HW1 8312   0.067   1.409   2.883
 2471SOL    HW2 8313   0.065   1.252   2.925
 2472SOL     OW 8314   6.491   0.753   3.977
 2472SOL    HW1 8315   6.431   0.675   3.960
 2472SOL    HW2 8316   6.538   0.741   4.064
 2473SOL     OW 8317   0.819   5.921   5.083
 2473SOL    HW1 8318   0.757   5.950   5.010
 2473SOL    HW2 8319   0.778   5.942   5.172
 2474SOL     OW 8320   5.762   6.761   4.648
 2474SOL    HW1 8321   5.824   6.692   4.686
 2474SOL    HW2 8322   5.811   6.815   4.580
 2475SOL     OW 8323   3.469   2.533   6.129
 2475SOL    HW1 8324   3.423   2.589   6.060
 2475SOL    HW2 8325   3.534   2.590   6.180
 2476SOL     OW 8326   0.910   1.322   3.280
 2476SOL    HW1 8327   0.819   1.363   3.268
 2476SOL    HW2 8328   0.920   1.293   3.375
 2477SOL     OW 8329   4.478   4.523   2.161
 2477SOL    HW1 8330   4.477   4.432   2.120
 2477SOL    HW2 8331   4.537   4.522   2.242
 2478SOL     OW 8332   6.667   0.420   2.652
 2478SOL    HW1 8333   6.755   0.467   2.652
 2478SOL    HW2 8334   6.632   0.412   2.745
 2479SOL     OW 8335   1.338   3.191   0.332
 2479SOL    HW1 8336   1.394   3.139   0.268
 2479SOL    HW2 8337   1.389   3.270   0.364
 2480SOL     OW 8338   6.541   4.935   1.350
 2480SOL    HW1 8339   6.630   4.906   1.314
 2480SOL    HW2 8340   6.508   5.014   1.297
 2481SOL     OW 8341   4.221   4.677   2.495
 2481SOL    HW1 8342   4.308   4.627   2.498
 2481SOL    HW2 8343   4.145   4.614   2.512
 2482SOL     OW 8344   4.335   2.320   4.487
 2482SOL    HW1 8345   4.340   2.347   4.583
 2482SOL    HW2 8346   4.428   2.310   4.451
 2483SOL     OW 8347   0.883   3.509   0.172
 2483SOL    HW1 8348   0.848   3.589   0.221
 2483SOL    HW2 8349   0.918   3.537   0.083
 2484SOL     OW 8350   3.531   4.498   5.699
 2484SOL    HW1 8351   3.481   4.436   5.640
 2484SOL    HW2 8352   3.467   4.547   5.759
 2485SOL     OW 8353   0.709   5.073   0.065
 2485SOL    HW1 8354   0.619   5.042   0.033
 2485SOL    HW2 8355   0.762   5.105   7.003
 2486SOL     OW 8356   0.893   4.815   3.703
 2486SOL    HW1 8357   0.973   4.854   3.657
 2486SOL    HW2 8358   0.870   4.870   3.782
 2487SOL     OW 8359   2.925   1.346   1.133
 2487SOL    HW1 8360   2.864   1.294   1.073
 2487SOL    HW2 8361   2.873   1.413   1.184
 2488SOL     OW 8362   2.701   5.472   6.816
 2488SOL    HW1 8363   2.724   5.557   6.769
 2488SOL    HW2 8364   2.641   5.491   6.893
 2489SOL     OW 8365   6.653   5.567   4.325
 2489SOL    HW1 8366   6.586   5.629   4.365
 2489SOL    HW2 8367   6.709   5.616   4.258
 2490SOL     OW 8368   5.674   2.699   1.069
 2490SOL    HW1 8369   5.674   2.799   1.067
 2490SOL    HW2 8370   5.581   2.666   1.051
 2491SOL     OW 8371   6.438   4.111   2.800
 2491SOL    HW1 8372   6.397   4.068   2.720
 2491SOL    HW2 8373   6.378   4.183   2.834
 2492SOL     OW 8374   3.693   2.124   6.863
 2492SOL    HW1 8375   3.746   2.177   6.797
 2492SOL    HW2 8376   3.742   2.039   6.884
 2493SOL     OW 8377   6.815   0.819   5.681
 2493SOL    HW1 8378   6.803   0.740   5.742
 2493SOL    HW2 8379   6.726   0.860   5.661
 2494SOL     OW 8380   5.349   5.173   0.578
 2494SOL    HW1 8381   5.381   5.089   0.622
 2494SOL    HW2 8382   5.252   5.186   0.596
 2495SOL     OW 8383   6.823   1.219   2.274
 2495SOL    HW1 8384   6.766   1.142   2.300
 2495SOL    HW2 8385   6.893   1.189   2.209
 2496SOL     OW 8386   1.949   4.692   0.618
 2496SOL    HW1 8387   1.907   4.749   0.689
 2496SOL    HW2 8388   1.980   4.751   0.543
 2497SOL     OW 8389   6.069   1.129   6.497
 2497SOL    HW1 8390   6.011   1.206   6.524
 2497SOL    HW2 8391   6.114   1.151   6.410
 2498SOL     OW 8392   1.052   3.178   4.589
 2498SOL    HW1 8393   1.067   3.217   4.680
 2498SOL    HW2 8394   0.956   3.153   4.579
 2499SOL     OW 8395   5.151   0.522   6.890
 2499SOL    HW1 8396   5.072   0.483   6.842
 2499SOL    HW2 8397   5.129   0.614   6.921
 2500SOL     OW 8398   5.135   3.134   5.764
 2500SOL    HW1 8399   5.082   3.191   5.701
 2500SOL    HW2 8400   5.231   3.135   5.737
 2501SOL     OW 8401   6.524   4.827   0.860
 2501SOL    HW1 8402   6.525   4.743   0.805
 2501SOL    HW2 8403   6.583   4.816   0.940
 2502SOL     OW 8404   1.260   6.755   3.079
 2502SOL    HW1 8405   1.194   6.729   3.149
 2502SOL    HW2 8406   1.297   6.845   3.099
 2503SOL     OW 8407   5.420   6.268   3.720
 2503SOL    HW1 8408   5.348   6.337   3.720
 2503SOL    HW2 8409   5.452   6.252   3.813
 2504SOL     OW 8410   2.735   4.878   3.271
 2504SOL    HW1 8411   2.716   4.834   3.183
 2504SOL    HW2 8412   2.652   4.878   3.327
 2505SOL     OW 8413   5.176   4.028   4.423
 2505SOL    HW1 8414   5.086   3.987   4.409
 2505SOL    HW2 8415   5.245   3.955   4.431
 2506SOL     OW 8416   1.210   1.694   0.252
 2506SOL    HW1 8417   1.261   1.771   0.291
 2506SOL    HW2 8418   1.236   1.682   0.156
 2507SOL     OW 8419   0.008   5.977   0.477
 2507SOL    HW1 8420   6.956   5.948   0.411
 2507SOL    HW2 8421   0.088   5.918   0.470
 2508SOL     OW 8422   1.742   1.725   1.427
 2508SOL    HW1 8423   1.779   1.773   1.347
 2508SOL    HW2 8424   1.670   1.662   1.397
 2509SOL     OW 8425   5.843   6.779   3.854
 2509SOL    HW1 8426   5.799   6.770   3.764
 2509SOL    HW2 8427   5.941   6.791   3.842
 2510SOL     OW 8428   3.580   5.866   2.704
 2510SOL    HW1 8429   3.502   5.884   2.764
 2510SOL    HW2 8430   3.563   5.906   2.614
 2511SOL     OW 8431   0.776   5.290   4.319
 2511SOL    HW1 8432   0.687   5.258   4.286
 2511SOL    HW2 8433   0.763   5.349   4.398
 2512SOL     OW 8434   6.251   2.984   4.514
 2512SOL    HW1 8435   6.252   2.943   4.422
 2512SOL    HW2 8436   6.232   3.082   4.507
 2513SOL     OW 8437   0.326   5.172   1.231
 2513SOL    HW1 8438   0.408   5.218   1.198
 2513SOL    HW2 8439   0.270   5.237   1.283
 2514SOL     OW 8440   0.054   2.032   4.514
 2514SOL    HW1 8441   0.083   2.097   4.445
 2514SOL    HW2 8442   0.134   1.992   4.559
 2515SOL     OW 8443   0.698   4.981   6.305
 2515SOL    HW1 8444   0.730   5.002   6.397
 2515SOL    HW2 8445   0.740   5.043   6.239
 2516SOL     OW 8446   4.376   6.951   4.726
 2516SOL    HW1 8447   4.409   6.999   4.807
 2516SOL    HW2 8448   4.452   6.902   4.684
 2517SOL     OW 8449   2.784   5.774   0.418
 2517SOL    HW1 8450   2.799   5.838   0.493
 2517SOL    HW2 8451   2.871   5.739   0.386
 2518SOL     OW 8452   1.872   2.002   0.015
 2518SOL    HW1 8453   1.937   2.049   6.973
 2518SOL    HW2 8454   1.920   1.940   0.076
 2519SOL     OW 8455   6.252   4.304   4.606
 2519SOL    HW1 8456   6.286   4.235   4.543
 2519SOL    HW2 8457   6.329   4.353   4.647
 2520SOL     OW 8458   3.987   5.780   0.948
 2520SOL    HW1 8459   4.054   5.791   1.022
 2520SOL    HW2 8460   4.026   5.722   0.877
 2521SOL     OW 8461   5.645   6.453   5.527
 2521SOL    HW1 8462   5.622   6.443   5.430
 2521SOL    HW2 8463   5.560   6.456   5.580
 2522SOL     OW 8464   2.711   5.136   5.060
 2522SOL    HW1 8465   2.754   5.128   4.971
 2522SOL    HW2 8466   2.732   5.055   5.115
 2523SOL     OW 8467   0.693   2.157   6.797
 2523SOL    HW1 8468   0.740   2.135   6.711
 2523SOL    HW2 8469   0.737   2.108   6.872
 2524SOL     OW 8470   1.769   0.122   4.296
 2524SOL    HW1 8471   1.840   0.119   4.368
 2524SOL    HW2 8472   1.757   0.216   4.266
 2525SOL     OW 8473   2.896   4.754   2.328
 2525SOL    HW1 8474   2.838   4.674   2.310
 2525SOL    HW2 8475   2.867   4.830   2.270
 2526SOL     OW 8476   1.577   3.034   4.423
 2526SOL    HW1 8477   1.601   2.947   4.467
 2526SOL    HW2 8478   1.483   3.059   4.447
 2527SOL     OW 8479   0.082   6.847   3.934
 2527SOL    HW1 8480   0.045   6.794   4.011
 2527SOL    HW2 8481   0.099   6.786   3.857
 2528SOL     OW 8482   5.387   5.181   1.272
 2528SOL    HW1 8483   5.434   5.114   1.329
 2528SOL    HW2 8484   5.443   5.264   1.265
 2529SOL     OW 8485   5.112   4.776   4.754
 2529SOL    HW1 8486   5.194   4.829   4.773
 2529SOL    HW2 8487   5.126   4.681   4.782
 2530SOL     OW 8488   0.969   6.599   3.298
 2530SOL    HW1 8489   0.927   6.509   3.312
 2530SOL    HW2 8490   1.066   6.595   3.320
 2531SOL     OW 8491   5.388   2.470   6.185
 2531SOL    HW1 8492   5.345   2.407   6.120
 2531SOL    HW2 8493   5.487   2.461   6.181
 2532SOL     OW 8494   0.498   5.482   6.581
 2532SOL    HW1 8495   0.567   5.414   6.603
 2532SOL    HW2 8496   0.533   5.573   6.603
 2533SOL     OW 8497   5.591   0.874   4.219
 2533SOL    HW1 8498   5.674   0.902   4.267
 2533SOL    HW2 8499   5.531   0.825   4.282
 2534SOL     OW 8500   6.559   1.440   2.890
 2534SOL    HW1 8501   6.492   1.510   2.867
 2534SOL    HW2 8502   6.512   1.356   2.917
 2535SOL     OW 8503   3.275   1.186   1.846
 2535SOL    HW1 8504   3.266   1.275   1.890
 2535SOL    HW2 8505   3.336   1.194   1.767
 2536SOL     OW 8506   0.771   0.293   3.216
 2536SOL    HW1 8507   0.848   0.229   3.213
 2536SOL    HW2 8508   0.765   0.334   3.307
 2537SOL     OW 8509   2.012   6.271   2.165
 2537SOL    HW1 8510   2.060   6.191   2.128
 2537SOL    HW2 8511   2.069   6.314   2.235
 2538SOL     OW 8512   6.480   5.760   5.242
 2538SOL    HW1 8513   6.521   5.762   5.151
 2538SOL    HW2 8514   6.418   5.838   5.252
 2539SOL     OW 8515   1.082   0.138   5.422
 2539SOL    HW1 8516   1.178   0.119   5.443
 2539SOL    HW2 8517   1.027   0.123   5.504
 2540SOL     OW 8518   5.234   2.599   1.909
 2540SOL    HW1 8519   5.299   2.535   1.950
 2540SOL    HW2 8520   5.259   2.614   1.813
 2541SOL     OW 8521   1.718   1.015   0.329
 2541SOL    HW1 8522   1.624   0.982   0.346
 2541SOL    HW2 8523   1.748   0.983   0.239
 2542SOL     OW 8524   4.307   1.838   2.541
 2542SOL    HW1 8525   4.312   1.743   2.509
 2542SOL    HW2 8526   4.241   1.844   2.616
 2543SOL     OW 8527   5.836   6.245   5.117
 2543SOL    HW1 8528   5.761   6.181   5.130
 2543SOL    HW2 8529   5.879   6.264   5.206
 2544SOL     OW 8530   0.293   0.419   0.078
 2544SOL    HW1 8531   0.362   0.347   0.087
 2544SOL    HW2 8532   0.256   0.443   0.168
 2545SOL     OW 8533   0.428   1.584   0.559
 2545SOL    HW1 8534   0.419   1.658   0.493
 2545SOL    HW2 8535   0.492   1.515   0.524
 2546SOL     OW 8536   5.962   3.292   2.774
 2546SOL    HW1 8537   6.035   3.255   2.715
 2546SOL    HW2 8538   5.960   3.241   2.860
 2547SOL     OW 8539   5.713   3.946   0.877
 2547SOL    HW1 8540   5.708   4.010   0.800
 2547SOL    HW2 8541   5.809   3.933   0.902
 2548SOL     OW 8542   6.326   0.407   5.359
 2548SOL    HW1 8543   6.341   0.365   5.449
 2548SOL    HW2 8544   6.228   0.410   5.340
 2549SOL     OW 8545   2.635   4.186   6.835
 2549SOL    HW1 8546   2.720   4.228   6.867
 2549SOL    HW2 8547   2.655   4.119   6.764
 2550SOL     OW 8548   3.970   0.964   0.976
 2550SOL    HW1 8549   4.047   1.023   1.001
 2550SOL    HW2 8550   3.985   0.872   1.014
 2551SOL     OW 8551   2.696   4.691   1.114
 2551SOL    HW1 8552   2.734   4.607   1.153
 2551SOL    HW2 8553   2.696   4.685   1.014
 2552SOL     OW 8554   2.838   5.757   1.230
 2552SOL    HW1 8555   2.835   5.675   1.173
 2552SOL    HW2 8556   2.765   5.819   1.202
 2553SOL     OW 8557   4.216   1.855   1.293
 2553SOL    HW1 8558   4.298   1.903   1.262
 2553SOL    HW2 8559   4.241   1.764   1.325
 2554SOL     OW 8560   1.244   6.274   1.174
 2554SOL    HW1 8561   1.155   6.237   1.202
 2554SOL    HW2 8562   1.315   6.204   1.187
 2555SOL     OW 8563   0.524   6.433   4.504
 2555SOL    HW1 8564   0.466   6.359   4.536
 2555SOL    HW2 8565   0.595   6.451   4.572
 2556SOL     OW 8566   5.853   0.597   0.950
 2556SOL    HW1 8567   5.851   0.697   0.951
 2556SOL    HW2 8568   5.763   0.562   0.926
 2557SOL     OW 8569   2.502   1.263   0.008
 2557SOL    HW1 8570   2.514   1.165   0.029
 2557SOL    HW2 8571   2.551   1.318   0.075
 2558SOL     OW 8572   5.901   2.873   1.372
 2558SOL    HW1 8573   5.891   2.773   1.367
 2558SOL    HW2 8574   5.835   2.910   1.436
 2559SOL     OW 8575   6.774   5.738   3.415
 2559SOL    HW1 8576   6.774   5.742   3.316
 2559SOL    HW2 8577   6.703   5.675   3.447
 2560SOL     OW 8578   4.091   2.598   1.511
 2560SOL    HW1 8579   4.046   2.639   1.590
 2560SOL    HW2 8580   4.027   2.537   1.465
 2561SOL     OW 8581   3.625   0.667   4.713
 2561SOL    HW1 8582   3.574   0.752   4.725
 2561SOL    HW2 8583   3.716   0.677   4.753
 2562SOL     OW 8584   1.799   6.514   4.846
 2562SOL    HW1 8585   1.871   6.522   4.778
 2562SOL    HW2 8586   1.837   6.475   4.930
 2563SOL     OW 8587   4.513   2.465   0.010
 2563SOL    HW1 8588   4.457   2.547   0.001
 2563SOL    HW2 8589   4.467   2.399   0.069
 2564SOL     OW 8590   1.732   1.135   1.617
 2564SOL    HW1 8591   1.704   1.180   1.701
 2564SOL    HW2 8592   1.791   1.057   1.639
 2565SOL     OW 8593   6.867   0.039   0.764
 2565SOL    HW1 8594   6.853   0.138   0.772
 2565SOL    HW2 8595   6.964   0.021   0.746
 2566SOL     OW 8596   2.632   1.085   0.620
 2566SOL    HW1 8597   2.558   1.128   0.569
 2566SOL    HW2 8598   2.645   0.991   0.589
 2567SOL     OW 8599   1.972   1.090   5.910
 2567SOL    HW1 8600   1.996   1.175   5.865
 2567SOL    HW2 8601   2.036   1.074   5.986
 2568SOL     OW 8602   3.187   6.429   0.325
 2568SOL    HW1 8603   3.120   6.355   0.334
 2568SOL    HW2 8604   3.171   6.479   0.240
 2569SOL     OW 8605   2.816   6.492   6.909
 2569SOL    HW1 8606   2.817   6.515   7.007
 2569SOL    HW2 8607   2.745   6.424   6.892
 2570SOL     OW 8608   6.731   0.157   3.446
 2570SOL    HW1 8609   6.794   0.194   3.514
 2570SOL    HW2 8610   6.638   0.157   3.483
 2571SOL     OW 8611   3.651   3.555   2.463
 2571SOL    HW1 8612   3.660   3.548   2.363
 2571SOL    HW2 8613   3.597   3.636   2.486
 2572SOL     OW 8614   3.239   6.432   2.269
 2572SOL    HW1 8615   3.177   6.379   2.212
 2572SOL    HW2 8616   3.308   6.477   2.212
 2573SOL     OW 8617   5.995   0.610   2.976
 2573SOL    HW1 8618   6.080   0.564   2.949
 2573SOL    HW2 8619   5.928   0.541   3.005
 2574SOL     OW 8620   0.360   4.391   1.989
 2574SOL    HW1 8621   0.433   4.386   1.921
 2574SOL    HW2 8622   0.323   4.484   1.992
 2575SOL     OW 8623   4.461   3.550   5.376
 2575SOL    HW1 8624   4.516   3.563   5.293
 2575SOL    HW2 8625   4.493   3.469   5.425
 2576SOL     OW 8626   0.157   0.556   3.136
 2576SOL    HW1 8627   0.098   0.482   3.104
 2576SOL    HW2 8628   0.114   0.602   3.213
 2577SOL     OW 8629   1.478   4.623   0.862
 2577SOL    HW1 8630   1.535   4.576   0.930
 2577SOL    HW2 8631   1.523   4.709   0.835
 2578SOL     OW 8632   4.624   1.707   4.950
 2578SOL    HW1 8633   4.689   1.666   5.014
 2578SOL    HW2 8634   4.595   1.638   4.883
 2579SOL     OW 8635   6.967   1.911   6.466
 2579SOL    HW1 8636   6.981   1.828   6.411
 2579SOL    HW2 8637   6.919   1.887   6.550
 2580SOL     OW 8638   1.349   2.169   5.443
 2580SOL    HW1 8639   1.252   2.155   5.458
 2580SOL    HW2 8640   1.384   2.234   5.511
 2581SOL     OW 8641   4.533   6.237   4.098
 2581SOL    HW1 8642   4.510   6.329   4.064
 2581SOL    HW2 8643   4.454   6.197   4.143
 2582SOL     OW 8644   6.684   4.262   3.152
 2582SOL    HW1 8645   6.594   4.265   3.196
 2582SOL    HW2 8646   6.694   4.340   3.090
 2583SOL     OW 8647   2.541   1.006   0.061
 2583SOL    HW1 8648   2.552   0.971   6.984
 2583SOL    HW2 8649   2.598   0.952   0.123
 2584SOL     OW 8650   3.544   0.175   3.273
 2584SOL    HW1 8651   3.543   0.075   3.276
 2584SOL    HW2 8652   3.629   0.209   3.311
 2585SOL     OW 8653   3.803   0.697   2.686
 2585SOL    HW1 8654   3.857   0.658   2.761
 2585SOL    HW2 8655   3.853   0.686   2.601
 2586SOL     OW 8656   0.784   1.986   4.186
 2586SOL    HW1 8657   0.880   1.969   4.163
 2586SOL    HW2 8658   0.775   1.997   4.285
 2587SOL     OW 8659   6.125   4.171   3.540
 2587SOL    HW1 8660   6.113   4.191   3.638
 2587SOL    HW2 8661   6.059   4.223   3.487
 2588SOL     OW 8662   3.354   6.999   2.746
 2588SOL    HW1 8663   3.356   0.063   2.804
 2588SOL    HW2 8664   3.260   6.972   2.728
 2589SOL     OW 8665   4.194   6.636   1.909
 2589SOL    HW1 8666   4.198   6.547   1.863
 2589SOL    HW2 8667   4.272   6.644   1.971
 2590SOL     OW 8668   4.534   6.025   3.919
 2590SOL    HW1 8669   4.591   6.051   3.840
 2590SOL    HW2 8670   4.537   6.098   3.987
 2591SOL     OW 8671   6.202   0.737   1.060
 2591SOL    HW1 8672   6.159   0.819   1.022
 2591SOL    HW2 8673   6.191   0.661   0.996
 2592SOL     OW 8674   2.869   4.872   1.684
 2592SOL    HW1 8675   2.858   4.781   1.645
 2592SOL    HW2 8676   2.806   4.935   1.641
 2593SOL     OW 8677   2.298   6.968   4.233
 2593SOL    HW1 8678   2.267   0.031   4.285
 2593SOL    HW2 8679   2.396   6.977   4.215
 2594SOL     OW 8680   2.376   5.811   5.978
 2594SOL    HW1 8681   2.428   5.727   5.991
 2594SOL    HW2 8682   2.279   5.789   5.969
 2595SOL     OW 8683   6.727   3.065   5.027
 2595SOL    HW1 8684   6.818   3.086   5.062
 2595SOL    HW2 8685   6.728   3.070   4.927
 2596SOL     OW 8686   4.610   1.533   0.670
 2596SOL    HW1 8687   4.708   1.514   0.678
 2596SOL    HW2 8688   4.560   1.481   0.739
 2597SOL     OW 8689   2.383   2.304   6.463
 2597SOL    HW1 8690   2.312   2.237   6.445
 2597SOL    HW2 8691   2.347   2.377   6.521
 2598SOL     OW 8692   6.190   1.004   2.964
 2598SOL    HW1 8693   6.277   1.037   2.925
 2598SOL    HW2 8694   6.126   1.081   2.972
 2599SOL     OW 8695   4.934   5.490   6.219
 2599SOL    HW1 8696   5.028   5.482   6.251
 2599SOL    HW2 8697   4.898   5.580   6.244
 2600SOL     OW 8698   0.176   2.690   4.509
 2600SOL    HW1 8699   0.144   2.758   4.443
 2600SOL    HW2 8700   0.260   2.648   4.475
 2601SOL     OW 8701   4.159   4.539   5.368
 2601SOL    HW1 8702   4.185   4.479   5.292
 2601SOL    HW2 8703   4.082   4.499   5.418
 2602SOL     OW 8704   6.215   6.541   0.024
 2602SOL    HW1 8705   6.157   6.466   0.054
 2602SOL    HW2 8706   6.300   6.505   7.004
 2603SOL     OW 8707   1.664   1.815   0.089
 2603SOL    HW1 8708   1.713   1.901   0.070
 2603SOL    HW2 8709   1.629   1.777   0.004
 2604SOL     OW 8710   5.778   1.570   0.551
 2604SOL    HW1 8711   5.744   1.580   0.644
 2604SOL    HW2 8712   5.877   1.584   0.549
 2605SOL     OW 8713   5.589   2.405   5.333
 2605SOL    HW1 8714   5.541   2.388   5.247
 2605SOL    HW2 8715   5.675   2.453   5.314
 2606SOL     OW 8716   6.407   4.349   1.494
 2606SOL    HW1 8717   6.467   4.414   1.540
 2606SOL    HW2 8718   6.429   4.256   1.524
 2607SOL     OW 8719   0.503   1.109   3.477
 2607SOL    HW1 8720   0.499   1.157   3.564
 2607SOL    HW2 8721   0.427   1.139   3.419
 2608SOL     OW 8722   4.388   0.644   0.059
 2608SOL    HW1 8723   4.370   0.720   0.123
 2608SOL    HW2 8724   4.426   0.567   0.109
 2609SOL     OW 8725   0.676   4.185   3.686
 2609SOL    HW1 8726   0.700   4.261   3.625
 2609SOL    HW2 8727   0.742   4.180   3.760
 2610SOL     OW 8728   5.316   5.445   4.828
 2610SOL    HW1 8729   5.263   5.518   4.784
 2610SOL    HW2 8730   5.261   5.403   4.901
 2611SOL     OW 8731   2.635   6.275   2.018
 2611SOL    HW1 8732   2.552   6.269   2.073
 2611SOL    HW2 8733   2.614   6.318   1.930
 2612SOL     OW 8734   1.007   6.816   4.481
 2612SOL    HW1 8735   1.057   6.743   4.435
 2612SOL    HW2 8736   1.068   6.894   4.497
 2613SOL     OW 8737   4.132   1.562   0.167
 2613SOL    HW1 8738   4.165   1.637   0.110
 2613SOL    HW2 8739   4.150   1.582   0.263
 2614SOL     OW 8740   6.490   6.286   6.411
 2614SOL    HW1 8741   6.497   6.363   6.474
 2614SOL    HW2 8742   6.455   6.316   6.323
 2615SOL     OW 8743   0.160   3.890   1.338
 2615SOL    HW1 8744   0.133   3.864   1.430
 2615SOL    HW2 8745   0.093   3.856   1.272
 2616SOL     OW 8746   3.596   4.087   1.758
 2616SOL    HW1 8747   3.523   4.088   1.826
 2616SOL    HW2 8748   3.612   3.993   1.728
 2617SOL     OW 8749   2.958   6.612   1.198
 2617SOL    HW1 8750   2.915   6.589   1.286
 2617SOL    HW2 8751   2.954   6.711   1.183
 2618SOL     OW 8752   1.359   6.122   0.256
 2618SOL    HW1 8753   1.445   6.168   0.281
 2618SOL    HW2 8754   1.342   6.134   0.159
 2619SOL     OW 8755   6.440   0.947   2.139
 2619SOL    HW1 8756   6.353   0.911   2.107
 2619SOL    HW2 8757   6.505   0.873   2.150
 2620SOL     OW 8758   1.811   5.398   4.181
 2620SOL    HW1 8759   1.858   5.312   4.198
 2620SOL    HW2 8760   1.731   5.382   4.122
 2621SOL     OW 8761   1.732   5.694   4.178
 2621SOL    HW1 8762   1.761   5.599   4.182
 2621SOL    HW2 8763   1.674   5.708   4.097
 2622SOL     OW 8764   2.517   2.431   4.326
 2622SOL    HW1 8765   2.590   2.362   4.330
 2622SOL    HW2 8766   2.534   2.493   4.250
 2623SOL     OW 8767   2.902   6.899   5.697
 2623SOL    HW1 8768   2.875   6.868   5.788
 2623SOL    HW2 8769   2.947   6.824   5.649
 2624SOL     OW 8770   4.979   2.043   4.949
 2624SOL    HW1 8771   4.942   2.100   4.874
 2624SOL    HW2 8772   5.051   1.985   4.913
 2625SOL     OW 8773   2.311   6.961   6.329
 2625SOL    HW1 8774   2.281   6.991   6.238
 2625SOL    HW2 8775   2.231   6.933   6.382
 2626SOL     OW 8776   2.607   6.518   3.078
 2626SOL    HW1 8777   2.643   6.610   3.062
 2626SOL    HW2 8778   2.515   6.524   3.116
 2627SOL     OW 8779   0.570   0.374   4.913
 2627SOL    HW1 8780   0.491   0.409   4.962
 2627SOL    HW2 8781   0.622   0.451   4.875
 2628SOL     OW 8782   4.878   5.226   0.052
 2628SOL    HW1 8783   4.799   5.167   0.068
 2628SOL    HW2 8784   4.957   5.170   0.028
 2629SOL     OW 8785   2.705   3.681   1.646
 2629SOL    HW1 8786   2.690   3.603   1.707
 2629SOL    HW2 8787   2.786   3.664   1.590
 2630SOL     OW 8788   3.627   1.824   2.192
 2630SOL    HW1 8789   3.693   1.784   2.255
 2630SOL    HW2 8790   3.647   1.793   2.099
 2631SOL     OW 8791   3.138   6.518   4.472
 2631SOL    HW1 8792   3.200   6.568   4.411
 2631SOL    HW2 8793   3.044   6.528   4.439
 2632SOL     OW 8794   4.963   1.446   1.048
 2632SOL    HW1 8795   5.044   1.501   1.030
 2632SOL    HW2 8796   4.903   1.495   1.112
 2633SOL     OW 8797   0.126   2.403   0.260
 2633SOL    HW1 8798   0.027   2.389   0.252
 2633SOL    HW2 8799   0.168   2.401   0.169
 2634SOL     OW 8800   2.375   4.854   0.109
 2634SOL    HW1 8801   2.442   4.849   0.034
 2634SOL    HW2 8802   2.285   4.824   0.075
 2635SOL     OW 8803   6.644   4.218   3.585
 2635SOL    HW1 8804   6.573   4.181   3.645
 2635SOL    HW2 8805   6.619   4.200   3.490
 2636SOL     OW 8806   5.562   4.972   5.385
 2636SOL    HW1 8807   5.521   4.955   5.475
 2636SOL    HW2 8808   5.588   5.068   5.379
 2637SOL     OW 8809   5.209   5.564   2.101
 2637SOL    HW1 8810   5.180   5.478   2.143
 2637SOL    HW2 8811   5.306   5.558   2.076
 2638SOL     OW 8812   4.953   5.564   0.327
 2638SOL    HW1 8813   5.010   5.483   0.339
 2638SOL    HW2 8814   4.951   5.616   0.413
 2639SOL     OW 8815   6.688   0.520   0.032
 2639SOL    HW1 8816   6.740   0.488   0.111
 2639SOL    HW2 8817   6.608   0.572   0.064
 2640SOL     OW 8818   6.510   5.961   0.458
 2640SOL    HW1 8819   6.595   6.012   0.475
 2640SOL    HW2 8820   6.511   5.924   0.365
 2641SOL     OW 8821   6.992   5.677   1.416
 2641SOL    HW1 8822   6.893   5.677   1.429
 2641SOL    HW2 8823   7.014   5.712   1.325
 2642SOL     OW 8824   6.496   0.251   4.339
 2642SOL    HW1 8825   6.414   0.295   4.374
 2642SOL    HW2 8826   6.499   0.156   4.369
 2643SOL     OW 8827   1.757   0.579   2.192
 2643SOL    HW1 8828   1.718   0.596   2.283
 2643SOL    HW2 8829   1.856   0.582   2.198
 2644SOL     OW 8830   5.933   6.255   4.686
 2644SOL    HW1 8831   5.964   6.274   4.594
 2644SOL    HW2 8832   5.865   6.181   4.684
 2645SOL     OW 8833   5.135   5.603   6.591
 2645SOL    HW1 8834   5.216   5.658   6.573
 2645SOL    HW2 8835   5.155   5.536   6.663
 2646SOL     OW 8836   5.352   5.783   5.578
 2646SOL    HW1 8837   5.404   5.783   5.493
 2646SOL    HW2 8838   5.290   5.861   5.579
 2647SOL     OW 8839   3.417   4.415   0.397
 2647SOL    HW1 8840   3.370   4.331   0.368
 2647SOL    HW2 8841   3.400   4.430   0.494
 2648SOL     OW 8842   4.173   1.381   3.555
 2648SOL    HW1 8843   4.154   1.451   3.487
 2648SOL    HW2 8844   4.134   1.409   3.643
 2649SOL     OW 8845   2.984   3.966   5.051
 2649SOL    HW1 8846   2.897   3.926   5.079
 2649SOL    HW2 8847   2.990   3.964   4.951
 2650SOL     OW 8848   0.423   6.621   2.575
 2650SOL    HW1 8849   0.523   6.625   2.569
 2650SOL    HW2 8850   0.390   6.691   2.638
 2651SOL     OW 8851   1.532   0.072   2.837
 2651SOL    HW1 8852   1.522   7.013   2.773
 2651SOL    HW2 8853   1.481   0.151   2.805
 2652SOL     OW 8854   3.283   2.824   2.029
 2652SOL    HW1 8855   3.274   2.725   2.044
 2652SOL    HW2 8856   3.207   2.856   1.973
 2653SOL     OW 8857   6.063   6.647   1.289
 2653SOL    HW1 8858   6.059   6.646   1.189
 2653SOL    HW2 8859   5.982   6.601   1.326
 2654SOL     OW 8860   6.806   3.141   6.155
 2654SOL    HW1 8861   6.776   3.093   6.073
 2654SOL    HW2 8862   6.795   3.240   6.141
 2655SOL     OW 8863   5.838   4.778   4.248
 2655SOL    HW1 8864   5.778   4.707   4.287
 2655SOL    HW2 8865   5.817   4.866   4.289
 2656SOL     OW 8866   5.905   3.368   5.309
 2656SOL    HW1 8867   5.980   3.335   5.366
 2656SOL    HW2 8868   5.870   3.454   5.346
 2657SOL     OW 8869   4.070   2.171   5.534
 2657SOL    HW1 8870   4.088   2.222   5.618
 2657SOL    HW2 8871   4.048   2.236   5.460
 2658SOL     OW 8872   6.771   4.086   5.150
 2658SOL    HW1 8873   6.751   3.993   5.119
 2658SOL    HW2 8874   6.782   4.086   5.249
 2659SOL     OW 8875   6.504   1.196   3.887
 2659SOL    HW1 8876   6.500   1.287   3.928
 2659SOL    HW2 8877   6.412   1.165   3.865
 2660SOL     OW 8878   1.236   2.078   3.656
 2660SOL    HW1 8879   1.238   2.036   3.747
 2660SOL    HW2 8880   1.309   2.039   3.600
 2661SOL     OW 8881   3.565   6.853   3.639
 2661SOL    HW1 8882   3.488   6.910   3.608
 2661SOL    HW2 8883   3.616   6.820   3.560
 2662SOL     OW 8884   3.795   0.889   3.934
 2662SOL    HW1 8885   3.839   0.960   3.879
 2662SOL    HW2 8886   3.862   0.847   3.994
 2663SOL     OW 8887   0.730   3.888   3.068
 2663SOL    HW1 8888   0.783   3.831   3.005
 2663SOL    HW2 8889   0.633   3.883   3.044
 2664SOL     OW 8890   4.806   4.287   1.991
 2664SOL    HW1 8891   4.708   4.304   1.996
 2664SOL    HW2 8892   4.838   4.301   1.898
 2665SOL     OW 8893   4.711   0.838   5.150
 2665SOL    HW1 8894   4.644   0.911   5.165
 2665SOL    HW2 8895   4.803   0.877   5.154
 2666SOL     OW 8896   5.225   5.816   1.998
 2666SOL    HW1 8897   5.209   5.871   2.080
 2666SOL    HW2 8898   5.217   5.719   2.021
 2667SOL     OW 8899   2.070   4.470   2.454
 2667SOL    HW1 8900   1.997   4.421   2.502
 2667SOL    HW2 8901   2.136   4.405   2.417
 2668SOL     OW 8902   6.688   2.670   5.357
 2668SOL    HW1 8903   6.744   2.609   5.413
 2668SOL    HW2 8904   6.746   2.720   5.293
 2669SOL     OW 8905   3.664   5.979   4.780
 2669SOL    HW1 8906   3.613   6.045   4.835
 2669SOL    HW2 8907   3.748   6.022   4.746
 2670SOL     OW 8908   2.041   6.511   4.370
 2670SOL    HW1 8909   2.085   6.449   4.435
 2670SOL    HW2 8910   2.092   6.597   4.366
 2671SOL     OW 8911   3.232   3.742   6.991
 2671SOL    HW1 8912   3.285   3.798   0.037
 2671SOL    HW2 8913   3.171   3.801   6.937
 2672SOL     OW 8914   0.742   4.585   0.679
 2672SOL    HW1 8915   0.649   4.606   0.709
 2672SOL    HW2 8916   0.806   4.643   0.729
 2673SOL     OW 8917   3.895   1.927   2.994
 2673SOL    HW1 8918   3.824   1.902   3.061
 2673SOL    HW2 8919   3.935   1.844   2.956
 2674SOL     OW 8920   5.043   6.050   4.783
 2674SOL    HW1 8921   5.117   6.000   4.737
 2674SOL    HW2 8922   4.957   6.000   4.771
 2675SOL     OW 8923   0.342   5.010   5.616
 2675SOL    HW1 8924   0.333   5.100   5.659
 2675SOL    HW2 8925   0.430   5.004   5.569
 2676SOL     OW 8926   4.553   0.313   1.521
 2676SOL    HW1 8927   4.496   0.253   1.465
 2676SOL    HW2 8928   4.635   0.338   1.469
 2677SOL     OW 8929   2.442   4.818   1.830
 2677SOL    HW1 8930   2.524   4.778   1.789
 2677SOL    HW2 8931   2.458   4.836   1.927
 2678SOL     OW 8932   0.809   6.524   6.984
 2678SOL    HW1 8933   0.850   6.598   6.931
 2678SOL    HW2 8934   0.722   6.555   0.006
 2679SOL     OW 8935   2.140   5.061   1.471
 2679SOL    HW1 8936   2.174   5.049   1.565
 2679SOL    HW2 8937   2.108   5.155   1.459
 2680SOL     OW 8938   6.698   2.039   0.979
 2680SOL    HW1 8939   6.637   2.107   0.938
 2680SOL    HW2 8940   6.740   1.985   0.906
 2681SOL     OW 8941   1.756   2.264   1.937
 2681SOL    HW1 8942   1.821   2.192   1.913
 2681SOL    HW2 8943   1.676   2.258   1.878
 2682SOL     OW 8944   0.432   2.756   3.922
 2682SOL    HW1 8945   0.361   2.748   3.851
 2682SOL    HW2 8946   0.401   2.709   4.005
 2683SOL     OW 8947   1.775   0.065   0.785
 2683SOL    HW1 8948   1.814   6.990   0.788
 2683SOL    HW2 8949   1.684   0.061   0.745
 2684SOL     OW 8950   2.635   4.832   3.012
 2684SOL    HW1 8951   2.626   4.928   2.984
 2684SOL    HW2 8952   2.564   4.778   2.966
 2685SOL     OW 8953   5.192   4.419   5.871
 2685SOL    HW1 8954   5.235   4.439   5.783
 2685SOL    HW2 8955   5.118   4.353   5.858
 2686SOL     OW 8956   1.487   3.447   4.621
 2686SOL    HW1 8957   1.496   3.503   4.703
 2686SOL    HW2 8958   1.499   3.350   4.646
 2687SOL     OW 8959   4.678   4.990   3.099
 2687SOL    HW1 8960   4.591   4.946   3.076
 2687SOL    HW2 8961   4.751   4.947   3.045
 2688SOL     OW 8962   3.485   4.196   5.416
 2688SOL    HW1 8963   3.546   4.151   5.481
 2688SOL    HW2 8964   3.443   4.276   5.460
 2689SOL     OW 8965   6.032   1.881   3.877
 2689SOL    HW1 8966   6.026   1.808   3.945
 2689SOL    HW2 8967   6.109   1.941   3.899
 2690SOL     OW 8968   3.561   4.138   3.245
 2690SOL    HW1 8969   3.657   4.119   3.265
 2690SOL    HW2 8970   3.513   4.158   3.331
 2691SOL     OW 8971   1.274   5.894   1.349
 2691SOL    HW1 8972   1.200   5.953   1.383
 2691SOL    HW2 8973   1.353   5.900   1.411
 2692SOL     OW 8974   6.743   4.068   3.861
 2692SOL    HW1 8975   6.745   4.138   3.789
 2692SOL    HW2 8976   6.831   4.067   3.909
 2693SOL     OW 8977   2.038   3.910   2.582
 2693SOL    HW1 8978   2.056   3.879   2.489
 2693SOL    HW2 8979   1.961   3.859   2.620
 2694SOL     OW 8980   1.846   1.447   2.872
 2694SOL    HW1 8981   1.850   1.350   2.848
 2694SOL    HW2 8982   1.926   1.494   2.834
 2695SOL     OW 8983   4.164   2.276   1.892
 2695SOL    HW1 8984   4.229   2.340   1.851
 2695SOL    HW2 8985   4.072   2.293   1.857
 2696SOL     OW 8986   3.196   3.463   6.232
 2696SOL    HW1 8987   3.262   3.535   6.209
 2696SOL    HW2 8988   3.131   3.452   6.156
 2697SOL     OW 8989   2.324   0.919   5.242
 2697SOL    HW1 8990   2.346   0.981   5.317
 2697SOL    HW2 8991   2.224   0.912   5.233
 2698SOL     OW 8992   1.539   1.611   6.827
 2698SOL    HW1 8993   1.639   1.605   6.837
 2698SOL    HW2 8994   1.496   1.541   6.885
 2699SOL     OW 8995   1.262   4.938   4.021
 2699SOL    HW1 8996   1.181   4.940   4.079
 2699SOL    HW2 8997   1.251   4.870   3.949
 2700SOL     OW 8998   2.300   4.369   2.764
 2700SOL    HW1 8999   2.317   4.369   2.863
 2700SOL    HW2 9000   2.290   4.275   2.732
 2701SOL     OW 9001   2.056   0.943   5.125
 2701SOL    HW1 9002   2.025   0.935   5.219
 2701SOL    HW2 9003   1.999   0.885   5.066
 2702SOL     OW 9004   5.982   6.116   2.630
 2702SOL    HW1 9005   6.007   6.032   2.583
 2702SOL    HW2 9006   5.886   6.112   2.658
 2703SOL     OW 9007   2.174   2.654   2.336
 2703SOL    HW1 9008   2.232   2.690   2.409
 2703SOL    HW2 9009   2.116   2.581   2.372
 2704SOL     OW 9010   0.619   6.331   0.346
 2704SOL    HW1 9011   0.631   6.289   0.255
 2704SOL    HW2 9012   0.596   6.428   0.335
 2705SOL     OW 9013   0.314   3.236   2.766
 2705SOL    HW1 9014   0.285   3.322   2.724
 2705SOL    HW2 9015   0.244   3.166   2.749
 2706SOL     OW 9016   6.564   2.534   3.541
 2706SOL    HW1 9017   6.466   2.526   3.525
 2706SOL    HW2 9018   6.585   2.513   3.636
 2707SOL     OW 9019   3.522   0.996   0.022
 2707SOL    HW1 9020   3.505   1.003   0.120
 2707SOL    HW2 9021   3.492   1.080   6.994
 2708SOL     OW 9022   1.654   4.716   6.484
 2708SOL    HW1 9023   1.695   4.790   6.431
 2708SOL    HW2 9024   1.582   4.754   6.543
 2709SOL     OW 9025   3.823   0.108   1.590
 2709SOL    HW1 9026   3.897   0.170   1.614
 2709SOL    HW2 9027   3.770   0.147   1.515
 2710SOL     OW 9028   5.682   4.009   3.201
 2710SOL    HW1 9029   5.642   4.096   3.174
 2710SOL    HW2 9030   5.636   3.935   3.152
 2711SOL     OW 9031   0.759   6.490   2.037
 2711SOL    HW1 9032   0.848   6.526   2.064
 2711SOL    HW2 9033   0.739   6.518   1.943
 2712SOL     OW 9034   2.853   5.453   2.792
 2712SOL    HW1 9035   2.802   5.372   2.819
 2712SOL    HW2 9036   2.801   5.535   2.818
 2713SOL     OW 9037   2.275   2.861   5.612
 2713SOL    HW1 9038   2.214   2.940   5.617
 2713SOL    HW2 9039   2.324   2.864   5.525
 2714SOL     OW 9040   5.657   0.640   0.226
 2714SOL    HW1 9041   5.590   0.637   0.152
 2714SOL    HW2 9042   5.621   0.592   0.306
 2715SOL     OW 9043   5.835   0.358   0.304
 2715SOL    HW1 9044   5.784   0.289   0.355
 2715SOL    HW2 9045   5.784   0.444   0.304
 2716SOL     OW 9046   6.187   6.426   2.278
 2716SOL    HW1 9047   6.153   6.347   2.227
 2716SOL    HW2 9048   6.134   6.507   2.252
 2717SOL     OW 9049   0.578   6.909   3.203
 2717SOL    HW1 9050   0.668   6.882   3.237
 2717SOL    HW2 9051   0.588   6.986   3.141
 2718SOL     OW 9052   6.646   3.830   3.169
 2718SOL    HW1 9053   6.732   3.857   3.211
 2718SOL    HW2 9054   6.608   3.907   3.117
 2719SOL     OW 9055   4.464   4.612   3.090
 2719SOL    HW1 9056   4.402   4.613   3.012
 2719SOL    HW2 9057   4.411   4.630   3.174
 2720SOL     OW 9058   0.854   6.601   4.254
 2720SOL    HW1 9059   0.819   6.686   4.212
 2720SOL    HW2 9060   0.860   6.613   4.353
 2721SOL     OW 9061   4.926   6.222   3.034
 2721SOL    HW1 9062   4.869   6.296   3.071
 2721SOL    HW2 9063   4.950   6.243   2.939
 2722SOL     OW 9064   0.766   5.891   2.308
 2722SOL    HW1 9065   0.772   5.807   2.362
 2722SOL    HW2 9066   0.692   5.948   2.343
 2723SOL     OW 9067   1.907   2.369   4.192
 2723SOL    HW1 9068   1.823   2.314   4.186
 2723SOL    HW2 9069   1.886   2.464   4.168
 2724SOL     OW 9070   4.750   5.701   5.902
 2724SOL    HW1 9071   4.775   5.750   5.818
 2724SOL    HW2 9072   4.803   5.736   5.978
 2725SOL     OW 9073   2.137   4.745   2.999
 2725SOL    HW1 9074   2.107   4.651   3.013
 2725SOL    HW2 9075   2.228   4.746   2.957
 2726SOL     OW 9076   3.865   6.175   2.820
 2726SOL    HW1 9077   3.804   6.180   2.741
 2726SOL    HW2 9078   3.946   6.230   2.803
 2727SOL     OW 9079   2.193   5.512   4.251
 2727SOL    HW1 9080   2.198   5.419   4.216
 2727SOL    HW2 9081   2.190   5.576   4.174
 2728SOL     OW 9082   2.145   6.770   5.608
 2728SOL    HW1 9083   2.100   6.686   5.640
 2728SOL    HW2 9084   2.220   6.793   5.670
 2729SOL     OW 9085   0.190   4.357   2.404
 2729SOL    HW1 9086   0.199   4.457   2.410
 2729SOL    HW2 9087   0.136   4.324   2.481
 2730SOL     OW 9088   1.555   3.522   1.558
 2730SOL    HW1 9089   1.487   3.573   1.505
 2730SOL    HW2 9090   1.522   3.428   1.571
 2731SOL     OW 9091   2.340   3.223   0.206
 2731SOL    HW1 9092   2.397   3.142   0.199
 2731SOL    HW2 9093   2.248   3.197   0.235
 2732SOL     OW 9094   6.144   3.310   4.479
 2732SOL    HW1 9095   6.082   3.384   4.454
 2732SOL    HW2 9096   6.127   3.283   4.574
 2733SOL     OW 9097   2.222   0.304   0.279
 2733SOL    HW1 9098   2.177   0.335   0.195
 2733SOL    HW2 9099   2.224   0.379   0.345
 2734SOL     OW 9100   1.864   7.016   3.955
 2734SOL    HW1 9101   1.828   6.923   3.947
 2734SOL    HW2 9102   1.853   0.046   3.867
 2735SOL     OW 9103   1.484   5.386   1.450
 2735SOL    HW1 9104   1.506   5.389   1.547
 2735SOL    HW2 9105   1.388   5.412   1.437
 2736SOL     OW 9106   4.457   0.287   6.850
 2736SOL    HW1 9107   4.401   0.216   6.808
 2736SOL    HW2 9108   4.488   0.351   6.780
 2737SOL     OW 9109   4.699   3.923   5.501
 2737SOL    HW1 9110   4.745   3.937   5.413
 2737SOL    HW2 9111   4.686   4.011   5.546
 2738SOL     OW 9112   6.919   4.226   4.799
 2738SOL    HW1 9113   6.832   4.252   4.841
 2738SOL    HW2 9114   6.987   4.211   4.871
 2739SOL     OW 9115   4.589   3.815   6.688
 2739SOL    HW1 9116   4.567   3.718   6.688
 2739SOL    HW2 9117   4.620   3.843   6.779
 2740SOL     OW 9118   5.997   2.545   4.708
 2740SOL    HW1 9119   5.999   2.457   4.659
 2740SOL    HW2 9120   6.067   2.606   4.669
 2741SOL     OW 9121   2.283   3.368   6.008
 2741SOL    HW1 9122   2.331   3.280   6.007
 2741SOL    HW2 9123   2.334   3.435   5.954
 2742SOL     OW 9124   2.580   6.275   5.224
 2742SOL    HW1 9125   2.623   6.249   5.138
 2742SOL    HW2 9126   2.485   6.300   5.208
 2743SOL     OW 9127   5.895   3.845   6.168
 2743SOL    HW1 9128   5.867   3.779   6.237
 2743SOL    HW2 9129   5.899   3.937   6.208
 2744SOL     OW 9130   4.995   6.673   0.972
 2744SOL    HW1 9131   5.053   6.754   0.987
 2744SOL    HW2 9132   5.038   6.593   1.013
 2745SOL     OW 9133   3.033   5.602   2.210
 2745SOL    HW1 9134   3.127   5.632   2.195
 2745SOL    HW2 9135   2.987   5.666   2.271
 2746SOL     OW 9136   1.183   2.484   7.016
 2746SOL    HW1 9137   1.226   2.455   0.085
 2746SOL    HW2 9138   1.212   2.577   6.993
 2747SOL     OW 9139   4.729   6.188   3.781
 2747SOL    HW1 9140   4.718   6.267   3.720
 2747SOL    HW2 9141   4.746   6.106   3.727
 2748SOL     OW 9142   5.402   1.418   4.535
 2748SOL    HW1 9143   5.486   1.389   4.582
 2748SOL    HW2 9144   5.324   1.371   4.575
 2749SOL     OW 9145   5.817   4.896   3.171
 2749SOL    HW1 9146   5.722   4.870   3.153
 2749SOL    HW2 9147   5.846   4.854   3.257
 2750SOL     OW 9148   0.805   7.008   0.516
 2750SOL    HW1 9149   0.855   6.931   0.477
 2750SOL    HW2 9150   0.726   6.975   0.567
 2751SOL     OW 9151   1.236   0.252   6.650
 2751SOL    HW1 9152   1.294   0.286   6.725
 2751SOL    HW2 9153   1.262   0.159   6.627
 2752SOL     OW 9154   0.295   6.196   6.203
 2752SOL    HW1 9155   0.355   6.245   6.266
 2752SOL    HW2 9156   0.335   6.198   6.111
 2753SOL     OW 9157   3.278   5.238   4.476
 2753SOL    HW1 9158   3.192   5.187   4.471
 2753SOL    HW2 9159   3.330   5.207   4.556
 2754SOL     OW 9160   0.948   5.314   4.111
 2754SOL    HW1 9161   1.043   5.284   4.124
 2754SOL    HW2 9162   0.888   5.265   4.174
 2755SOL     OW 9163   4.520   6.570   2.750
 2755SOL    HW1 9164   4.554   6.642   2.810
 2755SOL    HW2 9165   4.459   6.510   2.802
 2756SOL     OW 9166   0.156   3.008   5.093
 2756SOL    HW1 9167   0.151   3.008   5.193
 2756SOL    HW2 9168   0.128   2.919   5.058
 2757SOL     OW 9169   5.031   4.085   5.596
 2757SOL    HW1 9170   5.083   4.025   5.535
 2757SOL    HW2 9171   4.980   4.029   5.662
 2758SOL     OW 9172   0.432   6.683   1.934
 2758SOL    HW1 9173   0.494   6.663   1.858
 2758SOL    HW2 9174   0.346   6.719   1.899
 2759SOL     OW 9175   4.016   3.734   4.801
 2759SOL    HW1 9176   4.064   3.646   4.805
 2759SOL    HW2 9177   4.024   3.781   4.889
 2760SOL     OW 9178   5.086   5.075   2.669
 2760SOL    HW1 9179   5.132   5.129   2.740
 2760SOL    HW2 9180   4.987   5.082   2.682
 2761SOL     OW 9181   1.729   3.695   3.780
 2761SOL    HW1 9182   1.817   3.726   3.742
 2761SOL    HW2 9183   1.718   3.731   3.872
 2762SOL     OW 9184   4.402   1.440   1.949
 2762SOL    HW1 9185   4.447   1.512   2.002
 2762SOL    HW2 9186   4.401   1.355   2.003
 2763SOL     OW 9187   5.470   0.791   3.916
 2763SOL    HW1 9188   5.418   0.728   3.858
 2763SOL    HW2 9189   5.413   0.822   3.992
 2764SOL     OW 9190   0.006   2.037   2.694
 2764SOL    HW1 9191   6.960   2.096   2.643
 2764SOL    HW2 9192   0.024   2.077   2.784
 2765SOL     OW 9193   0.091   6.654   0.006
 2765SOL    HW1 9194   7.009   6.639   0.002
 2765SOL    HW2 9195   0.136   6.593   6.958
 2766SOL     OW 9196   5.080   0.202   6.742
 2766SOL    HW1 9197   5.027   0.287   6.743
 2766SOL    HW2 9198   5.144   0.204   6.666
 2767SOL     OW 9199   0.629   6.137   6.048
 2767SOL    HW1 9200   0.627   6.085   6.133
 2767SOL    HW2 9201   0.704   6.203   6.052
 2768SOL     OW 9202   3.963   0.132   1.210
 2768SOL    HW1 9203   4.000   0.057   1.264
 2768SOL    HW2 9204   3.863   0.128   1.210
 2769SOL     OW 9205   0.694   4.906   5.881
 2769SOL    HW1 9206   0.725   4.994   5.916
 2769SOL    HW2 9207   0.736   4.832   5.933
 2770SOL     OW 9208   2.284   6.657   0.687
 2770SOL    HW1 9209   2.366   6.623   0.641
 2770SOL    HW2 9210   2.309   6.711   0.767
 2771SOL     OW 9211   4.036   6.172   5.717
 2771SOL    HW1 9212   3.963   6.186   5.783
 2771SOL    HW2 9213   4.106   6.112   5.757
 2772SOL     OW 9214   6.130   1.646   2.815
 2772SOL    HW1 9215   6.162   1.561   2.773
 2772SOL    HW2 9216   6.115   1.715   2.745
 2773SOL     OW 9217   5.315   1.760   6.085
 2773SOL    HW1 9218   5.305   1.713   6.172
 2773SOL    HW2 9219   5.251   1.722   6.018
 2774SOL     OW 9220   6.207   0.052   3.916
 2774SOL    HW1 9221   6.197   0.010   4.006
 2774SOL    HW2 9222   6.134   0.020   3.856
 2775SOL     OW 9223   0.023   2.290   4.746
 2775SOL    HW1 9224   0.096   2.358   4.745
 2775SOL    HW2 9225   7.000   2.282   4.655
 2776SOL     OW 9226   4.952   3.880   6.039
 2776SOL    HW1 9227   4.872   3.904   6.095
 2776SOL    HW2 9228   4.985   3.789   6.066
 2777SOL     OW 9229   1.635   1.705   0.546
 2777SOL    HW1 9230   1.610   1.641   0.474
 2777SOL    HW2 9231   1.720   1.676   0.589
 2778SOL     OW 9232   2.452   6.063   6.010
 2778SOL    HW1 9233   2.544   6.074   6.049
 2778SOL    HW2 9234   2.429   5.966   6.005
 2779SOL     OW 9235   5.247   1.127   3.649
 2779SOL    HW1 9236   5.334   1.169   3.623
 2779SOL    HW2 9237   5.255   1.027   3.641
 2780SOL     OW 9238   0.721   0.287   5.559
 2780SOL    HW1 9239   0.747   0.381   5.578
 2780SOL    HW2 9240   0.655   0.256   5.627
 2781SOL     OW 9241   6.748   0.076   2.947
 2781SOL    HW1 9242   6.689   0.156   2.955
 2781SOL    HW2 9243   6.821   0.094   2.881
 2782SOL     OW 9244   5.528   6.533   4.994
 2782SOL    HW1 9245   5.628   6.534   4.990
 2782SOL    HW2 9246   5.491   6.603   4.933
 2783SOL     OW 9247   6.693   2.504   1.837
 2783SOL    HW1 9248   6.717   2.412   1.805
 2783SOL    HW2 9249   6.757   2.571   1.799
 2784SOL     OW 9250   1.269   2.168   2.084
 2784SOL    HW1 9251   1.325   2.157   2.166
 2784SOL    HW2 9252   1.172   2.176   2.111
 2785SOL     OW 9253   5.214   3.546   3.827
 2785SOL    HW1 9254   5.268   3.567   3.909
 2785SOL    HW2 9255   5.266   3.484   3.768
 2786SOL     OW 9256   0.364   5.795   0.888
 2786SOL    HW1 9257   0.294   5.801   0.817
 2786SOL    HW2 9258   0.407   5.705   0.885
 2787SOL     OW 9259   0.343   6.612   6.142
 2787SOL    HW1 9260   0.441   6.628   6.132
 2787SOL    HW2 9261   0.328   6.527   6.192
 2788SOL     OW 9262   3.153   6.592   0.101
 2788SOL    HW1 9263   3.073   6.638   0.140
 2788SOL    HW2 9264   3.124   6.508   0.055
 2789SOL     OW 9265   2.320   2.090   3.598
 2789SOL    HW1 9266   2.269   2.142   3.667
 2789SOL    HW2 9267   2.292   1.994   3.602
 2790SOL     OW 9268   0.863   4.824   1.332
 2790SOL    HW1 9269   0.963   4.830   1.331
 2790SOL    HW2 9270   0.834   4.754   1.266
 2791SOL     OW 9271   0.144   3.615   5.470
 2791SOL    HW1 9272   0.200   3.587   5.547
 2791SOL    HW2 9273   0.050   3.582   5.482
 2792SOL     OW 9274   2.797   2.533   0.250
 2792SOL    HW1 9275   2.782   2.542   0.151
 2792SOL    HW2 9276   2.859   2.605   0.281
 2793SOL     OW 9277   4.410   3.710   6.355
 2793SOL    HW1 9278   4.335   3.684   6.416
 2793SOL    HW2 9279   4.497   3.695   6.402
 2794SOL     OW 9280   1.255   1.933   6.648
 2794SOL    HW1 9281   1.243   1.968   6.741
 2794SOL    HW2 9282   1.326   1.862   6.648
 2795SOL     OW 9283   1.531   0.032   0.688
 2795SOL    HW1 9284   1.502   6.985   0.759
 2795SOL    HW2 9285   1.450   0.073   0.645
 2796SOL     OW 9286   3.169   5.702   0.073
 2796SOL    HW1 9287   3.107   5.758   0.018
 2796SOL    HW2 9288   3.263   5.718   0.043
 2797SOL     OW 9289   4.852   3.911   4.727
 2797SOL    HW1 9290   4.797   3.978   4.678
 2797SOL    HW2 9291   4.894   3.848   4.661
 2798SOL     OW 9292   5.480   2.813   1.641
 2798SOL    HW1 9293   5.466   2.870   1.722
 2798SOL    HW2 9294   5.415   2.737   1.642
 2799SOL     OW 9295   3.335   0.258   4.592
 2799SOL    HW1 9296   3.333   0.159   4.604
 2799SOL    HW2 9297   3.405   0.297   4.653
 2800SOL     OW 9298   4.753   1.323   0.039
 2800SOL    HW1 9299   4.689   1.255   0.074
 2800SOL    HW2 9300   4.806   1.361   0.115
 2801SOL     OW 9301   0.132   4.517   3.157
 2801SOL    HW1 9302   0.187   4.528   3.240
 2801SOL    HW2 9303   0.084   4.430   3.160
 2802SOL     OW 9304   1.901   4.568   4.226
 2802SOL    HW1 9305   1.868   4.501   4.292
 2802SOL    HW2 9306   1.999   4.581   4.238
 2803SOL     OW 9307   3.288   2.598   6.645
 2803SOL    HW1 9308   3.340   2.581   6.561
 2803SOL    HW2 9309   3.267   2.695   6.653
 2804SOL     OW 9310   5.621   2.200   3.749
 2804SOL    HW1 9311   5.548   2.133   3.741
 2804SOL    HW2 9312   5.595   2.283   3.698
 2805SOL     OW 9313   3.927   5.628   0.435
 2805SOL    HW1 9314   3.876   5.708   0.402
 2805SOL    HW2 9315   3.976   5.586   0.358
 2806SOL     OW 9316   0.588   2.769   4.901
 2806SOL    HW1 9317   0.570   2.678   4.940
 2806SOL    HW2 9318   0.643   2.758   4.818
 2807SOL     OW 9319   4.509   1.515   3.820
 2807SOL    HW1 9320   4.454   1.464   3.886
 2807SOL    HW2 9321   4.499   1.613   3.838
 2808SOL     OW 9322   1.190   5.775   6.655
 2808SOL    HW1 9323   1.108   5.743   6.703
 2808SOL    HW2 9324   1.245   5.832   6.716
 2809SOL     OW 9325   1.330   6.451   0.984
 2809SOL    HW1 9326   1.347   6.435   0.886
 2809SOL    HW2 9327   1.262   6.385   1.017
 2810SOL     OW 9328   6.919   6.443   2.219
 2810SOL    HW1 9329   6.986   6.506   2.180
 2810SOL    HW2 9330   6.849   6.423   2.150
 2811SOL     OW 9331   0.824   7.004   0.914
 2811SOL    HW1 9332   0.912   6.963   0.938
 2811SOL    HW2 9333   0.762   6.933   0.880
 2812SOL     OW 9334   1.604   0.738   1.396
 2812SOL    HW1 9335   1.686   0.727   1.452
 2812SOL    HW2 9336   1.525   0.754   1.455
 2813SOL     OW 9337   5.985   2.284   1.224
 2813SOL    HW1 9338   6.061   2.260   1.285
 2813SOL    HW2 9339   5.962   2.381   1.237
 2814SOL     OW 9340   2.086   4.335   6.720
 2814SOL    HW1 9341   2.111   4.389   6.800
 2814SOL    HW2 9342   2.015   4.269   6.745
 2815SOL     OW 9343   6.248   6.313   4.710
 2815SOL    HW1 9344   6.191   6.375   4.764
 2815SOL    HW2 9345   6.271   6.356   4.623
 2816SOL     OW 9346   0.861   5.268   5.235
 2816SOL    HW1 9347   0.893   5.226   5.150
 2816SOL    HW2 9348   0.895   5.216   5.313
 2817SOL     OW 9349   2.890   0.846   1.475
 2817SOL    HW1 9350   2.940   0.921   1.518
 2817SOL    HW2 9351   2.797   0.875   1.454
 2818SOL     OW 9352   1.958   0.949   0.494
 2818SOL    HW1 9353   1.875   0.961   0.440
 2818SOL    HW2 9354   1.984   0.853   0.494
 2819SOL     OW 9355   6.129   0.411   6.700
 2819SOL    HW1 9356   6.060   0.479   6.721
 2819SOL    HW2 9357   6.149   0.413   6.602
 2820SOL     OW 9358   1.595   1.604   0.278
 2820SOL    HW1 9359   1.632   1.513   0.261
 2820SOL    HW2 9360   1.622   1.665   0.203
 2821SOL     OW 9361   3.668   2.093   5.959
 2821SOL    HW1 9362   3.731   2.032   6.007
 2821SOL    HW2 9363   3.591   2.117   6.018
 2822SOL     OW 9364   4.244   3.151   1.432
 2822SOL    HW1 9365   4.203   3.238   1.461
 2822SOL    HW2 9366   4.245   3.087   1.509
 2823SOL     OW 9367   5.331   4.269   2.957
 2823SOL    HW1 9368   5.385   4.276   2.873
 2823SOL    HW2 9369   5.252   4.210   2.941
 2824SOL     OW 9370   0.507   4.351   5.298
 2824SOL    HW1 9371   0.461   4.314   5.379
 2824SOL    HW2 9372   0.603   4.322   5.298
 2825SOL     OW 9373   5.074   2.684   5.648
 2825SOL    HW1 9374   5.131   2.726   5.718
 2825SOL    HW2 9375   5.129   2.666   5.567
 2826SOL     OW 9376   3.224   3.122   6.660
 2826SOL    HW1 9377   3.259   3.195   6.601
 2826SOL    HW2 9378   3.298   3.086   6.716
 2827SOL     OW 9379   6.667   1.749   0.211
 2827SOL    HW1 9380   6.583   1.701   0.237
 2827SOL    HW2 9381   6.644   1.822   0.146
 2828SOL     OW 9382   1.946   4.106   0.073
 2828SOL    HW1 9383   1.866   4.148   0.117
 2828SOL    HW2 9384   1.943   4.007   0.087
 2829SOL     OW 9385   3.411   4.329   1.031
 2829SOL    HW1 9386   3.383   4.292   0.943
 2829SOL    HW2 9387   3.445   4.422   1.019
 2830SOL     OW 9388   2.907   5.446   4.570
 2830SOL    HW1 9389   2.923   5.486   4.660
 2830SOL    HW2 9390   2.943   5.507   4.499
 2831SOL     OW 9391   5.798   1.552   1.759
 2831SOL    HW1 9392   5.854   1.572   1.839
 2831SOL    HW2 9393   5.716   1.500   1.788
 2832SOL     OW 9394   1.755   3.674   1.475
 2832SOL    HW1 9395   1.697   3.601   1.513
 2832SOL    HW2 9396   1.705   3.760   1.477
 2833SOL     OW 9397   6.290   1.928   3.704
 2833SOL    HW1 9398   6.204   1.967   3.672
 2833SOL    HW2 9399   6.317   1.974   3.789
 2834SOL     OW 9400   2.821   0.536   4.364
 2834SOL    HW1 9401   2.887   0.604   4.333
 2834SOL    HW2 9402   2.856   0.492   4.446
 2835SOL     OW 9403   6.389   1.314   0.533
 2835SOL    HW1 9404   6.449   1.277   0.462
 2835SOL    HW2 9405   6.427   1.294   0.623
 2836SOL     OW 9406   3.036   6.285   2.092
 2836SOL    HW1 9407   2.996   6.345   2.023
 2836SOL    HW2 9408   2.966   6.260   2.158
 2837SOL     OW 9409   5.038   4.180   3.180
 2837SOL    HW1 9410   4.947   4.151   3.150
 2837SOL    HW2 9411   5.035   4.201   3.278
 2838SOL     OW 9412   6.714   4.333   5.987
 2838SOL    HW1 9413   6.804   4.339   6.031
 2838SOL    HW2 9414   6.677   4.425   5.974
 2839SOL     OW 9415   5.284   2.579   6.424
 2839SOL    HW1 9416   5.331   2.525   6.355
 2839SOL    HW2 9417   5.192   2.601   6.392
 2840SOL     OW 9418   6.326   5.989   5.211
 2840SOL    HW1 9419   6.244   5.982   5.268
 2840SOL    HW2 9420   6.304   6.043   5.129
 2841SOL     OW 9421   5.688   3.303   2.941
 2841SOL    HW1 9422   5.717   3.231   3.003
 2841SOL    HW2 9423   5.766   3.361   2.918
 2842SOL     OW 9424   0.849   6.193   3.662
 2842SOL    HW1 9425   0.874   6.260   3.732
 2842SOL    HW2 9426   0.768   6.225   3.612
 2843SOL     OW 9427   0.835   2.538   4.209
 2843SOL    HW1 9428   0.762   2.546   4.276
 2843SOL    HW2 9429   0.806   2.582   4.124
 2844SOL     OW 9430   5.802   4.186   0.090
 2844SOL    HW1 9431   5.738   4.147   0.156
 2844SOL    HW2 9432   5.866   4.116   0.059
 2845SOL     OW 9433   3.670   1.732   1.007
 2845SOL    HW1 9434   3.748   1.790   0.985
 2845SOL    HW2 9435   3.682   1.643   0.964
 2846SOL     OW 9436   5.166   0.457   6.400
 2846SOL    HW1 9437   5.118   0.371   6.416
 2846SOL    HW2 9438   5.129   0.528   6.460
 2847SOL     OW 9439   5.766   4.530   2.567
 2847SOL    HW1 9440   5.856   4.537   2.523
 2847SOL    HW2 9441   5.738   4.620   2.600
 2848SOL     OW 9442   0.375   3.083   0.352
 2848SOL    HW1 9443   0.405   3.166   0.304
 2848SOL    HW2 9444   0.392   3.094   0.450
 2849SOL     OW 9445   5.552   0.765   0.675
 2849SOL    HW1 9446   5.526   0.849   0.628
 2849SOL    HW2 9447   5.482   0.740   0.742
 2850SOL     OW 9448   6.923   1.398   0.707
 2850SOL    HW1 9449   0.004   1.412   0.721
 2850SOL    HW2 9450   6.908   1.326   0.640
 2851SOL     OW 9451   3.352   3.261   2.279
 2851SOL    HW1 9452   3.293   3.180   2.280
 2851SOL    HW2 9453   3.447   3.234   2.290
 2852SOL     OW 9454   0.752   4.908   5.213
 2852SOL    HW1 9455   0.699   4.934   5.132
 2852SOL    HW2 9456   0.762   4.809   5.215
 2853SOL     OW 9457   0.168   4.821   5.709
 2853SOL    HW1 9458   0.211   4.797   5.796
 2853SOL    HW2 9459   0.221   4.895   5.666
 2854SOL     OW 9460   3.026   0.409   6.343
 2854SOL    HW1 9461   2.996   0.323   6.385
 2854SOL    HW2 9462   2.991   0.486   6.396
 2855SOL     OW 9463   2.774   2.254   4.324
 2855SOL    HW1 9464   2.743   2.159   4.315
 2855SOL    HW2 9465   2.856   2.267   4.269
 2856SOL     OW 9466   1.415   5.561   4.883
 2856SOL    HW1 9467   1.501   5.545   4.930
 2856SOL    HW2 9468   1.339   5.539   4.944
 2857SOL     OW 9469   0.968   4.274   6.745
 2857SOL    HW1 9470   0.877   4.296   6.709
 2857SOL    HW2 9471   0.999   4.348   6.805
 2858SOL     OW 9472   5.504   4.699   4.193
 2858SOL    HW1 9473   5.444   4.764   4.240
 2858SOL    HW2 9474   5.465   4.607   4.199
 2859SOL     OW 9475   0.350   5.191   2.138
 2859SOL    HW1 9476   0.296   5.225   2.215
 2859SOL    HW2 9477   0.391   5.268   2.090
 2860SOL     OW 9478   1.252   6.348   2.830
 2860SOL    HW1 9479   1.198   6.398   2.762
 2860SOL    HW2 9480   1.232   6.383   2.921
 2861SOL     OW 9481   5.762   3.175   5.197
 2861SOL    HW1 9482   5.815   3.247   5.240
 2861SOL    HW2 9483   5.667   3.205   5.188
 2862SOL     OW 9484   4.618   1.108   0.672
 2862SOL    HW1 9485   4.703   1.056   0.684
 2862SOL    HW2 9486   4.594   1.110   0.574
 2863SOL     OW 9487   5.557   1.205   6.477
 2863SOL    HW1 9488   5.558   1.297   6.438
 2863SOL    HW2 9489   5.506   1.205   6.563
 2864SOL     OW 9490   4.117   4.611   1.070
 2864SOL    HW1 9491   4.037   4.657   1.108
 2864SOL    HW2 9492   4.094   4.517   1.048
 2865SOL     OW 9493   5.949   4.403   6.194
 2865SOL    HW1 9494   5.934   4.314   6.151
 2865SOL    HW2 9495   6.047   4.421   6.200
 2866SOL     OW 9496   4.778   5.903   1.188
 2866SOL    HW1 9497   4.699   5.851   1.221
 2866SOL    HW2 9498   4.747   5.968   1.118
 2867SOL     OW 9499   0.549   5.895   3.511
 2867SOL    HW1 9500   0.567   5.806   3.553
 2867SOL    HW2 9501   0.551   5.966   3.581
 2868SOL     OW 9502   6.749   0.260   5.441
 2868SOL    HW1 9503   6.773   0.339   5.384
 2868SOL    HW2 9504   6.832   0.222   5.481
 2869SOL     OW 9505   5.712   4.242   5.190
 2869SOL    HW1 9506   5.782   4.210   5.126
 2869SOL    HW2 9507   5.685   4.336   5.166
 2870SOL     OW 9508   0.521   1.112   1.277
 2870SOL    HW1 9509   0.616   1.085   1.260
 2870SOL    HW2 9510   0.511   1.210   1.262
 2871SOL     OW 9511   4.718   1.151   3.134
 2871SOL    HW1 9512   4.625   1.159   3.099
 2871SOL    HW2 9513   4.736   1.226   3.198
 2872SOL     OW 9514   3.550   1.314   2.348
 2872SOL    HW1 9515   3.561   1.226   2.394
 2872SOL    HW2 9516   3.603   1.314   2.263
 2873SOL     OW 9517   6.958   0.105   2.786
 2873SOL    HW1 9518   0.037   0.134   2.790
 2873SOL    HW2 9519   6.922   0.125   2.695
 2874SOL     OW 9520   1.541   0.997   1.892
 2874SOL    HW1 9521   1.557   0.945   1.976
 2874SOL    HW2 9522   1.609   0.972   1.823
 2875SOL     OW 9523   3.259   0.464   2.216
 2875SOL    HW1 9524   3.261   0.426   2.124
 2875SOL    HW2 9525   3.345   0.443   2.263
 2876SOL     OW 9526   1.487   0.199   1.204
 2876SOL    HW1 9527   1.520   0.287   1.237
 2876SOL    HW2 9528   1.391   0.206   1.180
 2877SOL     OW 9529   0.818   3.516   6.733
 2877SOL    HW1 9530   0.864   3.599   6.701
 2877SOL    HW2 9531   0.831   3.443   6.666
 2878SOL     OW 9532   3.835   3.541   4.728
 2878SOL    HW1 9533   3.799   3.557   4.636
 2878SOL    HW2 9534   3.889   3.621   4.756
 2879SOL     OW 9535   6.279   6.189   0.306
 2879SOL    HW1 9536   6.326   6.211   0.392
 2879SOL    HW2 9537   6.345   6.182   0.232
 2880SOL     OW 9538   1.450   1.778   2.746
 2880SOL    HW1 9539   1.429   1.681   2.737
 2880SOL    HW2 9540   1.371   1.825   2.786
 2881SOL     OW 9541   5.529   5.187   0.241
 2881SOL    HW1 9542   5.597   5.113   0.240
 2881SOL    HW2 9543   5.457   5.166   0.175
 2882SOL     OW 9544   4.683   6.399   0.117
 2882SOL    HW1 9545   4.691   6.497   0.101
 2882SOL    HW2 9546   4.767   6.353   0.088
 2883SOL     OW 9547   5.194   6.239   3.133
 2883SOL    HW1 9548   5.096   6.236   3.117
 2883SOL    HW2 9549   5.243   6.229   3.046
 2884SOL     OW 9550   6.284   5.815   3.423
 2884SOL    HW1 9551   6.263   5.813   3.521
 2884SOL    HW2 9552   6.210   5.773   3.372
 2885SOL     OW 9553   0.471   4.208   3.255
 2885SOL    HW1 9554   0.567   4.204   3.226
 2885SOL    HW2 9555   0.411   4.204   3.175
 2886SOL     OW 9556   1.917   4.451   5.200
 2886SOL    HW1 9557   1.829   4.456   5.247
 2886SOL    HW2 9558   1.957   4.360   5.214
 2887SOL     OW 9559   0.021   4.766   2.979
 2887SOL    HW1 9560   0.096   4.792   3.040
 2887SOL    HW2 9561   6.954   4.759   3.032
 2888SOL     OW 9562   4.350   5.907   6.677
 2888SOL    HW1 9563   4.403   5.986   6.646
 2888SOL    HW2 9564   4.412   5.839   6.717
 2889SOL     OW 9565   3.945   5.077   3.810
 2889SOL    HW1 9566   3.858   5.118   3.782
 2889SOL    HW2 9567   3.951   4.983   3.777
 2890SOL     OW 9568   1.243   1.534   1.046
 2890SOL    HW1 9569   1.221   1.565   0.954
 2890SOL    HW2 9570   1.165   1.547   1.106
 2891SOL     OW 9571   1.388   1.662   5.460
 2891SOL    HW1 9572   1.377   1.630   5.366
 2891SOL    HW2 9573   1.486   1.666   5.483
 2892SOL     OW 9574   5.877   3.754   2.179
 2892SOL    HW1 9575   5.805   3.743   2.111
 2892SOL    HW2 9576   5.966   3.734   2.136
 2893SOL     OW 9577   6.741   5.979   5.128
 2893SOL    HW1 9578   6.693   6.065   5.109
 2893SOL    HW2 9579   6.700   5.906   5.072
 2894SOL     OW 9580   1.675   5.626   1.425
 2894SOL    HW1 9581   1.608   5.556   1.449
 2894SOL    HW2 9582   1.633   5.693   1.364
 2895SOL     OW 9583   4.690   6.267   6.055
 2895SOL    HW1 9584   4.644   6.354   6.039
 2895SOL    HW2 9585   4.713   6.225   5.967
 2896SOL     OW 9586   6.744   6.804   6.125
 2896SOL    HW1 9587   6.652   6.783   6.156
 2896SOL    HW2 9588   6.742   6.826   6.027
 2897SOL     OW 9589   2.655   6.468   3.736
 2897SOL    HW1 9590   2.723   6.528   3.696
 2897SOL    HW2 9591   2.671   6.374   3.705
 2898SOL     OW 9592   5.418   2.489   2.458
 2898SOL    HW1 9593   5.356   2.452   2.527
 2898SOL    HW2 9594   5.365   2.528   2.383
 2899SOL     OW 9595   6.302   2.620   0.956
 2899SOL    HW1 9596   6.229   2.551   0.959
 2899SOL    HW2 9597   6.388   2.576   0.928
 2900SOL     OW 9598   3.183   3.071   5.052
 2900SOL    HW1 9599   3.151   3.064   4.957
 2900SOL    HW2 9600   3.283   3.082   5.052
 2901SOL     OW 9601   1.257   3.282   1.339
 2901SOL    HW1 9602   1.216   3.344   1.272
 2901SOL    HW2 9603   1.286   3.199   1.293
 2902SOL     OW 9604   5.031   5.900   3.582
 2902SOL    HW1 9605   4.966   5.826   3.602
 2902SOL    HW2 9606   5.094   5.910   3.659
 2903SOL     OW 9607   0.763   5.497   1.567
 2903SOL    HW1 9608   0.792   5.429   1.499
 2903SOL    HW2 9609   0.724   5.451   1.646
 2904SOL     OW 9610   2.965   4.986   4.031
 2904SOL    HW1 9611   3.060   4.966   4.058
 2904SOL    HW2 9612   2.944   4.937   3.947
 2905SOL     OW 9613   1.221   4.565   1.262
 2905SOL    HW1 9614   1.276   4.541   1.342
 2905SOL    HW2 9615   1.251   4.511   1.184
 2906SOL     OW 9616   6.447   6.057   6.302
 2906SOL    HW1 9617   6.471   6.047   6.206
 2906SOL    HW2 9618   6.495   6.136   6.341
 2907SOL     OW 9619   6.807   1.316   6.033
 2907SOL    HW1 9620   6.865   1.268   6.099
 2907SOL    HW2 9621   6.821   1.278   5.942
 2908SOL     OW 9622   3.471   5.805   3.579
 2908SOL    HW1 9623   3.545   5.820   3.513
 2908SOL    HW2 9624   3.503   5.744   3.652
 2909SOL     OW 9625   0.375   6.405   1.103
 2909SOL    HW1 9626   0.386   6.344   1.025
 2909SOL    HW2 9627   0.320   6.484   1.076
 2910SOL     OW 9628   0.946   0.244   4.447
 2910SOL    HW1 9629   0.933   0.271   4.351
 2910SOL    HW2 9630   1.013   0.170   4.452
 2911SOL     OW 9631   6.898   3.414   3.675
 2911SOL    HW1 9632   6.948   3.449   3.755
 2911SOL    HW2 9633   6.957   3.418   3.595
 2912SOL     OW 9634   0.230   1.573   3.140
 2912SOL    HW1 9635   0.142   1.616   3.162
 2912SOL    HW2 9636   0.248   1.582   3.042
 2913SOL     OW 9637   1.034   6.655   4.050
 2913SOL    HW1 9638   0.987   6.743   4.043
 2913SOL    HW2 9639   1.016   6.614   4.139
 2914SOL     OW 9640   4.035   4.357   0.963
 2914SOL    HW1 9641   4.048   4.297   1.042
 2914SOL    HW2 9642   3.952   4.331   0.915
 2915SOL     OW 9643   2.186   0.323   3.689
 2915SOL    HW1 9644   2.199   0.289   3.783
 2915SOL    HW2 9645   2.264   0.295   3.633
 2916SOL     OW 9646   0.548   5.932   6.233
 2916SOL    HW1 9647   0.640   5.905   6.261
 2916SOL    HW2 9648   0.502   5.977   6.309
 2917SOL     OW 9649   1.595   1.461   3.696
 2917SOL    HW1 9650   1.659   1.504   3.632
 2917SOL    HW2 9651   1.647   1.415   3.769
 2918SOL     OW 9652   5.067   1.178   1.047
 2918SOL    HW1 9653   5.099   1.142   1.134
 2918SOL    HW2 9654   5.038   1.273   1.058
 2919SOL     OW 9655   0.762   5.681   4.979
 2919SOL    HW1 9656   0.775   5.609   5.048
 2919SOL    HW2 9657   0.772   5.770   5.022
 2920SOL     OW 9658   2.862   2.296   1.642
 2920SOL    HW1 9659   2.912   2.211   1.658
 2920SOL    HW2 9660   2.866   2.353   1.724
 2921SOL     OW 9661   6.855   5.316   3.567
 2921SOL    HW1 9662   6.886   5.388   3.628
 2921SOL    HW2 9663   6.869   5.345   3.472
 2922SOL     OW 9664   3.993   4.819   3.727
 2922SOL    HW1 9665   3.905   4.833   3.682
 2922SOL    HW2 9666   4.060   4.786   3.661
 2923SOL     OW 9667   1.459   4.480   3.835
 2923SOL    HW1 9668   1.539   4.471   3.774
 2923SOL    HW2 9669   1.490   4.478   3.930
 2924SOL     OW 9670   4.980   1.530   0.074
 2924SOL    HW1 9671   4.984   1.487   7.001
 2924SOL    HW2 9672   4.937   1.620   0.067
 2925SOL     OW 9673   5.309   6.675   4.847
 2925SOL    HW1 9674   5.295   6.774   4.854
 2925SOL    HW2 9675   5.268   6.642   4.762
 2926SOL     OW 9676   0.088   2.543   5.002
 2926SOL    HW1 9677   0.126   2.506   4.917
 2926SOL    HW2 9678   0.065   2.639   4.990
 2927SOL     OW 9679   0.921   1.707   2.805
 2927SOL    HW1 9680   0.958   1.767   2.734
 2927SOL    HW2 9681   0.910   1.615   2.767
 2928SOL     OW 9682   4.979   4.998   0.285
 2928SOL    HW1 9683   5.035   4.928   0.330
 2928SOL    HW2 9684   4.926   4.956   0.212
 2929SOL     OW 9685   1.676   1.862   2.864
 2929SOL    HW1 9686   1.604   1.834   2.800
 2929SOL    HW2 9687   1.765   1.832   2.828
 2930SOL     OW 9688   0.699   3.015   4.334
 2930SOL    HW1 9689   0.690   3.036   4.236
 2930SOL    HW2 9690   0.794   2.988   4.353
 2931SOL     OW 9691   5.852   4.070   5.553
 2931SOL    HW1 9692   5.946   4.105   5.548
 2931SOL    HW2 9693   5.834   4.036   5.646
 2932SOL     OW 9694   0.029   6.608   0.605
 2932SOL    HW1 9695   6.976   6.664   0.561
 2932SOL    HW2 9696   0.067   6.658   0.683
 2933SOL     OW 9697   0.729   0.565   6.947
 2933SOL    HW1 9698   0.696   0.540   0.022
 2933SOL    HW2 9699   0.653   0.603   6.894
 2934SOL     OW 9700   5.775   5.210   2.735
 2934SOL    HW1 9701   5.864   5.168   2.751
 2934SOL    HW2 9702   5.716   5.146   2.687
 2935SOL     OW 9703   0.700   4.737   6.160
 2935SOL    HW1 9704   0.783   4.753   6.107
 2935SOL    HW2 9705   0.682   4.816   6.219
 2936SOL     OW 9706   4.437   6.415   2.508
 2936SOL    HW1 9707   4.459   6.474   2.585
 2936SOL    HW2 9708   4.503   6.340   2.503
 2937SOL     OW 9709   6.330   3.362   3.435
 2937SOL    HW1 9710   6.263   3.428   3.467
 2937SOL    HW2 9711   6.295   3.269   3.448
 2938SOL     OW 9712   0.382   5.419   1.707
 2938SOL    HW1 9713   0.403   5.492   1.642
 2938SOL    HW2 9714   0.438   5.339   1.687
 2939SOL     OW 9715   5.613   6.083   2.033
 2939SOL    HW1 9716   5.670   6.158   1.999
 2939SOL    HW2 9717   5.630   6.068   2.130
 2940SOL     OW 9718   4.834   5.319   3.293
 2940SOL    HW1 9719   4.762   5.386   3.275
 2940SOL    HW2 9720   4.923   5.363   3.288
 2941SOL     OW 9721   3.164   5.265   2.395
 2941SOL    HW1 9722   3.080   5.212   2.399
 2941SOL    HW2 9723   3.224   5.228   2.324
 2942SOL     OW 9724   2.988   1.910   0.928
 2942SOL    HW1 9725   2.962   1.946   0.839
 2942SOL    HW2 9726   2.922   1.839   0.956
 2943SOL     OW 9727   0.248   4.225   3.928
 2943SOL    HW1 9728   0.216   4.135   3.959
 2943SOL    HW2 9729   0.289   4.274   4.006
 2944SOL     OW 9730   0.728   5.333   3.455
 2944SOL    HW1 9731   0.757   5.353   3.361
 2944SOL    HW2 9732   0.654   5.266   3.454
 2945SOL     OW 9733   5.576   3.522   0.538
 2945SOL    HW1 9734   5.635   3.443   0.519
 2945SOL    HW2 9735   5.544   3.561   0.451
 2946SOL     OW 9736   3.060   3.990   4.505
 2946SOL    HW1 9737   3.047   3.988   4.405
 2946SOL    HW2 9738   3.022   3.907   4.545
 2947SOL     OW 9739   6.598   6.460   0.679
 2947SOL    HW1 9740   6.527   6.402   0.641
 2947SOL    HW2 9741   6.658   6.405   0.738
 2948SOL     OW 9742   6.026   4.496   0.936
 2948SOL    HW1 9743   6.056   4.448   1.018
 2948SOL    HW2 9744   5.951   4.558   0.959
 2949SOL     OW 9745   1.984   5.733   1.149
 2949SOL    HW1 9746   2.001   5.831   1.156
 2949SOL    HW2 9747   1.890   5.713   1.178
 2950SOL     OW 9748   5.664   5.012   1.653
 2950SOL    HW1 9749   5.705   4.933   1.699
 2950SOL    HW2 9750   5.565   5.010   1.665
 2951SOL     OW 9751   0.666   2.289   1.055
 2951SOL    HW1 9752   0.755   2.242   1.053
 2951SOL    HW2 9753   0.681   2.388   1.064
 2952SOL     OW 9754   0.790   1.608   4.672
 2952SOL    HW1 9755   0.840   1.626   4.757
 2952SOL    HW2 9756   0.753   1.515   4.674
 2953SOL     OW 9757   1.320   5.766   3.061
 2953SOL    HW1 9758   1.308   5.793   2.966
 2953SOL    HW2 9759   1.302   5.668   3.071
 2954SOL     OW 9760   0.551   4.470   6.088
 2954SOL    HW1 9761   0.531   4.547   6.148
 2954SOL    HW2 9762   0.630   4.492   6.030
 2955SOL     OW 9763   1.528   4.768   5.789
 2955SOL    HW1 9764   1.608   4.776   5.848
 2955SOL    HW2 9765   1.505   4.857   5.750
 2956SOL     OW 9766   6.265   3.679   4.929
 2956SOL    HW1 9767   6.338   3.611   4.917
 2956SOL    HW2 9768   6.285   3.759   4.873
 2957SOL     OW 9769   1.557   4.985   1.882
 2957SOL    HW1 9770   1.582   4.969   1.978
 2957SOL    HW2 9771   1.628   4.947   1.822
 2958SOL     OW 9772   2.081   3.836   1.039
 2958SOL    HW1 9773   1.990   3.842   0.996
 2958SOL    HW2 9774   2.070   3.833   1.138
 2959SOL     OW 9775   0.324   4.346   4.181
 2959SOL    HW1 9776   0.313   4.260   4.232
 2959SOL    HW2 9777   0.415   4.349   4.140
 2960SOL     OW 9778   4.903   6.341   0.773
 2960SOL    HW1 9779   4.803   6.343   0.777
 2960SOL    HW2 9780   4.933   6.346   0.678
 2961SOL     OW 9781   5.806   1.975   0.614
 2961SOL    HW1 9782   5.727   1.936   0.567
 2961SOL    HW2 9783   5.776   2.028   0.693
 2962SOL     OW 9784   6.756   0.489   3.736
 2962SOL    HW1 9785   6.821   0.537   3.676
 2962SOL    HW2 9786   6.767   0.391   3.724
 2963SOL     OW 9787   1.862   2.141   5.870
 2963SOL    HW1 9788   1.949   2.190   5.875
 2963SOL    HW2 9789   1.861   2.080   5.791
 2964SOL     OW 9790   0.950   1.136   6.054
 2964SOL    HW1 9791   1.007   1.160   6.132
 2964SOL    HW2 9792   0.964   1.039   6.030
 2965SOL     OW 9793   5.742   0.184   6.083
 2965SOL    HW1 9794   5.838   0.207   6.096
 2965SOL    HW2 9795   5.707   0.136   6.164
 2966SOL     OW 9796   3.476   6.931   3.309
 2966SOL    HW1 9797   3.551   6.868   3.332
 2966SOL    HW2 9798   3.415   6.940   3.388
 2967SOL     OW 9799   5.682   0.173   5.447
 2967SOL    HW1 9800   5.717   0.170   5.353
 2967SOL    HW2 9801   5.587   0.143   5.447
 2968SOL     OW 9802   1.648   3.989   1.880
 2968SOL    HW1 9803   1.569   4.037   1.919
 2968SOL    HW2 9804   1.638   3.891   1.895
 2969SOL     OW 9805   4.265   1.909   4.906
 2969SOL    HW1 9806   4.258   1.893   4.807
 2969SOL    HW2 9807   4.210   1.988   4.930
 2970SOL     OW 9808   3.231   2.225   5.956
 2970SOL    HW1 9809   3.274   2.203   5.869
 2970SOL    HW2 9810   3.302   2.250   6.022
 2971SOL     OW 9811   4.000   3.412   5.594
 2971SOL    HW1 9812   3.994   3.347   5.670
 2971SOL    HW2 9813   3.949   3.377   5.516
 2972SOL     OW 9814   0.829   5.947   6.337
 2972SOL    HW1 9815   0.903   5.893   6.298
 2972SOL    HW2 9816   0.857   6.043   6.343
 2973SOL     OW 9817   5.619   0.578   4.064
 2973SOL    HW1 9818   5.579   0.667   4.044
 2973SOL    HW2 9819   5.672   0.547   3.985
 2974SOL     OW 9820   5.267   5.687   2.413
 2974SOL    HW1 9821   5.254   5.618   2.485
 2974SOL    HW2 9822   5.217   5.659   2.331
 2975SOL     OW 9823   0.392   3.182   4.627
 2975SOL    HW1 9824   0.365   3.089   4.649
 2975SOL    HW2 9825   0.394   3.237   4.711
 2976SOL     OW 9826   3.977   0.411   1.184
 2976SOL    HW1 9827   3.999   0.430   1.088
 2976SOL    HW2 9828   3.969   0.312   1.198
 2977SOL     OW 9829   1.675   1.489   2.492
 2977SOL    HW1 9830   1.627   1.454   2.573
 2977SOL    HW2 9831   1.716   1.412   2.443
 2978SOL     OW 9832   3.196   6.016   0.359
 2978SOL    HW1 9833   3.167   5.925   0.391
 2978SOL    HW2 9834   3.288   6.035   0.393
 2979SOL     OW 9835   2.195   1.536   5.564
 2979SOL    HW1 9836   2.130   1.608   5.539
 2979SOL    HW2 9837   2.266   1.530   5.494
 2980SOL     OW 9838   2.870   3.478   3.241
 2980SOL    HW1 9839   2.858   3.517   3.150
 2980SOL    HW2 9840   2.882   3.379   3.234
 2981SOL     OW 9841   2.937   2.062   1.704
 2981SOL    HW1 9842   2.888   1.975   1.701
 2981SOL    HW2 9843   3.031   2.050   1.671
 2982SOL     OW 9844   0.909   0.141   2.647
 2982SOL    HW1 9845   0.983   0.145   2.579
 2982SOL    HW2 9846   0.940   0.186   2.731
 2983SOL     OW 9847   6.030   2.421   6.276
 2983SOL    HW1 9848   6.097   2.490   6.249
 2983SOL    HW2 9849   5.938   2.460   6.269
 2984SOL     OW 9850   0.991   6.211   1.232
 2984SOL    HW1 9851   0.993   6.210   1.332
 2984SOL    HW2 9852   0.898   6.198   1.200
 2985SOL     OW 9853   7.008   6.779   5.748
 2985SOL    HW1 9854   0.047   6.764   5.828
 2985SOL    HW2 9855   0.026   6.858   5.697
 2986SOL     OW 9856   4.102   3.571   2.775
 2986SOL    HW1 9857   4.082   3.484   2.821
 2986SOL    HW2 9858   4.128   3.553   2.680
 2987SOL     OW 9859   2.291   6.395   5.512
 2987SOL    HW1 9860   2.383   6.406   5.475
 2987SOL    HW2 9861   2.228   6.453   5.461
 2988SOL     OW 9862   0.845   2.067   6.543
 2988SOL    HW1 9863   0.780   1.991   6.550
 2988SOL    HW2 9864   0.926   2.037   6.494
 2989SOL     OW 9865   5.655   3.667   6.072
 2989SOL    HW1 9866   5.750   3.698   6.080
 2989SOL    HW2 9867   5.634   3.651   5.975
 2990SOL     OW 9868   4.883   1.545   4.965
 2990SOL    HW1 9869   4.960   1.586   4.916
 2990SOL    HW2 9870   4.863   1.599   5.047
 2991SOL     OW 9871   6.437   2.605   0.173
 2991SOL    HW1 9872   6.401   2.616   0.266
 2991SOL    HW2 9873   6.361   2.605   0.108
 2992SOL     OW 9874   2.193   3.930   4.673
 2992SOL    HW1 9875   2.108   3.965   4.632
 2992SOL    HW2 9876   2.178   3.912   4.770
 2993SOL     OW 9877   3.922   5.305   6.352
 2993SOL    HW1 9878   3.860   5.350   6.416
 2993SOL    HW2 9879   3.947   5.215   6.387
 2994SOL     OW 9880   2.734   5.052   4.505
 2994SOL    HW1 9881   2.765   4.965   4.468
 2994SOL    HW2 9882   2.671   5.036   4.581
 2995SOL     OW 9883   5.150   0.234   2.192
 2995SOL    HW1 9884   5.067   0.268   2.147
 2995SOL    HW2 9885   5.167   0.139   2.164
 2996SOL     OW 9886   0.160   0.696   3.670
 2996SOL    HW1 9887   0.094   0.743   3.611
 2996SOL    HW2 9888   0.119   0.680   3.760
 2997SOL     OW 9889   4.875   5.683   3.677
 2997SOL    HW1 9890   4.852   5.754   3.744
 2997SOL    HW2 9891   4.804   5.613   3.677
 2998SOL     OW 9892   3.118   0.125   1.823
 2998SOL    HW1 9893   3.019   0.130   1.817
 2998SOL    HW2 9894   3.151   0.040   1.781
 2999SOL     OW 9895   2.193   4.997   0.281
 2999SOL    HW1 9896   2.261   4.932   0.247
 2999SOL    HW2 9897   2.174   5.066   0.211
 3000SOL     OW 9898   1.867   4.269   6.373
 3000SOL    HW1 9899   1.956   4.224   6.379
 3000SOL    HW2 9900   1.853   4.303   6.280
 3001SOL     OW 9901   3.302   0.420   6.285
 3001SOL    HW1 9902   3.222   0.403   6.342
 3001SOL    HW2 9903   3.362   0.339   6.287
 3002SOL     OW 9904   1.465   1.806   1.794
 3002SOL    HW1 9905   1.396   1.870   1.829
 3002SOL    HW2 9906   1.444   1.784   1.699
 3003SOL     OW 9907   1.801   6.185   6.882
 3003SOL    HW1 9908   1.857   6.150   6.807
 3003SOL    HW2 9909   1.771   6.278   6.860
 3004SOL     OW 9910   2.840   0.587   5.067
 3004SOL    HW1 9911   2.931   0.627   5.064
 3004SOL    HW2 9912   2.774   0.655   5.100
 3005SOL     OW 9913   2.501   1.270   6.754
 3005SOL    HW1 9914   2.494   1.368   6.733
 3005SOL    HW2 9915   2.504   1.258   6.853
 3006SOL     OW 9916   5.908   0.850   5.774
 3006SOL    HW1 9917   5.984   0.895   5.727
 3006SOL    HW2 9918   5.872   0.911   5.845
 3007SOL     OW 9919   6.112   5.724   5.813
 3007SOL    HW1 9920   6.161   5.739   5.899
 3007SOL    HW2 9921   6.174   5.683   5.747
 3008SOL     OW 9922   5.624   3.789   5.325
 3008SOL    HW1 9923   5.686   3.832   5.259
 3008SOL    HW2 9924   5.576   3.860   5.377
 3009SOL     OW 9925   5.473   3.627   1.509
 3009SOL    HW1 9926   5.451   3.690   1.584
 3009SOL    HW2 9927   5.398   3.562   1.498
 3010SOL     OW 9928   4.458   4.701   1.716
 3010SOL    HW1 9929   4.506   4.613   1.721
 3010SOL    HW2 9930   4.362   4.687   1.740
 3011SOL     OW 9931   5.972   6.941   0.861
 3011SOL    HW1 9932   6.004   0.017   0.844
 3011SOL    HW2 9933   5.952   6.897   0.773
 3012SOL     OW 9934   2.046   2.097   4.565
 3012SOL    HW1 9935   2.121   2.096   4.631
 3012SOL    HW2 9936   2.056   2.175   4.504
 3013SOL     OW 9937   0.312   5.210   4.960
 3013SOL    HW1 9938   0.370   5.151   4.905
 3013SOL    HW2 9939   0.230   5.235   4.907
 3014SOL     OW 9940   3.906   0.399   0.549
 3014SOL    HW1 9941   3.976   0.360   0.609
 3014SOL    HW2 9942   3.821   0.348   0.560
 3015SOL     OW 9943   2.450   6.699   6.265
 3015SOL    HW1 9944   2.409   6.788   6.287
 3015SOL    HW2 9945   2.464   6.647   6.349
 3016SOL     OW 9946   2.894   0.794   4.616
 3016SOL    HW1 9947   2.898   0.892   4.595
 3016SOL    HW2 9948   2.807   0.773   4.661
 3017SOL     OW 9949   1.814   6.158   0.155
 3017SOL    HW1 9950   1.799   6.166   0.056
 3017SOL    HW2 9951   1.877   6.082   0.173
 3018SOL     OW 9952   2.315   2.856   1.808
 3018SOL    HW1 9953   2.249   2.866   1.882
 3018SOL    HW2 9954   2.312   2.763   1.772
 3019SOL     OW 9955   0.814   1.362   5.565
 3019SOL    HW1 9956   0.754   1.286   5.538
 3019SOL    HW2 9957   0.895   1.327   5.611
 3020SOL     OW 9958   5.788   4.078   6.289
 3020SOL    HW1 9959   5.856   4.104   6.357
 3020SOL    HW2 9960   5.701   4.060   6.334
 3021SOL     OW 9961   4.365   6.758   4.460
 3021SOL    HW1 9962   4.348   6.681   4.522
 3021SOL    HW2 9963   4.287   6.767   4.397
 3022SOL     OW 9964   3.924   6.591   2.399
 3022SOL    HW1 9965   4.012   6.572   2.443
 3022SOL    HW2 9966   3.851   6.587   2.466
 3023SOL     OW 9967   5.299   4.248   5.107
 3023SOL    HW1 9968   5.232   4.240   5.180
 3023SOL    HW2 9969   5.370   4.179   5.119
 3024SOL     OW 9970   5.998   1.400   6.709
 3024SOL    HW1 9971   5.912   1.353   6.685
 3024SOL    HW2 9972   5.978   1.478   6.768
 3025SOL     OW 9973   3.982   5.402   0.838
 3025SOL    HW1 9974   3.996   5.461   0.759
 3025SOL    HW2 9975   3.899   5.430   0.887
 3026SOL     OW 9976   6.842   6.413   2.472
 3026SOL    HW1 9977   6.860   6.425   2.374
 3026SOL    HW2 9978   6.783   6.487   2.504
 3027SOL     OW 9979   4.163   0.252   0.697
 3027SOL    HW1 9980   4.212   0.188   0.757
 3027SOL    HW2 9981   4.228   0.317   0.657
 3028SOL     OW 9982   4.127   3.440   3.756
 3028SOL    HW1 9983   4.085   3.517   3.709
 3028SOL    HW2 9984   4.171   3.472   3.840
 3029SOL     OW 9985   0.165   2.393   5.236
 3029SOL    HW1 9986   0.187   2.448   5.316
 3029SOL    HW2 9987   0.156   2.453   5.156
 3030SOL     OW 9988   0.359   3.823   6.078
 3030SOL    HW1 9989   0.364   3.727   6.106
 3030SOL    HW2 9990   0.449   3.854   6.049
 3031SOL     OW 9991   0.264   4.729   6.829
 3031SOL    HW1 9992   0.269   4.650   6.890
 3031SOL    HW2 9993   0.343   4.729   6.768
 3032SOL     OW 9994   3.920   6.804   3.680
 3032SOL    HW1 9995   3.904   6.736   3.751
 3032SOL    HW2 9996   3.992   6.867   3.709
 3033SOL     OW 9997   2.110   0.584   6.850
 3033SOL    HW1 9998   2.165   0.538   6.920
 3033SOL    HW2 9999   2.071   0.668   6.888
 3034SOL     OW10000   4.886   3.377   3.313
 3034SOL    HW110001   4.789   3.391   3.297
 3034SOL    HW210002   4.938   3.453   3.272
 3035SOL     OW10003   6.516   4.452   6.739
 3035SOL    HW110004   6.567   4.442   6.825
 3035SOL    HW210005   6.465   4.368   6.721
 3036SOL     OW10006   2.829   2.597   6.582
 3036SOL    HW110007   2.889   2.524   6.549
 3036SOL    HW210008   2.752   2.607   6.519
 3037SOL     OW10009   0.728   5.416   6.136
 3037SOL    HW110010   0.760   5.506   6.105
 3037SOL    HW210011   0.639   5.426   6.182
 3038SOL     OW10012   5.755   4.485   5.085
 3038SOL    HW110013   5.853   4.471   5.095
 3038SOL    HW210014   5.736   4.531   4.998
 3039SOL     OW10015   6.320   3.374   6.688
 3039SOL    HW110016   6.361   3.396   6.776
 3039SOL    HW210017   6.342   3.445   6.622
 3040SOL     OW10018   3.650   6.629   6.501
 3040SOL    HW110019   3.743   6.602   6.476
 3040SOL    HW210020   3.595   6.546   6.517
 3041SOL     OW10021   2.619   5.896   6.461
 3041SOL    HW110022   2.687   5.825   6.443
 3041SOL    HW210023   2.548   5.894   6.390
 3042SOL     OW10024   0.315   5.418   4.267
 3042SOL    HW110025   0.258   5.337   4.277
 3042SOL    HW210026   0.258   5.500   4.275
 3043SOL     OW10027   2.259   3.650   0.986
 3043SOL    HW110028   2.213   3.579   1.038
 3043SOL    HW210029   2.195   3.723   0.965
 3044SOL     OW10030   4.017   3.896   3.780
 3044SOL    HW110031   3.970   3.972   3.826
 3044SOL    HW210032   4.022   3.818   3.843
 3045SOL     OW10033   5.887   0.077   3.211
 3045SOL    HW110034   5.825   0.102   3.137
 3045SOL    HW210035   5.916   6.999   3.199
 3046SOL     OW10036   6.686   5.748   1.510
 3046SOL    HW110037   6.616   5.760   1.580
 3046SOL    HW210038   6.679   5.822   1.442
 3047SOL     OW10039   4.370   2.038   3.852
 3047SOL    HW110040   4.275   2.026   3.880
 3047SOL    HW210041   4.380   2.011   3.756
 3048SOL     OW10042   4.166   4.936   1.284
 3048SOL    HW110043   4.119   5.022   1.263
 3048SOL    HW210044   4.260   4.941   1.251
 3049SOL     OW10045   0.283   0.845   1.156
 3049SOL    HW110046   0.193   0.835   1.114
 3049SOL    HW210047   0.326   0.929   1.122
 3050SOL     OW10048   3.744   2.668   5.337
 3050SOL    HW110049   3.689   2.587   5.315
 3050SOL    HW210050   3.738   2.734   5.262
 3051SOL     OW10051   2.059   4.150   5.966
 3051SOL    HW110052   2.054   4.099   6.052
 3051SOL    HW210053   2.142   4.122   5.917
 3052SOL     OW10054   6.355   6.180   3.962
 3052SOL    HW110055   6.281   6.114   3.976
 3052SOL    HW210056   6.413   6.182   4.043
 3053SOL     OW10057   0.355   5.675   5.916
 3053SOL    HW110058   0.333   5.722   6.001
 3053SOL    HW210059   0.271   5.654   5.867
 3054SOL     OW10060   6.086   6.615   3.682
 3054SOL    HW110061   6.021   6.688   3.664
 3054SOL    HW210062   6.156   6.648   3.745
 3055SOL     OW10063   5.755   6.355   0.752
 3055SOL    HW110064   5.706   6.270   0.732
 3055SOL    HW210065   5.745   6.417   0.674
 3056SOL     OW10066   4.665   2.242   1.198
 3056SOL    HW110067   4.676   2.309   1.271
 3056SOL    HW210068   4.751   2.191   1.186
 3057SOL     OW10069   6.601   2.419   3.054
 3057SOL    HW110070   6.589   2.377   3.144
 3057SOL    HW210071   6.533   2.492   3.042
 3058SOL     OW10072   5.380   3.682   6.528
 3058SOL    HW110073   5.444   3.630   6.472
 3058SOL    HW210074   5.322   3.738   6.468
 3059SOL     OW10075   2.096   2.689   3.358
 3059SOL    HW110076   2.154   2.616   3.395
 3059SOL    HW210077   2.120   2.775   3.403
 3060SOL     OW10078   6.236   3.147   3.766
 3060SOL    HW110079   6.207   3.146   3.862
 3060SOL    HW210080   6.154   3.149   3.708
 3061SOL     OW10081   5.333   5.982   2.743
 3061SOL    HW110082   5.384   5.975   2.657
 3061SOL    HW210083   5.310   6.078   2.760
 3062SOL     OW10084   3.868   5.204   0.068
 3062SOL    HW110085   3.958   5.246   0.060
 3062SOL    HW210086   3.851   5.146   7.006
 3063SOL     OW10087   6.325   5.740   1.335
 3063SOL    HW110088   6.419   5.734   1.303
 3063SOL    HW210089   6.312   5.826   1.385
 3064SOL     OW10090   5.161   1.012   6.068
 3064SOL    HW110091   5.214   1.085   6.025
 3064SOL    HW210092   5.191   0.923   6.033
 3065SOL     OW10093   5.130   1.196   6.589
 3065SOL    HW110094   5.117   1.180   6.491
 3065SOL    HW210095   5.060   1.260   6.622
 3066SOL     OW10096   5.247   0.078   5.622
 3066SOL    HW110097   5.323   0.084   5.558
 3066SOL    HW210098   5.161   0.073   5.571
 3067SOL     OW10099   1.324   2.333   4.779
 3067SOL    HW110100   1.309   2.432   4.769
 3067SOL    HW210101   1.335   2.292   4.689
 3068SOL     OW10102   6.131   0.549   0.886
 3068SOL    HW110103   6.171   0.499   0.809
 3068SOL    HW210104   6.031   0.547   0.880
 3069SOL     OW10105   5.530   5.585   3.775
 3069SOL    HW110106   5.590   5.630   3.842
 3069SOL    HW210107   5.464   5.651   3.740
 3070SOL     OW10108   2.652   1.723   0.544
 3070SOL    HW110109   2.578   1.681   0.491
 3070SOL    HW210110   2.725   1.656   0.558
 3071SOL     OW10111   6.561   4.388   4.632
 3071SOL    HW110112   6.537   4.406   4.537
 3071SOL    HW210113   6.583   4.292   4.644
 3072SOL     OW10114   1.895   6.589   4.592
 3072SOL    HW110115   1.799   6.573   4.573
 3072SOL    HW210116   1.950   6.558   4.515
 3073SOL     OW10117   0.197   5.030   3.235
 3073SOL    HW110118   0.140   4.948   3.238
 3073SOL    HW210119   0.292   5.004   3.215
 3074SOL     OW10120   3.090   3.278   2.056
 3074SOL    HW110121   3.014   3.309   2.000
 3074SOL    HW210122   3.059   3.206   2.118
 3075SOL     OW10123   3.890   4.731   0.597
 3075SOL    HW110124   3.970   4.790   0.609
 3075SOL    HW210125   3.858   4.700   0.686
 3076SOL     OW10126   2.120   1.354   4.194
 3076SOL    HW110127   2.121   1.266   4.147
 3076SOL    HW210128   2.030   1.396   4.183
 3077SOL     OW10129   6.701   3.836   2.618
 3077SOL    HW110130   6.628   3.768   2.608
 3077SOL    HW210131   6.719   3.878   2.529
 3078SOL     OW10132   6.330   4.713   1.185
 3078SOL    HW110133   6.355   4.737   1.279
 3078SOL    HW210134   6.310   4.797   1.134
 3079SOL     OW10135   0.260   3.955   2.301
 3079SOL    HW110136   0.235   3.997   2.388
 3079SOL    HW210137   0.207   3.998   2.227
 3080SOL     OW10138   3.461   4.515   1.316
 3080SOL    HW110139   3.378   4.550   1.360
 3080SOL    HW210140   3.504   4.446   1.375
 3081SOL     OW10141   1.954   2.650   6.228
 3081SOL    HW110142   1.944   2.561   6.182
 3081SOL    HW210143   1.966   2.635   6.326
 3082SOL     OW10144   6.295   3.932   4.782
 3082SOL    HW110145   6.218   3.994   4.769
 3082SOL    HW210146   6.370   3.981   4.827
 3083SOL     OW10147   4.336   5.953   1.463
 3083SOL    HW110148   4.249   5.919   1.497
 3083SOL    HW210149   4.353   6.045   1.501
 3084SOL     OW10150   0.205   5.162   4.237
 3084SOL    HW110151   0.130   5.158   4.171
 3084SOL    HW210152   0.276   5.096   4.211
 3085SOL     OW10153   6.827   5.618   5.903
 3085SOL    HW110154   6.822   5.667   5.816
 3085SOL    HW210155   6.922   5.600   5.926
 3086SOL     OW10156   5.783   6.219   6.076
 3086SOL    HW110157   5.824   6.166   6.150
 3086SOL    HW210158   5.854   6.272   6.030
 3087SOL     OW10159   3.290   6.923   1.323
 3087SOL    HW110160   3.303   6.834   1.280
 3087SOL    HW210161   3.197   6.957   1.304
 3088SOL     OW10162   2.324   3.171   5.342
 3088SOL    HW110163   2.363   3.224   5.417
 3088SOL    HW210164   2.392   3.106   5.308
 3089SOL     OW10165   3.862   6.759   0.128
 3089SOL    HW110166   3.789   6.724   0.070
 3089SOL    HW210167   3.874   6.699   0.207
 3090SOL     OW10168   1.276   2.145   2.785
 3090SOL    HW110169   1.257   2.224   2.844
 3090SOL    HW210170   1.341   2.171   2.714
 3091SOL     OW10171   0.979   2.078   6.270
 3091SOL    HW110172   1.003   2.009   6.201
 3091SOL    HW210173   1.056   2.090   6.333
 3092SOL     OW10174   4.897   2.030   3.624
 3092SOL    HW110175   4.880   1.992   3.533
 3092SOL    HW210176   4.861   1.966   3.693
 3093SOL     OW10177   6.372   5.328   6.834
 3093SOL    HW110178   6.450   5.367   6.785
 3093SOL    HW210179   6.367   5.369   6.925
 3094SOL     OW10180   2.136   0.947   6.540
 3094SOL    HW110181   2.177   0.866   6.583
 3094SOL    HW210182   2.181   1.029   6.575
 3095SOL     OW10183   1.865   3.163   6.042
 3095SOL    HW110184   1.784   3.129   6.091
 3095SOL    HW210185   1.850   3.156   5.944
 3096SOL     OW10186   1.872   3.354   3.688
 3096SOL    HW110187   1.945   3.402   3.736
 3096SOL    HW210188   1.784   3.395   3.712
 3097SOL     OW10189   5.013   2.229   6.306
 3097SOL    HW110190   4.973   2.274   6.387
 3097SOL    HW210191   5.088   2.285   6.271
 3098SOL     OW10192   1.750   3.988   2.493
 3098SOL    HW110193   1.763   3.946   2.582
 3098SOL    HW210194   1.716   3.920   2.428
 3099SOL     OW10195   0.281   0.586   5.979
 3099SOL    HW110196   0.199   0.609   5.928
 3099SOL    HW210197   0.361   0.623   5.932
 3100SOL     OW10198   5.997   3.828   2.980
 3100SOL    HW110199   5.900   3.842   3.002
 3100SOL    HW210200   6.013   3.732   2.957
 3101SOL     OW10201   5.256   0.587   3.942
 3101SOL    HW110202   5.254   0.602   4.041
 3101SOL    HW210203   5.197   0.654   3.897
 3102SOL     OW10204   5.942   3.099   2.966
 3102SOL    HW110205   6.001   3.128   3.041
 3102SOL    HW210206   5.854   3.069   3.002
 3103SOL     OW10207   1.289   0.943   2.497
 3103SOL    HW110208   1.319   0.900   2.582
 3103SOL    HW210209   1.191   0.928   2.485
 3104SOL     OW10210   5.752   1.228   6.244
 3104SOL    HW110211   5.667   1.237   6.193
 3104SOL    HW210212   5.745   1.150   6.307
 3105SOL     OW10213   5.709   4.466   0.347
 3105SOL    HW110214   5.738   4.410   0.425
 3105SOL    HW210215   5.706   4.409   0.265
 3106SOL     OW10216   5.379   2.026   5.726
 3106SOL    HW110217   5.281   2.009   5.716
 3106SOL    HW210218   5.416   2.057   5.638
 3107SOL     OW10219   4.566   2.170   4.758
 3107SOL    HW110220   4.618   2.149   4.840
 3107SOL    HW210221   4.498   2.240   4.779
 3108SOL     OW10222   2.322   4.545   3.940
 3108SOL    HW110223   2.267   4.593   3.872
 3108SOL    HW210224   2.406   4.511   3.897
 3109SOL     OW10225   0.054   5.166   4.005
 3109SOL    HW110226   0.121   5.142   3.935
 3109SOL    HW210227   6.982   5.181   3.963
 3110SOL     OW10228   1.601   5.400   3.993
 3110SOL    HW110229   1.602   5.434   3.899
 3110SOL    HW210230   1.543   5.319   3.998
 3111SOL     OW10231   6.929   3.697   3.949
 3111SOL    HW110232   6.944   3.719   4.046
 3111SOL    HW210233   6.998   3.631   3.919
 3112SOL     OW10234   4.520   0.267   0.913
 3112SOL    HW110235   4.524   0.280   0.814
 3112SOL    HW210236   4.431   0.230   0.939
 3113SOL     OW10237   1.358   6.704   3.537
 3113SOL    HW110238   1.275   6.653   3.560
 3113SOL    HW210239   1.429   6.684   3.605
 3114SOL     OW10240   4.796   5.500   5.520
 3114SOL    HW110241   4.869   5.564   5.543
 3114SOL    HW210242   4.820   5.408   5.551
 3115SOL     OW10243   5.019   5.276   4.732
 3115SOL    HW110244   5.100   5.331   4.754
 3115SOL    HW210245   5.040   5.214   4.657
 3116SOL     OW10246   0.824   2.743   6.697
 3116SOL    HW110247   0.843   2.828   6.747
 3116SOL    HW210248   0.890   2.673   6.725
 3117SOL     OW10249   4.364   0.116   1.917
 3117SOL    HW110250   4.318   0.033   1.886
 3117SOL    HW210251   4.439   0.092   1.979
 3118SOL     OW10252   0.735   2.571   3.544
 3118SOL    HW110253   0.700   2.479   3.564
 3118SOL    HW210254   0.795   2.567   3.464
 3119SOL     OW10255   4.321   6.373   3.464
 3119SOL    HW110256   4.258   6.370   3.385
 3119SOL    HW210257   4.415   6.379   3.431
 3120SOL     OW10258   3.837   6.087   6.412
 3120SOL    HW110259   3.742   6.073   6.441
 3120SOL    HW210260   3.899   6.061   6.486
 3121SOL     OW10261   3.971   1.669   2.941
 3121SOL    HW110262   4.033   1.670   2.863
 3121SOL    HW210263   4.016   1.625   3.019
 3122SOL     OW10264   5.485   3.327   6.328
 3122SOL    HW110265   5.576   3.286   6.319
 3122SOL    HW210266   5.493   3.427   6.326
 3123SOL     OW10267   1.861   3.158   2.584
 3123SOL    HW110268   1.870   3.098   2.504
 3123SOL    HW210269   1.854   3.253   2.553
 3124SOL     OW10270   4.998   6.878   5.501
 3124SOL    HW110271   4.949   6.922   5.426
 3124SOL    HW210272   4.943   6.885   5.585
 3125SOL     OW10273   1.961   1.679   4.720
 3125SOL    HW110274   2.054   1.645   4.703
 3125SOL    HW210275   1.937   1.748   4.652
 3126SOL     OW10276   5.174   4.023   4.991
 3126SOL    HW110277   5.079   4.010   5.018
 3126SOL    HW210278   5.203   4.116   5.014
 3127SOL     OW10279   6.299   2.259   6.151
 3127SOL    HW110280   6.352   2.182   6.187
 3127SOL    HW210281   6.258   2.234   6.063
 3128SOL     OW10282   4.575   1.786   1.329
 3128SOL    HW110283   4.492   1.734   1.311
 3128SOL    HW210284   4.617   1.754   1.414
 3129SOL     OW10285   4.210   4.741   0.703
 3129SOL    HW110286   4.307   4.725   0.721
 3129SOL    HW210287   4.171   4.663   0.653
 3130SOL     OW10288   6.180   5.493   2.619
 3130SOL    HW110289   6.201   5.428   2.545
 3130SOL    HW210290   6.264   5.522   2.663
 3131SOL     OW10291   0.268   2.645   3.244
 3131SOL    HW110292   0.236   2.627   3.151
 3131SOL    HW210293   0.365   2.667   3.243
 3132SOL     OW10294   4.702   3.894   6.189
 3132SOL    HW110295   4.701   3.886   6.289
 3132SOL    HW210296   4.650   3.819   6.149
 3133SOL     OW10297   5.862   6.549   4.204
 3133SOL    HW110298   5.893   6.479   4.140
 3133SOL    HW210299   5.869   6.514   4.298
 3134SOL     OW10300   4.257   5.131   2.986
 3134SOL    HW110301   4.188   5.149   2.915
 3134SOL    HW210302   4.240   5.191   3.064
 3135SOL     OW10303   3.949   0.993   6.217
 3135SOL    HW110304   3.877   0.988   6.286
 3135SOL    HW210305   3.980   1.088   6.208
 3136SOL     OW10306   6.254   6.297   2.013
 3136SOL    HW110307   6.274   6.382   1.964
 3136SOL    HW210308   6.300   6.220   1.966
 3137SOL     OW10309   5.273   3.966   6.809
 3137SOL    HW110310   5.243   4.027   6.735
 3137SOL    HW210311   5.193   3.925   6.853
 3138SOL     OW10312   0.076   6.625   4.971
 3138SOL    HW110313   0.116   6.714   4.950
 3138SOL    HW210314   0.106   6.596   5.062
 3139SOL     OW10315   1.429   4.967   2.347
 3139SOL    HW110316   1.467   5.039   2.406
 3139SOL    HW210317   1.367   5.008   2.280
 3140SOL     OW10318   4.980   5.472   7.009
 3140SOL    HW110319   4.934   5.385   6.992
 3140SOL    HW210320   4.962   5.501   0.086
 3141SOL     OW10321   5.781   2.305   0.231
 3141SOL    HW110322   5.701   2.261   0.270
 3141SOL    HW210323   5.816   2.373   0.295
 3142SOL     OW10324   4.253   1.006   4.024
 3142SOL    HW110325   4.297   1.015   4.113
 3142SOL    HW210326   4.242   0.909   4.002
 3143SOL     OW10327   6.168   1.642   0.174
 3143SOL    HW110328   6.153   1.545   0.192
 3143SOL    HW210329   6.190   1.655   0.077
 3144SOL     OW10330   3.692   5.135   6.296
 3144SOL    HW110331   3.715   5.038   6.286
 3144SOL    HW210332   3.776   5.189   6.290
 3145SOL     OW10333   0.590   6.250   5.579
 3145SOL    HW110334   0.589   6.187   5.656
 3145SOL    HW210335   0.683   6.281   5.563
 3146SOL     OW10336   6.872   1.529   4.152
 3146SOL    HW110337   6.837   1.611   4.198
 3146SOL    HW210338   6.819   1.511   4.070
 3147SOL     OW10339   4.799   6.908   0.628
 3147SOL    HW110340   4.747   6.856   0.560
 3147SOL    HW210341   4.773   7.004   0.624
 3148SOL     OW10342   5.882   4.921   0.339
 3148SOL    HW110343   5.796   4.929   0.389
 3148SOL    HW210344   5.953   4.884   0.399
 3149SOL     OW10345   4.199   3.236   0.144
 3149SOL    HW110346   4.101   3.231   0.128
 3149SOL    HW210347   4.216   3.272   0.236
 3150SOL     OW10348   0.069   0.090   5.230
 3150SOL    HW110349   0.139   0.018   5.233
 3150SOL    HW210350   0.041   0.105   5.136
 3151SOL     OW10351   0.142   1.702   6.600
 3151SOL    HW110352   0.217   1.753   6.558
 3151SOL    HW210353   0.056   1.753   6.590
 3152SOL     OW10354   2.750   1.880   6.230
 3152SOL    HW110355   2.693   1.920   6.301
 3152SOL    HW210356   2.726   1.920   6.141
 3153SOL     OW10357   5.575   5.836   1.942
 3153SOL    HW110358   5.580   5.930   1.975
 3153SOL    HW210359   5.666   5.805   1.914
 3154SOL     OW10360   3.338   2.269   1.124
 3154SOL    HW110361   3.381   2.276   1.215
 3154SOL    HW210362   3.405   2.294   1.054
 3155SOL     OW10363   0.081   5.973   6.717
 3155SOL    HW110364   0.025   5.920   6.653
 3155SOL    HW210365   0.023   6.041   6.762
 3156SOL     OW10366   3.203   4.217   0.846
 3156SOL    HW110367   3.175   4.147   0.780
 3156SOL    HW210368   3.126   4.240   0.905
 3157SOL     OW10369   1.333   1.356   3.367
 3157SOL    HW110370   1.240   1.355   3.404
 3157SOL    HW210371   1.396   1.315   3.433
 3158SOL     OW10372   1.971   0.543   6.130
 3158SOL    HW110373   1.949   0.511   6.222
 3158SOL    HW210374   2.067   0.523   6.110
 3159SOL     OW10375   4.659   5.789   1.595
 3159SOL    HW110376   4.608   5.867   1.559
 3159SOL    HW210377   4.749   5.818   1.624
 3160SOL     OW10378   2.359   1.071   5.806
 3160SOL    HW110379   2.302   0.989   5.809
 3160SOL    HW210380   2.424   1.063   5.730
 3161SOL     OW10381   1.896   2.545   1.877
 3161SOL    HW110382   1.883   2.472   1.811
 3161SOL    HW210383   1.893   2.507   1.970
 3162SOL     OW10384   1.431   5.890   2.006
 3162SOL    HW110385   1.428   5.974   1.951
 3162SOL    HW210386   1.340   5.850   2.010
 3163SOL     OW10387   5.464   4.668   1.992
 3163SOL    HW110388   5.530   4.703   2.058
 3163SOL    HW210389   5.380   4.642   2.039
 3164SOL     OW10390   2.402   0.098   3.612
 3164SOL    HW110391   2.439   0.072   3.523
 3164SOL    HW210392   2.324   0.040   3.634
 3165SOL     OW10393   0.606   5.702   7.007
 3165SOL    HW110394   0.615   5.801   6.997
 3165SOL    HW210395   0.548   5.682   0.068
 3166SOL     OW10396   3.751   2.024   4.663
 3166SOL    HW110397   3.790   2.115   4.650
 3166SOL    HW210398   3.652   2.030   4.672
 3167SOL     OW10399   6.639   2.840   2.457
 3167SOL    HW110400   6.542   2.861   2.469
 3167SOL    HW210401   6.686   2.919   2.419
 3168SOL     OW10402   5.374   1.608   0.777
 3168SOL    HW110403   5.468   1.625   0.807
 3168SOL    HW210404   5.357   1.657   0.691
 3169SOL     OW10405   1.112   2.640   1.679
 3169SOL    HW110406   1.096   2.546   1.708
 3169SOL    HW210407   1.063   2.657   1.593
 3170SOL     OW10408   2.516   4.480   3.752
 3170SOL    HW110409   2.468   4.433   3.678
 3170SOL    HW210410   2.549   4.569   3.718
 3171SOL     OW10411   5.767   1.701   4.778
 3171SOL    HW110412   5.816   1.757   4.844
 3171SOL    HW210413   5.676   1.679   4.814
 3172SOL     OW10414   5.488   4.183   1.250
 3172SOL    HW110415   5.536   4.193   1.338
 3172SOL    HW210416   5.533   4.239   1.181
 3173SOL     OW10417   5.152   4.280   0.138
 3173SOL    HW110418   5.211   4.275   0.058
 3173SOL    HW210419   5.080   4.211   0.130
 3174SOL     OW10420   3.050   3.059   6.958
 3174SOL    HW110421   3.015   3.106   6.877
 3174SOL    HW210422   3.024   2.963   6.956
 3175SOL     OW10423   6.081   6.049   5.468
 3175SOL    HW110424   6.097   5.959   5.427
 3175SOL    HW210425   6.049   6.037   5.562
 3176SOL     OW10426   6.773   5.037   3.873
 3176SOL    HW110427   6.845   5.050   3.805
 3176SOL    HW210428   6.756   5.123   3.920
 3177SOL     OW10429   5.303   2.612   1.648
 3177SOL    HW110430   5.224   2.669   1.626
 3177SOL    HW210431   5.337   2.568   1.565
 3178SOL     OW10432   1.572   0.914   2.725
 3178SOL    HW110433   1.623   0.895   2.641
 3178SOL    HW210434   1.481   0.874   2.718
 3179SOL     OW10435   0.593   3.995   2.760
 3179SOL    HW110436   0.517   4.030   2.705
 3179SOL    HW210437   0.623   3.906   2.723
 3180SOL     OW10438   6.035   0.186   6.409
 3180SOL    HW110439   5.947   0.184   6.457
 3180SOL    HW210440   6.021   0.212   6.314
 3181SOL     OW10441   0.181   6.648   4.545
 3181SOL    HW110442   0.089   6.686   4.534
 3181SOL    HW210443   0.177   6.571   4.609
 3182SOL     OW10444   1.122   0.227   1.487
 3182SOL    HW110445   1.023   0.235   1.497
 3182SOL    HW210446   1.164   0.217   1.577
 3183SOL     OW10447   4.408   4.200   0.327
 3183SOL    HW110448   4.332   4.161   0.274
 3183SOL    HW210449   4.408   4.160   0.419
 3184SOL     OW10450   6.213   0.567   4.688
 3184SOL    HW110451   6.117   0.540   4.689
 3184SOL    HW210452   6.221   0.666   4.696
 3185SOL     OW10453   1.388   0.963   6.144
 3185SOL    HW110454   1.483   0.952   6.114
 3185SOL    HW210455   1.344   1.036   6.092
 3186SOL     OW10456   0.612   2.289   5.929
 3186SOL    HW110457   0.700   2.275   5.975
 3186SOL    HW210458   0.595   2.213   5.867
 3187SOL     OW10459   4.777   0.428   3.271
 3187SOL    HW110460   4.768   0.367   3.350
 3187SOL    HW210461   4.871   0.426   3.239
 3188SOL     OW10462   1.484   6.013   1.489
 3188SOL    HW110463   1.485   6.105   1.451
 3188SOL    HW210464   1.514   6.016   1.584
 3189SOL     OW10465   2.497   2.056   5.518
 3189SOL    HW110466   2.573   2.040   5.455
 3189SOL    HW210467   2.438   1.975   5.520
 3190SOL     OW10468   6.186   6.097   4.529
 3190SOL    HW110469   6.188   6.001   4.557
 3190SOL    HW210470   6.185   6.155   4.610
 3191SOL     OW10471   3.944   5.083   0.678
 3191SOL    HW110472   3.990   5.065   0.591
 3191SOL    HW210473   3.959   5.006   0.740
 3192SOL     OW10474   5.704   0.897   3.279
 3192SOL    HW110475   5.801   0.895   3.258
 3192SOL    HW210476   5.691   0.909   3.377
 3193SOL     OW10477   3.480   5.912   4.561
 3193SOL    HW110478   3.518   5.965   4.486
 3193SOL    HW210479   3.548   5.903   4.634
 3194SOL     OW10480   2.176   6.113   5.971
 3194SOL    HW110481   2.171   6.202   5.925
 3194SOL    HW210482   2.258   6.111   6.029
 3195SOL     OW10483   0.402   6.061   1.556
 3195SOL    HW110484   0.487   6.040   1.604
 3195SOL    HW210485   0.324   6.027   1.608
 3196SOL     OW10486   5.669   0.212   3.003
 3196SOL    HW110487   5.577   0.246   2.985
 3196SOL    HW210488   5.725   0.285   3.043
 3197SOL     OW10489   3.114   0.878   6.859
 3197SOL    HW110490   3.185   0.942   6.889
 3197SOL    HW210491   3.153   0.815   6.791
 3198SOL     OW10492   5.689   4.186   4.094
 3198SOL    HW110493   5.652   4.236   4.173
 3198SOL    HW210494   5.695   4.089   4.116
 3199SOL     OW10495   5.193   3.313   4.115
 3199SOL    HW110496   5.206   3.315   4.214
 3199SOL    HW210497   5.128   3.384   4.088
 3200SOL     OW10498   6.694   3.062   4.757
 3200SOL    HW110499   6.601   3.026   4.763
 3200SOL    HW210500   6.693   3.148   4.706
 3201SOL     OW10501   6.500   3.699   2.550
 3201SOL    HW110502   6.437   3.628   2.583
 3201SOL    HW210503   6.449   3.784   2.537
 3202SOL     OW10504   3.032   2.675   5.967
 3202SOL    HW110505   2.993   2.676   5.875
 3202SOL    HW210506   2.979   2.736   6.026
 3203SOL     OW10507   3.352   6.390   1.706
 3203SOL    HW110508   3.300   6.313   1.744
 3203SOL    HW210509   3.439   6.398   1.753
 3204SOL     OW10510   4.884   0.736   3.526
 3204SOL    HW110511   4.812   0.805   3.519
 3204SOL    HW210512   4.912   0.707   3.434
 3205SOL     OW10513   4.864   3.082   0.180
 3205SOL    HW110514   4.845   3.023   0.258
 3205SOL    HW210515   4.903   3.169   0.212
 3206SOL     OW10516   3.789   5.053   6.883
 3206SOL    HW110517   3.704   5.016   6.847
 3206SOL    HW210518   3.856   4.980   6.895
 3207SOL     OW10519   1.820   6.620   3.214
 3207SOL    HW110520   1.785   6.530   3.239
 3207SOL    HW210521   1.743   6.681   3.196
 3208SOL     OW10522   6.792   3.858   6.770
 3208SOL    HW110523   6.777   3.777   6.828
 3208SOL    HW210524   6.890   3.872   6.759
 3209SOL     OW10525   5.565   0.143   5.181
 3209SOL    HW110526   5.654   0.188   5.181
 3209SOL    HW210527   5.562   0.075   5.108
 3210SOL     OW10528   4.897   4.889   2.239
 3210SOL    HW110529   4.935   4.971   2.196
 3210SOL    HW210530   4.949   4.867   2.321
 3211SOL     OW10531   2.581   0.122   6.983
 3211SOL    HW110532   2.607   0.042   0.019
 3211SOL    HW210533   2.550   0.094   6.892
 3212SOL     OW10534   3.538   6.792   4.628
 3212SOL    HW110535   3.462   6.761   4.684
 3212SOL    HW210536   3.515   6.780   4.531
 3213SOL     OW10537   1.303   0.465   5.855
 3213SOL    HW110538   1.218   0.412   5.861
 3213SOL    HW210539   1.352   0.441   5.771
 3214SOL     OW10540   2.816   0.315   2.856
 3214SOL    HW110541   2.854   0.406   2.842
 3214SOL    HW210542   2.860   0.272   2.934
 3215SOL     OW10543   2.257   3.299   1.675
 3215SOL    HW110544   2.328   3.337   1.734
 3215SOL    HW210545   2.178   3.360   1.674
 3216SOL     OW10546   6.535   4.240   1.146
 3216SOL    HW110547   6.574   4.151   1.166
 3216SOL    HW210548   6.443   4.245   1.185
 3217SOL     OW10549   6.216   5.815   3.711
 3217SOL    HW110550   6.176   5.724   3.694
 3217SOL    HW210551   6.142   5.881   3.725
 3218SOL     OW10552   5.839   1.427   3.578
 3218SOL    HW110553   5.935   1.448   3.561
 3218SOL    HW210554   5.828   1.398   3.673
 3219SOL     OW10555   4.799   1.886   4.456
 3219SOL    HW110556   4.819   1.971   4.407
 3219SOL    HW210557   4.719   1.900   4.515
 3220SOL     OW10558   0.286   3.397   5.549
 3220SOL    HW110559   0.220   3.368   5.617
 3220SOL    HW210560   0.267   3.351   5.462
 3221SOL     OW10561   4.309   1.873   2.101
 3221SOL    HW110562   4.338   1.949   2.042
 3221SOL    HW210563   4.209   1.866   2.098
 3222SOL     OW10564   3.136   0.755   3.547
 3222SOL    HW110565   3.064   0.814   3.510
 3222SOL    HW210566   3.153   0.780   3.642
 3223SOL     OW10567   1.846   5.513   0.545
 3223SOL    HW110568   1.890   5.590   0.592
 3223SOL    HW210569   1.901   5.431   0.557
 3224SOL     OW10570   4.536   2.571   3.586
 3224SOL    HW110571   4.596   2.609   3.516
 3224SOL    HW210572   4.554   2.616   3.674
 3225SOL     OW10573   3.952   0.887   4.936
 3225SOL    HW110574   3.875   0.933   4.893
 3225SOL    HW210575   4.034   0.943   4.928
 3226SOL     OW10576   5.960   0.913   0.465
 3226SOL    HW110577   5.951   1.009   0.490
 3226SOL    HW210578   5.926   0.855   0.539
 3227SOL     OW10579   5.753   4.041   5.819
 3227SOL    HW110580   5.678   4.015   5.879
 3227SOL    HW210581   5.790   4.129   5.848
 3228SOL     OW10582   1.849   4.521   0.897
 3228SOL    HW110583   1.946   4.506   0.880
 3228SOL    HW210584   1.831   4.619   0.900
 3229SOL     OW10585   0.942   0.764   0.731
 3229SOL    HW110586   1.028   0.738   0.774
 3229SOL    HW210587   0.954   0.849   0.680
 3230SOL     OW10588   3.375   6.521   5.346
 3230SOL    HW110589   3.279   6.498   5.331
 3230SOL    HW210590   3.421   6.446   5.394
 3231SOL     OW10591   2.796   2.078   2.636
 3231SOL    HW110592   2.770   2.013   2.564
 3231SOL    HW210593   2.885   2.053   2.673
 3232SOL     OW10594   2.926   4.794   3.794
 3232SOL    HW110595   2.909   4.825   3.701
 3232SOL    HW210596   2.847   4.742   3.827
 3233SOL     OW10597   2.359   0.325   5.461
 3233SOL    HW110598   2.406   0.307   5.547
 3233SOL    HW210599   2.426   0.329   5.387
 3234SOL     OW10600   3.445   3.687   0.618
 3234SOL    HW110601   3.371   3.624   0.641
 3234SOL    HW210602   3.443   3.764   0.682
 3235SOL     OW10603   0.452   2.091   2.766
 3235SOL    HW110604   0.544   2.051   2.762
 3235SOL    HW210605   0.457   2.183   2.804
 3236SOL     OW10606   5.820   6.552   0.510
 3236SOL    HW110607   5.864   6.475   0.464
 3236SOL    HW210608   5.773   6.609   0.441
 3237SOL     OW10609   6.141   2.012   5.624
 3237SOL    HW110610   6.166   2.037   5.530
 3237SOL    HW210611   6.066   2.071   5.655
 3238SOL     OW10612   0.182   5.081   1.006
 3238SOL    HW110613   0.224   5.147   0.943
 3238SOL    HW210614   0.227   5.087   1.095
 3239SOL     OW10615   6.048   1.067   5.037
 3239SOL    HW110616   6.094   1.138   4.984
 3239SOL    HW210617   6.086   1.064   5.130
 3240SOL     OW10618   0.640   1.716   1.649
 3240SOL    HW110619   0.653   1.728   1.551
 3240SOL    HW210620   0.568   1.777   1.681
 3241SOL     OW10621   0.210   2.861   5.829
 3241SOL    HW110622   0.211   2.961   5.834
 3241SOL    HW210623   0.298   2.828   5.794
 3242SOL     OW10624   0.460   4.888   5.183
 3242SOL    HW110625   0.491   4.923   5.094
 3242SOL    HW210626   0.508   4.936   5.256
 3243SOL     OW10627   6.150   5.386   5.116
 3243SOL    HW110628   6.139   5.452   5.042
 3243SOL    HW210629   6.120   5.296   5.084
 3244SOL     OW10630   4.710   0.171   6.909
 3244SOL    HW110631   4.614   0.195   6.890
 3244SOL    HW210632   4.756   0.146   6.824
 3245SOL     OW10633   2.359   6.278   4.192
 3245SOL    HW110634   2.361   6.329   4.106
 3245SOL    HW210635   2.320   6.187   4.176
 3246SOL     OW10636   6.620   5.802   2.747
 3246SOL    HW110637   6.647   5.860   2.824
 3246SOL    HW210638   6.536   5.753   2.770
 3247SOL     OW10639   2.347   4.287   4.674
 3247SOL    HW110640   2.421   4.337   4.718
 3247SOL    HW210641   2.300   4.231   4.741
 3248SOL     OW10642   6.151   2.361   3.839
 3248SOL    HW110643   6.214   2.312   3.898
 3248SOL    HW210644   6.117   2.442   3.886
 3249SOL     OW10645   3.808   4.072   3.936
 3249SOL    HW110646   3.778   4.167   3.945
 3249SOL    HW210647   3.859   4.045   4.018
 3250SOL     OW10648   4.699   5.443   3.683
 3250SOL    HW110649   4.615   5.416   3.730
 3250SOL    HW210650   4.756   5.363   3.667
 3251SOL     OW10651   2.477   2.096   2.406
 3251SOL    HW110652   2.384   2.088   2.373
 3251SOL    HW210653   2.489   2.185   2.451
 3252SOL     OW10654   1.553   1.740   2.500
 3252SOL    HW110655   1.599   1.652   2.507
 3252SOL    HW210656   1.501   1.757   2.584
 3253SOL     OW10657   6.461   3.443   1.318
 3253SOL    HW110658   6.413   3.454   1.231
 3253SOL    HW210659   6.437   3.355   1.358
 3254SOL     OW10660   6.413   6.789   0.712
 3254SOL    HW110661   6.509   6.763   0.712
 3254SOL    HW210662   6.378   6.788   0.618
 3255SOL     OW10663   3.672   4.867   2.294
 3255SOL    HW110664   3.624   4.815   2.224
 3255SOL    HW210665   3.614   4.941   2.327
 3256SOL     OW10666   5.501   2.805   2.065
 3256SOL    HW110667   5.578   2.766   2.015
 3256SOL    HW210668   5.481   2.897   2.030
 3257SOL     OW10669   2.714   1.018   2.684
 3257SOL    HW110670   2.664   0.933   2.666
 3257SOL    HW210671   2.657   1.079   2.740
 3258SOL     OW10672   0.691   5.070   3.887
 3258SOL    HW110673   0.645   5.054   3.975
 3258SOL    HW210674   0.625   5.100   3.819
 3259SOL     OW10675   6.116   4.935   3.506
 3259SOL    HW110676   6.066   4.849   3.503
 3259SOL    HW210677   6.200   4.927   3.452
 3260SOL     OW10678   2.615   4.722   3.641
 3260SOL    HW110679   2.520   4.749   3.626
 3260SOL    HW210680   2.668   4.803   3.668
 3261SOL     OW10681   6.066   6.804   4.041
 3261SOL    HW110682   6.003   6.753   4.100
 3261SOL    HW210683   6.068   6.900   4.069
 3262SOL     OW10684   3.095   1.544   2.894
 3262SOL    HW110685   3.138   1.609   2.830
 3262SOL    HW210686   3.083   1.588   2.982
 3263SOL     OW10687   5.621   0.139   1.740
 3263SOL    HW110688   5.608   0.235   1.762
 3263SOL    HW210689   5.716   0.123   1.711
 3264SOL     OW10690   1.109   5.130   6.178
 3264SOL    HW110691   1.032   5.185   6.209
 3264SOL    HW210692   1.187   5.143   6.239
 3265SOL     OW10693   6.921   6.047   5.774
 3265SOL    HW110694   6.977   6.058   5.692
 3265SOL    HW210695   6.836   6.000   5.750
 3266SOL     OW10696   3.819   4.567   6.393
 3266SOL    HW110697   3.853   4.547   6.485
 3266SOL    HW210698   3.895   4.590   6.333
 3267SOL     OW10699   3.042   0.303   0.745
 3267SOL    HW110700   3.107   0.251   0.690
 3267SOL    HW210701   3.001   0.375   0.689
 3268SOL     OW10702   5.384   4.141   2.220
 3268SOL    HW110703   5.466   4.083   2.228
 3268SOL    HW210704   5.303   4.083   2.211
 3269SOL     OW10705   2.143   5.426   0.901
 3269SOL    HW110706   2.047   5.447   0.922
 3269SOL    HW210707   2.190   5.399   0.985
 3270SOL     OW10708   1.771   3.101   6.533
 3270SOL    HW110709   1.846   3.148   6.487
 3270SOL    HW210710   1.768   3.005   6.503
 3271SOL     OW10711   0.809   4.059   1.312
 3271SOL    HW110712   0.881   3.991   1.296
 3271SOL    HW210713   0.844   4.151   1.292
 3272SOL     OW10714   3.654   0.302   0.573
 3272SOL    HW110715   3.614   0.232   0.513
 3272SOL    HW210716   3.614   0.391   0.550
 3273SOL     OW10717   4.271   3.727   6.745
 3273SOL    HW110718   4.226   3.640   6.726
 3273SOL    HW210719   4.277   3.781   6.661
 3274SOL     OW10720   4.375   0.327   2.140
 3274SOL    HW110721   4.310   0.391   2.098
 3274SOL    HW210722   4.369   0.239   2.094
 3275SOL     OW10723   5.215   0.498   1.543
 3275SOL    HW110724   5.245   0.593   1.544
 3275SOL    HW210725   5.166   0.477   1.628
 3276SOL     OW10726   5.875   5.632   0.369
 3276SOL    HW110727   5.928   5.575   0.431
 3276SOL    HW210728   5.874   5.591   0.278
 3277SOL     OW10729   4.185   1.254   2.327
 3277SOL    HW110730   4.252   1.326   2.312
 3277SOL    HW210731   4.225   1.165   2.305
 3278SOL     OW10732   5.022   1.477   6.818
 3278SOL    HW110733   4.979   1.460   6.729
 3278SOL    HW210734   5.097   1.541   6.807
 3279SOL     OW10735   4.352   0.508   2.509
 3279SOL    HW110736   4.293   0.469   2.439
 3279SOL    HW210737   4.419   0.439   2.538
 3280SOL     OW10738   6.518   2.700   4.321
 3280SOL    HW110739   6.550   2.707   4.226
 3280SOL    HW210740   6.476   2.610   4.336
 3281SOL     OW10741   6.175   2.736   2.222
 3281SOL    HW110742   6.149   2.832   2.212
 3281SOL    HW210743   6.101   2.678   2.189
 3282SOL     OW10744   6.673   4.602   5.107
 3282SOL    HW110745   6.763   4.640   5.089
 3282SOL    HW210746   6.682   4.507   5.137
 3283SOL     OW10747   3.425   1.352   0.359
 3283SOL    HW110748   3.388   1.414   0.289
 3283SOL    HW210749   3.477   1.405   0.426
 3284SOL     OW10750   2.033   1.225   5.178
 3284SOL    HW110751   2.105   1.207   5.246
 3284SOL    HW210752   2.002   1.139   5.139
 3285SOL     OW10753   3.771   1.721   3.915
 3285SOL    HW110754   3.839   1.713   3.842
 3285SOL    HW210755   3.679   1.716   3.875
 3286SOL     OW10756   1.214   4.292   3.350
 3286SOL    HW110757   1.263   4.332   3.272
 3286SOL    HW210758   1.197   4.362   3.418
 3287SOL     OW10759   3.051   1.363   0.427
 3287SOL    HW110760   3.102   1.406   0.502
 3287SOL    HW210761   2.966   1.325   0.462
 3288SOL     OW10762   3.213   5.169   1.917
 3288SOL    HW110763   3.199   5.238   1.988
 3288SOL    HW210764   3.311   5.152   1.906
 3289SOL     OW10765   5.113   0.064   6.985
 3289SOL    HW110766   5.125   6.986   6.956
 3289SOL    HW210767   5.083   0.119   6.907
 3290SOL     OW10768   0.784   4.797   0.095
 3290SOL    HW110769   0.694   4.754   0.099
 3290SOL    HW210770   0.774   4.895   0.110
 3291SOL     OW10771   5.098   6.486   5.667
 3291SOL    HW110772   5.152   6.533   5.737
 3291SOL    HW210773   5.093   6.543   5.585
 3292SOL     OW10774   0.309   3.272   1.043
 3292SOL    HW110775   0.391   3.228   1.079
 3292SOL    HW210776   0.326   3.370   1.030
 3293SOL     OW10777   6.677   4.389   2.384
 3293SOL    HW110778   6.755   4.451   2.392
 3293SOL    HW210779   6.613   4.405   2.459
 3294SOL     OW10780   4.145   2.905   5.371
 3294SOL    HW110781   4.232   2.895   5.323
 3294SOL    HW210782   4.082   2.834   5.340
 3295SOL     OW10783   1.079   3.522   3.511
 3295SOL    HW110784   0.991   3.528   3.463
 3295SOL    HW210785   1.152   3.550   3.450
 3296SOL     OW10786   2.183   0.665   0.191
 3296SOL    HW110787   2.260   0.696   0.247
 3296SOL    HW210788   2.213   0.588   0.134
 3297SOL     OW10789   2.848   0.611   5.779
 3297SOL    HW110790   2.807   0.682   5.722
 3297SOL    HW210791   2.922   0.650   5.834
 3298SOL     OW10792   3.711   3.947   6.049
 3298SOL    HW110793   3.688   3.889   5.971
 3298SOL    HW210794   3.761   3.893   6.117
 3299SOL     OW10795   2.679   0.170   4.264
 3299SOL    HW110796   2.581   0.181   4.282
 3299SOL    HW210797   2.727   0.147   4.348
 3300SOL     OW10798   1.764   0.877   3.324
 3300SOL    HW110799   1.800   0.931   3.248
 3300SOL    HW210800   1.731   0.789   3.289
 3301SOL     OW10801   1.370   1.028   2.236
 3301SOL    HW110802   1.401   1.072   2.320
 3301SOL    HW210803   1.274   1.001   2.246
 3302SOL     OW10804   1.260   4.607   4.726
 3302SOL    HW110805   1.238   4.704   4.718
 3302SOL    HW210806   1.320   4.580   4.651
 3303SOL     OW10807   4.529   3.710   0.669
 3303SOL    HW110808   4.571   3.798   0.690
 3303SOL    HW210809   4.500   3.666   0.754
 3304SOL     OW10810   2.275   4.024   1.067
 3304SOL    HW110811   2.356   3.978   1.106
 3304SOL    HW210812   2.216   3.956   1.025
 3305SOL     OW10813   3.263   2.691   0.116
 3305SOL    HW110814   3.198   2.767   0.117
 3305SOL    HW210815   3.216   2.607   0.093
 3306SOL     OW10816   2.670   0.533   0.994
 3306SOL    HW110817   2.692   0.534   1.091
 3306SOL    HW210818   2.600   0.463   0.977
 3307SOL     OW10819   1.975   5.552   5.239
 3307SOL    HW110820   1.985   5.475   5.177
 3307SOL    HW210821   2.010   5.635   5.196
 3308SOL     OW10822   5.171   5.747   1.192
 3308SOL    HW110823   5.212   5.768   1.280
 3308SOL    HW210824   5.222   5.673   1.148
 3309SOL     OW10825   6.018   3.642   4.046
 3309SOL    HW110826   6.028   3.663   4.143
 3309SOL    HW210827   5.944   3.696   4.007
 3310SOL     OW10828   6.334   4.534   6.546
 3310SOL    HW110829   6.365   4.624   6.514
 3310SOL    HW210830   6.387   4.506   6.626
 3311SOL     OW10831   1.988   2.905   0.279
 3311SOL    HW110832   2.064   2.966   0.303
 3311SOL    HW210833   2.024   2.823   0.234
 3312SOL     OW10834   5.106   3.629   0.357
 3312SOL    HW110835   5.045   3.704   0.329
 3312SOL    HW210836   5.186   3.627   0.297
 3313SOL     OW10837   1.032   6.778   3.582
 3313SOL    HW110838   0.953   6.754   3.639
 3313SOL    HW210839   1.072   6.864   3.613
 3314SOL     OW10840   3.013   6.243   3.635
 3314SOL    HW110841   3.020   6.342   3.620
 3314SOL    HW210842   3.073   6.217   3.711
 3315SOL     OW10843   0.891   6.451   3.843
 3315SOL    HW110844   0.852   6.527   3.791
 3315SOL    HW210845   0.981   6.478   3.877
 3316SOL     OW10846   3.533   1.869   0.403
 3316SOL    HW110847   3.623   1.899   0.435
 3316SOL    HW210848   3.506   1.787   0.453
 3317SOL     OW10849   5.666   1.986   0.913
 3317SOL    HW110850   5.578   1.971   0.868
 3317SOL    HW210851   5.712   1.898   0.927
 3318SOL     OW10852   3.814   2.578   0.841
 3318SOL    HW110853   3.738   2.573   0.905
 3318SOL    HW210854   3.786   2.626   0.758
 3319SOL     OW10855   6.567   6.708   3.821
 3319SOL    HW110856   6.473   6.723   3.851
 3319SOL    HW210857   6.569   6.632   3.756
 3320SOL     OW10858   6.083   0.587   2.436
 3320SOL    HW110859   6.053   0.621   2.525
 3320SOL    HW210860   6.108   0.490   2.445
 3321SOL     OW10861   4.377   1.752   6.793
 3321SOL    HW110862   4.474   1.731   6.791
 3321SOL    HW210863   4.330   1.696   6.725
 3322SOL     OW10864   6.054   3.723   1.575
 3322SOL    HW110865   5.960   3.746   1.550
 3322SOL    HW210866   6.073   3.628   1.551
 3323SOL     OW10867   1.215   0.416   1.983
 3323SOL    HW110868   1.121   0.404   2.015
 3323SOL    HW210869   1.278   0.411   2.060
 3324SOL     OW10870   6.302   5.762   6.033
 3324SOL    HW110871   6.369   5.760   5.958
 3324SOL    HW210872   6.321   5.687   6.096
 3325SOL     OW10873   2.600   5.179   6.202
 3325SOL    HW110874   2.615   5.127   6.286
 3325SOL    HW210875   2.648   5.134   6.126
 3326SOL     OW10876   4.046   1.652   1.835
 3326SOL    HW110877   3.958   1.699   1.849
 3326SOL    HW210878   4.036   1.556   1.858
 3327SOL     OW10879   1.291   6.108   5.798
 3327SOL    HW110880   1.243   6.196   5.799
 3327SOL    HW210881   1.270   6.060   5.713
 3328SOL     OW10882   4.711   2.781   5.167
 3328SOL    HW110883   4.628   2.748   5.122
 3328SOL    HW210884   4.706   2.760   5.265
 3329SOL     OW10885   6.724   6.517   5.830
 3329SOL    HW110886   6.666   6.585   5.874
 3329SOL    HW210887   6.708   6.518   5.731
 3330SOL     OW10888   6.913   2.754   2.512
 3330SOL    HW110889   6.820   2.767   2.548
 3330SOL    HW210890   6.971   2.829   2.543
 3331SOL     OW10891   1.745   3.075   0.428
 3331SOL    HW110892   1.743   3.158   0.372
 3331SOL    HW210893   1.824   3.019   0.402
 3332SOL     OW10894   0.205   3.970   1.965
 3332SOL    HW110895   0.230   3.966   1.868
 3332SOL    HW210896   0.191   4.065   1.992
 3333SOL     OW10897   3.314   6.086   5.129
 3333SOL    HW110898   3.407   6.063   5.159
 3333SOL    HW210899   3.275   6.007   5.081
 3334SOL     OW10900   1.371   3.106   1.175
 3334SOL    HW110901   1.462   3.148   1.172
 3334SOL    HW210902   1.381   3.007   1.185
 3335SOL     OW10903   5.529   4.373   4.448
 3335SOL    HW110904   5.491   4.363   4.356
 3335SOL    HW210905   5.585   4.456   4.453
 3336SOL     OW10906   3.393   6.405   5.752
 3336SOL    HW110907   3.304   6.423   5.709
 3336SOL    HW210908   3.393   6.313   5.791
 3337SOL     OW10909   3.565   1.491   0.573
 3337SOL    HW110910   3.603   1.429   0.641
 3337SOL    HW210911   3.476   1.525   0.604
 3338SOL     OW10912   0.027   5.488   0.299
 3338SOL    HW110913   0.024   5.390   0.319
 3338SOL    HW210914   6.972   5.535   0.349
 3339SOL     OW10915   0.241   4.579   6.275
 3339SOL    HW110916   0.225   4.664   6.225
 3339SOL    HW210917   0.154   4.545   6.311
 3340SOL     OW10918   3.985   0.321   1.718
 3340SOL    HW110919   3.906   0.382   1.723
 3340SOL    HW210920   4.067   0.371   1.745
 3341SOL     OW10921   0.881   0.329   6.951
 3341SOL    HW110922   0.958   0.374   6.995
 3341SOL    HW210923   0.801   0.390   6.953
 3342SOL     OW10924   1.745   6.582   5.444
 3342SOL    HW110925   1.646   6.590   5.455
 3342SOL    HW210926   1.790   6.653   5.497
 3343SOL     OW10927   0.125   2.214   0.946
 3343SOL    HW110928   0.148   2.280   1.017
 3343SOL    HW210929   0.026   2.199   0.945
 3344SOL     OW10930   1.769   2.585   6.490
 3344SOL    HW110931   1.699   2.554   6.426
 3344SOL    HW210932   1.748   2.551   6.582
 3345SOL     OW10933   2.634   3.203   6.380
 3345SOL    HW110934   2.694   3.125   6.394
 3345SOL    HW210935   2.635   3.229   6.283
 3346SOL     OW10936   1.998   5.534   3.025
 3346SOL    HW110937   1.988   5.631   3.003
 3346SOL    HW210938   2.093   5.514   3.048
 3347SOL     OW10939   6.298   3.852   4.278
 3347SOL    HW110940   6.281   3.884   4.185
 3347SOL    HW210941   6.382   3.799   4.280
 3348SOL     OW10942   4.024   3.662   3.598
 3348SOL    HW110943   4.001   3.742   3.653
 3348SOL    HW210944   3.940   3.618   3.567
 3349SOL     OW10945   4.838   2.638   0.550
 3349SOL    HW110946   4.909   2.657   0.482
 3349SOL    HW210947   4.797   2.549   0.532
 3350SOL     OW10948   2.480   3.073   1.243
 3350SOL    HW110949   2.498   3.171   1.254
 3350SOL    HW210950   2.387   3.060   1.210
 3351SOL     OW10951   5.906   2.850   0.731
 3351SOL    HW110952   5.955   2.840   0.644
 3351SOL    HW210953   5.952   2.917   0.788
 3352SOL     OW10954   0.224   3.301   0.190
 3352SOL    HW110955   0.188   3.264   0.276
 3352SOL    HW210956   0.222   3.230   0.120
 3353SOL     OW10957   1.448   6.581   6.615
 3353SOL    HW110958   1.491   6.649   6.676
 3353SOL    HW210959   1.363   6.549   6.656
 3354SOL     OW10960   0.956   0.004   2.325
 3354SOL    HW110961   1.015   6.941   2.322
 3354SOL    HW210962   1.002   0.079   2.373
 3355SOL     OW10963   5.969   0.925   2.602
 3355SOL    HW110964   5.949   0.828   2.619
 3355SOL    HW210965   5.886   0.971   2.571
 3356SOL     OW10966   1.193   3.772   6.763
 3356SOL    HW110967   1.225   3.678   6.774
 3356SOL    HW210968   1.255   3.835   6.810
 3357SOL     OW10969   2.600   5.642   2.211
 3357SOL    HW110970   2.672   5.573   2.219
 3357SOL    HW210971   2.535   5.631   2.286
 3358SOL     OW10972   6.845   3.950   3.306
 3358SOL    HW110973   6.926   4.007   3.294
 3358SOL    HW210974   6.833   3.927   3.403
 3359SOL     OW10975   1.955   1.321   1.834
 3359SOL    HW110976   1.972   1.417   1.816
 3359SOL    HW210977   1.970   1.301   1.931
 3360SOL     OW10978   2.902   1.135   6.371
 3360SOL    HW110979   2.811   1.133   6.329
 3360SOL    HW210980   2.953   1.053   6.345
 3361SOL     OW10981   2.349   1.040   2.909
 3361SOL    HW110982   2.413   0.985   2.964
 3361SOL    HW210983   2.268   1.061   2.964
 3362SOL     OW10984   3.084   2.105   4.495
 3362SOL    HW110985   3.060   2.141   4.585
 3362SOL    HW210986   3.046   2.165   4.425
 3363SOL     OW10987   6.479   0.918   0.080
 3363SOL    HW110988   6.394   0.914   0.028
 3363SOL    HW210989   6.471   0.863   0.163
 3364SOL     OW10990   1.619   5.278   5.377
 3364SOL    HW110991   1.587   5.229   5.458
 3364SOL    HW210992   1.556   5.261   5.301
 3365SOL     OW10993   6.453   2.346   5.125
 3365SOL    HW110994   6.465   2.423   5.062
 3365SOL    HW210995   6.533   2.340   5.185
 3366SOL     OW10996   5.501   0.415   0.113
 3366SOL    HW110997   5.551   0.393   0.197
 3366SOL    HW210998   5.409   0.446   0.136
 3367SOL     OW10999   2.453   6.975   2.525
 3367SOL    HW111000   2.521   0.029   2.503
 3367SOL    HW211001   2.374   0.001   2.568
 3368SOL     OW11002   6.150   1.237   4.543
 3368SOL    HW111003   6.237   1.277   4.515
 3368SOL    HW211004   6.077   1.269   4.482
 3369SOL     OW11005   4.172   5.407   6.565
 3369SOL    HW111006   4.087   5.459   6.566
 3369SOL    HW211007   4.193   5.376   6.657
 3370SOL     OW11008   6.143   0.702   5.578
 3370SOL    HW111009   6.106   0.790   5.606
 3370SOL    HW211010   6.141   0.638   5.655
 3371SOL     OW11011   6.788   4.864   1.310
 3371SOL    HW111012   6.814   4.773   1.341
 3371SOL    HW211013   6.861   4.929   1.332
 3372SOL     OW11014   1.520   3.088   2.878
 3372SOL    HW111015   1.563   3.161   2.932
 3372SOL    HW211016   1.580   3.063   2.802
 3373SOL     OW11017   1.056   2.587   6.035
 3373SOL    HW111018   0.959   2.602   6.016
 3373SOL    HW211019   1.081   2.636   6.119
 3374SOL     OW11020   3.715   6.192   5.365
 3374SOL    HW111021   3.800   6.157   5.405
 3374SOL    HW211022   3.661   6.236   5.436
 3375SOL     OW11023   3.673   3.784   4.769
 3375SOL    HW111024   3.729   3.865   4.752
 3375SOL    HW211025   3.660   3.735   4.683
 3376SOL     OW11026   3.331   2.947   1.660
 3376SOL    HW111027   3.380   3.033   1.652
 3376SOL    HW211028   3.287   2.942   1.750
 3377SOL     OW11029   2.947   5.399   5.753
 3377SOL    HW111030   2.863   5.450   5.770
 3377SOL    HW211031   2.976   5.413   5.658
 3378SOL     OW11032   6.758   1.084   1.266
 3378SOL    HW111033   6.715   1.053   1.181
 3378SOL    HW211034   6.688   1.097   1.336
 3379SOL     OW11035   5.843   5.418   5.655
 3379SOL    HW111036   5.841   5.502   5.709
 3379SOL    HW211037   5.852   5.440   5.558
 3380SOL     OW11038   0.738   3.850   5.596
 3380SOL    HW111039   0.834   3.824   5.606
 3380SOL    HW211040   0.730   3.949   5.598
 3381SOL     OW11041   3.080   2.475   1.287
 3381SOL    HW111042   3.143   2.424   1.345
 3381SOL    HW211043   3.069   2.427   1.200
 3382SOL     OW11044   0.298   6.331   0.611
 3382SOL    HW111045   0.285   6.250   0.553
 3382SOL    HW211046   0.307   6.412   0.553
 3383SOL     OW11047   0.559   3.973   1.222
 3383SOL    HW111048   0.581   3.965   1.125
 3383SOL    HW211049   0.637   4.011   1.272
 3384SOL     OW11050   3.603   3.739   3.357
 3384SOL    HW111051   3.543   3.689   3.295
 3384SOL    HW211052   3.679   3.779   3.305
 3385SOL     OW11053   6.623   3.940   4.110
 3385SOL    HW111054   6.672   3.909   4.191
 3385SOL    HW211055   6.587   3.861   4.060
 3386SOL     OW11056   5.839   4.179   4.534
 3386SOL    HW111057   5.760   4.118   4.531
 3386SOL    HW211058   5.906   4.150   4.466
 3387SOL     OW11059   3.503   1.577   2.337
 3387SOL    HW111060   3.506   1.596   2.238
 3387SOL    HW211061   3.528   1.481   2.353
 3388SOL     OW11062   5.841   2.056   1.291
 3388SOL    HW111063   5.876   2.142   1.254
 3388SOL    HW211064   5.868   2.049   1.387
 3389SOL     OW11065   4.107   5.733   2.683
 3389SOL    HW111066   4.150   5.645   2.662
 3389SOL    HW211067   4.008   5.722   2.686
 3390SOL     OW11068   4.217   1.372   5.749
 3390SOL    HW111069   4.223   1.384   5.650
 3390SOL    HW211070   4.250   1.281   5.774
 3391SOL     OW11071   2.974   1.618   4.066
 3391SOL    HW111072   3.030   1.622   3.983
 3391SOL    HW211073   3.001   1.693   4.127
 3392SOL     OW11074   5.230   6.561   3.696
 3392SOL    HW111075   5.149   6.504   3.714
 3392SOL    HW211076   5.230   6.639   3.758
 3393SOL     OW11077   7.003   6.759   6.617
 3393SOL    HW111078   0.063   6.808   6.657
 3393SOL    HW211079   6.926   6.757   6.681
 3394SOL     OW11080   5.189   1.348   1.904
 3394SOL    HW111081   5.252   1.271   1.912
 3394SOL    HW211082   5.224   1.414   1.838
 3395SOL     OW11083   1.890   3.773   5.103
 3395SOL    HW111084   1.827   3.803   5.031
 3395SOL    HW211085   1.877   3.676   5.120
 3396SOL     OW11086   6.477   3.556   4.594
 3396SOL    HW111087   6.539   3.593   4.524
 3396SOL    HW211088   6.386   3.594   4.580
 3397SOL     OW11089   3.343   5.444   6.335
 3397SOL    HW111090   3.326   5.394   6.420
 3397SOL    HW211091   3.308   5.390   6.258
 3398SOL     OW11092   0.619   1.387   3.233
 3398SOL    HW111093   0.527   1.373   3.269
 3398SOL    HW211094   0.613   1.411   3.136
 3399SOL     OW11095   4.052   5.917   4.466
 3399SOL    HW111096   4.106   5.864   4.531
 3399SOL    HW211097   4.052   5.870   4.377
 3400SOL     OW11098   5.039   2.324   0.523
 3400SOL    HW111099   4.973   2.250   0.508
 3400SOL    HW211100   5.037   2.351   0.619
 3401SOL     OW11101   6.638   4.643   6.614
 3401SOL    HW111102   6.562   4.699   6.580
 3401SOL    HW211103   6.603   4.555   6.646
 3402SOL     OW11104   4.160   4.665   2.184
 3402SOL    HW111105   4.095   4.698   2.252
 3402SOL    HW211106   4.241   4.629   2.230
 3403SOL     OW11107   4.041   1.747   6.216
 3403SOL    HW111108   3.990   1.661   6.216
 3403SOL    HW211109   3.988   1.818   6.171
 3404SOL     OW11110   4.640   5.887   1.884
 3404SOL    HW111111   4.561   5.867   1.942
 3404SOL    HW211112   4.615   5.875   1.788
 3405SOL     OW11113   6.069   4.359   6.945
 3405SOL    HW111114   5.993   4.423   6.958
 3405SOL    HW211115   6.049   4.274   6.994
 3406SOL     OW11116   1.306   3.719   1.562
 3406SOL    HW111117   1.274   3.784   1.493
 3406SOL    HW211118   1.336   3.769   1.644
 3407SOL     OW11119   1.356   5.489   2.908
 3407SOL    HW111120   1.275   5.445   2.947
 3407SOL    HW211121   1.327   5.554   2.837
 3408SOL     OW11122   5.349   3.532   2.654
 3408SOL    HW111123   5.357   3.577   2.566
 3408SOL    HW211124   5.326   3.436   2.641
 3409SOL     OW11125   2.445   0.994   6.770
 3409SOL    HW111126   2.521   0.942   6.808
 3409SOL    HW211127   2.467   1.091   6.773
 3410SOL     OW11128   0.235   2.096   0.157
 3410SOL    HW111129   0.250   2.134   0.249
 3410SOL    HW211130   0.307   2.127   0.095
 3411SOL     OW11131   5.045   2.110   2.305
 3411SOL    HW111132   5.079   2.199   2.277
 3411SOL    HW211133   5.106   2.072   2.375
 3412SOL     OW11134   4.613   5.304   6.874
 3412SOL    HW111135   4.612   5.244   6.795
 3412SOL    HW211136   4.622   5.399   6.844
 3413SOL     OW11137   5.066   1.047   2.411
 3413SOL    HW111138   5.009   1.032   2.492
 3413SOL    HW211139   5.021   1.113   2.351
 3414SOL     OW11140   3.918   0.427   5.389
 3414SOL    HW111141   3.942   0.439   5.485
 3414SOL    HW211142   3.860   0.346   5.379
 3415SOL     OW11143   1.466   5.851   5.498
 3415SOL    HW111144   1.496   5.923   5.435
 3415SOL    HW211145   1.371   5.868   5.524
 3416SOL     OW11146   2.279   4.260   5.473
 3416SOL    HW111147   2.297   4.347   5.519
 3416SOL    HW211148   2.365   4.217   5.449
 3417SOL     OW11149   5.373   0.621   1.154
 3417SOL    HW111150   5.292   0.566   1.172
 3417SOL    HW211151   5.454   0.562   1.154
 3418SOL     OW11152   2.937   1.889   5.889
 3418SOL    HW111153   2.991   1.818   5.933
 3418SOL    HW211154   2.977   1.979   5.910
 3419SOL     OW11155   4.668   3.480   6.359
 3419SOL    HW111156   4.720   3.395   6.354
 3419SOL    HW211157   4.651   3.515   6.267
 3420SOL     OW11158   3.207   0.781   4.865
 3420SOL    HW111159   3.124   0.835   4.882
 3420SOL    HW211160   3.218   0.712   4.937
 3421SOL     OW11161   0.340   6.781   2.772
 3421SOL    HW111162   0.303   6.786   2.864
 3421SOL    HW211163   0.404   6.857   2.758
 3422SOL     OW11164   3.412   2.135   2.660
 3422SOL    HW111165   3.488   2.181   2.706
 3422SOL    HW211166   3.391   2.049   2.708
 3423SOL     OW11167   3.344   0.934   1.681
 3423SOL    HW111168   3.401   1.017   1.676
 3423SOL    HW211169   3.263   0.946   1.623
 3424SOL     OW11170   4.942   1.782   1.411
 3424SOL    HW111171   5.017   1.723   1.443
 3424SOL    HW211172   4.919   1.758   1.317
 3425SOL     OW11173   4.402   3.889   1.626
 3425SOL    HW111174   4.461   3.966   1.602
 3425SOL    HW211175   4.317   3.923   1.666
 3426SOL     OW11176   4.866   3.944   0.937
 3426SOL    HW111177   4.936   3.989   0.992
 3426SOL    HW211178   4.890   3.848   0.925
 3427SOL     OW11179   0.919   1.500   0.499
 3427SOL    HW111180   0.940   1.587   0.545
 3427SOL    HW211181   0.998   1.439   0.506
 3428SOL     OW11182   4.491   4.607   3.471
 3428SOL    HW111183   4.503   4.528   3.531
 3428SOL    HW211184   4.411   4.593   3.414
 3429SOL     OW11185   0.610   2.883   1.073
 3429SOL    HW111186   0.641   2.930   1.156
 3429SOL    HW211187   0.642   2.933   0.993
 3430SOL     OW11188   0.974   5.378   6.530
 3430SOL    HW111189   1.008   5.464   6.569
 3430SOL    HW211190   0.996   5.303   6.592
 3431SOL     OW11191   1.871   5.905   6.392
 3431SOL    HW111192   1.813   5.851   6.332
 3431SOL    HW211193   1.967   5.892   6.367
 3432SOL     OW11194   3.736   1.700   6.023
 3432SOL    HW111195   3.796   1.649   6.085
 3432SOL    HW211196   3.644   1.664   6.029
 3433SOL     OW11197   4.356   1.054   4.273
 3433SOL    HW111198   4.455   1.054   4.267
 3433SOL    HW211199   4.328   1.007   4.357
 3434SOL     OW11200   4.316   1.733   3.439
 3434SOL    HW111201   4.399   1.753   3.386
 3434SOL    HW211202   4.334   1.658   3.502
 3435SOL     OW11203   1.012   1.363   0.140
 3435SOL    HW111204   0.980   1.454   0.166
 3435SOL    HW211205   0.936   1.299   0.143
 3436SOL     OW11206   3.976   6.771   1.999
 3436SOL    HW111207   4.055   6.721   1.963
 3436SOL    HW211208   3.979   6.865   1.966
 3437SOL     OW11209   4.233   0.368   6.983
 3437SOL    HW111210   4.179   0.438   6.935
 3437SOL    HW211211   4.312   0.344   6.927
 3438SOL     OW11212   0.703   5.304   6.627
 3438SOL    HW111213   0.781   5.257   6.586
 3438SOL    HW211214   0.736   5.377   6.687
 3439SOL     OW11215   2.303   0.557   4.317
 3439SOL    HW111216   2.296   0.651   4.283
 3439SOL    HW211217   2.390   0.547   4.366
 3440SOL     OW11218   3.401   2.018   0.219
 3440SOL    HW111219   3.452   2.092   0.175
 3440SOL    HW211220   3.466   1.953   0.259
 3441SOL     OW11221   4.813   0.379   4.329
 3441SOL    HW111222   4.813   0.421   4.420
 3441SOL    HW211223   4.777   0.445   4.262
 3442SOL     OW11224   0.977   5.100   3.014
 3442SOL    HW111225   0.920   5.178   3.041
 3442SOL    HW211226   1.027   5.067   3.094
 3443SOL     OW11227   5.595   6.587   4.496
 3443SOL    HW111228   5.604   6.590   4.396
 3443SOL    HW211229   5.647   6.662   4.536
 3444SOL     OW11230   4.029   5.469   0.196
 3444SOL    HW111231   4.082   5.477   0.111
 3444SOL    HW211232   3.938   5.508   0.182
 3445SOL     OW11233   5.737   4.855   5.208
 3445SOL    HW111234   5.656   4.859   5.265
 3445SOL    HW211235   5.732   4.925   5.137
 3446SOL     OW11236   2.279   6.374   1.864
 3446SOL    HW111237   2.215   6.298   1.856
 3446SOL    HW211238   2.248   6.436   1.936
 3447SOL     OW11239   6.393   4.566   5.577
 3447SOL    HW111240   6.392   4.513   5.662
 3447SOL    HW211241   6.301   4.598   5.556
 3448SOL     OW11242   4.029   3.279   0.667
 3448SOL    HW111243   3.975   3.243   0.743
 3448SOL    HW211244   4.000   3.372   0.646
 3449SOL     OW11245   6.394   6.236   3.227
 3449SOL    HW111246   6.294   6.244   3.226
 3449SOL    HW211247   6.427   6.226   3.133
 3450SOL     OW11248   0.625   1.962   1.323
 3450SOL    HW111249   0.536   1.923   1.347
 3450SOL    HW211250   0.635   1.964   1.223
 3451SOL     OW11251   1.896   4.943   4.511
 3451SOL    HW111252   1.824   5.008   4.537
 3451SOL    HW211253   1.886   4.919   4.414
 3452SOL     OW11254   6.734   1.853   0.765
 3452SOL    HW111255   6.735   1.753   0.765
 3452SOL    HW211256   6.792   1.887   0.691
 3453SOL     OW11257   5.526   5.761   5.337
 3453SOL    HW111258   5.569   5.796   5.254
 3453SOL    HW211259   5.593   5.759   5.411
 3454SOL     OW11260   0.258   0.940   0.744
 3454SOL    HW111261   0.219   0.849   0.737
 3454SOL    HW211262   0.316   0.946   0.825
 3455SOL     OW11263   1.296   2.925   3.407
 3455SOL    HW111264   1.247   2.845   3.442
 3455SOL    HW211265   1.304   2.917   3.307
 3456SOL     OW11266   6.514   0.437   0.488
 3456SOL    HW111267   6.574   0.372   0.443
 3456SOL    HW211268   6.568   0.506   0.536
 3457SOL     OW11269   2.011   6.620   3.601
 3457SOL    HW111270   1.935   6.600   3.540
 3457SOL    HW211271   1.985   6.600   3.695
 3458SOL     OW11272   5.362   4.933   0.413
 3458SOL    HW111273   5.377   5.028   0.387
 3458SOL    HW211274   5.320   4.884   0.336
 3459SOL     OW11275   6.102   0.161   3.394
 3459SOL    HW111276   6.092   0.240   3.455
 3459SOL    HW211277   6.046   0.174   3.313
 3460SOL     OW11278   4.152   2.890   0.392
 3460SOL    HW111279   4.195   2.979   0.409
 3460SOL    HW211280   4.224   2.821   0.377
 3461SOL     OW11281   2.718   5.924   2.903
 3461SOL    HW111282   2.720   6.011   2.853
 3461SOL    HW211283   2.782   5.930   2.981
 3462SOL     OW11284   4.890   2.423   2.754
 3462SOL    HW111285   4.874   2.370   2.670
 3462SOL    HW211286   4.893   2.521   2.732
 3463SOL     OW11287   1.322   3.130   0.908
 3463SOL    HW111288   1.337   3.120   1.006
 3463SOL    HW211289   1.407   3.113   0.859
 3464SOL     OW11290   5.536   1.589   5.900
 3464SOL    HW111291   5.475   1.667   5.909
 3464SOL    HW211292   5.560   1.555   5.990
 3465SOL     OW11293   1.720   4.861   1.701
 3465SOL    HW111294   1.759   4.818   1.620
 3465SOL    HW211295   1.783   4.848   1.778
 3466SOL     OW11296   6.336   4.075   4.437
 3466SOL    HW111297   6.405   4.078   4.510
 3466SOL    HW211298   6.314   3.980   4.416
 3467SOL     OW11299   3.783   3.439   0.311
 3467SOL    HW111300   3.745   3.507   0.374
 3467SOL    HW211301   3.728   3.356   0.314
 3468SOL     OW11302   3.947   1.314   1.487
 3468SOL    HW111303   3.894   1.245   1.437
 3468SOL    HW211304   4.042   1.314   1.453
 3469SOL     OW11305   3.781   5.604   5.478
 3469SOL    HW111306   3.749   5.698   5.485
 3469SOL    HW211307   3.724   5.554   5.414
 3470SOL     OW11308   1.517   2.378   1.612
 3470SOL    HW111309   1.467   2.453   1.655
 3470SOL    HW211310   1.539   2.309   1.681
 3471SOL     OW11311   5.108   3.061   4.925
 3471SOL    HW111312   5.119   3.050   4.826
 3471SOL    HW211313   5.173   3.003   4.972
 3472SOL     OW11314   5.023   1.743   2.614
 3472SOL    HW111315   5.107   1.750   2.667
 3472SOL    HW211316   4.973   1.830   2.619
 3473SOL     OW11317   6.219   4.524   1.852
 3473SOL    HW111318   6.244   4.437   1.895
 3473SOL    HW211319   6.134   4.559   1.892
 3474SOL     OW11320   4.749   4.151   3.640
 3474SOL    HW111321   4.721   4.217   3.710
 3474SOL    HW211322   4.797   4.075   3.684
 3475SOL     OW11323   0.174   3.992   4.274
 3475SOL    HW111324   0.141   4.061   4.339
 3475SOL    HW211325   0.221   3.919   4.324
 3476SOL     OW11326   1.958   2.261   2.943
 3476SOL    HW111327   1.919   2.190   3.001
 3476SOL    HW211328   1.902   2.344   2.949
 3477SOL     OW11329   0.570   4.367   1.809
 3477SOL    HW111330   0.581   4.271   1.782
 3477SOL    HW211331   0.654   4.417   1.789
 3478SOL     OW11332   2.754   0.469   1.242
 3478SOL    HW111333   2.763   0.369   1.238
 3478SOL    HW211334   2.809   0.504   1.318
 3479SOL     OW11335   0.769   4.256   5.240
 3479SOL    HW111336   0.778   4.342   5.191
 3479SOL    HW211337   0.850   4.243   5.298
 3480SOL     OW11338   1.283   4.864   6.406
 3480SOL    HW111339   1.297   4.790   6.341
 3480SOL    HW211340   1.336   4.847   6.489
 3481SOL     OW11341   5.867   1.092   4.731
 3481SOL    HW111342   5.917   1.069   4.647
 3481SOL    HW211343   5.932   1.123   4.800
 3482SOL     OW11344   6.061   2.933   6.750
 3482SOL    HW111345   6.090   3.010   6.807
 3482SOL    HW211346   5.982   2.888   6.792
 3483SOL     OW11347   5.173   2.606   5.422
 3483SOL    HW111348   5.247   2.615   5.356
 3483SOL    HW211349   5.096   2.558   5.380
 3484SOL     OW11350   1.298   3.063   4.475
 3484SOL    HW111351   1.276   2.986   4.535
 3484SOL    HW211352   1.265   3.148   4.516
 3485SOL     OW11353   6.901   3.231   0.158
 3485SOL    HW111354   6.914   3.230   0.257
 3485SOL    HW211355   6.929   3.319   0.121
 3486SOL     OW11356   1.824   6.777   4.901
 3486SOL    HW111357   1.920   6.804   4.893
 3486SOL    HW211358   1.806   6.701   4.839
 3487SOL     OW11359   4.044   1.984   7.006
 3487SOL    HW111360   4.109   2.047   6.962
 3487SOL    HW211361   3.973   1.959   6.940
 3488SOL     OW11362   5.072   6.598   4.969
 3488SOL    HW111363   5.167   6.606   4.937
 3488SOL    HW211364   5.059   6.659   5.048
 3489SOL     OW11365   3.396   6.167   0.494
 3489SOL    HW111366   3.362   6.239   0.554
 3489SOL    HW211367   3.485   6.194   0.457
 3490SOL     OW11368   3.412   6.294   0.930
 3490SOL    HW111369   3.471   6.349   0.870
 3490SOL    HW211370   3.361   6.355   0.991
 3491SOL     OW11371   4.518   4.739   5.925
 3491SOL    HW111372   4.508   4.686   6.010
 3491SOL    HW211373   4.522   4.676   5.847
 3492SOL     OW11374   5.914   3.977   3.578
 3492SOL    HW111375   5.987   4.044   3.567
 3492SOL    HW211376   5.916   3.913   3.501
 3493SOL     OW11377   0.018   3.362   5.732
 3493SOL    HW111378   6.961   3.406   5.681
 3493SOL    HW211379   7.010   3.358   5.829
 3494SOL     OW11380   4.007   1.333   2.139
 3494SOL    HW111381   4.089   1.328   2.196
 3494SOL    HW211382   4.034   1.341   2.043
 3495SOL     OW11383   1.699   4.117   3.916
 3495SOL    HW111384   1.692   4.041   3.980
 3495SOL    HW211385   1.715   4.202   3.966
 3496SOL     OW11386   6.264   5.167   1.074
 3496SOL    HW111387   6.343   5.173   1.135
 3496SOL    HW211388   6.234   5.259   1.050
 3497SOL     OW11389   3.467   0.177   1.526
 3497SOL    HW111390   3.475   0.078   1.530
 3497SOL    HW211391   3.513   0.217   1.606
 3498SOL     OW11392   2.492   2.650   1.443
 3498SOL    HW111393   2.548   2.722   1.484
 3498SOL    HW211394   2.541   2.563   1.448
 3499SOL     OW11395   5.587   6.122   4.560
 3499SOL    HW111396   5.620   6.116   4.655
 3499SOL    HW211397   5.551   6.213   4.543
 3500SOL     OW11398   3.295   2.056   3.813
 3500SOL    HW111399   3.328   2.061   3.719
 3500SOL    HW211400   3.207   2.008   3.815
 3501SOL     OW11401   1.316   6.824   6.015
 3501SOL    HW111402   1.388   6.862   5.957
 3501SOL    HW211403   1.258   6.764   5.960
 3502SOL     OW11404   4.924   2.514   1.642
 3502SOL    HW111405   4.878   2.465   1.716
 3502SOL    HW211406   4.887   2.485   1.554
 3503SOL     OW11407   1.036   5.816   6.179
 3503SOL    HW111408   1.070   5.835   6.087
 3503SOL    HW211409   1.113   5.796   6.240
 3504SOL     OW11410   1.947   1.098   0.153
 3504SOL    HW111411   2.037   1.107   0.111
 3504SOL    HW211412   1.956   1.103   0.253
 3505SOL     OW11413   4.865   3.085   5.458
 3505SOL    HW111414   4.876   3.154   5.386
 3505SOL    HW211415   4.780   3.102   5.507
 3506SOL     OW11416   4.276   4.778   5.063
 3506SOL    HW111417   4.203   4.771   5.131
 3506SOL    HW211418   4.314   4.688   5.046
 3507SOL     OW11419   3.148   1.414   0.688
 3507SOL    HW111420   3.231   1.449   0.730
 3507SOL    HW211421   3.069   1.444   0.742
 3508SOL     OW11422   3.866   1.517   6.174
 3508SOL    HW111423   3.879   1.448   6.246
 3508SOL    HW211424   3.929   1.498   6.098
 3509SOL     OW11425   4.200   5.804   6.493
 3509SOL    HW111426   4.114   5.780   6.538
 3509SOL    HW211427   4.264   5.840   6.560
 3510SOL     OW11428   2.373   1.204   1.621
 3510SOL    HW111429   2.460   1.172   1.584
 3510SOL    HW211430   2.301   1.192   1.552
 3511SOL     OW11431   2.607   4.589   1.784
 3511SOL    HW111432   2.584   4.492   1.775
 3511SOL    HW211433   2.683   4.600   1.848
 3512SOL     OW11434   0.153   5.372   6.259
 3512SOL    HW111435   0.069   5.385   6.206
 3512SOL    HW211436   0.224   5.335   6.199
 3513SOL     OW11437   5.699   1.975   0.256
 3513SOL    HW111438   5.791   1.980   0.216
 3513SOL    HW211439   5.634   2.018   0.194
 3514SOL     OW11440   3.107   1.734   1.875
 3514SOL    HW111441   3.173   1.808   1.892
 3514SOL    HW211442   3.040   1.732   1.949
 3515SOL     OW11443   0.341   4.563   4.765
 3515SOL    HW111444   0.294   4.572   4.853
 3515SOL    HW211445   0.402   4.484   4.768
 3516SOL     OW11446   4.955   0.708   1.190
 3516SOL    HW111447   4.912   0.631   1.237
 3516SOL    HW211448   4.918   0.794   1.227
 3517SOL     OW11449   4.949   0.864   1.513
 3517SOL    HW111450   4.867   0.856   1.456
 3517SOL    HW211451   4.922   0.876   1.608
 3518SOL     OW11452   5.430   1.285   5.206
 3518SOL    HW111453   5.414   1.382   5.186
 3518SOL    HW211454   5.488   1.245   5.135
 3519SOL     OW11455   3.182   1.659   1.034
 3519SOL    HW111456   3.199   1.736   0.972
 3519SOL    HW211457   3.193   1.689   1.129
 3520SOL     OW11458   2.803   6.231   4.268
 3520SOL    HW111459   2.708   6.220   4.298
 3520SOL    HW211460   2.865   6.212   4.345
 3521SOL     OW11461   2.596   2.624   6.414
 3521SOL    HW111462   2.528   2.623   6.488
 3521SOL    HW211463   2.572   2.694   6.348
 3522SOL     OW11464   1.339   6.233   6.605
 3522SOL    HW111465   1.438   6.248   6.607
 3522SOL    HW211466   1.297   6.293   6.536
 3523SOL     OW11467   3.417   5.703   7.002
 3523SOL    HW111468   3.405   5.616   6.955
 3523SOL    HW211469   3.492   5.753   6.960
 3524SOL     OW11470   4.621   1.053   3.772
 3524SOL    HW111471   4.616   0.977   3.837
 3524SOL    HW211472   4.661   1.132   3.817
 3525SOL     OW11473   0.236   2.996   3.418
 3525SOL    HW111474   0.235   2.914   3.475
 3525SOL    HW211475   0.242   3.077   3.476
 3526SOL     OW11476   0.456   6.652   2.197
 3526SOL    HW111477   0.405   6.568   2.217
 3526SOL    HW211478   0.472   6.658   2.099
 3527SOL     OW11479   6.703   2.911   6.884
 3527SOL    HW111480   6.768   2.930   6.957
 3527SOL    HW211481   6.611   2.940   6.913
 3528SOL     OW11482   2.196   4.901   4.815
 3528SOL    HW111483   2.123   4.879   4.880
 3528SOL    HW211484   2.282   4.862   4.846
 3529SOL     OW11485   4.469   4.668   0.815
 3529SOL    HW111486   4.492   4.575   0.786
 3529SOL    HW211487   4.547   4.728   0.797
 3530SOL     OW11488   6.650   0.032   0.590
 3530SOL    HW111489   6.712   7.003   0.654
 3530SOL    HW211490   6.593   6.981   0.544
 3531SOL     OW11491   4.606   2.351   0.565
 3531SOL    HW111492   4.540   2.277   0.557
 3531SOL    HW211493   4.669   2.349   0.488
 3532SOL     OW11494   2.513   0.661   1.561
 3532SOL    HW111495   2.588   0.694   1.618
 3532SOL    HW211496   2.427   0.667   1.612
 3533SOL     OW11497   1.832   2.666   3.248
 3533SOL    HW111498   1.927   2.677   3.279
 3533SOL    HW211499   1.790   2.589   3.297
 3534SOL     OW11500   0.442   0.977   0.941
 3534SOL    HW111501   0.507   1.053   0.935
 3534SOL    HW211502   0.486   0.899   0.985
 3535SOL     OW11503   3.448   6.513   3.640
 3535SOL    HW111504   3.545   6.488   3.644
 3535SOL    HW211505   3.408   6.505   3.731
 3536SOL     OW11506   4.206   1.954   3.604
 3536SOL    HW111507   4.154   2.030   3.566
 3536SOL    HW211508   4.215   1.882   3.536
 3537SOL     OW11509   1.741   6.932   2.973
 3537SOL    HW111510   1.647   6.953   2.949
 3537SOL    HW211511   1.758   6.835   2.960
 3538SOL     OW11512   3.172   5.501   1.772
 3538SOL    HW111513   3.110   5.505   1.850
 3538SOL    HW211514   3.147   5.424   1.713
 3539SOL     OW11515   3.314   4.061   4.345
 3539SOL    HW111516   3.236   4.098   4.396
 3539SOL    HW211517   3.283   3.983   4.289
 3540SOL     OW11518   1.542   2.375   3.356
 3540SOL    HW111519   1.520   2.278   3.348
 3540SOL    HW211520   1.641   2.387   3.362
 3541SOL     OW11521   3.953   3.972   4.640
 3541SOL    HW111522   4.013   3.975   4.560
 3541SOL    HW211523   3.988   3.905   4.706
 3542SOL     OW11524   6.620   5.506   1.106
 3542SOL    HW111525   6.609   5.605   1.106
 3542SOL    HW211526   6.708   5.482   1.065
 3543SOL     OW11527   5.045   2.444   4.407
 3543SOL    HW111528   5.035   2.377   4.334
 3543SOL    HW211529   5.140   2.474   4.411
 3544SOL     OW11530   2.772   6.796   0.180
 3544SOL    HW111531   2.797   6.699   0.180
 3544SOL    HW211532   2.853   6.850   0.158
 3545SOL     OW11533   2.892   5.287   0.613
 3545SOL    HW111534   2.880   5.288   0.712
 3545SOL    HW211535   2.989   5.295   0.591
 3546SOL     OW11536   0.974   4.643   2.700
 3546SOL    HW111537   0.970   4.733   2.658
 3546SOL    HW211538   0.967   4.573   2.629
 3547SOL     OW11539   5.092   4.882   4.496
 3547SOL    HW111540   5.094   4.982   4.497
 3547SOL    HW211541   5.093   4.848   4.590
 3548SOL     OW11542   4.686   3.406   5.698
 3548SOL    HW111543   4.765   3.419   5.639
 3548SOL    HW211544   4.620   3.479   5.681
 3549SOL     OW11545   4.949   3.587   2.392
 3549SOL    HW111546   4.880   3.537   2.340
 3549SOL    HW211547   5.037   3.540   2.384
 3550SOL     OW11548   4.857   1.567   3.495
 3550SOL    HW111549   4.788   1.613   3.439
 3550SOL    HW211550   4.944   1.565   3.446
 3551SOL     OW11551   1.984   6.596   2.448
 3551SOL    HW111552   1.887   6.596   2.475
 3551SOL    HW211553   2.020   6.502   2.453
 3552SOL     OW11554   6.299   4.295   3.052
 3552SOL    HW111555   6.280   4.234   3.128
 3552SOL    HW211556   6.215   4.309   2.999
 3553SOL     OW11557   6.103   1.730   3.348
 3553SOL    HW111558   6.071   1.678   3.268
 3553SOL    HW211559   6.037   1.801   3.370
 3554SOL     OW11560   4.234   5.688   6.978
 3554SOL    HW111561   4.215   5.595   6.948
 3554SOL    HW211562   4.333   5.703   6.981
 3555SOL     OW11563   0.996   2.357   3.928
 3555SOL    HW111564   1.061   2.346   4.003
 3555SOL    HW211565   1.044   2.348   3.841
 3556SOL     OW11566   4.326   1.579   6.296
 3556SOL    HW111567   4.290   1.665   6.258
 3556SOL    HW211568   4.396   1.600   6.364
 3557SOL     OW11569   0.646   0.318   4.039
 3557SOL    HW111570   0.581   0.395   4.037
 3557SOL    HW211571   0.600   0.235   4.006
 3558SOL     OW11572   0.410   6.775   1.301
 3558SOL    HW111573   0.442   6.681   1.315
 3558SOL    HW211574   0.468   6.837   1.355
 3559SOL     OW11575   0.764   0.365   5.890
 3559SOL    HW111576   0.745   0.453   5.933
 3559SOL    HW211577   0.859   0.363   5.859
 3560SOL     OW11578   6.837   0.216   1.447
 3560SOL    HW111579   6.767   0.232   1.377
 3560SOL    HW211580   6.888   0.133   1.425
 3561SOL     OW11581   5.699   4.730   3.961
 3561SOL    HW111582   5.674   4.753   4.055
 3561SOL    HW211583   5.744   4.809   3.918
 3562SOL     OW11584   4.092   2.158   2.215
 3562SOL    HW111585   4.111   2.208   2.130
 3562SOL    HW211586   3.994   2.135   2.218
 3563SOL     OW11587   4.465   6.418   1.751
 3563SOL    HW111588   4.484   6.392   1.656
 3563SOL    HW211589   4.367   6.432   1.763
 3564SOL     OW11590   6.300   4.164   2.352
 3564SOL    HW111591   6.229   4.185   2.419
 3564SOL    HW211592   6.356   4.246   2.337
 3565SOL     OW11593   0.905   0.927   5.624
 3565SOL    HW111594   0.978   0.861   5.605
 3565SOL    HW211595   0.905   0.998   5.554
 3566SOL     OW11596   0.952   4.241   5.755
 3566SOL    HW111597   1.052   4.241   5.755
 3566SOL    HW211598   0.918   4.219   5.846
 3567SOL     OW11599   0.063   2.338   1.274
 3567SOL    HW111600   6.988   2.358   1.238
 3567SOL    HW211601   0.073   2.239   1.284
 3568SOL     OW11602   4.828   4.061   3.389
 3568SOL    HW111603   4.860   4.156   3.382
 3568SOL    HW211604   4.794   4.045   3.482
 3569SOL     OW11605   4.041   3.223   3.637
 3569SOL    HW111606   4.082   3.287   3.703
 3569SOL    HW211607   3.999   3.147   3.686
 3570SOL     OW11608   0.378   2.298   5.540
 3570SOL    HW111609   0.333   2.387   5.544
 3570SOL    HW211610   0.332   2.235   5.603
 3571SOL     OW11611   2.853   0.120   4.524
 3571SOL    HW111612   2.892   0.029   4.511
 3571SOL    HW211613   2.775   0.114   4.587
 3572SOL     OW11614   5.060   4.202   2.603
 3572SOL    HW111615   5.035   4.299   2.611
 3572SOL    HW211616   4.978   4.146   2.608
 3573SOL     OW11617   0.319   4.979   4.010
 3573SOL    HW111618   0.245   4.911   4.014
 3573SOL    HW211619   0.397   4.941   3.960
 3574SOL     OW11620   1.768   1.828   6.046
 3574SOL    HW111621   1.743   1.871   6.132
 3574SOL    HW211622   1.742   1.732   6.047
 3575SOL     OW11623   5.038   0.673   6.539
 3575SOL    HW111624   5.013   0.759   6.496
 3575SOL    HW211625   4.962   0.640   6.594
 3576SOL     OW11626   1.070   2.606   0.793
 3576SOL    HW111627   1.065   2.629   0.890
 3576SOL    HW211628   0.991   2.646   0.745
 3577SOL     OW11629   1.837   3.657   4.577
 3577SOL    HW111630   1.812   3.601   4.498
 3577SOL    HW211631   1.933   3.642   4.600
 3578SOL     OW11632   4.321   2.377   0.694
 3578SOL    HW111633   4.294   2.344   0.785
 3578SOL    HW211634   4.343   2.475   0.699
 3579SOL     OW11635   0.976   3.521   1.982
 3579SOL    HW111636   1.045   3.519   1.909
 3579SOL    HW211637   1.007   3.465   2.059
 3580SOL     OW11638   0.096   4.257   1.800
 3580SOL    HW111639   0.073   4.176   1.746
 3580SOL    HW211640   0.021   4.278   1.863
 3581SOL     OW11641   1.997   0.233   2.522
 3581SOL    HW111642   1.938   0.152   2.531
 3581SOL    HW211643   1.941   0.316   2.529
 3582SOL     OW11644   4.915   6.213   6.744
 3582SOL    HW111645   4.933   6.237   6.839
 3582SOL    HW211646   4.868   6.124   6.740
 3583SOL     OW11647   1.693   5.783   1.133
 3583SOL    HW111648   1.717   5.879   1.149
 3583SOL    HW211649   1.593   5.773   1.132
 3584SOL     OW11650   5.692   4.566   4.834
 3584SOL    HW111651   5.719   4.478   4.796
 3584SOL    HW211652   5.734   4.640   4.783
 3585SOL     OW11653   4.299   2.331   3.783
 3585SOL    HW111654   4.325   2.317   3.688
 3585SOL    HW211655   4.297   2.242   3.830
 3586SOL     OW11656   6.324   2.505   5.600
 3586SOL    HW111657   6.389   2.528   5.672
 3586SOL    HW211658   6.348   2.552   5.516
 3587SOL     OW11659   2.264   0.704   6.330
 3587SOL    HW111660   2.229   0.751   6.410
 3587SOL    HW211661   2.327   0.764   6.280
 3588SOL     OW11662   6.252   3.493   3.761
 3588SOL    HW111663   6.229   3.589   3.744
 3588SOL    HW211664   6.169   3.438   3.756
 3589SOL     OW11665   0.492   0.915   6.324
 3589SOL    HW111666   0.461   0.966   6.404
 3589SOL    HW211667   0.435   0.833   6.314
 3590SOL     OW11668   6.183   5.037   5.389
 3590SOL    HW111669   6.216   5.014   5.297
 3590SOL    HW211670   6.092   4.997   5.402
 3591SOL     OW11671   5.052   2.023   0.728
 3591SOL    HW111672   5.147   2.053   0.719
 3591SOL    HW211673   5.016   2.053   0.816
 3592SOL     OW11674   1.449   6.283   1.442
 3592SOL    HW111675   1.420   6.346   1.369
 3592SOL    HW211676   1.380   6.282   1.514
 3593SOL     OW11677   4.348   3.150   5.830
 3593SOL    HW111678   4.448   3.148   5.828
 3593SOL    HW211679   4.313   3.147   5.736
 3594SOL     OW11680   4.407   4.593   5.291
 3594SOL    HW111681   4.327   4.551   5.335
 3594SOL    HW211682   4.403   4.575   5.192
 3595SOL     OW11683   4.547   0.114   5.621
 3595SOL    HW111684   4.518   0.158   5.707
 3595SOL    HW211685   4.498   0.155   5.545
 3596SOL     OW11686   3.394   1.642   2.049
 3596SOL    HW111687   3.340   1.615   1.969
 3596SOL    HW211688   3.362   1.731   2.082
 3597SOL     OW11689   3.945   4.469   5.552
 3597SOL    HW111690   3.877   4.418   5.499
 3597SOL    HW211691   3.903   4.504   5.636
 3598SOL     OW11692   6.978   5.535   4.785
 3598SOL    HW111693   6.970   5.534   4.685
 3598SOL    HW211694   6.932   5.455   4.823
 3599SOL     OW11695   2.491   1.179   5.123
 3599SOL    HW111696   2.448   1.089   5.129
 3599SOL    HW211697   2.584   1.175   5.162
 3600SOL     OW11698   2.280   4.305   0.975
 3600SOL    HW111699   2.203   4.359   0.941
 3600SOL    HW211700   2.261   4.208   0.960
 3601SOL     OW11701   3.393   0.537   5.260
 3601SOL    HW111702   3.476   0.587   5.234
 3601SOL    HW211703   3.389   0.530   5.360
 3602SOL     OW11704   1.815   2.320   0.963
 3602SOL    HW111705   1.751   2.258   1.009
 3602SOL    HW211706   1.794   2.414   0.988
 3603SOL     OW11707   1.407   6.779   6.265
 3603SOL    HW111708   1.331   6.777   6.329
 3603SOL    HW211709   1.375   6.812   6.176
 3604SOL     OW11710   6.850   1.030   4.282
 3604SOL    HW111711   6.849   0.931   4.274
 3604SOL    HW211712   6.777   1.060   4.344
 3605SOL     OW11713   1.383   0.334   4.668
 3605SOL    HW111714   1.336   0.246   4.663
 3605SOL    HW211715   1.446   0.342   4.590
 3606SOL     OW11716   2.560   0.409   3.081
 3606SOL    HW111717   2.564   0.388   3.179
 3606SOL    HW211718   2.595   0.330   3.030
 3607SOL     OW11719   6.092   1.552   3.910
 3607SOL    HW111720   6.151   1.593   3.841
 3607SOL    HW211721   6.134   1.469   3.946
 3608SOL     OW11722   3.900   1.991   5.736
 3608SOL    HW111723   3.992   2.009   5.772
 3608SOL    HW211724   3.895   2.022   5.642
 3609SOL     OW11725   2.812   6.583   4.981
 3609SOL    HW111726   2.831   6.486   4.967
 3609SOL    HW211727   2.891   6.627   5.024
 3610SOL     OW11728   1.667   0.292   5.763
 3610SOL    HW111729   1.743   0.233   5.736
 3610SOL    HW211730   1.700   0.365   5.821
 3611SOL     OW11731   5.401   3.498   3.065
 3611SOL    HW111732   5.350   3.569   3.018
 3611SOL    HW211733   5.420   3.423   3.002
 3612SOL     OW11734   4.881   2.095   0.500
 3612SOL    HW111735   4.948   2.053   0.562
 3612SOL    HW211736   4.789   2.075   0.533
 3613SOL     OW11737   4.009   0.550   2.839
 3613SOL    HW111738   3.977   0.473   2.895
 3613SOL    HW211739   4.082   0.598   2.888
 3614SOL     OW11740   3.358   5.486   0.413
 3614SOL    HW111741   3.393   5.550   0.345
 3614SOL    HW211742   3.427   5.470   0.483
 3615SOL     OW11743   5.672   2.353   4.901
 3615SOL    HW111744   5.710   2.261   4.908
 3615SOL    HW211745   5.744   2.420   4.923
 3616SOL     OW11746   1.639   1.228   1.090
 3616SOL    HW111747   1.668   1.200   1.182
 3616SOL    HW211748   1.598   1.150   1.043
 3617SOL     OW11749   4.106   5.136   4.790
 3617SOL    HW111750   4.126   5.224   4.833
 3617SOL    HW211751   4.027   5.094   4.834
 3618SOL     OW11752   1.020   5.342   4.579
 3618SOL    HW111753   0.933   5.381   4.608
 3618SOL    HW211754   1.041   5.262   4.636
 3619SOL     OW11755   6.723   1.930   2.927
 3619SOL    HW111756   6.780   1.945   3.008
 3619SOL    HW211757   6.774   1.957   2.845
 3620SOL     OW11758   4.622   6.535   5.563
 3620SOL    HW111759   4.663   6.565   5.649
 3620SOL    HW211760   4.691   6.538   5.490
 3621SOL     OW11761   2.944   3.213   3.178
 3621SOL    HW111762   2.911   3.124   3.208
 3621SOL    HW211763   3.043   3.210   3.165
 3622SOL     OW11764   2.774   5.685   6.378
 3622SOL    HW111765   2.757   5.587   6.383
 3622SOL    HW211766   2.758   5.717   6.284
 3623SOL     OW11767   1.497   6.258   5.470
 3623SOL    HW111768   1.573   6.234   5.531
 3623SOL    HW211769   1.418   6.285   5.525
 3624SOL     OW11770   2.667   1.742   2.836
 3624SOL    HW111771   2.622   1.750   2.925
 3624SOL    HW211772   2.654   1.649   2.801
 3625SOL     OW11773   6.217   2.358   1.834
 3625SOL    HW111774   6.237   2.321   1.925
 3625SOL    HW211775   6.125   2.331   1.807
 3626SOL     OW11776   0.919   3.506   5.853
 3626SOL    HW111777   0.841   3.446   5.867
 3626SOL    HW211778   0.987   3.490   5.925
 3627SOL     OW11779   3.195   1.351   2.531
 3627SOL    HW111780   3.269   1.338   2.596
 3627SOL    HW211781   3.110   1.373   2.580
 3628SOL     OW11782   0.248   0.812   1.878
 3628SOL    HW111783   0.268   0.908   1.855
 3628SOL    HW211784   0.250   0.757   1.795
 3629SOL     OW11785   1.688   0.722   4.443
 3629SOL    HW111786   1.671   0.683   4.533
 3629SOL    HW211787   1.603   0.718   4.389
 3630SOL     OW11788   6.526   2.236   2.683
 3630SOL    HW111789   6.475   2.213   2.600
 3630SOL    HW211790   6.462   2.246   2.759
 3631SOL     OW11791   1.914   5.322   2.874
 3631SOL    HW111792   1.978   5.249   2.899
 3631SOL    HW211793   1.938   5.405   2.925
 3632SOL     OW11794   5.246   3.007   2.711
 3632SOL    HW111795   5.162   3.024   2.762
 3632SOL    HW211796   5.323   2.997   2.775
 3633SOL     OW11797   4.502   5.150   5.696
 3633SOL    HW111798   4.466   5.232   5.740
 3633SOL    HW211799   4.584   5.174   5.645
 3634SOL     OW11800   2.939   5.338   6.153
 3634SOL    HW111801   2.924   5.338   6.251
 3634SOL    HW211802   2.943   5.244   6.120
 3635SOL     OW11803   2.175   6.797   2.769
 3635SOL    HW111804   2.087   6.750   2.768
 3635SOL    HW211805   2.240   6.744   2.824
 3636SOL     OW11806   6.780   6.236   4.455
 3636SOL    HW111807   6.835   6.188   4.386
 3636SOL    HW211808   6.704   6.178   4.484
 3637SOL     OW11809   5.195   2.420   6.647
 3637SOL    HW111810   5.232   2.478   6.575
 3637SOL    HW211811   5.108   2.380   6.617
 3638SOL     OW11812   0.829   2.582   3.938
 3638SOL    HW111813   0.902   2.515   3.933
 3638SOL    HW211814   0.848   2.658   3.876
 3639SOL     OW11815   3.790   3.405   4.036
 3639SOL    HW111816   3.776   3.312   4.070
 3639SOL    HW211817   3.887   3.420   4.021
 3640SOL     OW11818   4.725   1.605   2.290
 3640SOL    HW111819   4.656   1.534   2.279
 3640SOL    HW211820   4.690   1.691   2.255
 3641SOL     OW11821   0.476   3.779   1.407
 3641SOL    HW111822   0.563   3.734   1.427
 3641SOL    HW211823   0.490   3.849   1.338
 3642SOL     OW11824   4.488   4.268   6.428
 3642SOL    HW111825   4.430   4.340   6.466
 3642SOL    HW211826   4.432   4.208   6.370
 3643SOL     OW11827   4.272   5.755   4.892
 3643SOL    HW111828   4.188   5.701   4.903
 3643SOL    HW211829   4.351   5.694   4.897
 3644SOL     OW11830   3.535   1.313   1.292
 3644SOL    HW111831   3.564   1.338   1.385
 3644SOL    HW211832   3.453   1.256   1.297
 3645SOL     OW11833   2.008   3.739   3.511
 3645SOL    HW111834   1.918   3.781   3.503
 3645SOL    HW211835   2.027   3.684   3.430
 3646SOL     OW11836   2.407   4.806   4.974
 3646SOL    HW111837   2.467   4.741   5.020
 3646SOL    HW211838   2.433   4.899   5.000
 3647SOL     OW11839   3.360   0.427   0.662
 3647SOL    HW111840   3.363   0.451   0.566
 3647SOL    HW211841   3.368   0.510   0.718
 3648SOL     OW11842   5.725   4.861   3.476
 3648SOL    HW111843   5.809   4.808   3.487
 3648SOL    HW211844   5.648   4.809   3.514
 3649SOL     OW11845   5.624   2.853   0.217
 3649SOL    HW111846   5.581   2.827   0.131
 3649SOL    HW211847   5.690   2.927   0.200
 3650SOL     OW11848   5.384   6.525   0.032
 3650SOL    HW111849   5.408   6.431   0.057
 3650SOL    HW211850   5.380   6.533   6.949
 3651SOL     OW11851   1.086   1.803   5.869
 3651SOL    HW111852   1.105   1.884   5.813
 3651SOL    HW211853   1.125   1.722   5.825
 3652SOL     OW11854   5.831   2.260   2.436
 3652SOL    HW111855   5.838   2.180   2.376
 3652SOL    HW211856   5.918   2.273   2.483
 3653SOL     OW11857   2.119   1.728   0.782
 3653SOL    HW111858   2.137   1.804   0.719
 3653SOL    HW211859   2.141   1.757   0.875
 3654SOL     OW11860   4.083   5.983   0.788
 3654SOL    HW111861   4.007   5.949   0.843
 3654SOL    HW211862   4.048   6.040   0.714
 3655SOL     OW11863   0.951   0.226   4.167
 3655SOL    HW111864   0.899   0.141   4.176
 3655SOL    HW211865   1.021   0.215   4.097
 3656SOL     OW11866   0.393   0.684   0.913
 3656SOL    HW111867   0.389   0.585   0.925
 3656SOL    HW211868   0.475   0.708   0.862
 3657SOL     OW11869   6.261   4.936   6.133
 3657SOL    HW111870   6.195   5.006   6.104
 3657SOL    HW211871   6.303   4.964   6.219
 3658SOL     OW11872   1.303   4.659   5.970
 3658SOL    HW111873   1.219   4.691   6.013
 3658SOL    HW211874   1.332   4.725   5.900
 3659SOL     OW11875   1.088   1.989   0.083
 3659SOL    HW111876   1.110   1.900   0.043
 3659SOL    HW211877   1.102   1.986   0.182
 3660SOL     OW11878   4.171   4.782   4.660
 3660SOL    HW111879   4.212   4.700   4.701
 3660SOL    HW211880   4.231   4.860   4.674
 3661SOL     OW11881   0.909   0.849   5.211
 3661SOL    HW111882   0.904   0.944   5.243
 3661SOL    HW211883   0.956   0.847   5.122
 3662SOL     OW11884   3.848   2.381   5.602
 3662SOL    HW111885   3.831   2.337   5.689
 3662SOL    HW211886   3.865   2.479   5.617
 3663SOL     OW11887   1.348   2.531   5.806
 3663SOL    HW111888   1.372   2.555   5.900
 3663SOL    HW211889   1.272   2.588   5.775
 3664SOL     OW11890   2.166   1.927   0.977
 3664SOL    HW111891   2.174   1.998   0.906
 3664SOL    HW211892   2.206   1.960   1.062
 3665SOL     OW11893   0.207   6.870   4.930
 3665SOL    HW111894   0.244   6.933   4.998
 3665SOL    HW211895   0.249   6.889   4.841
 3666SOL     OW11896   2.136   3.488   5.064
 3666SOL    HW111897   2.175   3.450   4.980
 3666SOL    HW211898   2.179   3.577   5.083
 3667SOL     OW11899   2.310   6.555   1.461
 3667SOL    HW111900   2.215   6.537   1.488
 3667SOL    HW211901   2.371   6.504   1.522
 3668SOL     OW11902   4.882   1.002   0.642
 3668SOL    HW111903   4.948   1.011   0.717
 3668SOL    HW211904   4.893   0.912   0.598
 3669SOL     OW11905   6.646   1.028   2.346
 3669SOL    HW111906   6.583   1.017   2.269
 3669SOL    HW211907   6.648   0.944   2.400
 3670SOL     OW11908   2.359   6.785   2.274
 3670SOL    HW111909   2.270   6.829   2.263
 3670SOL    HW211910   2.418   6.841   2.332
 3671SOL     OW11911   0.384   0.397   5.649
 3671SOL    HW111912   0.395   0.458   5.728
 3671SOL    HW211913   0.413   0.305   5.674
 3672SOL     OW11914   2.554   0.427   3.543
 3672SOL    HW111915   2.594   0.519   3.545
 3672SOL    HW211916   2.463   0.431   3.503
 3673SOL     OW11917   3.298   1.495   1.336
 3673SOL    HW111918   3.261   1.431   1.268
 3673SOL    HW211919   3.265   1.587   1.316
 3674SOL     OW11920   6.855   5.087   5.917
 3674SOL    HW111921   6.839   5.104   6.014
 3674SOL    HW211922   6.778   5.034   5.880
 3675SOL     OW11923   5.982   0.448   5.140
 3675SOL    HW111924   6.007   0.441   5.237
 3675SOL    HW211925   6.025   0.373   5.090
 3676SOL     OW11926   1.807   0.869   5.777
 3676SOL    HW111927   1.890   0.814   5.783
 3676SOL    HW211928   1.826   0.963   5.805
 3677SOL     OW11929   1.071   0.841   4.842
 3677SOL    HW111930   1.099   0.747   4.862
 3677SOL    HW211931   1.152   0.899   4.834
 3678SOL     OW11932   2.759   1.050   3.655
 3678SOL    HW111933   2.662   1.028   3.644
 3678SOL    HW211934   2.774   1.086   3.747
 3679SOL     OW11935   3.307   0.876   1.940
 3679SOL    HW111936   3.341   0.890   1.847
 3679SOL    HW211937   3.216   0.834   1.937
 3680SOL     OW11938   4.151   1.681   3.949
 3680SOL    HW111939   4.200   1.740   3.886
 3680SOL    HW211940   4.136   1.729   4.036
 3681SOL     OW11941   1.156   5.338   3.328
 3681SOL    HW111942   1.228   5.408   3.329
 3681SOL    HW211943   1.191   5.253   3.366
 3682SOL     OW11944   5.363   1.152   1.811
 3682SOL    HW111945   5.369   1.120   1.716
 3682SOL    HW211946   5.411   1.088   1.871
 3683SOL     OW11947   6.508   1.867   1.101
 3683SOL    HW111948   6.593   1.915   1.081
 3683SOL    HW211949   6.528   1.772   1.127
 3684SOL     OW11950   2.996   5.722   5.612
 3684SOL    HW111951   3.093   5.700   5.601
 3684SOL    HW211952   2.981   5.763   5.702
 3685SOL     OW11953   1.715   6.632   2.951
 3685SOL    HW111954   1.779   6.583   3.010
 3685SOL    HW211955   1.646   6.569   2.916
 3686SOL     OW11956   1.028   5.285   0.808
 3686SOL    HW111957   1.029   5.382   0.828
 3686SOL    HW211958   1.117   5.245   0.830
 3687SOL     OW11959   0.222   4.760   4.587
 3687SOL    HW111960   0.271   4.678   4.617
 3687SOL    HW211961   0.171   4.740   4.504
 3688SOL     OW11962   0.147   3.148   1.697
 3688SOL    HW111963   0.227   3.208   1.694
 3688SOL    HW211964   0.165   3.071   1.759
 3689SOL     OW11965   2.390   2.531   5.264
 3689SOL    HW111966   2.322   2.466   5.232
 3689SOL    HW211967   2.414   2.510   5.359
 3690SOL     OW11968   0.071   5.447   2.065
 3690SOL    HW111969   0.101   5.481   2.154
 3690SOL    HW211970   0.118   5.496   1.992
 3691SOL     OW11971   2.036   1.909   0.199
 3691SOL    HW111972   2.096   1.990   0.204
 3691SOL    HW211973   2.083   1.837   0.148
 3692SOL     OW11974   0.844   2.816   5.714
 3692SOL    HW111975   0.838   2.909   5.676
 3692SOL    HW211976   0.934   2.802   5.755
 3693SOL     OW11977   0.359   1.808   2.845
 3693SOL    HW111978   0.429   1.752   2.888
 3693SOL    HW211979   0.386   1.905   2.850
 3694SOL     OW11980   6.853   6.789   2.055
 3694SOL    HW111981   6.898   6.798   2.144
 3694SOL    HW211982   6.785   6.716   2.059
 3695SOL     OW11983   5.953   3.489   4.410
 3695SOL    HW111984   5.967   3.580   4.369
 3695SOL    HW211985   5.867   3.451   4.379
 3696SOL     OW11986   4.222   0.198   4.056
 3696SOL    HW111987   4.266   0.129   4.114
 3696SOL    HW211988   4.127   0.210   4.084
 3697SOL     OW11989   6.811   4.639   2.709
 3697SOL    HW111990   6.787   4.723   2.757
 3697SOL    HW211991   6.909   4.622   2.720
 3698SOL     OW11992   1.138   0.288   3.812
 3698SOL    HW111993   1.056   0.344   3.825
 3698SOL    HW211994   1.138   0.213   3.878
 3699SOL     OW11995   3.103   1.845   3.323
 3699SOL    HW111996   3.040   1.892   3.385
 3699SOL    HW211997   3.166   1.912   3.283
 3700SOL     OW11998   0.828   5.176   4.786
 3700SOL    HW111999   0.922   5.190   4.818
 3700SOL    HW212000   0.775   5.129   4.857
 3701SOL     OW12001   6.463   0.441   2.206
 3701SOL    HW112002   6.422   0.358   2.245
 3701SOL    HW212003   6.536   0.415   2.143
 3702SOL     OW12004   6.637   4.505   3.580
 3702SOL    HW112005   6.700   4.515   3.503
 3702SOL    HW212006   6.628   4.408   3.603
 3703SOL     OW12007   1.064   2.120   3.442
 3703SOL    HW112008   1.049   2.022   3.427
 3703SOL    HW212009   1.130   2.133   3.515
 3704SOL     OW12010   6.485   6.550   1.141
 3704SOL    HW112011   6.451   6.601   1.062
 3704SOL    HW212012   6.413   6.543   1.210
 3705SOL     OW12013   6.440   3.911   3.669
 3705SOL    HW112014   6.459   3.931   3.573
 3705SOL    HW212015   6.525   3.916   3.722
 3706SOL     OW12016   0.550   5.777   6.714
 3706SOL    HW112017   0.563   5.737   6.805
 3706SOL    HW212018   0.638   5.813   6.681
 3707SOL     OW12019   6.986   4.281   3.181
 3707SOL    HW112020   0.024   4.227   3.245
 3707SOL    HW212021   6.889   4.261   3.196
 3708SOL     OW12022   1.421   5.757   0.292
 3708SOL    HW112023   1.411   5.775   0.390
 3708SOL    HW212024   1.344   5.703   0.260
 3709SOL     OW12025   0.603   1.676   1.035
 3709SOL    HW112026   0.687   1.709   1.077
 3709SOL    HW212027   0.547   1.753   1.006
 3710SOL     OW12028   2.191   3.668   5.458
 3710SOL    HW112029   2.175   3.587   5.514
 3710SOL    HW212030   2.104   3.705   5.427
 3711SOL     OW12031   1.646   4.806   5.462
 3711SOL    HW112032   1.625   4.770   5.553
 3711SOL    HW212033   1.734   4.771   5.431
 3712SOL     OW12034   3.182   4.866   3.853
 3712SOL    HW112035   3.209   4.856   3.949
 3712SOL    HW212036   3.096   4.817   3.837
 3713SOL     OW12037   6.435   0.340   6.067
 3713SOL    HW112038   6.511   0.371   6.124
 3713SOL    HW212039   6.358   0.403   6.077
 3714SOL     OW12040   0.539   5.470   0.488
 3714SOL    HW112041   0.629   5.507   0.509
 3714SOL    HW212042   0.545   5.371   0.477
 3715SOL     OW12043   5.760   4.219   2.418
 3715SOL    HW112044   5.689   4.287   2.398
 3715SOL    HW212045   5.732   4.163   2.496
 3716SOL     OW12046   5.405   5.290   5.559
 3716SOL    HW112047   5.330   5.229   5.584
 3716SOL    HW212048   5.395   5.377   5.607
 3717SOL     OW12049   4.899   0.153   1.040
 3717SOL    HW112050   4.899   0.088   1.116
 3717SOL    HW212051   4.899   0.104   0.953
 3718SOL     OW12052   5.233   6.357   6.687
 3718SOL    HW112053   5.301   6.415   6.645
 3718SOL    HW212054   5.164   6.330   6.619
 3719SOL     OW12055   2.862   3.946   6.947
 3719SOL    HW112056   2.826   3.941   0.023
 3719SOL    HW212057   2.802   3.894   6.886
 3720SOL     OW12058   0.885   2.058   0.494
 3720SOL    HW112059   0.828   2.140   0.494
 3720SOL    HW212060   0.828   1.977   0.478
 3721SOL     OW12061   6.686   0.346   5.693
 3721SOL    HW112062   6.702   0.264   5.749
 3721SOL    HW212063   6.701   0.323   5.597
 3722SOL     OW12064   5.463   6.489   1.611
 3722SOL    HW112065   5.419   6.578   1.596
 3722SOL    HW212066   5.516   6.464   1.530
 3723SOL     OW12067   4.472   4.271   6.040
 3723SOL    HW112068   4.423   4.199   6.089
 3723SOL    HW212069   4.409   4.322   5.982
 3724SOL     OW12070   6.338   4.116   5.298
 3724SOL    HW112071   6.349   4.182   5.224
 3724SOL    HW212072   6.377   4.153   5.383
 3725SOL     OW12073   0.207   6.155   0.950
 3725SOL    HW112074   0.158   6.155   0.862
 3725SOL    HW212075   0.293   6.204   0.940
 3726SOL     OW12076   5.809   3.611   5.430
 3726SOL    HW112077   5.872   3.673   5.476
 3726SOL    HW212078   5.738   3.664   5.383
 3727SOL     OW12079   6.719   1.873   4.096
 3727SOL    HW112080   6.797   1.847   4.040
 3727SOL    HW212081   6.744   1.867   4.193
 3728SOL     OW12082   1.985   4.829   0.394
 3728SOL    HW112083   2.068   4.884   0.393
 3728SOL    HW212084   1.917   4.869   0.333
 3729SOL     OW12085   7.006   0.098   6.451
 3729SOL    HW112086   0.058   0.125   6.385
 3729SOL    HW212087   6.930   0.053   6.403
 3730SOL     OW12088   5.805   4.339   4.750
 3730SOL    HW112089   5.785   4.271   4.821
 3730SOL    HW212090   5.802   4.296   4.660
 3731SOL     OW12091   6.550   1.351   1.647
 3731SOL    HW112092   6.492   1.305   1.580
 3731SOL    HW212093   6.547   1.450   1.632
 3732SOL     OW12094   4.353   2.671   0.017
 3732SOL    HW112095   4.344   2.737   0.091
 3732SOL    HW212096   4.274   2.608   0.018
 3733SOL     OW12097   1.695   1.435   3.216
 3733SOL    HW112098   1.665   1.523   3.182
 3733SOL    HW212099   1.631   1.364   3.187
 3734SOL     OW12100   3.996   1.032   2.000
 3734SOL    HW112101   3.939   1.095   2.053
 3734SOL    HW212102   3.941   0.993   1.925
 3735SOL     OW12103   4.093   0.860   2.399
 3735SOL    HW112104   4.126   0.812   2.481
 3735SOL    HW212105   4.170   0.876   2.337
 3736SOL     OW12106   0.798   1.175   0.151
 3736SOL    HW112107   0.724   1.237   0.176
 3736SOL    HW212108   0.764   1.081   0.149
 3737SOL     OW12109   4.990   1.703   4.524
 3737SOL    HW112110   5.066   1.757   4.485
 3737SOL    HW212111   4.906   1.757   4.520
 3738SOL     OW12112   0.628   0.919   0.611
 3738SOL    HW112113   0.528   0.927   0.609
 3738SOL    HW212114   0.653   0.836   0.660
 3739SOL     OW12115   3.607   4.853   6.735
 3739SOL    HW112116   3.624   4.812   6.645
 3739SOL    HW212117   3.675   4.820   6.800
 3740SOL     OW12118   6.523   6.514   6.933
 3740SOL    HW112119   6.592   6.560   6.989
 3740SOL    HW212120   6.474   6.582   6.879
 3741SOL     OW12121   6.377   4.704   6.920
 3741SOL    HW112122   6.438   4.634   6.885
 3741SOL    HW212123   6.291   4.702   6.868
 3742SOL     OW12124   4.961   5.439   1.684
 3742SOL    HW112125   4.968   5.446   1.585
 3742SOL    HW212126   4.880   5.384   1.708
 3743SOL     OW12127   2.503   4.350   1.391
 3743SOL    HW112128   2.548   4.436   1.367
 3743SOL    HW212129   2.570   4.287   1.428
 3744SOL     OW12130   6.270   6.014   2.208
 3744SOL    HW112131   6.335   6.059   2.270
 3744SOL    HW212132   6.218   5.946   2.259
 3745SOL     OW12133   6.264   0.927   2.657
 3745SOL    HW112134   6.300   0.943   2.749
 3745SOL    HW212135   6.164   0.940   2.658
 3746SOL     OW12136   5.148   0.321   5.271
 3746SOL    HW112137   5.182   0.325   5.365
 3746SOL    HW212138   5.059   0.275   5.269
 3747SOL     OW12139   2.062   5.107   5.264
 3747SOL    HW112140   2.114   5.024   5.287
 3747SOL    HW212141   1.971   5.102   5.305
 3748SOL     OW12142   5.267   1.991   3.198
 3748SOL    HW112143   5.358   2.031   3.184
 3748SOL    HW212144   5.255   1.970   3.295
 3749SOL     OW12145   5.740   5.345   0.945
 3749SOL    HW112146   5.763   5.329   0.849
 3749SOL    HW212147   5.643   5.329   0.960
 3750SOL     OW12148   0.075   4.365   1.219
 3750SOL    HW112149   0.045   4.353   1.314
 3750SOL    HW212150   0.149   4.300   1.200
 3751SOL     OW12151   1.678   5.045   0.603
 3751SOL    HW112152   1.671   5.141   0.574
 3751SOL    HW212153   1.771   5.012   0.586
 3752SOL     OW12154   1.273   0.130   6.287
 3752SOL    HW112155   1.326   0.068   6.345
 3752SOL    HW212156   1.279   0.223   6.324
 3753SOL     OW12157   0.702   1.207   5.943
 3753SOL    HW112158   0.650   1.209   6.028
 3753SOL    HW212159   0.799   1.193   5.964
 3754SOL     OW12160   6.741   6.626   1.247
 3754SOL    HW112161   6.653   6.590   1.214
 3754SOL    HW212162   6.730   6.720   1.278
 3755SOL     OW12163   4.471   2.380   3.044
 3755SOL    HW112164   4.520   2.439   3.107
 3755SOL    HW212165   4.490   2.408   2.950
 3756SOL     OW12166   3.406   0.089   0.133
 3756SOL    HW112167   3.402   0.076   0.034
 3756SOL    HW212168   3.387   0.002   0.179
 3757SOL     OW12169   3.139   4.124   5.200
 3757SOL    HW112170   3.222   4.074   5.224
 3757SOL    HW212171   3.078   4.065   5.148
 3758SOL     OW12172   0.342   0.637   2.060
 3758SOL    HW112173   0.382   0.694   2.132
 3758SOL    HW212174   0.301   0.695   1.989
 3759SOL     OW12175   5.241   4.204   0.429
 3759SOL    HW112176   5.191   4.246   0.353
 3759SOL    HW212177   5.179   4.184   0.504
 3760SOL     OW12178   1.875   1.842   5.744
 3760SOL    HW112179   1.832   1.756   5.716
 3760SOL    HW212180   1.832   1.875   5.828
 3761SOL     OW12181   0.178   6.393   4.285
 3761SOL    HW112182   0.080   6.387   4.263
 3761SOL    HW212183   0.191   6.377   4.383
 3762SOL     OW12184   0.339   3.523   0.784
 3762SOL    HW112185   0.321   3.613   0.744
 3762SOL    HW212186   0.254   3.486   0.821
 3763SOL     OW12187   0.530   2.523   4.711
 3763SOL    HW112188   0.586   2.486   4.637
 3763SOL    HW212189   0.572   2.501   4.799
 3764SOL     OW12190   2.274   0.385   3.032
 3764SOL    HW112191   2.371   0.408   3.043
 3764SOL    HW212192   2.265   0.316   2.960
 3765SOL     OW12193   6.235   1.145   3.759
 3765SOL    HW112194   6.163   1.132   3.691
 3765SOL    HW212195   6.251   1.059   3.807
 3766SOL     OW12196   2.350   1.297   4.679
 3766SOL    HW112197   2.263   1.251   4.659
 3766SOL    HW212198   2.426   1.245   4.639
 3767SOL     OW12199   6.856   4.511   1.137
 3767SOL    HW112200   6.758   4.528   1.145
 3767SOL    HW212201   6.883   4.443   1.205
 3768SOL     OW12202   4.782   6.536   1.103
 3768SOL    HW112203   4.806   6.543   1.200
 3768SOL    HW212204   4.853   6.581   1.048
 3769SOL     OW12205   4.318   6.547   4.633
 3769SOL    HW112206   4.380   6.469   4.633
 3769SOL    HW212207   4.275   6.556   4.723
 3770SOL     OW12208   1.973   3.145   0.024
 3770SOL    HW112209   1.904   3.073   0.039
 3770SOL    HW212210   2.058   3.103   7.009
 3771SOL     OW12211   4.753   1.481   5.628
 3771SOL    HW112212   4.715   1.549   5.691
 3771SOL    HW212213   4.811   1.527   5.561
 3772SOL     OW12214   4.955   0.339   2.864
 3772SOL    HW112215   4.922   0.397   2.790
 3772SOL    HW212216   4.922   0.376   2.951
 3773SOL     OW12217   6.104   2.456   0.944
 3773SOL    HW112218   6.027   2.492   0.892
 3773SOL    HW212219   6.103   2.357   0.941
 3774SOL     OW12220   1.680   1.334   1.790
 3774SOL    HW112221   1.612   1.407   1.795
 3774SOL    HW212222   1.772   1.374   1.790
 3775SOL     OW12223   5.771   2.528   3.347
 3775SOL    HW112224   5.773   2.625   3.370
 3775SOL    HW212225   5.709   2.480   3.409
 3776SOL     OW12226   2.712   2.242   6.581
 3776SOL    HW112227   2.681   2.276   6.491
 3776SOL    HW212228   2.712   2.318   6.646
 3777SOL     OW12229   1.401   4.575   3.580
 3777SOL    HW112230   1.443   4.514   3.647
 3777SOL    HW212231   1.453   4.572   3.494
 3778SOL     OW12232   1.839   0.458   1.964
 3778SOL    HW112233   1.867   0.362   1.962
 3778SOL    HW212234   1.862   0.498   2.053
 3779SOL     OW12235   1.659   4.799   6.993
 3779SOL    HW112236   1.754   4.769   6.986
 3779SOL    HW212237   1.600   4.729   6.953
 3780SOL     OW12238   1.969   0.298   3.978
 3780SOL    HW112239   2.058   0.332   3.948
 3780SOL    HW212240   1.934   0.232   3.911
 3781SOL     OW12241   2.964   5.173   4.576
 3781SOL    HW112242   2.945   5.271   4.582
 3781SOL    HW212243   2.899   5.123   4.633
 3782SOL     OW12244   2.704   1.048   2.214
 3782SOL    HW112245   2.613   1.080   2.241
 3782SOL    HW212246   2.768   1.059   2.290
 3783SOL     OW12247   5.425   4.454   4.911
 3783SOL    HW112248   5.420   4.414   5.003
 3783SOL    HW212249   5.507   4.512   4.905
 3784SOL     OW12250   4.580   2.700   4.599
 3784SOL    HW112251   4.680   2.693   4.600
 3784SOL    HW212252   4.547   2.697   4.505
 3785SOL     OW12253   0.472   0.071   2.236
 3785SOL    HW112254   0.418   0.000   2.190
 3785SOL    HW212255   0.564   0.036   2.254
 3786SOL     OW12256   2.636   6.303   1.259
 3786SOL    HW112257   2.683   6.221   1.228
 3786SOL    HW212258   2.597   6.287   1.350
 3787SOL     OW12259   4.282   1.139   3.431
 3787SOL    HW112260   4.309   1.067   3.495
 3787SOL    HW212261   4.247   1.217   3.481
 3788SOL     OW12262   0.119   3.095   2.584
 3788SOL    HW112263   0.157   3.007   2.555
 3788SOL    HW212264   0.067   3.083   2.668
 3789SOL     OW12265   2.126   5.399   2.329
 3789SOL    HW112266   2.168   5.408   2.419
 3789SOL    HW212267   2.028   5.419   2.336
 3790SOL     OW12268   1.852   3.431   2.521
 3790SOL    HW112269   1.756   3.453   2.536
 3790SOL    HW212270   1.909   3.511   2.543
 3791SOL     OW12271   6.473   0.621   2.921
 3791SOL    HW112272   6.479   0.696   2.987
 3791SOL    HW212273   6.503   0.653   2.831
 3792SOL     OW12274   1.231   5.489   6.063
 3792SOL    HW112275   1.301   5.418   6.067
 3792SOL    HW212276   1.267   5.573   6.104
 3793SOL     OW12277   6.945   6.019   2.924
 3793SOL    HW112278   6.871   5.976   2.975
 3793SOL    HW212279   6.906   6.079   2.853
 3794SOL     OW12280   4.425   0.123   4.427
 3794SOL    HW112281   4.347   0.122   4.489
 3794SOL    HW212282   4.501   0.073   4.469
 3795SOL     OW12283   5.850   0.211   0.683
 3795SOL    HW112284   5.845   0.270   0.603
 3795SOL    HW212285   5.945   0.186   0.700
 3796SOL     OW12286   0.233   2.790   1.433
 3796SOL    HW112287   0.207   2.885   1.414
 3796SOL    HW212288   0.193   2.761   1.520
 3797SOL     OW12289   6.706   5.841   2.409
 3797SOL    HW112290   6.775   5.891   2.356
 3797SOL    HW212291   6.751   5.789   2.482
 3798SOL     OW12292   1.295   4.428   0.081
 3798SOL    HW112293   1.334   4.341   0.111
 3798SOL    HW212294   1.355   4.471   0.014
 3799SOL     OW12295   0.823   0.543   5.568
 3799SOL    HW112296   0.800   0.534   5.471
 3799SOL    HW212297   0.798   0.634   5.601
 3800SOL     OW12298   4.855   2.413   4.655
 3800SOL    HW112299   4.870   2.458   4.743
 3800SOL    HW212300   4.884   2.473   4.581
 3801SOL     OW12301   6.748   0.584   5.831
 3801SOL    HW112302   6.721   0.511   5.768
 3801SOL    HW212303   6.798   0.545   5.908
 3802SOL     OW12304   1.822   2.483   4.874
 3802SOL    HW112305   1.828   2.533   4.961
 3802SOL    HW212306   1.899   2.510   4.815
 3803SOL     OW12307   4.490   1.132   1.148
 3803SOL    HW112308   4.573   1.095   1.106
 3803SOL    HW212309   4.501   1.135   1.247
 3804SOL     OW12310   5.105   3.567   4.901
 3804SOL    HW112311   5.064   3.537   4.987
 3804SOL    HW212312   5.034   3.573   4.830
 3805SOL     OW12313   2.002   3.798   1.313
 3805SOL    HW112314   1.958   3.882   1.345
 3805SOL    HW212315   1.934   3.725   1.308
 3806SOL     OW12316   3.577   0.706   6.978
 3806SOL    HW112317   3.543   0.783   6.925
 3806SOL    HW212318   3.644   0.738   0.028
 3807SOL     OW12319   1.708   6.597   2.521
 3807SOL    HW112320   1.693   6.509   2.567
 3807SOL    HW212321   1.623   6.650   2.520
 3808SOL     OW12322   4.132   1.067   0.660
 3808SOL    HW112323   4.037   1.040   0.642
 3808SOL    HW212324   4.157   1.142   0.599
 3809SOL     OW12325   4.143   1.292   0.454
 3809SOL    HW112326   4.067   1.294   0.390
 3809SOL    HW212327   4.228   1.312   0.406
 3810SOL     OW12328   1.913   3.787   0.016
 3810SOL    HW112329   1.816   3.805   0.007
 3810SOL    HW212330   1.959   3.807   6.946
 3811SOL     OW12331   0.042   0.617   5.851
 3811SOL    HW112332   6.995   0.612   5.927
 3811SOL    HW212333   7.008   0.628   5.765
 3812SOL     OW12334   4.261   0.443   6.127
 3812SOL    HW112335   4.344   0.497   6.131
 3812SOL    HW212336   4.213   0.447   6.215
 3813SOL     OW12337   3.783   4.923   1.933
 3813SOL    HW112338   3.716   4.890   2.000
 3813SOL    HW212339   3.735   4.955   1.852
 3814SOL     OW12340   2.196   0.368   1.848
 3814SOL    HW112341   2.243   0.411   1.925
 3814SOL    HW212342   2.100   0.353   1.872
 3815SOL     OW12343   5.310   2.279   2.218
 3815SOL    HW112344   5.265   2.361   2.253
 3815SOL    HW212345   5.343   2.297   2.125
 3816SOL     OW12346   0.669   6.159   0.620
 3816SOL    HW112347   0.612   6.174   0.539
 3816SOL    HW212348   0.761   6.131   0.591
 3817SOL     OW12349   5.470   2.000   5.231
 3817SOL    HW112350   5.465   2.016   5.132
 3817SOL    HW212351   5.553   1.949   5.252
 3818SOL     OW12352   3.446   6.407   3.278
 3818SOL    HW112353   3.429   6.499   3.242
 3818SOL    HW212354   3.465   6.344   3.203
 3819SOL     OW12355   5.211   3.312   6.343
 3819SOL    HW112356   5.308   3.329   6.361
 3819SOL    HW212357   5.186   3.222   6.378
 3820SOL     OW12358   4.265   6.086   3.140
 3820SOL    HW112359   4.220   6.013   3.192
 3820SOL    HW212360   4.218   6.172   3.155
 3821SOL     OW12361   0.337   4.699   1.307
 3821SOL    HW112362   0.252   4.685   1.257
 3821SOL    HW212363   0.367   4.613   1.347
 3822SOL     OW12364   0.974   3.689   1.472
 3822SOL    HW112365   1.018   3.601   1.490
 3822SOL    HW212366   0.986   3.748   1.552
 3823SOL     OW12367   2.491   3.336   5.505
 3823SOL    HW112368   2.572   3.324   5.448
 3823SOL    HW212369   2.478   3.433   5.524
 3824SOL     OW12370   0.504   2.619   6.075
 3824SOL    HW112371   0.507   2.666   5.987
 3824SOL    HW212372   0.410   2.589   6.093
 3825SOL     OW12373   0.860   6.218   6.351
 3825SOL    HW112374   0.803   6.228   6.433
 3825SOL    HW212375   0.831   6.286   6.283
 3826SOL     OW12376   6.334   1.718   1.678
 3826SOL    HW112377   6.325   1.703   1.776
 3826SOL    HW212378   6.429   1.706   1.651
 3827SOL     OW12379   4.991   1.882   2.174
 3827SOL    HW112380   5.007   1.824   2.253
 3827SOL    HW212381   5.008   1.978   2.198
 3828SOL     OW12382   3.619   1.071   1.121
 3828SOL    HW112383   3.602   1.152   1.177
 3828SOL    HW212384   3.543   1.059   1.057
 3829SOL     OW12385   0.991   5.076   3.468
 3829SOL    HW112386   0.998   5.166   3.511
 3829SOL    HW212387   0.917   5.077   3.401
 3830SOL     OW12388   2.058   0.252   5.370
 3830SOL    HW112389   2.142   0.295   5.336
 3830SOL    HW212390   2.079   0.195   5.449
 3831SOL     OW12391   4.716   1.840   2.104
 3831SOL    HW112392   4.807   1.859   2.141
 3831SOL    HW212393   4.703   1.890   2.019
 3832SOL     OW12394   5.909   0.098   2.023
 3832SOL    HW112395   5.968   0.040   1.967
 3832SOL    HW212396   5.965   0.144   2.093
 3833SOL     OW12397   1.419   6.659   2.638
 3833SOL    HW112398   1.376   6.621   2.557
 3833SOL    HW212399   1.349   6.677   2.708
 3834SOL     OW12400   3.390   2.838   0.523
 3834SOL    HW112401   3.338   2.766   0.477
 3834SOL    HW212402   3.466   2.867   0.465
 3835SOL     OW12403   3.254   4.868   2.854
 3835SOL    HW112404   3.264   4.851   2.756
 3835SOL    HW212405   3.158   4.858   2.880
 3836SOL     OW12406   1.451   2.727   6.464
 3836SOL    HW112407   1.509   2.737   6.546
 3836SOL    HW212408   1.415   2.817   6.438
 3837SOL     OW12409   3.182   4.303   6.443
 3837SOL    HW112410   3.156   4.238   6.371
 3837SOL    HW212411   3.280   4.318   6.441
 3838SOL     OW12412   0.084   3.214   4.913
 3838SOL    HW112413   0.116   3.150   4.983
 3838SOL    HW212414   0.094   3.173   4.823
 3839SOL     OW12415   0.779   6.040   0.240
 3839SOL    HW112416   0.801   6.122   0.188
 3839SOL    HW212417   0.689   6.007   0.213
 3840SOL     OW12418   3.249   2.090   3.114
 3840SOL    HW112419   3.317   2.054   3.051
 3840SOL    HW212420   3.159   2.089   3.071
 3841SOL     OW12421   1.175   3.289   3.581
 3841SOL    HW112422   1.218   3.277   3.491
 3841SOL    HW212423   1.117   3.370   3.580
 3842SOL     OW12424   1.051   5.181   6.715
 3842SOL    HW112425   1.020   5.170   6.809
 3842SOL    HW212426   1.043   5.093   6.667
 3843SOL     OW12427   7.011   4.908   6.498
 3843SOL    HW112428   0.007   4.958   6.413
 3843SOL    HW212429   6.960   4.824   6.480
 3844SOL     OW12430   2.895   4.310   5.605
 3844SOL    HW112431   2.967   4.315   5.535
 3844SOL    HW212432   2.828   4.240   5.579
 3845SOL     OW12433   3.211   3.531   4.300
 3845SOL    HW112434   3.214   3.629   4.320
 3845SOL    HW212435   3.190   3.516   4.204
 3846SOL     OW12436   6.667   4.331   4.899
 3846SOL    HW112437   6.658   4.345   4.998
 3846SOL    HW212438   6.643   4.415   4.851
 3847SOL     OW12439   1.385   6.944   1.082
 3847SOL    HW112440   1.300   6.895   1.067
 3847SOL    HW212441   1.366   0.024   1.094
 3848SOL     OW12442   2.745   6.350   2.267
 3848SOL    HW112443   2.693   6.435   2.277
 3848SOL    HW212444   2.725   6.308   2.179
 3849SOL     OW12445   2.624   1.458   5.346
 3849SOL    HW112446   2.622   1.362   5.374
 3849SOL    HW212447   2.701   1.473   5.284
 3850SOL     OW12448   1.564   3.265   1.654
 3850SOL    HW112449   1.662   3.283   1.645
 3850SOL    HW212450   1.542   3.177   1.612
 3851SOL     OW12451   2.801   2.788   0.526
 3851SOL    HW112452   2.724   2.842   0.560
 3851SOL    HW212453   2.803   2.700   0.574
 3852SOL     OW12454   4.685   0.771   5.542
 3852SOL    HW112455   4.678   0.869   5.561
 3852SOL    HW212456   4.772   0.736   5.576
 3853SOL     OW12457   0.477   3.246   2.189
 3853SOL    HW112458   0.447   3.331   2.232
 3853SOL    HW212459   0.432   3.169   2.233
 3854SOL     OW12460   1.305   3.829   4.121
 3854SOL    HW112461   1.216   3.807   4.161
 3854SOL    HW212462   1.327   3.925   4.140
 3855SOL     OW12463   0.162   1.748   4.889
 3855SOL    HW112464   0.162   1.650   4.905
 3855SOL    HW212465   0.256   1.781   4.879
 3856SOL     OW12466   1.088   6.192   6.177
 3856SOL    HW112467   1.114   6.113   6.232
 3856SOL    HW212468   1.034   6.255   6.233
 3857SOL     OW12469   6.839   0.215   6.807
 3857SOL    HW112470   6.815   0.145   6.874
 3857SOL    HW212471   6.763   0.279   6.796
 3858SOL     OW12472   4.243   5.102   6.730
 3858SOL    HW112473   4.317   5.155   6.687
 3858SOL    HW212474   4.236   5.013   6.686
 3859SOL     OW12475   6.600   2.579   2.453
 3859SOL    HW112476   6.638   2.671   2.445
 3859SOL    HW212477   6.510   2.577   2.407
 3860SOL     OW12478   2.165   6.025   4.673
 3860SOL    HW112479   2.143   5.961   4.747
 3860SOL    HW212480   2.096   6.019   4.601
 3861SOL     OW12481   3.112   3.820   0.433
 3861SOL    HW112482   3.184   3.889   0.425
 3861SOL    HW212483   3.120   3.754   0.358
 3862SOL     OW12484   0.882   6.429   5.230
 3862SOL    HW112485   0.974   6.464   5.217
 3862SOL    HW212486   0.877   6.335   5.195
 3863SOL     OW12487   2.401   3.037   0.480
 3863SOL    HW112488   2.421   3.133   0.496
 3863SOL    HW212489   2.425   2.984   0.562
 3864SOL     OW12490   3.388   1.902   1.378
 3864SOL    HW112491   3.476   1.868   1.412
 3864SOL    HW212492   3.314   1.845   1.413
 3865SOL     OW12493   4.244   1.004   2.202
 3865SOL    HW112494   4.160   1.023   2.152
 3865SOL    HW212495   4.279   0.914   2.177
 3866SOL     OW12496   4.552   6.134   6.688
 3866SOL    HW112497   4.550   6.209   6.754
 3866SOL    HW212498   4.643   6.093   6.686
 3867SOL     OW12499   1.573   5.038   3.064
 3867SOL    HW112500   1.480   5.062   3.093
 3867SOL    HW212501   1.588   5.070   2.971
 3868SOL     OW12502   2.103   5.109   2.911
 3868SOL    HW112503   2.139   5.132   3.001
 3868SOL    HW212504   2.037   5.034   2.919
 3869SOL     OW12505   0.916   1.174   3.511
 3869SOL    HW112506   0.869   1.190   3.598
 3869SOL    HW212507   1.012   1.151   3.529
 3870SOL     OW12508   4.180   3.722   0.106
 3870SOL    HW112509   4.177   3.678   0.016
 3870SOL    HW212510   4.113   3.678   0.166
 3871SOL     OW12511   3.099   0.586   4.237
 3871SOL    HW112512   3.186   0.617   4.197
 3871SOL    HW212513   3.117   0.539   4.323
 3872SOL     OW12514   4.745   4.155   0.540
 3872SOL    HW112515   4.744   4.091   0.464
 3872SOL    HW212516   4.694   4.117   0.617
 3873SOL     OW12517   6.340   4.907   1.728
 3873SOL    HW112518   6.422   4.962   1.713
 3873SOL    HW212519   6.280   4.914   1.648
 3874SOL     OW12520   5.400   6.436   5.626
 3874SOL    HW112521   5.322   6.485   5.665
 3874SOL    HW212522   5.371   6.344   5.599
 3875SOL     OW12523   2.981   3.463   0.308
 3875SOL    HW112524   2.952   3.406   0.231
 3875SOL    HW212525   3.046   3.532   0.276
 3876SOL     OW12526   5.441   3.944   2.745
 3876SOL    HW112527   5.370   3.880   2.775
 3876SOL    HW212528   5.403   4.037   2.742
 3877SOL     OW12529   4.472   1.726   1.671
 3877SOL    HW112530   4.483   1.797   1.741
 3877SOL    HW212531   4.559   1.712   1.624
 3878SOL     OW12532   5.890   5.800   5.075
 3878SOL    HW112533   5.791   5.785   5.075
 3878SOL    HW212534   5.908   5.898   5.073
 3879SOL     OW12535   2.122   6.176   0.716
 3879SOL    HW112536   2.069   6.261   0.719
 3879SOL    HW212537   2.213   6.192   0.753
 3880SOL     OW12538   5.733   1.740   4.500
 3880SOL    HW112539   5.731   1.771   4.595
 3880SOL    HW212540   5.771   1.648   4.496
 3881SOL     OW12541   0.025   6.307   5.596
 3881SOL    HW112542   7.003   6.395   5.568
 3881SOL    HW212543   0.044   6.308   5.694
 3882SOL     OW12544   0.012   5.969   0.031
 3882SOL    HW112545   0.045   5.880   0.061
 3882SOL    HW212546   6.967   5.956   6.970
 3883SOL     OW12547   4.203   1.899   0.464
 3883SOL    HW112548   4.253   1.813   0.460
 3883SOL    HW212549   4.105   1.881   0.460
 3884SOL     OW12550   3.019   5.816   5.859
 3884SOL    HW112551   3.078   5.887   5.897
 3884SOL    HW212552   3.031   5.731   5.910
 3885SOL     OW12553   0.264   1.260   3.846
 3885SOL    HW112554   0.225   1.352   3.842
 3885SOL    HW212555   0.205   1.197   3.795
 3886SOL     OW12556   6.908   6.317   4.673
 3886SOL    HW112557   6.843   6.310   4.748
 3886SOL    HW212558   6.863   6.290   4.587
 3887SOL     OW12559   0.091   3.014   5.365
 3887SOL    HW112560   0.180   2.997   5.407
 3887SOL    HW212561   0.042   3.084   5.417
 3888SOL     OW12562   4.856   2.290   3.291
 3888SOL    HW112563   4.866   2.201   3.246
 3888SOL    HW212564   4.761   2.320   3.285
 3889SOL     OW12565   6.436   5.552   0.446
 3889SOL    HW112566   6.439   5.556   0.546
 3889SOL    HW212567   6.528   5.565   0.409
 3890SOL     OW12568   5.836   3.228   3.485
 3890SOL    HW112569   5.882   3.307   3.525
 3890SOL    HW212570   5.778   3.258   3.409
 3891SOL     OW12571   3.789   4.206   5.969
 3891SOL    HW112572   3.752   4.268   6.039
 3891SOL    HW212573   3.763   4.112   5.991
 3892SOL     OW12574   5.057   6.019   3.963
 3892SOL    HW112575   4.972   6.053   3.923
 3892SOL    HW212576   5.036   5.959   4.040
 3893SOL     OW12577   2.638   5.937   4.833
 3893SOL    HW112578   2.556   5.963   4.782
 3893SOL    HW212579   2.652   5.839   4.826
 3894SOL     OW12580   5.491   5.833   5.935
 3894SOL    HW112581   5.512   5.876   5.847
 3894SOL    HW212582   5.533   5.884   6.009
 3895SOL     OW12583   1.167   1.677   5.025
 3895SOL    HW112584   1.245   1.646   4.971
 3895SOL    HW212585   1.180   1.773   5.051
 3896SOL     OW12586   6.663   2.479   0.515
 3896SOL    HW112587   6.685   2.513   0.424
 3896SOL    HW212588   6.692   2.384   0.524
 3897SOL     OW12589   2.764   0.623   3.234
 3897SOL    HW112590   2.845   0.591   3.184
 3897SOL    HW212591   2.691   0.645   3.169
 3898SOL     OW12592   3.561   4.174   2.979
 3898SOL    HW112593   3.537   4.178   3.076
 3898SOL    HW212594   3.652   4.133   2.968
 3899SOL     OW12595   4.641   1.542   6.194
 3899SOL    HW112596   4.692   1.487   6.260
 3899SOL    HW212597   4.661   1.512   6.101
 3900SOL     OW12598   1.019   2.355   4.245
 3900SOL    HW112599   0.995   2.317   4.334
 3900SOL    HW212600   0.940   2.405   4.208
 3901SOL     OW12601   3.840   6.242   4.309
 3901SOL    HW112602   3.818   6.329   4.353
 3901SOL    HW212603   3.926   6.251   4.260
 3902SOL     OW12604   2.973   5.001   3.219
 3902SOL    HW112605   2.986   5.097   3.245
 3902SOL    HW212606   2.883   4.970   3.251
 3903SOL     OW12607   2.808   3.967   5.993
 3903SOL    HW112608   2.723   3.977   6.045
 3903SOL    HW212609   2.817   4.045   5.930
 3904SOL     OW12610   2.878   6.382   1.082
 3904SOL    HW112611   2.783   6.376   1.112
 3904SOL    HW212612   2.917   6.469   1.110
 3905SOL     OW12613   4.065   6.455   5.621
 3905SOL    HW112614   4.137   6.499   5.674
 3905SOL    HW212615   4.043   6.366   5.661
 3906SOL     OW12616   6.733   5.924   3.978
 3906SOL    HW112617   6.719   5.875   4.064
 3906SOL    HW212618   6.645   5.935   3.932
 3907SOL     OW12619   1.331   1.023   4.953
 3907SOL    HW112620   1.238   1.017   4.990
 3907SOL    HW212621   1.327   1.053   4.858
 3908SOL     OW12622   2.274   1.976   4.752
 3908SOL    HW112623   2.343   1.932   4.809
 3908SOL    HW212624   2.196   2.003   4.808
 3909SOL     OW12625   6.518   3.452   2.343
 3909SOL    HW112626   6.613   3.420   2.348
 3909SOL    HW212627   6.506   3.530   2.404
 3910SOL     OW12628   1.714   2.397   0.298
 3910SOL    HW112629   1.634   2.424   0.351
 3910SOL    HW212630   1.737   2.302   0.317
 3911SOL     OW12631   6.348   0.758   2.463
 3911SOL    HW112632   6.312   0.820   2.533
 3911SOL    HW212633   6.286   0.681   2.452
 3912SOL     OW12634   4.732   4.780   0.767
 3912SOL    HW112635   4.730   4.821   0.675
 3912SOL    HW212636   4.817   4.806   0.813
 3913SOL     OW12637   4.180   4.735   1.456
 3913SOL    HW112638   4.168   4.816   1.398
 3913SOL    HW212639   4.267   4.691   1.433
 3914SOL     OW12640   0.368   1.108   0.502
 3914SOL    HW112641   0.323   1.072   0.584
 3914SOL    HW212642   0.367   1.038   0.431
 3915SOL     OW12643   5.266   0.296   4.846
 3915SOL    HW112644   5.280   0.256   4.937
 3915SOL    HW212645   5.301   0.234   4.776
 3916SOL     OW12646   2.110   2.870   2.046
 3916SOL    HW112647   2.169   2.882   2.125
 3916SOL    HW212648   2.033   2.811   2.069
 3917SOL     OW12649   3.656   5.682   2.262
 3917SOL    HW112650   3.688   5.613   2.197
 3917SOL    HW212651   3.682   5.655   2.355
 3918SOL     OW12652   3.926   6.255   0.212
 3918SOL    HW112653   3.953   6.344   0.250
 3918SOL    HW212654   3.959   6.247   0.118
 3919SOL     OW12655   4.943   4.303   3.434
 3919SOL    HW112656   4.927   4.391   3.390
 3919SOL    HW212657   4.923   4.310   3.532
 3920SOL     OW12658   4.423   0.829   5.927
 3920SOL    HW112659   4.466   0.751   5.880
 3920SOL    HW212660   4.338   0.799   5.969
 3921SOL     OW12661   1.168   3.903   5.754
 3921SOL    HW112662   1.251   3.864   5.793
 3921SOL    HW212663   1.114   3.831   5.711
 3922SOL     OW12664   5.311   1.964   4.061
 3922SOL    HW112665   5.296   2.063   4.063
 3922SOL    HW212666   5.237   1.920   4.010
 3923SOL     OW12667   5.899   0.683   1.643
 3923SOL    HW112668   5.953   0.624   1.583
 3923SOL    HW212669   5.810   0.702   1.601
 3924SOL     OW12670   5.442   5.079   3.808
 3924SOL    HW112671   5.517   5.049   3.867
 3924SOL    HW212672   5.448   5.179   3.796
 3925SOL     OW12673   3.780   4.251   1.627
 3925SOL    HW112674   3.731   4.177   1.673
 3925SOL    HW212675   3.748   4.339   1.661
 3926SOL     OW12676   0.802   6.092   5.334
 3926SOL    HW112677   0.723   6.153   5.335
 3926SOL    HW212678   0.791   6.023   5.405
 3927SOL     OW12679   6.037   6.293   4.947
 3927SOL    HW112680   6.017   6.273   4.851
 3927SOL    HW212681   5.964   6.255   5.004
 3928SOL     OW12682   4.557   5.235   2.663
 3928SOL    HW112683   4.522   5.173   2.733
 3928SOL    HW212684   4.555   5.189   2.574
 3929SOL     OW12685   1.757   1.193   5.098
 3929SOL    HW112686   1.658   1.207   5.103
 3929SOL    HW212687   1.801   1.244   5.172
 3930SOL     OW12688   1.681   5.416   4.446
 3930SOL    HW112689   1.582   5.431   4.448
 3930SOL    HW212690   1.712   5.406   4.351
 3931SOL     OW12691   0.349   1.931   0.505
 3931SOL    HW112692   0.338   1.957   0.601
 3931SOL    HW212693   0.332   2.011   0.447
 3932SOL     OW12694   1.459   4.525   2.072
 3932SOL    HW112695   1.539   4.571   2.111
 3932SOL    HW212696   1.489   4.447   2.016
 3933SOL     OW12697   1.463   6.893   1.644
 3933SOL    HW112698   1.476   6.952   1.564
 3933SOL    HW212699   1.506   6.804   1.627
 3934SOL     OW12700   1.498   0.010   2.030
 3934SOL    HW112701   1.413   0.048   2.065
 3934SOL    HW212702   1.520   0.052   1.942
 3935SOL     OW12703   7.012   1.108   4.873
 3935SOL    HW112704   7.011   1.029   4.934
 3935SOL    HW212705   0.039   1.084   4.787
 3936SOL     OW12706   6.434   5.065   3.915
 3936SOL    HW112707   6.403   5.050   3.821
 3936SOL    HW212708   6.497   4.992   3.942
 3937SOL     OW12709   1.530   6.651   7.007
 3937SOL    HW112710   1.543   6.683   6.913
 3937SOL    HW212711   1.548   6.726   0.054
 3938SOL     OW12712   1.075   4.931   6.586
 3938SOL    HW112713   1.058   4.840   6.624
 3938SOL    HW212714   1.160   4.930   6.534
 3939SOL     OW12715   2.035   6.145   4.065
 3939SOL    HW112716   1.981   6.097   4.134
 3939SOL    HW212717   2.129   6.110   4.066
 3940SOL     OW12718   2.737   5.976   6.781
 3940SOL    HW112719   2.828   5.972   6.740
 3940SOL    HW212720   2.672   6.010   6.713
 3941SOL     OW12721   5.344   5.286   2.832
 3941SOL    HW112722   5.247   5.310   2.834
 3941SOL    HW212723   5.364   5.220   2.905
 3942SOL     OW12724   0.865   6.602   0.253
 3942SOL    HW112725   0.804   6.630   0.179
 3942SOL    HW212726   0.939   6.546   0.215
 3943SOL     OW12727   0.482   5.008   0.298
 3943SOL    HW112728   0.388   5.026   0.269
 3943SOL    HW212729   0.524   4.941   0.237
 3944SOL     OW12730   5.268   3.162   0.495
 3944SOL    HW112731   5.292   3.178   0.591
 3944SOL    HW212732   5.275   3.065   0.474
 3945SOL     OW12733   0.221   0.796   2.969
 3945SOL    HW112734   0.193   0.700   2.976
 3945SOL    HW212735   0.248   0.829   3.059
 3946SOL     OW12736   5.084   1.007   0.834
 3946SOL    HW112737   5.081   1.087   0.894
 3946SOL    HW212738   5.168   1.008   0.780
 3947SOL     OW12739   5.436   0.055   1.029
 3947SOL    HW112740   5.528   0.039   1.066
 3947SOL    HW212741   5.373   0.075   1.103
 3948SOL     OW12742   1.972   1.710   4.030
 3948SOL    HW112743   1.899   1.652   3.994
 3948SOL    HW212744   2.058   1.687   3.985
 3949SOL     OW12745   6.030   6.525   2.495
 3949SOL    HW112746   6.054   6.508   2.399
 3949SOL    HW212747   6.070   6.612   2.524
 3950SOL     OW12748   2.509   4.649   1.530
 3950SOL    HW112749   2.414   4.677   1.544
 3950SOL    HW212750   2.547   4.615   1.616
 3951SOL     OW12751   6.995   2.449   2.991
 3951SOL    HW112752   0.070   2.487   3.008
 3951SOL    HW212753   6.926   2.512   3.026
 3952SOL     OW12754   5.950   5.387   6.842
 3952SOL    HW112755   5.859   5.412   6.809
 3952SOL    HW212756   6.018   5.448   6.802
 3953SOL     OW12757   3.508   2.857   4.765
 3953SOL    HW112758   3.463   2.928   4.710
 3953SOL    HW212759   3.442   2.819   4.829
 3954SOL     OW12760   1.011   4.486   5.638
 3954SOL    HW112761   0.970   4.418   5.700
 3954SOL    HW212762   0.939   4.544   5.599
 3955SOL     OW12763   6.231   3.391   0.078
 3955SOL    HW112764   6.220   3.462   0.008
 3955SOL    HW212765   6.171   3.411   0.155
 3956SOL     OW12766   6.929   2.879   4.748
 3956SOL    HW112767   6.995   2.946   4.714
 3956SOL    HW212768   6.837   2.919   4.748
 3957SOL     OW12769   1.834   2.786   1.488
 3957SOL    HW112770   1.777   2.706   1.505
 3957SOL    HW212771   1.926   2.756   1.462
 3958SOL     OW12772   5.230   5.396   0.828
 3958SOL    HW112773   5.218   5.413   0.731
 3958SOL    HW212774   5.140   5.388   0.872
 3959SOL     OW12775   3.293   4.976   0.407
 3959SOL    HW112776   3.284   4.877   0.416
 3959SOL    HW212777   3.385   4.998   0.374
 3960SOL     OW12778   5.742   3.458   1.174
 3960SOL    HW112779   5.832   3.489   1.205
 3960SOL    HW212780   5.716   3.374   1.223
 3961SOL     OW12781   6.839   1.094   1.638
 3961SOL    HW112782   6.912   1.115   1.573
 3961SOL    HW212783   6.751   1.100   1.591
 3962SOL     OW12784   0.554   6.651   6.452
 3962SOL    HW112785   0.636   6.613   6.494
 3962SOL    HW212786   0.553   6.629   6.355
 3963SOL     OW12787   6.164   3.045   4.834
 3963SOL    HW112788   6.101   3.092   4.896
 3963SOL    HW212789   6.141   2.948   4.831
 3964SOL     OW12790   6.037   4.817   6.608
 3964SOL    HW112791   6.093   4.770   6.676
 3964SOL    HW212792   5.956   4.762   6.588
 3965SOL     OW12793   2.708   5.003   1.533
 3965SOL    HW112794   2.696   4.915   1.487
 3965SOL    HW212795   2.762   5.063   1.476
 3966SOL     OW12796   0.003   3.789   5.890
 3966SOL    HW112797   6.942   3.727   5.884
 3966SOL    HW212798   7.000   3.873   5.840
 3967SOL     OW12799   2.552   0.117   0.597
 3967SOL    HW112800   2.501   0.201   0.617
 3967SOL    HW212801   2.570   0.111   0.499
 3968SOL     OW12802   4.687   2.864   0.994
 3968SOL    HW112803   4.740   2.812   0.928
 3968SOL    HW212804   4.650   2.803   1.064
 3969SOL     OW12805   6.293   6.471   1.308
 3969SOL    HW112806   6.228   6.542   1.334
 3969SOL    HW212807   6.248   6.403   1.250
 3970SOL     OW12808   6.095   4.211   3.794
 3970SOL    HW112809   6.164   4.280   3.815
 3970SOL    HW212810   6.011   4.233   3.844
 3971SOL     OW12811   7.004   5.628   4.152
 3971SOL    HW112812   0.059   5.636   4.084
 3971SOL    HW212813   0.028   5.627   4.244
 3972SOL     OW12814   1.283   0.828   6.606
 3972SOL    HW112815   1.309   0.773   6.685
 3972SOL    HW212816   1.232   0.908   6.638
 3973SOL     OW12817   4.149   2.956   1.696
 3973SOL    HW112818   4.098   2.992   1.774
 3973SOL    HW212819   4.084   2.921   1.628
 3974SOL     OW12820   5.437   0.683   0.058
 3974SOL    HW112821   5.453   0.731   6.989
 3974SOL    HW212822   5.358   0.623   0.048
 3975SOL     OW12823   0.283   6.551   3.815
 3975SOL    HW112824   0.196   6.534   3.861
 3975SOL    HW212825   0.269   6.616   3.741
 3976SOL     OW12826   0.482   3.150   5.263
 3976SOL    HW112827   0.535   3.234   5.253
 3976SOL    HW212828   0.480   3.102   5.175
 3977SOL     OW12829   2.294   4.849   5.812
 3977SOL    HW112830   2.379   4.863   5.761
 3977SOL    HW212831   2.309   4.785   5.887
 3978SOL     OW12832   4.336   3.345   6.054
 3978SOL    HW112833   4.296   3.278   5.992
 3978SOL    HW212834   4.280   3.350   6.137
 3979SOL     OW12835   0.169   5.383   2.805
 3979SOL    HW112836   0.149   5.337   2.891
 3979SOL    HW212837   0.265   5.365   2.780
 3980SOL     OW12838   5.500   4.279   3.923
 3980SOL    HW112839   5.578   4.271   3.985
 3980SOL    HW212840   5.520   4.232   3.837
 3981SOL     OW12841   6.929   0.810   6.645
 3981SOL    HW112842   6.886   0.893   6.610
 3981SOL    HW212843   6.864   0.762   6.705
 3982SOL     OW12844   1.951   3.081   3.965
 3982SOL    HW112845   1.861   3.104   3.927
 3982SOL    HW212846   1.940   3.044   4.057
 3983SOL     OW12847   2.568   1.186   2.882
 3983SOL    HW112848   2.477   1.145   2.888
 3983SOL    HW212849   2.604   1.202   2.974
 3984SOL     OW12850   1.448   5.914   2.472
 3984SOL    HW112851   1.445   6.004   2.515
 3984SOL    HW212852   1.458   5.844   2.542
 3985SOL     OW12853   1.581   2.491   1.237
 3985SOL    HW112854   1.627   2.552   1.302
 3985SOL    HW212855   1.559   2.405   1.283
 3986SOL     OW12856   0.664   1.436   2.946
 3986SOL    HW112857   0.763   1.437   2.954
 3986SOL    HW212858   0.636   1.364   2.882
 3987SOL     OW12859   1.511   4.236   5.549
 3987SOL    HW112860   1.610   4.244   5.537
 3987SOL    HW212861   1.476   4.320   5.591
 3988SOL     OW12862   5.043   5.910   2.304
 3988SOL    HW112863   5.099   5.881   2.381
 3988SOL    HW212864   5.002   5.830   2.261
 3989SOL     OW12865   4.367   0.542   6.394
 3989SOL    HW112866   4.279   0.583   6.414
 3989SOL    HW212867   4.434   0.614   6.372
 3990SOL     OW12868   6.295   6.703   3.897
 3990SOL    HW112869   6.226   6.726   3.966
 3990SOL    HW212870   6.288   6.605   3.875
 3991SOL     OW12871   6.915   2.431   3.930
 3991SOL    HW112872   7.012   2.444   3.907
 3991SOL    HW212873   6.893   2.334   3.929
 3992SOL     OW12874   5.736   3.755   5.804
 3992SOL    HW112875   5.742   3.855   5.797
 3992SOL    HW212876   5.816   3.714   5.761
 3993SOL     OW12877   1.921   0.686   4.318
 3993SOL    HW112878   1.924   0.627   4.236
 3993SOL    HW212879   1.827   0.693   4.350
 3994SOL     OW12880   3.455   2.126   3.597
 3994SOL    HW112881   3.402   2.122   3.512
 3994SOL    HW212882   3.497   2.217   3.605
 3995SOL     OW12883   1.640   3.723   1.909
 3995SOL    HW112884   1.604   3.639   1.870
 3995SOL    HW212885   1.722   3.703   1.964
 3996SOL     OW12886   0.621   6.063   4.956
 3996SOL    HW112887   0.548   6.005   4.918
 3996SOL    HW212888   0.582   6.150   4.985
 3997SOL     OW12889   6.225   3.293   4.746
 3997SOL    HW112890   6.148   3.347   4.780
 3997SOL    HW212891   6.210   3.197   4.768
 3998SOL     OW12892   4.406   2.206   2.645
 3998SOL    HW112893   4.437   2.288   2.693
 3998SOL    HW212894   4.384   2.229   2.550
 3999SOL     OW12895   4.628   3.571   1.408
 3999SOL    HW112896   4.602   3.480   1.439
 3999SOL    HW212897   4.546   3.626   1.393
 4000SOL     OW12898   2.304   4.752   2.333
 4000SOL    HW112899   2.205   4.769   2.331
 4000SOL    HW212900   2.352   4.829   2.293
 4001SOL     OW12901   0.900   5.828   4.067
 4001SOL    HW112902   0.993   5.838   4.032
 4001SOL    HW212903   0.891   5.880   4.152
 4002SOL     OW12904   3.843   4.064   5.036
 4002SOL    HW112905   3.814   4.094   4.946
 4002SOL    HW212906   3.771   4.082   5.103
 4003SOL     OW12907   2.824   1.365   4.280
 4003SOL    HW112908   2.878   1.285   4.310
 4003SOL    HW212909   2.874   1.415   4.210
 4004SOL     OW12910   1.846   3.487   5.108
 4004SOL    HW112911   1.946   3.491   5.111
 4004SOL    HW212912   1.818   3.406   5.056
 4005SOL     OW12913   5.480   2.096   1.414
 4005SOL    HW112914   5.486   2.185   1.369
 4005SOL    HW212915   5.523   2.026   1.358
 4006SOL     OW12916   0.095   5.914   2.320
 4006SOL    HW112917   0.182   5.902   2.272
 4006SOL    HW212918   0.101   5.990   2.384
 4007SOL     OW12919   0.469   1.519   1.431
 4007SOL    HW112920   0.374   1.500   1.406
 4007SOL    HW212921   0.486   1.490   1.525
 4008SOL     OW12922   3.896   0.548   1.449
 4008SOL    HW112923   3.847   0.497   1.379
 4008SOL    HW212924   3.872   0.511   1.540
 4009SOL     OW12925   3.728   2.774   1.199
 4009SOL    HW112926   3.672   2.769   1.281
 4009SOL    HW212927   3.823   2.795   1.225
 4010SOL     OW12928   1.485   5.204   1.043
 4010SOL    HW112929   1.491   5.125   0.981
 4010SOL    HW212930   1.541   5.187   1.124
 4011SOL     OW12931   5.721   6.506   6.639
 4011SOL    HW112932   5.732   6.606   6.634
 4011SOL    HW212933   5.794   6.462   6.587
 4012SOL     OW12934   5.604   4.365   1.640
 4012SOL    HW112935   5.515   4.340   1.677
 4012SOL    HW212936   5.615   4.324   1.549
 4013SOL     OW12937   6.923   1.836   6.724
 4013SOL    HW112938   6.870   1.752   6.729
 4013SOL    HW212939   7.003   1.829   6.784
 4014SOL     OW12940   3.685   6.224   3.031
 4014SOL    HW112941   3.749   6.172   2.974
 4014SOL    HW212942   3.690   6.321   3.007
 4015SOL     OW12943   3.728   6.628   4.681
 4015SOL    HW112944   3.742   6.544   4.734
 4015SOL    HW212945   3.636   6.664   4.700
 4016SOL     OW12946   4.695   5.249   4.158
 4016SOL    HW112947   4.641   5.333   4.169
 4016SOL    HW212948   4.637   5.178   4.119
 4017SOL     OW12949   1.678   6.175   5.667
 4017SOL    HW112950   1.621   6.131   5.736
 4017SOL    HW212951   1.741   6.238   5.711
 4018SOL     OW12952   5.158   5.485   0.553
 4018SOL    HW112953   5.130   5.417   0.486
 4018SOL    HW212954   5.227   5.546   0.513
 4019SOL     OW12955   0.701   2.442   2.817
 4019SOL    HW112956   0.700   2.517   2.751
 4019SOL    HW212957   0.707   2.355   2.769
 4020SOL     OW12958   6.915   5.888   4.469
 4020SOL    HW112959   6.817   5.905   4.468
 4020SOL    HW212960   6.964   5.971   4.496
 4021SOL     OW12961   4.623   5.441   5.943
 4021SOL    HW112962   4.645   5.384   6.022
 4021SOL    HW212963   4.685   5.520   5.941
 4022SOL     OW12964   3.699   0.171   1.255
 4022SOL    HW112965   3.661   0.263   1.267
 4022SOL    HW212966   3.625   0.107   1.234
 4023SOL     OW12967   0.688   1.929   3.924
 4023SOL    HW112968   0.731   1.921   4.014
 4023SOL    HW212969   0.758   1.932   3.853
 4024SOL     OW12970   0.790   6.388   6.160
 4024SOL    HW112971   0.860   6.452   6.129
 4024SOL    HW212972   0.710   6.439   6.194
 4025SOL     OW12973   0.910   4.240   4.583
 4025SOL    HW112974   0.816   4.206   4.580
 4025SOL    HW212975   0.925   4.289   4.668
 4026SOL     OW12976   0.827   6.723   4.659
 4026SOL    HW112977   0.911   6.749   4.612
 4026SOL    HW212978   0.762   6.799   4.657
 4027SOL     OW12979   3.215   5.783   5.043
 4027SOL    HW112980   3.279   5.707   5.055
 4027SOL    HW212981   3.156   5.790   5.124
 4028SOL     OW12982   4.413   1.527   4.806
 4028SOL    HW112983   4.421   1.538   4.707
 4028SOL    HW212984   4.322   1.558   4.835
 4029SOL     OW12985   2.071   6.900   0.984
 4029SOL    HW112986   2.166   6.884   0.958
 4029SOL    HW212987   2.067   6.967   1.059
 4030SOL     OW12988   0.676   1.503   1.967
 4030SOL    HW112989   0.711   1.564   1.896
 4030SOL    HW212990   0.746   1.489   2.037
 4031SOL     OW12991   6.161   5.580   0.728
 4031SOL    HW112992   6.119   5.666   0.759
 4031SOL    HW212993   6.239   5.601   0.670
 4032SOL     OW12994   5.112   2.285   1.872
 4032SOL    HW112995   5.059   2.304   1.955
 4032SOL    HW212996   5.085   2.196   1.835
 4033SOL     OW12997   1.436   3.923   3.054
 4033SOL    HW112998   1.360   3.897   3.113
 4033SOL    HW212999   1.412   4.005   3.003
 4034SOL     OW13000   2.496   2.224   4.536
 4034SOL    HW113001   2.460   2.277   4.459
 4034SOL    HW213002   2.462   2.130   4.530
 4035SOL     OW13003   3.550   2.415   1.702
 4035SOL    HW113004   3.582   2.369   1.784
 4035SOL    HW213005   3.450   2.423   1.705
 4036SOL     OW13006   4.338   6.886   3.634
 4036SOL    HW113007   4.380   6.968   3.596
 4036SOL    HW213008   4.318   6.822   3.560
 4037SOL     OW13009   1.756   1.508   5.551
 4037SOL    HW113010   1.688   1.577   5.525
 4037SOL    HW213011   1.789   1.462   5.469
 4038SOL     OW13012   4.057   4.841   5.631
 4038SOL    HW113013   4.127   4.847   5.560
 4038SOL    HW213014   3.998   4.921   5.627
 4039SOL     OW13015   6.045   4.502   1.542
 4039SOL    HW113016   6.074   4.424   1.487
 4039SOL    HW213017   6.089   4.497   1.632
 4040SOL     OW13018   2.086   6.675   5.122
 4040SOL    HW113019   2.049   6.764   5.092
 4040SOL    HW213020   2.022   6.603   5.095
 4041SOL     OW13021   1.673   6.133   1.694
 4041SOL    HW113022   1.760   6.086   1.711
 4041SOL    HW213023   1.691   6.222   1.653
 4042SOL     OW13024   1.391   1.629   3.968
 4042SOL    HW113025   1.311   1.639   4.026
 4042SOL    HW213026   1.473   1.622   4.026
 4043SOL     OW13027   3.537   2.528   5.746
 4043SOL    HW113028   3.573   2.591   5.677
 4043SOL    HW213029   3.612   2.476   5.786
 4044SOL     OW13030   4.746   4.173   3.109
 4044SOL    HW113031   4.728   4.263   3.148
 4044SOL    HW213032   4.717   4.103   3.174
 4045SOL     OW13033   4.315   1.170   5.067
 4045SOL    HW113034   4.290   1.073   5.075
 4045SOL    HW213035   4.258   1.224   5.129
 4046SOL     OW13036   5.114   1.254   3.844
 4046SOL    HW113037   5.118   1.354   3.850
 4046SOL    HW213038   5.158   1.225   3.759
 4047SOL     OW13039   2.905   2.208   6.248
 4047SOL    HW113040   2.854   2.228   6.331
 4047SOL    HW213041   2.861   2.252   6.169
 4048SOL     OW13042   4.922   2.403   3.534
 4048SOL    HW113043   4.908   2.366   3.442
 4048SOL    HW213044   4.861   2.357   3.598
 4049SOL     OW13045   3.802   3.905   2.583
 4049SOL    HW113046   3.854   3.871   2.505
 4049SOL    HW213047   3.724   3.845   2.600
 4050SOL     OW13048   6.835   4.791   3.181
 4050SOL    HW113049   6.784   4.874   3.162
 4050SOL    HW213050   6.788   4.713   3.140
 4051SOL     OW13051   6.031   0.756   4.083
 4051SOL    HW113052   5.979   0.756   3.998
 4051SOL    HW213053   5.973   0.725   4.158
 4052SOL     OW13054   4.695   1.449   4.311
 4052SOL    HW113055   4.747   1.419   4.390
 4052SOL    HW213056   4.613   1.392   4.301
 4053SOL     OW13057   0.717   4.156   3.173
 4053SOL    HW113058   0.718   4.062   3.207
 4053SOL    HW213059   0.804   4.201   3.195
 4054SOL     OW13060   5.284   3.726   1.772
 4054SOL    HW113061   5.301   3.752   1.868
 4054SOL    HW213062   5.224   3.647   1.769
 4055SOL     OW13063   0.288   4.476   6.942
 4055SOL    HW113064   0.291   4.418   0.006
 4055SOL    HW213065   0.344   4.436   6.869
 4056SOL     OW13066   4.642   4.104   0.061
 4056SOL    HW113067   4.647   4.174   0.132
 4056SOL    HW213068   4.623   4.146   6.990
 4057SOL     OW13069   6.871   4.730   5.876
 4057SOL    HW113070   6.957   4.684   5.898
 4057SOL    HW213071   6.872   4.758   5.780
 4058SOL     OW13072   3.406   0.671   4.482
 4058SOL    HW113073   3.318   0.666   4.529
 4058SOL    HW213074   3.476   0.624   4.536
 4059SOL     OW13075   1.187   1.271   3.722
 4059SOL    HW113076   1.202   1.180   3.682
 4059SOL    HW213077   1.119   1.264   3.795
 4060SOL     OW13078   0.503   6.590   4.004
 4060SOL    HW113079   0.479   6.525   4.076
 4060SOL    HW213080   0.421   6.618   3.955
 4061SOL     OW13081   1.604   4.193   2.243
 4061SOL    HW113082   1.597   4.126   2.317
 4061SOL    HW213083   1.688   4.245   2.253
 4062SOL     OW13084   2.614   4.303   0.269
 4062SOL    HW113085   2.536   4.346   0.225
 4062SOL    HW213086   2.595   4.207   0.286
 4063SOL     OW13087   3.748   1.063   0.827
 4063SOL    HW113088   3.674   1.057   0.894
 4063SOL    HW213089   3.834   1.035   0.869
 4064SOL     OW13090   2.338   0.160   4.629
 4064SOL    HW113091   2.323   0.062   4.622
 4064SOL    HW213092   2.264   0.202   4.681
 4065SOL     OW13093   2.264   1.439   1.126
 4065SOL    HW113094   2.290   1.454   1.221
 4065SOL    HW213095   2.197   1.508   1.099
 4066SOL     OW13096   0.741   3.678   4.925
 4066SOL    HW113097   0.812   3.743   4.953
 4066SOL    HW213098   0.780   3.612   4.861
 4067SOL     OW13099   6.250   4.449   1.285
 4067SOL    HW113100   6.302   4.425   1.367
 4067SOL    HW213101   6.298   4.521   1.235
 4068SOL     OW13102   1.942   2.716   5.797
 4068SOL    HW113103   1.992   2.635   5.768
 4068SOL    HW213104   1.937   2.782   5.722
 4069SOL     OW13105   4.024   6.903   5.923
 4069SOL    HW113106   4.123   6.888   5.915
 4069SOL    HW213107   4.007   6.998   5.950
 4070SOL     OW13108   1.939   4.123   4.284
 4070SOL    HW113109   1.965   4.125   4.187
 4070SOL    HW213110   1.893   4.209   4.307
 4071SOL     OW13111   1.248   0.568   5.442
 4071SOL    HW113112   1.345   0.588   5.431
 4071SOL    HW213113   1.222   0.493   5.381
 4072SOL     OW13114   3.044   6.613   2.758
 4072SOL    HW113115   2.958   6.561   2.753
 4072SOL    HW213116   3.031   6.701   2.712
 4073SOL     OW13117   4.702   5.162   6.642
 4073SOL    HW113118   4.638   5.139   6.568
 4073SOL    HW213119   4.776   5.095   6.643
 4074SOL     OW13120   1.646   5.609   2.267
 4074SOL    HW113121   1.578   5.545   2.303
 4074SOL    HW213122   1.607   5.701   2.265
 4075SOL     OW13123   5.953   0.555   6.834
 4075SOL    HW113124   5.972   0.590   6.926
 4075SOL    HW213125   5.856   0.567   6.814
 4076SOL     OW13126   2.142   5.970   3.393
 4076SOL    HW113127   2.136   5.871   3.388
 4076SOL    HW213128   2.154   5.999   3.488
 4077SOL     OW13129   2.258   2.032   1.557
 4077SOL    HW113130   2.277   2.118   1.510
 4077SOL    HW213131   2.342   1.977   1.561
 4078SOL     OW13132   4.342   5.007   1.903
 4078SOL    HW113133   4.437   4.992   1.874
 4078SOL    HW213134   4.335   5.095   1.950
 4079SOL     OW13135   0.752   2.226   4.034
 4079SOL    HW113136   0.825   2.294   4.028
 4079SOL    HW213137   0.761   2.176   4.120
 4080SOL     OW13138   5.732   2.051   4.411
 4080SOL    HW113139   5.804   2.011   4.355
 4080SOL    HW213140   5.643   2.013   4.382
 4081SOL     OW13141   6.810   3.397   2.365
 4081SOL    HW113142   6.819   3.497   2.369
 4081SOL    HW213143   6.835   3.358   2.453
 4082SOL     OW13144   0.111   3.328   0.432
 4082SOL    HW113145   0.032   3.288   0.480
 4082SOL    HW213146   0.186   3.340   0.496
 4083SOL     OW13147   6.919   3.277   5.414
 4083SOL    HW113148   6.891   3.214   5.486
 4083SOL    HW213149   6.916   3.371   5.449
 4084SOL     OW13150   5.040   0.806   4.181
 4084SOL    HW113151   5.052   0.844   4.090
 4084SOL    HW213152   5.128   0.773   4.216
 4085SOL     OW13153   3.118   5.072   6.805
 4085SOL    HW113154   3.049   5.121   6.751
 4085SOL    HW213155   3.180   5.139   6.848
 4086SOL     OW13156   0.299   2.233   1.498
 4086SOL    HW113157   0.283   2.332   1.510
 4086SOL    HW213158   0.376   2.219   1.437
 4087SOL     OW13159   2.191   1.495   3.192
 4087SOL    HW113160   2.225   1.564   3.256
 4087SOL    HW213161   2.233   1.510   3.102
 4088SOL     OW13162   6.917   2.486   6.435
 4088SOL    HW113163   6.897   2.584   6.440
 4088SOL    HW213164   6.947   2.454   6.524
 4089SOL     OW13165   0.398   1.620   5.758
 4089SOL    HW113166   0.482   1.566   5.757
 4089SOL    HW213167   0.319   1.560   5.770
 4090SOL     OW13168   3.032   5.221   6.593
 4090SOL    HW113169   2.968   5.294   6.615
 4090SOL    HW213170   3.120   5.261   6.566
 4091SOL     OW13171   4.535   6.538   1.212
 4091SOL    HW113172   4.504   6.634   1.215
 4091SOL    HW213173   4.599   6.526   1.136
 4092SOL     OW13174   0.806   1.351   3.947
 4092SOL    HW113175   0.777   1.305   4.031
 4092SOL    HW213176   0.800   1.287   3.870
 4093SOL     OW13177   4.874   6.436   4.033
 4093SOL    HW113178   4.821   6.403   4.110
 4093SOL    HW213179   4.849   6.530   4.012
 4094SOL     OW13180   3.309   3.276   6.424
 4094SOL    HW113181   3.273   3.335   6.351
 4094SOL    HW213182   3.372   3.209   6.384
 4095SOL     OW13183   1.625   3.640   5.867
 4095SOL    HW113184   1.540   3.685   5.843
 4095SOL    HW213185   1.697   3.708   5.879
 4096SOL     OW13186   4.729   4.797   1.829
 4096SOL    HW113187   4.754   4.763   1.920
 4096SOL    HW213188   4.650   4.746   1.795
 4097SOL     OW13189   3.841   4.062   3.306
 4097SOL    HW113190   3.934   4.097   3.311
 4097SOL    HW213191   3.817   4.016   3.391
 4098SOL     OW13192   1.496   3.233   2.546
 4098SOL    HW113193   1.442   3.172   2.603
 4098SOL    HW213194   1.511   3.191   2.457
 4099SOL     OW13195   2.552   6.202   1.501
 4099SOL    HW113196   2.458   6.171   1.517
 4099SOL    HW213197   2.614   6.124   1.506
 4100SOL     OW13198   3.657   6.944   2.902
 4100SOL    HW113199   3.695   0.020   2.899
 4100SOL    HW213200   3.684   6.895   2.820
 4101SOL     OW13201   4.225   1.779   0.011
 4101SOL    HW113202   4.148   1.843   0.018
 4101SOL    HW213203   4.245   1.763   6.931
 4102SOL     OW13204   4.362   1.266   6.139
 4102SOL    HW113205   4.450   1.223   6.122
 4102SOL    HW213206   4.375   1.349   6.194
 4103SOL     OW13207   0.050   0.364   1.556
 4103SOL    HW113208   0.055   0.355   1.655
 4103SOL    HW213209   6.974   0.343   1.525
 4104SOL     OW13210   2.236   4.102   2.175
 4104SOL    HW113211   2.149   4.150   2.188
 4104SOL    HW213212   2.301   4.161   2.128
 4105SOL     OW13213   6.386   5.253   0.487
 4105SOL    HW113214   6.388   5.342   0.442
 4105SOL    HW213215   6.347   5.262   0.579
 4106SOL     OW13216   0.256   3.843   4.519
 4106SOL    HW113217   0.324   3.874   4.585
 4106SOL    HW213218   0.275   3.748   4.494
 4107SOL     OW13219   0.098   0.734   0.961
 4107SOL    HW113220   0.191   0.718   0.929
 4107SOL    HW213221   0.044   0.773   0.886
 4108SOL     OW13222   6.235   2.576   5.105
 4108SOL    HW113223   6.249   2.478   5.121
 4108SOL    HW213224   6.165   2.610   5.167
 4109SOL     OW13225   2.005   6.556   3.885
 4109SOL    HW113226   2.098   6.593   3.888
 4109SOL    HW213227   1.989   6.500   3.967
 4110SOL     OW13228   4.775   3.301   5.272
 4110SOL    HW113229   4.817   3.237   5.207
 4110SOL    HW213230   4.766   3.391   5.229
 4111SOL     OW13231   3.755   3.222   6.323
 4111SOL    HW113232   3.769   3.240   6.420
 4111SOL    HW213233   3.704   3.297   6.281
 4112SOL     OW13234   4.115   0.575   5.705
 4112SOL    HW113235   4.038   0.634   5.680
 4112SOL    HW213236   4.187   0.583   5.636
 4113SOL     OW13237   3.792   5.364   4.281
 4113SOL    HW113238   3.743   5.451   4.287
 4113SOL    HW213239   3.862   5.369   4.210
 4114SOL     OW13240   3.616   1.910   3.532
 4114SOL    HW113241   3.637   1.895   3.436
 4114SOL    HW213242   3.569   1.997   3.543
 4115SOL     OW13243   4.903   3.843   3.269
 4115SOL    HW113244   4.858   3.927   3.298
 4115SOL    HW213245   4.952   3.802   3.346
 4116SOL     OW13246   2.933   1.350   1.902
 4116SOL    HW113247   2.932   1.261   1.855
 4116SOL    HW213248   2.839   1.377   1.923
 4117SOL     OW13249   1.247   6.253   2.068
 4117SOL    HW113250   1.274   6.168   2.113
 4117SOL    HW213251   1.147   6.264   2.074
 4118SOL     OW13252   1.699   0.616   6.466
 4118SOL    HW113253   1.603   0.612   6.440
 4118SOL    HW213254   1.730   0.711   6.464
 4119SOL     OW13255   5.256   1.812   3.401
 4119SOL    HW113256   5.187   1.742   3.386
 4119SOL    HW213257   5.343   1.782   3.363
 4120SOL     OW13258   5.523   1.044   2.301
 4120SOL    HW113259   5.612   1.061   2.343
 4120SOL    HW213260   5.536   1.002   2.211
 4121SOL     OW13261   5.948   2.262   4.177
 4121SOL    HW113262   5.898   2.303   4.253
 4121SOL    HW213263   5.892   2.266   4.094
 4122SOL     OW13264   2.344   5.099   6.853
 4122SOL    HW113265   2.292   5.123   6.935
 4122SOL    HW213266   2.440   5.123   6.867
 4123SOL     OW13267   4.189   4.114   5.533
 4123SOL    HW113268   4.284   4.089   5.510
 4123SOL    HW213269   4.152   4.046   5.596
 4124SOL     OW13270   4.691   6.528   3.035
 4124SOL    HW113271   4.648   6.441   3.011
 4124SOL    HW213272   4.639   6.603   2.994
 4125SOL     OW13273   4.836   1.474   1.518
 4125SOL    HW113274   4.838   1.374   1.522
 4125SOL    HW213275   4.771   1.509   1.585
 4126SOL     OW13276   2.041   3.894   4.900
 4126SOL    HW113277   1.989   3.819   4.941
 4126SOL    HW213278   2.022   3.979   4.948
 4127SOL     OW13279   5.276   4.772   4.340
 4127SOL    HW113280   5.210   4.793   4.411
 4127SOL    HW213281   5.243   4.696   4.284
 4128SOL     OW13282   6.997   1.814   1.836
 4128SOL    HW113283   6.927   1.743   1.839
 4128SOL    HW213284   0.062   1.780   1.789
 4129SOL     OW13285   0.129   2.609   6.939
 4129SOL    HW113286   0.191   2.533   6.958
 4129SOL    HW213287   0.081   2.593   6.853
 4130SOL     OW13288   6.275   1.934   1.255
 4130SOL    HW113289   6.250   2.031   1.257
 4130SOL    HW213290   6.341   1.918   1.182
 4131SOL     OW13291   0.087   3.310   2.943
 4131SOL    HW113292   0.142   3.321   3.026
 4131SOL    HW213293   0.109   3.223   2.899
 4132SOL     OW13294   4.480   1.743   4.404
 4132SOL    HW113295   4.467   1.683   4.483
 4132SOL    HW213296   4.498   1.836   4.434
 4133SOL     OW13297   2.451   2.464   0.880
 4133SOL    HW113298   2.468   2.376   0.923
 4133SOL    HW213299   2.441   2.534   0.950
 4134SOL     OW13300   2.223   0.970   0.112
 4134SOL    HW113301   2.250   0.943   0.204
 4134SOL    HW213302   2.287   0.931   0.046
 4135SOL     OW13303   1.863   0.419   0.791
 4135SOL    HW113304   1.816   0.381   0.870
 4135SOL    HW213305   1.799   0.430   0.716
 4136SOL     OW13306   1.037   1.829   3.429
 4136SOL    HW113307   1.133   1.802   3.416
 4136SOL    HW213308   0.979   1.773   3.370
 4137SOL     OW13309   3.907   3.038   5.357
 4137SOL    HW113310   4.001   3.005   5.367
 4137SOL    HW213311   3.898   3.087   5.270
 4138SOL     OW13312   4.805   5.638   1.333
 4138SOL    HW113313   4.847   5.716   1.288
 4138SOL    HW213314   4.873   5.566   1.347
 4139SOL     OW13315   2.668   1.510   0.079
 4139SOL    HW113316   2.747   1.486   0.134
 4139SOL    HW213317   2.696   1.570   0.004
 4140SOL     OW13318   4.941   2.407   5.111
 4140SOL    HW113319   4.856   2.355   5.102
 4140SOL    HW213320   4.977   2.395   5.204
 4141SOL     OW13321   5.167   6.189   1.258
 4141SOL    HW113322   5.113   6.115   1.299
 4141SOL    HW213323   5.202   6.160   1.169
 4142SOL     OW13324   6.071   3.180   1.686
 4142SOL    HW113325   6.163   3.142   1.696
 4142SOL    HW213326   6.063   3.264   1.740
 4143SOL     OW13327   1.728   2.522   1.508
 4143SOL    HW113328   1.645   2.473   1.537
 4143SOL    HW213329   1.807   2.480   1.552
 4144SOL     OW13330   3.983   0.781   2.159
 4144SOL    HW113331   3.991   0.873   2.122
 4144SOL    HW213332   4.023   0.778   2.251
 4145SOL     OW13333   2.655   0.198   3.665
 4145SOL    HW113334   2.575   0.139   3.669
 4145SOL    HW213335   2.627   0.291   3.641
 4146SOL     OW13336   5.188   4.577   0.476
 4146SOL    HW113337   5.138   4.530   0.548
 4146SOL    HW213338   5.285   4.581   0.500
 4147SOL     OW13339   2.554   2.116   5.774
 4147SOL    HW113340   2.484   2.049   5.796
 4147SOL    HW213341   2.541   2.149   5.681
 4148SOL     OW13342   6.902   6.817   2.312
 4148SOL    HW113343   6.875   6.910   2.334
 4148SOL    HW213344   6.861   6.754   2.378
 4149SOL     OW13345   4.720   4.185   2.265
 4149SOL    HW113346   4.657   4.213   2.192
 4149SOL    HW213347   4.728   4.086   2.266
 4150SOL     OW13348   3.867   0.576   4.854
 4150SOL    HW113349   3.954   0.569   4.806
 4150SOL    HW213350   3.862   0.663   4.901
 4151SOL     OW13351   0.912   5.675   0.260
 4151SOL    HW113352   0.951   5.766   0.246
 4151SOL    HW213353   0.940   5.640   0.350
 4152SOL     OW13354   3.386   3.936   0.785
 4152SOL    HW113355   3.316   3.945   0.855
 4152SOL    HW213356   3.468   3.986   0.814
 4153SOL     OW13357   6.213   6.015   5.955
 4153SOL    HW113358   6.275   5.938   5.972
 4153SOL    HW213359   6.118   5.986   5.968
 4154SOL     OW13360   4.549   2.649   4.882
 4154SOL    HW113361   4.645   2.631   4.901
 4154SOL    HW213362   4.539   2.683   4.788
 4155SOL     OW13363   1.756   2.867   0.124
 4155SOL    HW113364   1.722   2.775   0.141
 4155SOL    HW213365   1.847   2.877   0.165
 4156SOL     OW13366   6.001   0.990   5.336
 4156SOL    HW113367   6.089   0.981   5.384
 4156SOL    HW213368   5.972   0.901   5.302
 4157SOL     OW13369   3.447   0.906   3.731
 4157SOL    HW113370   3.532   0.886   3.780
 4157SOL    HW213371   3.370   0.902   3.794
 4158SOL     OW13372   0.834   0.701   3.364
 4158SOL    HW113373   0.741   0.664   3.358
 4158SOL    HW213374   0.832   0.800   3.350
 4159SOL     OW13375   0.359   4.571   5.557
 4159SOL    HW113376   0.313   4.586   5.644
 4159SOL    HW213377   0.389   4.476   5.550
 4160SOL     OW13378   6.918   0.527   0.975
 4160SOL    HW113379   7.004   0.558   1.017
 4160SOL    HW213380   6.845   0.592   0.998
 4161SOL     OW13381   6.193   1.355   1.203
 4161SOL    HW113382   6.134   1.286   1.162
 4161SOL    HW213383   6.179   1.443   1.157
 4162SOL     OW13384   1.025   7.016   5.181
 4162SOL    HW113385   1.108   6.986   5.134
 4162SOL    HW213386   1.050   0.051   5.263
 4163SOL     OW13387   6.992   1.898   5.520
 4163SOL    HW113388   6.901   1.869   5.549
 4163SOL    HW213389   7.003   1.881   5.422
 4164SOL     OW13390   2.646   6.398   5.867
 4164SOL    HW113391   2.588   6.466   5.913
 4164SOL    HW213392   2.588   6.334   5.816
 4165SOL     OW13393   1.918   6.303   1.664
 4165SOL    HW113394   1.907   6.378   1.730
 4165SOL    HW213395   1.845   6.307   1.596
 4166SOL     OW13396   6.193   2.069   2.381
 4166SOL    HW113397   6.242   2.026   2.457
 4166SOL    HW213398   6.237   2.156   2.358
 4167SOL     OW13399   1.738   2.600   1.043
 4167SOL    HW113400   1.680   2.585   1.122
 4167SOL    HW213401   1.693   2.661   0.978
 4168SOL     OW13402   2.303   6.082   1.189
 4168SOL    HW113403   2.387   6.041   1.152
 4168SOL    HW213404   2.324   6.172   1.226
 4169SOL     OW13405   6.407   3.608   6.535
 4169SOL    HW113406   6.489   3.665   6.542
 4169SOL    HW213407   6.338   3.655   6.481
 4170SOL     OW13408   2.904   0.870   5.683
 4170SOL    HW113409   2.921   0.967   5.665
 4170SOL    HW213410   2.975   0.815   5.637
 4171SOL     OW13411   6.294   2.987   1.743
 4171SOL    HW113412   6.289   2.938   1.830
 4171SOL    HW213413   6.388   3.014   1.725
 4172SOL     OW13414   3.034   0.690   1.142
 4172SOL    HW113415   3.036   0.597   1.105
 4172SOL    HW213416   3.030   0.756   1.067
 4173SOL     OW13417   4.324   3.892   5.754
 4173SOL    HW113418   4.346   3.863   5.661
 4173SOL    HW213419   4.393   3.958   5.785
 4174SOL     OW13420   4.751   1.001   3.543
 4174SOL    HW113421   4.713   1.026   3.632
 4174SOL    HW213422   4.847   1.030   3.539
 4175SOL     OW13423   2.613   1.283   2.546
 4175SOL    HW113424   2.659   1.204   2.588
 4175SOL    HW213425   2.558   1.329   2.615
 4176SOL     OW13426   5.933   4.642   2.921
 4176SOL    HW113427   5.914   4.550   2.955
 4176SOL    HW213428   5.858   4.703   2.947
 4177SOL     OW13429   6.865   5.548   2.945
 4177SOL    HW113430   6.788   5.498   2.906
 4177SOL    HW213431   6.930   5.571   2.873
 4178SOL     OW13432   4.333   2.480   5.333
 4178SOL    HW113433   4.250   2.480   5.277
 4178SOL    HW213434   4.307   2.481   5.430
 4179SOL     OW13435   6.890   1.662   0.058
 4179SOL    HW113436   6.820   1.705   0.115
 4179SOL    HW213437   6.916   1.574   0.098
 4180SOL     OW13438   5.506   3.985   1.506
 4180SOL    HW113439   5.606   3.991   1.501
 4180SOL    HW213440   5.474   4.030   1.589
 4181SOL     OW13441   5.958   1.176   0.565
 4181SOL    HW113442   5.860   1.191   0.551
 4181SOL    HW213443   6.007   1.261   0.547
 4182SOL     OW13444   6.085   0.830   3.609
 4182SOL    HW113445   6.058   0.919   3.571
 4182SOL    HW213446   6.013   0.796   3.670
 4183SOL     OW13447   1.173   0.612   1.817
 4183SOL    HW113448   1.221   0.698   1.831
 4183SOL    HW213449   1.222   0.539   1.865
 4184SOL     OW13450   4.432   4.881   6.225
 4184SOL    HW113451   4.333   4.879   6.231
 4184SOL    HW213452   4.468   4.788   6.238
 4185SOL     OW13453   0.015   0.561   4.187
 4185SOL    HW113454   6.949   0.597   4.144
 4185SOL    HW213455   0.024   0.598   4.280
 4186SOL     OW13456   3.380   4.037   1.374
 4186SOL    HW113457   3.297   4.092   1.378
 4186SOL    HW213458   3.452   4.090   1.329
 4187SOL     OW13459   4.240   5.098   5.542
 4187SOL    HW113460   4.314   5.052   5.591
 4187SOL    HW213461   4.215   5.182   5.590
 4188SOL     OW13462   5.035   5.531   3.243
 4188SOL    HW113463   4.964   5.596   3.270
 4188SOL    HW213464   5.047   5.535   3.144
 4189SOL     OW13465   1.250   3.464   3.144
 4189SOL    HW113466   1.244   3.365   3.130
 4189SOL    HW213467   1.175   3.509   3.097
 4190SOL     OW13468   2.564   6.645   1.776
 4190SOL    HW113469   2.565   6.716   1.706
 4190SOL    HW213470   2.523   6.562   1.739
 4191SOL     OW13471   0.288   2.282   3.610
 4191SOL    HW113472   0.192   2.263   3.631
 4191SOL    HW213473   0.305   2.380   3.614
 4192SOL     OW13474   5.926   6.361   4.008
 4192SOL    HW113475   5.887   6.271   4.028
 4192SOL    HW213476   5.928   6.375   3.909
 4193SOL     OW13477   1.398   6.888   3.859
 4193SOL    HW113478   1.414   6.872   3.761
 4193SOL    HW213479   1.459   6.960   3.891
 4194SOL     OW13480   5.166   0.148   3.195
 4194SOL    HW113481   5.248   0.122   3.143
 4194SOL    HW213482   5.134   0.238   3.166
 4195SOL     OW13483   4.576   0.275   3.652
 4195SOL    HW113484   4.557   0.371   3.630
 4195SOL    HW213485   4.664   0.249   3.611
 4196SOL     OW13486   4.905   2.548   3.095
 4196SOL    HW113487   4.859   2.471   3.139
 4196SOL    HW213488   4.994   2.519   3.061
 4197SOL     OW13489   5.166   4.294   4.460
 4197SOL    HW113490   5.228   4.316   4.535
 4197SOL    HW213491   5.174   4.197   4.437
 4198SOL     OW13492   6.056   3.374   5.839
 4198SOL    HW113493   5.964   3.353   5.871
 4198SOL    HW213494   6.053   3.453   5.778
 4199SOL     OW13495   3.205   4.252   5.795
 4199SOL    HW113496   3.217   4.337   5.744
 4199SOL    HW213497   3.288   4.232   5.846
 4200SOL     OW13498   3.025   0.508   6.063
 4200SOL    HW113499   2.947   0.458   6.025
 4200SOL    HW213500   3.042   0.477   6.157
 4201SOL     OW13501   6.494   0.050   4.939
 4201SOL    HW113502   6.558   7.003   4.981
 4201SOL    HW213503   6.474   0.124   5.002
 4202SOL     OW13504   6.033   3.188   5.064
 4202SOL    HW113505   6.074   3.181   5.155
 4202SOL    HW213506   5.938   3.158   5.068
 4203SOL     OW13507   3.637   5.571   4.674
 4203SOL    HW113508   3.553   5.576   4.728
 4203SOL    HW213509   3.645   5.480   4.633
 4204SOL     OW13510   1.654   4.130   0.436
 4204SOL    HW113511   1.745   4.159   0.405
 4204SOL    HW213512   1.599   4.211   0.457
 4205SOL     OW13513   2.330   6.504   3.634
 4205SOL    HW113514   2.411   6.549   3.597
 4205SOL    HW213515   2.254   6.569   3.636
 4206SOL     OW13516   4.858   6.641   3.682
 4206SOL    HW113517   4.838   6.737   3.659
 4206SOL    HW213518   4.949   6.634   3.722
 4207SOL     OW13519   1.479   6.180   7.004
 4207SOL    HW113520   1.437   6.268   0.008
 4207SOL    HW213521   1.570   6.195   6.965
 4208SOL     OW13522   0.716   2.315   1.424
 4208SOL    HW113523   0.745   2.220   1.414
 4208SOL    HW213524   0.731   2.344   1.519
 4209SOL     OW13525   2.622   0.099   5.658
 4209SOL    HW113526   2.598   0.021   5.600
 4209SOL    HW213527   2.543   0.126   5.712
 4210SOL     OW13528   3.339   3.416   0.281
 4210SOL    HW113529   3.364   3.415   0.378
 4210SOL    HW213530   3.340   3.322   0.245
 4211SOL     OW13531   6.005   3.364   3.877
 4211SOL    HW113532   5.939   3.289   3.875
 4211SOL    HW213533   5.998   3.414   3.963
 4212SOL     OW13534   6.043   6.982   1.800
 4212SOL    HW113535   5.969   6.983   1.732
 4212SOL    HW213536   6.105   6.907   1.779
 4213SOL     OW13537   0.765   6.890   1.230
 4213SOL    HW113538   0.804   6.837   1.154
 4213SOL    HW213539   0.799   6.984   1.226
 4214SOL     OW13540   2.770   5.676   3.438
 4214SOL    HW113541   2.813   5.594   3.401
 4214SOL    HW213542   2.786   5.680   3.537
 4215SOL     OW13543   1.582   5.912   6.657
 4215SOL    HW113544   1.523   5.840   6.693
 4215SOL    HW213545   1.678   5.888   6.671
 4216SOL     OW13546   2.391   2.793   5.356
 4216SOL    HW113547   2.402   2.866   5.289
 4216SOL    HW213548   2.407   2.705   5.311
 4217SOL     OW13549   6.174   0.828   4.723
 4217SOL    HW113550   6.122   0.852   4.806
 4217SOL    HW213551   6.239   0.900   4.702
 4218SOL     OW13552   3.065   5.370   3.005
 4218SOL    HW113553   3.010   5.440   3.051
 4218SOL    HW213554   3.093   5.301   3.072
 4219SOL     OW13555   4.961   0.052   2.812
 4219SOL    HW113556   4.967   0.069   2.714
 4219SOL    HW213557   4.978   0.137   2.862
 4220SOL     OW13558   0.293   4.549   2.933
 4220SOL    HW113559   0.309   4.470   2.874
 4220SOL    HW213560   0.227   4.524   3.004
 4221SOL     OW13561   5.195   6.345   6.002
 4221SOL    HW113562   5.175   6.430   5.954
 4221SOL    HW213563   5.293   6.324   5.994
 4222SOL     OW13564   2.543   2.838   0.319
 4222SOL    HW113565   2.519   2.839   0.417
 4222SOL    HW213566   2.642   2.840   0.309
 4223SOL     OW13567   3.999   3.821   2.769
 4223SOL    HW113568   4.027   3.725   2.773
 4223SOL    HW213569   3.917   3.830   2.712
 4224SOL     OW13570   3.630   2.216   5.482
 4224SOL    HW113571   3.626   2.135   5.541
 4224SOL    HW213572   3.681   2.289   5.528
 4225SOL     OW13573   5.137   6.931   4.787
 4225SOL    HW113574   5.194   7.011   4.771
 4225SOL    HW213575   5.137   6.873   4.706
 4226SOL     OW13576   2.592   1.907   1.944
 4226SOL    HW113577   2.648   1.990   1.945
 4226SOL    HW213578   2.619   1.850   1.866
 4227SOL     OW13579   5.517   4.173   0.469
 4227SOL    HW113580   5.423   4.203   0.449
 4227SOL    HW213581   5.536   4.188   0.566
 4228SOL     OW13582   4.356   5.314   3.190
 4228SOL    HW113583   4.353   5.414   3.199
 4228SOL    HW213584   4.446   5.281   3.220
 4229SOL     OW13585   3.934   4.916   4.794
 4229SOL    HW113586   3.918   4.878   4.885
 4229SOL    HW213587   4.024   4.889   4.762
 4230SOL     OW13588   2.132   1.314   5.897
 4230SOL    HW113589   2.230   1.294   5.897
 4230SOL    HW213590   2.115   1.398   5.846
 4231SOL     OW13591   3.899   6.621   6.423
 4231SOL    HW113592   3.909   6.669   6.336
 4231SOL    HW213593   3.983   6.631   6.476
 4232SOL     OW13594   1.189   4.257   1.695
 4232SOL    HW113595   1.203   4.195   1.618
 4232SOL    HW213596   1.277   4.295   1.724
 4233SOL     OW13597   5.110   5.300   1.241
 4233SOL    HW113598   5.054   5.219   1.254
 4233SOL    HW213599   5.207   5.277   1.251
 4234SOL     OW13600   3.890   3.642   6.024
 4234SOL    HW113601   3.907   3.554   5.981
 4234SOL    HW213602   3.874   3.629   6.122
 4235SOL     OW13603   0.649   4.102   4.769
 4235SOL    HW113604   0.612   4.176   4.825
 4235SOL    HW213605   0.746   4.090   4.789
 4236SOL     OW13606   0.947   3.591   4.490
 4236SOL    HW113607   1.003   3.581   4.408
 4236SOL    HW213608   0.856   3.625   4.464
 4237SOL     OW13609   5.334   3.701   5.548
 4237SOL    HW113610   5.283   3.743   5.473
 4237SOL    HW213611   5.379   3.618   5.515
 4238SOL     OW13612   4.708   4.819   5.154
 4238SOL    HW113613   4.783   4.872   5.194
 4238SOL    HW213614   4.633   4.812   5.220
 4239SOL     OW13615   5.066   5.301   5.453
 4239SOL    HW113616   5.086   5.295   5.550
 4239SOL    HW213617   5.119   5.375   5.412
 4240SOL     OW13618   2.723   4.312   6.129
 4240SOL    HW113619   2.754   4.277   6.041
 4240SOL    HW213620   2.722   4.412   6.126
 4241SOL     OW13621   3.082   2.307   1.034
 4241SOL    HW113622   3.066   2.240   0.961
 4241SOL    HW213623   3.172   2.291   1.075
 4242SOL     OW13624   2.909   0.667   1.750
 4242SOL    HW113625   2.972   0.677   1.673
 4242SOL    HW213626   2.949   0.709   1.831
 4243SOL     OW13627   1.719   1.929   2.314
 4243SOL    HW113628   1.690   1.902   2.222
 4243SOL    HW213629   1.679   1.868   2.381
 4244SOL     OW13630   2.972   6.896   1.181
 4244SOL    HW113631   2.883   6.934   1.158
 4244SOL    HW213632   3.043   6.939   1.125
 4245SOL     OW13633   0.245   1.523   1.226
 4245SOL    HW113634   0.153   1.546   1.257
 4245SOL    HW213635   0.242   1.490   1.132
 4246SOL     OW13636   3.847   2.127   3.550
 4246SOL    HW113637   3.936   2.171   3.563
 4246SOL    HW213638   3.802   2.117   3.639
 4247SOL     OW13639   2.334   5.560   6.878
 4247SOL    HW113640   2.244   5.532   6.911
 4247SOL    HW213641   2.405   5.517   6.934
 4248SOL     OW13642   2.849   6.935   2.442
 4248SOL    HW113643   2.941   6.898   2.428
 4248SOL    HW213644   2.856   0.007   2.489
 4249SOL     OW13645   6.303   0.996   5.377
 4249SOL    HW113646   6.345   1.020   5.290
 4249SOL    HW213647   6.358   0.926   5.423
 4250SOL     OW13648   0.740   5.421   4.549
 4250SOL    HW113649   0.670   5.479   4.508
 4250SOL    HW213650   0.696   5.349   4.603
 4251SOL     OW13651   4.705   2.027   5.264
 4251SOL    HW113652   4.794   1.984   5.252
 4251SOL    HW213653   4.649   2.013   5.182
 4252SOL     OW13654   0.753   6.810   6.315
 4252SOL    HW113655   0.787   6.896   6.278
 4252SOL    HW213656   0.796   6.792   6.404
 4253SOL     OW13657   3.861   6.824   2.712
 4253SOL    HW113658   3.927   6.756   2.680
 4253SOL    HW213659   3.804   6.854   2.635
 4254SOL     OW13660   0.750   0.649   5.289
 4254SOL    HW113661   0.754   0.587   5.210
 4254SOL    HW213662   0.803   0.732   5.269
 4255SOL     OW13663   1.346   3.135   3.965
 4255SOL    HW113664   1.266   3.194   3.953
 4255SOL    HW213665   1.315   3.042   3.988
 4256SOL     OW13666   5.891   6.013   0.872
 4256SOL    HW113667   5.906   6.036   0.776
 4256SOL    HW213668   5.945   5.933   0.895
 4257SOL     OW13669   0.311   1.254   2.304
 4257SOL    HW113670   0.336   1.264   2.208
 4257SOL    HW213671   0.312   1.344   2.348
 4258SOL     OW13672   2.485   6.408   0.858
 4258SOL    HW113673   2.547   6.364   0.792
 4258SOL    HW213674   2.403   6.353   0.869
 4259SOL     OW13675   1.100   6.819   0.102
 4259SOL    HW113676   1.008   6.852   0.082
 4259SOL    HW213677   1.150   6.888   0.155
 4260SOL     OW13678   0.124   0.451   5.229
 4260SOL    HW113679   0.155   0.544   5.249
 4260SOL    HW213680   0.203   0.394   5.206
 4261SOL     OW13681   2.320   6.805   3.419
 4261SOL    HW113682   2.226   6.784   3.445
 4261SOL    HW213683   2.383   6.765   3.486
 4262SOL     OW13684   1.490   3.728   4.960
 4262SOL    HW113685   1.401   3.735   4.915
 4262SOL    HW213686   1.494   3.791   5.037
 4263SOL     OW13687   3.279   0.618   2.553
 4263SOL    HW113688   3.298   0.571   2.639
 4263SOL    HW213689   3.183   0.604   2.528
 4264SOL     OW13690   4.191   2.152   6.828
 4264SOL    HW113691   4.133   2.200   6.762
 4264SOL    HW213692   4.281   2.194   6.831
 4265SOL     OW13693   3.203   6.462   6.629
 4265SOL    HW113694   3.169   6.368   6.636
 4265SOL    HW213695   3.152   6.520   6.691
 4266SOL     OW13696   1.341   4.135   2.883
 4266SOL    HW113697   1.290   4.162   2.802
 4266SOL    HW213698   1.423   4.192   2.892
 4267SOL     OW13699   1.598   3.926   3.474
 4267SOL    HW113700   1.614   3.828   3.465
 4267SOL    HW213701   1.535   3.957   3.403
 4268SOL     OW13702   1.214   4.190   5.836
 4268SOL    HW113703   1.300   4.223   5.799
 4268SOL    HW213704   1.205   4.092   5.817
 4269SOL     OW13705   1.984   1.760   4.291
 4269SOL    HW113706   1.940   1.758   4.201
 4269SOL    HW213707   2.074   1.802   4.284
 4270SOL     OW13708   4.069   4.213   1.199
 4270SOL    HW113709   4.093   4.224   1.296
 4270SOL    HW213710   3.994   4.147   1.191
 4271SOL     OW13711   6.070   0.332   0.154
 4271SOL    HW113712   6.144   0.292   0.208
 4271SOL    HW213713   5.998   0.365   0.215
 4272SOL     OW13714   6.404   1.953   5.730
 4272SOL    HW113715   6.466   2.030   5.746
 4272SOL    HW213716   6.312   1.987   5.713
 4273SOL     OW13717   3.367   5.977   3.799
 4273SOL    HW113718   3.338   5.891   3.842
 4273SOL    HW213719   3.389   5.960   3.703
 4274SOL     OW13720   6.681   0.444   2.026
 4274SOL    HW113721   6.775   0.476   2.034
 4274SOL    HW213722   6.655   0.440   1.930
 4275SOL     OW13723   5.831   1.479   4.617
 4275SOL    HW113724   5.768   1.414   4.660
 4275SOL    HW213725   5.844   1.558   4.677
 4276SOL     OW13726   1.905   0.736   2.616
 4276SOL    HW113727   1.943   0.808   2.558
 4276SOL    HW213728   1.939   0.747   2.710
 4277SOL     OW13729   6.473   4.874   3.074
 4277SOL    HW113730   6.554   4.856   3.130
 4277SOL    HW213731   6.477   4.820   2.990
 4278SOL     OW13732   0.526   6.972   1.920
 4278SOL    HW113733   0.453   0.023   1.913
 4278SOL    HW213734   0.494   6.894   1.973
 4279SOL     OW13735   1.239   3.833   3.220
 4279SOL    HW113736   1.145   3.867   3.216
 4279SOL    HW213737   1.238   3.735   3.237
 4280SOL     OW13738   2.675   6.536   6.424
 4280SOL    HW113739   2.674   6.464   6.355
 4280SOL    HW213740   2.583   6.547   6.462
 4281SOL     OW13741   6.696   6.601   2.715
 4281SOL    HW113742   6.783   6.621   2.760
 4281SOL    HW213743   6.621   6.646   2.764
 4282SOL     OW13744   5.202   4.797   2.140
 4282SOL    HW113745   5.166   4.705   2.122
 4282SOL    HW213746   5.219   4.809   2.238
 4283SOL     OW13747   6.459   1.935   5.046
 4283SOL    HW113748   6.454   1.844   5.085
 4283SOL    HW213749   6.554   1.968   5.050
 4284SOL     OW13750   4.913   6.298   0.058
 4284SOL    HW113751   4.989   6.349   0.018
 4284SOL    HW213752   4.948   6.218   0.108
 4285SOL     OW13753   2.848   1.403   6.450
 4285SOL    HW113754   2.788   1.332   6.488
 4285SOL    HW213755   2.920   1.362   6.395
 4286SOL     OW13756   5.449   6.205   6.721
 4286SOL    HW113757   5.368   6.260   6.700
 4286SOL    HW213758   5.516   6.261   6.770
 4287SOL     OW13759   4.474   0.282   0.637
 4287SOL    HW113760   4.472   0.364   0.581
 4287SOL    HW213761   4.525   0.210   0.590
 4288SOL     OW13762   6.616   6.661   2.215
 4288SOL    HW113763   6.582   6.567   2.220
 4288SOL    HW213764   6.655   6.687   2.303
 4289SOL     OW13765   0.248   4.118   6.016
 4289SOL    HW113766   0.272   4.195   6.076
 4289SOL    HW213767   0.201   4.048   6.069
 4290SOL     OW13768   0.011   1.096   2.948
 4290SOL    HW113769   0.022   1.017   2.887
 4290SOL    HW213770   6.947   1.082   3.005
 4291SOL     OW13771   4.698   4.917   5.783
 4291SOL    HW113772   4.705   4.916   5.684
 4291SOL    HW213773   4.724   4.827   5.819
 4292SOL     OW13774   6.371   6.986   0.471
 4292SOL    HW113775   6.333   6.926   0.400
 4292SOL    HW213776   6.301   0.032   0.502
 4293SOL     OW13777   4.094   2.318   5.793
 4293SOL    HW113778   4.008   2.353   5.830
 4293SOL    HW213779   4.170   2.374   5.826
 4294SOL     OW13780   3.172   1.967   0.093
 4294SOL    HW113781   3.093   2.019   0.124
 4294SOL    HW213782   3.250   1.984   0.154
 4295SOL     OW13783   4.197   6.538   2.439
 4295SOL    HW113784   4.273   6.584   2.392
 4295SOL    HW213785   4.233   6.467   2.500
 4296SOL     OW13786   2.247   5.443   1.709
 4296SOL    HW113787   2.347   5.445   1.716
 4296SOL    HW213788   2.221   5.401   1.622
 4297SOL     OW13789   5.081   4.598   0.041
 4297SOL    HW113790   5.036   4.545   0.113
 4297SOL    HW213791   5.098   4.691   0.072
 4298SOL     OW13792   2.054   6.427   0.665
 4298SOL    HW113793   2.112   6.489   0.718
 4298SOL    HW213794   1.996   6.481   0.603
 4299SOL     OW13795   6.952   3.224   6.823
 4299SOL    HW113796   0.005   3.169   6.868
 4299SOL    HW213797   6.904   3.167   6.756
 4300SOL     OW13798   3.622   0.548   1.948
 4300SOL    HW113799   3.678   0.606   1.888
 4300SOL    HW213800   3.683   0.489   2.002
 4301SOL     OW13801   1.798   6.092   4.654
 4301SOL    HW113802   1.780   5.997   4.627
 4301SOL    HW213803   1.826   6.094   4.750
 4302SOL     OW13804   4.178   5.040   0.292
 4302SOL    HW113805   4.164   5.123   0.345
 4302SOL    HW213806   4.250   5.056   0.224
 4303SOL     OW13807   4.738   4.705   3.462
 4303SOL    HW113808   4.645   4.667   3.463
 4303SOL    HW213809   4.797   4.649   3.404
 4304SOL     OW13810   3.168   4.420   1.446
 4304SOL    HW113811   3.184   4.369   1.362
 4304SOL    HW213812   3.094   4.485   1.432
 4305SOL     OW13813   1.205   6.782   5.661
 4305SOL    HW113814   1.195   6.875   5.698
 4305SOL    HW213815   1.245   6.723   5.730
 4306SOL     OW13816   6.322   3.741   5.256
 4306SOL    HW113817   6.266   3.661   5.231
 4306SOL    HW213818   6.297   3.818   5.198
 4307SOL     OW13819   6.810   1.850   4.353
 4307SOL    HW113820   6.724   1.830   4.401
 4307SOL    HW213821   6.880   1.873   4.421
 4308SOL     OW13822   4.449   5.399   5.749
 4308SOL    HW113823   4.441   5.477   5.687
 4308SOL    HW213824   4.516   5.420   5.820
 4309SOL     OW13825   2.793   2.168   0.877
 4309SOL    HW113826   2.795   2.268   0.876
 4309SOL    HW213827   2.788   2.135   0.971
 4310SOL     OW13828   6.322   1.059   4.672
 4310SOL    HW113829   6.386   1.053   4.595
 4310SOL    HW213830   6.253   1.130   4.652
 4311SOL     OW13831   0.967   6.733   1.587
 4311SOL    HW113832   0.920   6.714   1.673
 4311SOL    HW213833   0.965   6.831   1.569
 4312SOL     OW13834   0.575   2.944   2.474
 4312SOL    HW113835   0.655   3.003   2.467
 4312SOL    HW213836   0.535   2.953   2.566
 4313SOL     OW13837   0.696   3.130   0.385
 4313SOL    HW113838   0.793   3.106   0.381
 4313SOL    HW213839   0.673   3.187   0.306
 4314SOL     OW13840   2.245   1.912   5.497
 4314SOL    HW113841   2.250   1.893   5.399
 4314SOL    HW213842   2.172   1.857   5.538
 4315SOL     OW13843   2.712   2.593   5.338
 4315SOL    HW113844   2.681   2.567   5.247
 4315SOL    HW213845   2.787   2.533   5.366
 4316SOL     OW13846   4.395   4.230   1.356
 4316SOL    HW113847   4.461   4.217   1.430
 4316SOL    HW213848   4.413   4.316   1.310
 4317SOL     OW13849   4.912   0.336   4.008
 4317SOL    HW113850   5.009   0.309   4.010
 4317SOL    HW213851   4.905   0.435   4.008
 4318SOL     OW13852   2.235   5.757   4.457
 4318SOL    HW113853   2.260   5.699   4.379
 4318SOL    HW213854   2.145   5.796   4.441
 4319SOL     OW13855   2.266   4.864   1.333
 4319SOL    HW113856   2.266   4.787   1.397
 4319SOL    HW213857   2.238   4.947   1.381
 4320SOL     OW13858   4.135   1.369   1.877
 4320SOL    HW113859   4.223   1.411   1.853
 4320SOL    HW213860   4.119   1.291   1.817
 4321SOL     OW13861   6.725   5.995   3.521
 4321SOL    HW113862   6.627   5.997   3.499
 4321SOL    HW213863   6.754   5.902   3.540
 4322SOL     OW13864   2.724   1.983   4.349
 4322SOL    HW113865   2.679   1.903   4.389
 4322SOL    HW213866   2.804   1.954   4.297
 4323SOL     OW13867   5.726   4.139   2.013
 4323SOL    HW113868   5.721   4.039   2.002
 4323SOL    HW213869   5.805   4.161   2.070
 4324SOL     OW13870   6.618   3.978   5.532
 4324SOL    HW113871   6.581   4.066   5.502
 4324SOL    HW213872   6.560   3.939   5.603
 4325SOL     OW13873   1.554   0.717   1.115
 4325SOL    HW113874   1.571   0.724   1.213
 4325SOL    HW213875   1.474   0.659   1.099
 4326SOL     OW13876   5.140   2.925   2.345
 4326SOL    HW113877   5.048   2.954   2.370
 4326SOL    HW213878   5.198   3.005   2.333
 4327SOL     OW13879   3.192   6.613   4.021
 4327SOL    HW113880   3.151   6.679   3.958
 4327SOL    HW213881   3.129   6.536   4.033
 4328SOL     OW13882   5.634   0.114   2.116
 4328SOL    HW113883   5.604   0.019   2.104
 4328SOL    HW213884   5.727   0.124   2.081
 4329SOL     OW13885   6.133   3.875   0.347
 4329SOL    HW113886   6.051   3.916   0.387
 4329SOL    HW213887   6.210   3.886   0.410
 4330SOL     OW13888   2.932   5.854   5.387
 4330SOL    HW113889   2.987   5.824   5.465
 4330SOL    HW213890   2.956   5.948   5.363
 4331SOL     OW13891   5.955   1.313   2.748
 4331SOL    HW113892   6.053   1.328   2.738
 4331SOL    HW213893   5.908   1.401   2.755
 4332SOL     OW13894   6.715   5.957   1.323
 4332SOL    HW113895   6.804   5.976   1.365
 4332SOL    HW213896   6.663   6.042   1.316
 4333SOL     OW13897   3.945   3.189   5.732
 4333SOL    HW113898   3.875   3.184   5.661
 4333SOL    HW213899   4.027   3.139   5.702
 4334SOL     OW13900   0.973   1.927   3.695
 4334SOL    HW113901   0.931   2.018   3.694
 4334SOL    HW213902   1.040   1.920   3.621
 4335SOL     OW13903   2.070   2.689   1.461
 4335SOL    HW113904   2.092   2.603   1.506
 4335SOL    HW213905   2.154   2.739   1.440
 4336SOL     OW13906   2.440   5.710   4.924
 4336SOL    HW113907   2.519   5.704   4.863
 4336SOL    HW213908   2.356   5.692   4.873
 4337SOL     OW13909   0.417   4.902   4.302
 4337SOL    HW113910   0.446   4.807   4.307
 4337SOL    HW213911   0.317   4.906   4.303
 4338SOL     OW13912   3.489   3.142   5.479
 4338SOL    HW113913   3.404   3.193   5.472
 4338SOL    HW213914   3.474   3.048   5.446
 4339SOL     OW13915   3.633   3.796   5.229
 4339SOL    HW113916   3.699   3.861   5.266
 4339SOL    HW213917   3.664   3.763   5.140
 4340SOL     OW13918   0.031   4.486   0.335
 4340SOL    HW113919   6.955   4.498   0.368
 4340SOL    HW213920   0.093   4.472   0.413
 4341SOL     OW13921   6.113   6.316   1.511
 4341SOL    HW113922   6.202   6.318   1.465
 4341SOL    HW213923   6.100   6.401   1.563
 4342SOL     OW13924   4.921   3.374   2.149
 4342SOL    HW113925   4.913   3.470   2.124
 4342SOL    HW213926   4.854   3.321   2.098
 4343SOL     OW13927   4.767   6.884   6.122
 4343SOL    HW113928   4.828   6.873   6.044
 4343SOL    HW213929   4.747   6.794   6.161
 4344SOL     OW13930   1.433   4.157   1.975
 4344SOL    HW113931   1.435   4.245   1.928
 4344SOL    HW213932   1.465   4.168   2.069
 4345SOL     OW13933   4.141   3.519   2.290
 4345SOL    HW113934   4.109   3.461   2.215
 4345SOL    HW213935   4.210   3.583   2.255
 4346SOL     OW13936   0.913   3.306   2.198
 4346SOL    HW113937   1.004   3.271   2.218
 4346SOL    HW213938   0.893   3.385   2.257
 4347SOL     OW13939   5.969   6.284   0.993
 4347SOL    HW113940   5.927   6.212   0.938
 4347SOL    HW213941   5.985   6.365   0.936
 4348SOL     OW13942   6.193   4.159   6.240
 4348SOL    HW113943   6.282   4.117   6.262
 4348SOL    HW213944   6.202   4.258   6.244
 4349SOL     OW13945   0.627   3.861   3.892
 4349SOL    HW113946   0.648   3.770   3.858
 4349SOL    HW213947   0.535   3.887   3.864
 4350SOL     OW13948   5.195   0.090   4.163
 4350SOL    HW113949   5.221   0.163   4.100
 4350SOL    HW213950   5.096   0.094   4.178
 4351SOL     OW13951   0.523   6.330   1.298
 4351SOL    HW113952   0.535   6.396   1.372
 4351SOL    HW213953   0.469   6.370   1.225
 4352SOL     OW13954   3.819   4.398   1.370
 4352SOL    HW113955   3.876   4.464   1.419
 4352SOL    HW213956   3.765   4.345   1.436
 4353SOL     OW13957   2.102   4.039   0.420
 4353SOL    HW113958   2.193   4.042   0.380
 4353SOL    HW213959   2.100   4.094   0.504
 4354SOL     OW13960   5.895   4.841   2.388
 4354SOL    HW113961   5.837   4.840   2.469
 4354SOL    HW213962   5.973   4.901   2.404
 4355SOL     OW13963   2.082   5.036   4.093
 4355SOL    HW113964   2.070   5.057   3.996
 4355SOL    HW213965   2.131   4.949   4.103
 4356SOL     OW13966   6.011   1.847   6.079
 4356SOL    HW113967   6.099   1.799   6.073
 4356SOL    HW213968   5.939   1.788   6.043
 4357SOL     OW13969   4.886   5.826   2.830
 4357SOL    HW113970   4.897   5.874   2.917
 4357SOL    HW213971   4.975   5.817   2.786
 4358SOL     OW13972   3.337   0.392   1.021
 4358SOL    HW113973   3.252   0.423   1.064
 4358SOL    HW213974   3.331   0.294   1.002
 4359SOL     OW13975   3.116   3.208   1.519
 4359SOL    HW113976   3.027   3.196   1.563
 4359SOL    HW213977   3.166   3.121   1.519
 4360SOL     OW13978   2.474   6.355   3.940
 4360SOL    HW113979   2.525   6.410   3.874
 4360SOL    HW213980   2.422   6.284   3.891
 4361SOL     OW13981   1.883   0.977   6.645
 4361SOL    HW113982   1.817   0.948   6.576
 4361SOL    HW213983   1.976   0.964   6.611
 4362SOL     OW13984   6.206   5.484   2.083
 4362SOL    HW113985   6.290   5.533   2.060
 4362SOL    HW213986   6.127   5.538   2.056
 4363SOL     OW13987   4.070   0.116   2.579
 4363SOL    HW113988   4.104   0.208   2.596
 4363SOL    HW213989   4.025   0.113   2.489
 4364SOL     OW13990   3.129   3.994   2.765
 4364SOL    HW113991   3.116   4.038   2.854
 4364SOL    HW213992   3.226   4.001   2.739
 4365SOL     OW13993   2.110   1.478   0.654
 4365SOL    HW113994   2.132   1.551   0.719
 4365SOL    HW213995   2.087   1.394   0.703
 4366SOL     OW13996   4.994   5.492   5.145
 4366SOL    HW113997   5.035   5.461   5.231
 4366SOL    HW213998   4.977   5.590   5.150
 4367SOL     OW13999   1.813   7.013   1.863
 4367SOL    HW114000   1.729   0.038   1.829
 4367SOL    HW214001   1.804   6.995   1.961
 4368SOL     OW14002   5.137   5.376   4.422
 4368SOL    HW114003   5.093   5.464   4.439
 4368SOL    HW214004   5.183   5.377   4.334
 4369SOL     OW14005   0.023   4.141   4.566
 4369SOL    HW114006   0.098   4.187   4.613
 4369SOL    HW214007   6.960   4.137   4.626
 4370SOL     OW14008   5.201   4.157   1.317
 4370SOL    HW114009   5.293   4.196   1.324
 4370SOL    HW214010   5.161   4.151   1.409
 4371SOL     OW14011   3.452   0.489   3.609
 4371SOL    HW114012   3.503   0.402   3.605
 4371SOL    HW214013   3.476   0.538   3.693
 4372SOL     OW14014   1.761   4.293   5.473
 4372SOL    HW114015   1.788   4.215   5.416
 4372SOL    HW214016   1.832   4.311   5.541
 4373SOL     OW14017   4.717   0.547   0.201
 4373SOL    HW114018   4.766   0.483   0.143
 4373SOL    HW214019   4.629   0.508   0.228
 4374SOL     OW14020   2.063   6.312   0.408
 4374SOL    HW114021   2.068   6.316   0.508
 4374SOL    HW214022   2.156   6.304   0.371
 4375SOL     OW14023   4.496   0.594   5.722
 4375SOL    HW114024   4.556   0.514   5.722
 4375SOL    HW214025   4.509   0.644   5.636
 4376SOL     OW14026   3.187   5.012   0.078
 4376SOL    HW114027   3.150   5.011   7.002
 4376SOL    HW214028   3.266   4.951   0.083
 4377SOL     OW14029   5.577   6.398   0.488
 4377SOL    HW114030   5.519   6.318   0.499
 4377SOL    HW214031   5.668   6.370   0.457
 4378SOL     OW14032   3.366   4.871   1.420
 4378SOL    HW114033   3.357   4.829   1.511
 4378SOL    HW214034   3.405   4.962   1.430
 4379SOL     OW14035   6.302   6.244   0.833
 4379SOL    HW114036   6.254   6.175   0.887
 4379SOL    HW214037   6.389   6.267   0.878
 4380SOL     OW14038   1.830   6.071   4.945
 4380SOL    HW114039   1.853   6.024   5.030
 4380SOL    HW214040   1.804   6.165   4.965
 4381SOL     OW14041   3.390   6.359   4.326
 4381SOL    HW114042   3.471   6.343   4.381
 4381SOL    HW214043   3.371   6.457   4.321
 4382SOL     OW14044   5.787   3.513   3.792
 4382SOL    HW114045   5.797   3.545   3.698
 4382SOL    HW214046   5.870   3.464   3.820
 4383SOL     OW14047   1.483   0.357   6.773
 4383SOL    HW114048   1.512   0.306   6.854
 4383SOL    HW214049   1.556   0.357   6.705
 4384SOL     OW14050   3.566   6.529   1.916
 4384SOL    HW114051   3.620   6.477   1.851
 4384SOL    HW214052   3.535   6.615   1.874
 4385SOL     OW14053   5.957   1.974   4.226
 4385SOL    HW114054   5.932   2.053   4.171
 4385SOL    HW214055   5.929   1.890   4.179
 4386SOL     OW14056   1.830   5.573   0.015
 4386SOL    HW114057   1.820   5.665   6.995
 4386SOL    HW214058   1.810   5.506   6.961
 4387SOL     OW14059   6.103   2.185   0.993
 4387SOL    HW114060   6.079   2.089   0.979
 4387SOL    HW214061   6.070   2.216   1.082
 4388SOL     OW14062   4.327   1.127   5.844
 4388SOL    HW114063   4.346   1.030   5.855
 4388SOL    HW214064   4.349   1.175   5.929
 4389SOL     OW14065   1.170   2.857   2.606
 4389SOL    HW114066   1.157   2.874   2.508
 4389SOL    HW214067   1.095   2.799   2.639
 4390SOL     OW14068   4.833   4.218   0.837
 4390SOL    HW114069   4.809   4.128   0.871
 4390SOL    HW214070   4.751   4.273   0.826
 4391SOL     OW14071   0.680   5.701   1.120
 4391SOL    HW114072   0.710   5.629   1.057
 4391SOL    HW214073   0.580   5.703   1.122
 4392SOL     OW14074   5.079   5.058   4.955
 4392SOL    HW114075   5.126   5.144   4.975
 4392SOL    HW214076   5.127   5.009   4.883
 4393SOL     OW14077   4.697   7.009   2.518
 4393SOL    HW114078   4.677   6.918   2.482
 4393SOL    HW214079   4.784   7.008   2.567
 4394SOL     OW14080   4.623   1.217   2.477
 4394SOL    HW114081   4.585   1.299   2.434
 4394SOL    HW214082   4.628   1.143   2.410
 4395SOL     OW14083   4.813   2.706   0.809
 4395SOL    HW114084   4.773   2.628   0.857
 4395SOL    HW214085   4.843   2.676   0.718
 4396SOL     OW14086   1.667   1.037   2.278
 4396SOL    HW114087   1.575   1.050   2.242
 4396SOL    HW214088   1.721   0.981   2.215
 4397SOL     OW14089   3.842   1.890   6.846
 4397SOL    HW114090   3.767   1.825   6.857
 4397SOL    HW214091   3.896   1.865   6.766
 4398SOL     OW14092   0.750   4.737   4.825
 4398SOL    HW114093   0.832   4.740   4.883
 4398SOL    HW214094   0.766   4.674   4.748
 4399SOL     OW14095   3.149   0.461   1.389
 4399SOL    HW114096   3.164   0.363   1.379
 4399SOL    HW214097   3.165   0.487   1.484
 4400SOL     OW14098   3.470   4.926   2.988
 4400SOL    HW114099   3.382   4.882   2.970
 4400SOL    HW214100   3.460   5.025   2.976
 4401SOL     OW14101   4.868   6.632   4.481
 4401SOL    HW114102   4.794   6.680   4.528
 4401SOL    HW214103   4.829   6.557   4.427
 4402SOL     OW14104   6.963   6.431   1.753
 4402SOL    HW114105   6.950   6.497   1.680
 4402SOL    HW214106   0.012   6.466   1.819
 4403SOL     OW14107   6.547   1.609   3.646
 4403SOL    HW114108   6.543   1.512   3.621
 4403SOL    HW214109   6.484   1.661   3.588
 4404SOL     OW14110   1.453   3.888   2.744
 4404SOL    HW114111   1.393   3.858   2.670
 4404SOL    HW214112   1.419   3.852   2.831
 4405SOL     OW14113   2.973   4.199   6.578
 4405SOL    HW114114   2.949   4.103   6.562
 4405SOL    HW214115   3.040   4.228   6.510
 4406SOL     OW14116   5.965   2.602   2.500
 4406SOL    HW114117   5.894   2.571   2.437
 4406SOL    HW214118   6.013   2.680   2.460
 4407SOL     OW14119   0.862   0.479   0.320
 4407SOL    HW114120   0.934   0.411   0.330
 4407SOL    HW214121   0.903   0.566   0.291
 4408SOL     OW14122   4.654   6.084   1.562
 4408SOL    HW114123   4.571   6.098   1.616
 4408SOL    HW214124   4.634   6.100   1.465
 4409SOL     OW14125   3.669   1.911   3.260
 4409SOL    HW114126   3.750   1.969   3.262
 4409SOL    HW214127   3.594   1.961   3.215
 4410SOL     OW14128   2.012   5.944   0.868
 4410SOL    HW114129   2.030   6.036   0.835
 4410SOL    HW214130   1.920   5.939   0.908
 4411SOL     OW14131   3.601   3.182   2.420
 4411SOL    HW114132   3.517   3.193   2.474
 4411SOL    HW214133   3.673   3.144   2.478
 4412SOL     OW14134   3.882   1.288   6.389
 4412SOL    HW114135   3.973   1.330   6.388
 4412SOL    HW214136   3.880   1.213   6.455
 4413SOL     OW14137   3.548   5.621   3.780
 4413SOL    HW114138   3.477   5.551   3.787
 4413SOL    HW214139   3.632   5.580   3.742
 4414SOL     OW14140   3.435   4.887   1.709
 4414SOL    HW114141   3.480   4.808   1.751
 4414SOL    HW214142   3.337   4.884   1.729
 4415SOL     OW14143   4.529   1.144   1.433
 4415SOL    HW114144   4.601   1.172   1.497
 4415SOL    HW214145   4.440   1.152   1.478
 4416SOL     OW14146   3.016   2.181   4.737
 4416SOL    HW114147   3.061   2.224   4.814
 4416SOL    HW214148   2.947   2.242   4.699
 4417SOL     OW14149   5.634   0.048   1.384
 4417SOL    HW114150   5.648   0.102   1.300
 4417SOL    HW214151   5.554   0.083   1.432
 4418SOL     OW14152   4.523   0.014   3.274
 4418SOL    HW114153   4.548   0.038   3.181
 4418SOL    HW214154   4.425   7.015   3.279
 4419SOL     OW14155   6.380   5.550   6.190
 4419SOL    HW114156   6.317   5.475   6.213
 4419SOL    HW214157   6.468   5.534   6.234
 4420SOL     OW14158   5.344   1.042   0.756
 4420SOL    HW114159   5.370   1.032   0.660
 4420SOL    HW214160   5.418   1.085   0.807
 4421SOL     OW14161   0.585   2.104   3.070
 4421SOL    HW114162   0.606   2.090   3.167
 4421SOL    HW214163   0.541   2.023   3.032
 4422SOL     OW14164   1.523   3.888   5.684
 4422SOL    HW114165   1.462   3.833   5.741
 4422SOL    HW214166   1.472   3.920   5.603
 4423SOL     OW14167   6.721   1.926   5.708
 4423SOL    HW114168   6.679   2.017   5.711
 4423SOL    HW214169   6.670   1.863   5.766
 4424SOL     OW14170   1.575   5.456   3.675
 4424SOL    HW114171   1.580   5.359   3.653
 4424SOL    HW214172   1.661   5.500   3.649
 4425SOL     OW14173   5.157   3.955   2.188
 4425SOL    HW114174   5.110   4.030   2.235
 4425SOL    HW214175   5.124   3.868   2.224
 4426SOL     OW14176   0.733   6.517   6.558
 4426SOL    HW114177   0.823   6.507   6.602
 4426SOL    HW214178   0.676   6.439   6.581
 4427SOL     OW14179   0.491   5.160   3.751
 4427SOL    HW114180   0.411   5.128   3.699
 4427SOL    HW214181   0.465   5.237   3.808
 4428SOL     OW14182   1.572   0.332   2.552
 4428SOL    HW114183   1.501   0.334   2.622
 4428SOL    HW214184   1.598   0.238   2.533
 4429SOL     OW14185   2.845   0.212   1.910
 4429SOL    HW114186   2.826   0.260   1.824
 4429SOL    HW214187   2.785   0.133   1.919
 4430SOL     OW14188   1.954   0.105   2.200
 4430SOL    HW114189   1.886   0.037   2.172
 4430SOL    HW214190   1.923   0.151   2.284
 4431SOL     OW14191   2.007   1.886   2.376
 4431SOL    HW114192   1.999   1.788   2.390
 4431SOL    HW214193   1.916   1.925   2.359
 4432SOL     OW14194   3.483   4.014   4.545
 4432SOL    HW114195   3.576   4.050   4.545
 4432SOL    HW214196   3.439   4.035   4.458
 4433SOL     OW14197   6.560   0.135   1.776
 4433SOL    HW114198   6.579   0.055   1.832
 4433SOL    HW214199   6.601   0.216   1.818
 4434SOL     OW14200   5.593   1.893   5.819
 4434SOL    HW114201   5.512   1.941   5.786
 4434SOL    HW214202   5.595   1.800   5.783
 4435SOL     OW14203   3.706   2.988   2.023
 4435SOL    HW114204   3.623   3.038   1.999
 4435SOL    HW214205   3.702   2.896   1.985
 4436SOL     OW14206   5.931   6.882   0.218
 4436SOL    HW114207   5.837   6.876   0.185
 4436SOL    HW214208   5.932   6.926   0.307
 4437SOL     OW14209   2.984   6.706   5.464
 4437SOL    HW114210   3.069   6.710   5.517
 4437SOL    HW214211   2.982   6.782   5.399
 4438SOL     OW14212   3.542   2.684   6.821
 4438SOL    HW114213   3.464   2.621   6.823
 4438SOL    HW214214   3.600   2.663   6.743
 4439SOL     OW14215   1.237   4.765   3.477
 4439SOL    HW114216   1.223   4.820   3.560
 4439SOL    HW214217   1.308   4.697   3.495
 4440SOL     OW14218   6.360   1.266   0.140
 4440SOL    HW114219   6.384   1.175   0.175
 4440SOL    HW214220   6.266   1.288   0.168
 4441SOL     OW14221   6.538   0.825   4.300
 4441SOL    HW114222   6.508   0.904   4.247
 4441SOL    HW214223   6.460   0.784   4.347
 4442SOL     OW14224   2.174   5.760   2.443
 4442SOL    HW114225   2.172   5.697   2.366
 4442SOL    HW214226   2.081   5.784   2.470
 4443SOL     OW14227   1.681   1.135   1.345
 4443SOL    HW114228   1.629   1.057   1.311
 4443SOL    HW214229   1.688   1.130   1.444
 4444SOL     OW14230   4.734   1.826   3.070
 4444SOL    HW114231   4.737   1.751   3.136
 4444SOL    HW214232   4.745   1.790   2.978
 4445SOL     OW14233   0.924   2.256   6.020
 4445SOL    HW114234   0.930   2.300   5.930
 4445SOL    HW214235   1.001   2.194   6.032
 4446SOL     OW14236   6.915   4.913   4.488
 4446SOL    HW114237   6.842   4.950   4.431
 4446SOL    HW214238   6.880   4.894   4.580
 4447SOL     OW14239   4.914   3.571   4.704
 4447SOL    HW114240   4.888   3.482   4.665
 4447SOL    HW214241   4.848   3.598   4.773
 4448SOL     OW14242   2.469   3.367   6.522
 4448SOL    HW114243   2.519   3.298   6.469
 4448SOL    HW214244   2.397   3.407   6.465
 4449SOL     OW14245   6.806   1.593   5.601
 4449SOL    HW114246   6.807   1.592   5.701
 4449SOL    HW214247   6.750   1.517   5.568
 4450SOL     OW14248   3.605   3.218   3.139
 4450SOL    HW114249   3.609   3.213   3.040
 4450SOL    HW214250   3.612   3.314   3.168
 4451SOL     OW14251   0.841   5.245   1.444
 4451SOL    HW114252   0.864   5.247   1.347
 4451SOL    HW214253   0.813   5.152   1.470
 4452SOL     OW14254   0.936   3.813   6.983
 4452SOL    HW114255   0.979   3.724   6.971
 4452SOL    HW214256   0.841   3.808   6.952
 4453SOL     OW14257   5.938   0.532   1.195
 4453SOL    HW114258   5.933   0.568   1.101
 4453SOL    HW214259   5.955   0.434   1.191
 4454SOL     OW14260   6.106   3.349   1.876
 4454SOL    HW114261   6.107   3.328   1.974
 4454SOL    HW214262   6.069   3.441   1.862
 4455SOL     OW14263   4.601   2.619   2.563
 4455SOL    HW114264   4.561   2.612   2.472
 4455SOL    HW214265   4.591   2.713   2.596
 4456SOL     OW14266   0.035   5.613   2.684
 4456SOL    HW114267   0.080   5.532   2.721
 4456SOL    HW214268   0.059   5.622   2.587
 4457SOL     OW14269   4.714   2.468   6.097
 4457SOL    HW114270   4.671   2.386   6.133
 4457SOL    HW214271   4.711   2.541   6.166
 4458SOL     OW14272   4.803   1.756   1.163
 4458SOL    HW114273   4.780   1.729   1.069
 4458SOL    HW214274   4.720   1.778   1.213
 4459SOL     OW14275   5.874   5.441   5.994
 4459SOL    HW114276   5.841   5.532   5.969
 4459SOL    HW214277   5.922   5.401   5.916
 4460SOL     OW14278   1.635   0.655   0.642
 4460SOL    HW114279   1.670   0.674   0.734
 4460SOL    HW214280   1.542   0.691   0.633
 4461SOL     OW14281   1.830   0.675   3.089
 4461SOL    HW114282   1.790   0.605   3.148
 4461SOL    HW214283   1.915   0.641   3.049
 4462SOL     OW14284   0.095   3.393   0.864
 4462SOL    HW114285   0.082   3.307   0.815
 4462SOL    HW214286   0.071   3.381   0.960
 4463SOL     OW14287   0.501   3.988   6.827
 4463SOL    HW114288   0.553   3.972   6.743
 4463SOL    HW214289   0.412   4.027   6.804
 4464SOL     OW14290   6.916   2.625   0.117
 4464SOL    HW114291   6.837   2.604   0.059
 4464SOL    HW214292   7.000   2.611   0.066
 4465SOL     OW14293   5.926   5.383   1.127
 4465SOL    HW114294   5.959   5.315   1.192
 4465SOL    HW214295   5.860   5.341   1.065
 4466SOL     OW14296   6.496   3.355   4.028
 4466SOL    HW114297   6.491   3.310   3.939
 4466SOL    HW214298   6.456   3.296   4.097
 4467SOL     OW14299   1.255   0.469   4.342
 4467SOL    HW114300   1.201   0.492   4.261
 4467SOL    HW214301   1.193   0.437   4.415
 4468SOL     OW14302   1.072   0.985   0.566
 4468SOL    HW114303   1.033   0.990   0.474
 4468SOL    HW214304   1.153   0.927   0.565
 4469SOL     OW14305   4.656   6.765   0.339
 4469SOL    HW114306   4.612   6.781   0.251
 4469SOL    HW214307   4.755   6.773   0.329
 4470SOL     OW14308   5.032   4.624   1.410
 4470SOL    HW114309   5.080   4.691   1.467
 4470SOL    HW214310   4.944   4.602   1.452
 4471SOL     OW14311   5.728   2.452   1.611
 4471SOL    HW114312   5.693   2.454   1.705
 4471SOL    HW214313   5.758   2.359   1.589
 4472SOL     OW14314   2.376   5.299   1.457
 4472SOL    HW114315   2.283   5.307   1.420
 4472SOL    HW214316   2.381   5.217   1.515
 4473SOL     OW14317   5.862   0.474   0.601
 4473SOL    HW114318   5.799   0.420   0.657
 4473SOL    HW214319   5.861   0.569   0.631
 4474SOL     OW14320   6.285   1.235   5.135
 4474SOL    HW114321   6.339   1.281   5.065
 4474SOL    HW214322   6.343   1.169   5.184
 4475SOL     OW14323   1.672   3.309   0.231
 4475SOL    HW114324   1.622   3.302   0.145
 4475SOL    HW214325   1.622   3.366   0.295
 4476SOL     OW14326   4.087   6.668   2.664
 4476SOL    HW114327   4.129   6.677   2.574
 4476SOL    HW214328   4.093   6.573   2.695
 4477SOL     OW14329   2.013   2.202   0.812
 4477SOL    HW114330   1.961   2.198   0.897
 4477SOL    HW214331   1.953   2.232   0.738
 4478SOL     OW14332   1.012   4.823   1.004
 4478SOL    HW114333   0.962   4.763   1.066
 4478SOL    HW214334   1.095   4.777   0.973
 4479SOL     OW14335   1.561   6.027   5.874
 4479SOL    HW114336   1.588   5.961   5.804
 4479SOL    HW214337   1.465   6.051   5.863
 4480SOL     OW14338   6.637   3.614   2.994
 4480SOL    HW114339   6.667   3.537   3.050
 4480SOL    HW214340   6.656   3.700   3.041
 4481SOL     OW14341   0.916   0.810   4.354
 4481SOL    HW114342   0.909   0.761   4.441
 4481SOL    HW214343   0.848   0.775   4.290
 4482SOL     OW14344   0.270   4.236   3.039
 4482SOL    HW114345   0.173   4.246   3.014
 4482SOL    HW214346   0.320   4.198   2.962
 4483SOL     OW14347   5.778   4.048   1.210
 4483SOL    HW114348   5.784   4.108   1.130
 4483SOL    HW214349   5.727   4.095   1.282
 4484SOL     OW14350   3.042   3.890   6.600
 4484SOL    HW114351   3.057   3.935   6.689
 4484SOL    HW214352   2.973   3.819   6.611
 4485SOL     OW14353   4.473   0.216   5.879
 4485SOL    HW114354   4.546   0.283   5.868
 4485SOL    HW214355   4.384   0.261   5.869
 4486SOL     OW14356   6.227   3.325   4.215
 4486SOL    HW114357   6.184   3.283   4.295
 4486SOL    HW214358   6.218   3.424   4.219
 4487SOL     OW14359   3.317   2.674   5.962
 4487SOL    HW114360   3.355   2.705   5.875
 4487SOL    HW214361   3.217   2.676   5.958
 4488SOL     OW14362   0.101   2.170   6.445
 4488SOL    HW114363   0.050   2.238   6.498
 4488SOL    HW214364   0.044   2.089   6.430
 4489SOL     OW14365   0.341   1.328   3.282
 4489SOL    HW114366   0.331   1.250   3.220
 4489SOL    HW214367   0.280   1.401   3.253
 4490SOL     OW14368   0.159   2.481   3.870
 4490SOL    HW114369   0.223   2.464   3.944
 4490SOL    HW214370   0.177   2.572   3.831
 4491SOL     OW14371   1.994   4.647   2.254
 4491SOL    HW114372   2.021   4.607   2.166
 4491SOL    HW214373   2.035   4.595   2.329
 4492SOL     OW14374   5.503   3.854   5.672
 4492SOL    HW114375   5.435   3.797   5.625
 4492SOL    HW214376   5.572   3.795   5.715
 4493SOL     OW14377   5.952   4.700   3.459
 4493SOL    HW114378   5.962   4.650   3.545
 4493SOL    HW214379   5.973   4.640   3.383
 4494SOL     OW14380   5.043   2.773   1.673
 4494SOL    HW114381   4.995   2.817   1.749
 4494SOL    HW214382   4.999   2.685   1.652
 4495SOL     OW14383   5.675   5.146   2.399
 4495SOL    HW114384   5.775   5.150   2.409
 4495SOL    HW214385   5.645   5.219   2.337
 4496SOL     OW14386   5.813   3.215   6.178
 4496SOL    HW114387   5.902   3.260   6.191
 4496SOL    HW214388   5.776   3.189   6.268
 4497SOL     OW14389   6.800   6.628   0.943
 4497SOL    HW114390   6.798   6.531   0.919
 4497SOL    HW214391   6.771   6.639   1.039
 4498SOL     OW14392   1.203   4.378   6.041
 4498SOL    HW114393   1.220   4.291   5.995
 4498SOL    HW214394   1.244   4.452   5.989
 4499SOL     OW14395   5.896   3.922   0.456
 4499SOL    HW114396   5.827   3.966   0.398
 4499SOL    HW214397   5.853   3.853   0.513
 4500SOL     OW14398   3.402   4.106   1.933
 4500SOL    HW114399   3.409   4.174   2.006
 4500SOL    HW214400   3.314   4.114   1.887
 4501SOL     OW14401   1.678   5.529   5.028
 4501SOL    HW114402   1.714   5.599   5.089
 4501SOL    HW214403   1.685   5.440   5.072
 4502SOL     OW14404   5.707   2.697   0.428
 4502SOL    HW114405   5.641   2.628   0.455
 4502SOL    HW214406   5.676   2.744   0.345
 4503SOL     OW14407   1.020   3.615   3.060
 4503SOL    HW114408   1.080   3.613   2.980
 4503SOL    HW214409   0.926   3.626   3.031
 4504SOL     OW14410   4.260   2.105   4.204
 4504SOL    HW114411   4.212   2.140   4.123
 4504SOL    HW214412   4.206   2.125   4.286
 4505SOL     OW14413   2.339   5.723   0.214
 4505SOL    HW114414   2.438   5.738   0.220
 4505SOL    HW214415   2.312   5.652   0.279
 4506SOL     OW14416   3.546   6.627   5.654
 4506SOL    HW114417   3.646   6.622   5.651
 4506SOL    HW214418   3.510   6.555   5.712
 4507SOL     OW14419   6.062   3.948   2.515
 4507SOL    HW114420   6.143   3.893   2.496
 4507SOL    HW214421   5.982   3.908   2.470
 4508SOL     OW14422   1.771   4.038   1.134
 4508SOL    HW114423   1.811   3.963   1.081
 4508SOL    HW214424   1.843   4.091   1.178
 4509SOL     OW14425   0.910   2.724   3.696
 4509SOL    HW114426   0.882   2.806   3.747
 4509SOL    HW214427   0.829   2.675   3.664
 4510SOL     OW14428   2.553   7.007   6.434
 4510SOL    HW114429   2.460   7.008   6.398
 4510SOL    HW214430   2.617   0.022   6.364
 4511SOL     OW14431   0.558   2.589   0.060
 4511SOL    HW114432   0.491   2.611   0.131
 4511SOL    HW214433   0.649   2.586   0.100
 4512SOL     OW14434   2.358   3.982   0.312
 4512SOL    HW114435   2.332   4.066   0.265
 4512SOL    HW214436   2.409   3.923   0.250
 4513SOL     OW14437   6.222   1.375   2.760
 4513SOL    HW114438   6.274   1.341   2.839
 4513SOL    HW214439   6.283   1.384   2.681
 4514SOL     OW14440   1.937   0.600   4.694
 4514SOL    HW114441   1.943   0.518   4.636
 4514SOL    HW214442   1.982   0.677   4.649
 4515SOL     OW14443   0.030   4.916   0.430
 4515SOL    HW114444   7.017   4.838   0.485
 4515SOL    HW214445   0.115   4.952   0.467
 4516SOL     OW14446   0.595   6.935   3.733
 4516SOL    HW114447   0.655   6.937   3.653
 4516SOL    HW214448   0.599   6.845   3.775
 4517SOL     OW14449   2.665   0.826   0.228
 4517SOL    HW114450   2.619   0.745   0.192
 4517SOL    HW214451   2.756   0.801   0.260
 4518SOL     OW14452   1.356   0.798   3.531
 4518SOL    HW114453   1.399   0.831   3.447
 4518SOL    HW214454   1.305   0.714   3.511
 4519SOL     OW14455   6.606   2.301   4.460
 4519SOL    HW114456   6.640   2.246   4.536
 4519SOL    HW214457   6.553   2.243   4.398
 4520SOL     OW14458   6.995   3.648   2.681
 4520SOL    HW114459   7.013   3.691   2.770
 4520SOL    HW214460   6.919   3.584   2.689
 4521SOL     OW14461   5.328   1.619   6.318
 4521SOL    HW114462   5.270   1.686   6.364
 4521SOL    HW214463   5.371   1.560   6.386
 4522SOL     OW14464   5.384   6.824   3.298
 4522SOL    HW114465   5.474   6.853   3.329
 4522SOL    HW214466   5.315   6.853   3.364
 4523SOL     OW14467   4.660   2.042   5.600
 4523SOL    HW114468   4.569   2.050   5.640
 4523SOL    HW214469   4.729   2.066   5.669
 4524SOL     OW14470   5.546   1.571   5.414
 4524SOL    HW114471   5.592   1.549   5.328
 4524SOL    HW214472   5.466   1.513   5.426
 4525SOL     OW14473   6.895   1.335   3.825
 4525SOL    HW114474   6.955   1.325   3.904
 4525SOL    HW214475   6.801   1.352   3.856
 4526SOL     OW14476   2.565   1.563   1.320
 4526SOL    HW114477   2.558   1.468   1.292
 4526SOL    HW214478   2.631   1.611   1.263
 4527SOL     OW14479   4.600   6.739   3.441
 4527SOL    HW114480   4.678   6.700   3.391
 4527SOL    HW214481   4.585   6.686   3.525
 4528SOL     OW14482   4.719   0.357   6.545
 4528SOL    HW114483   4.725   0.393   6.452
 4528SOL    HW214484   4.655   0.412   6.598
 4529SOL     OW14485   3.108   0.130   4.298
 4529SOL    HW114486   3.085   0.104   4.392
 4529SOL    HW214487   3.030   0.178   4.257
 4530SOL     OW14488   6.543   2.400   4.210
 4530SOL    HW114489   6.638   2.421   4.231
 4530SOL    HW214490   6.531   2.300   4.210
 4531SOL     OW14491   0.011   4.147   3.765
 4531SOL    HW114492   0.087   4.174   3.824
 4531SOL    HW214493   0.041   4.076   3.702
 4532SOL     OW14494   0.449   2.498   0.632
 4532SOL    HW114495   0.358   2.494   0.674
 4532SOL    HW214496   0.446   2.454   0.543
 4533SOL     OW14497   3.638   6.387   2.159
 4533SOL    HW114498   3.688   6.472   2.143
 4533SOL    HW214499   3.565   6.377   2.091
 4534SOL     OW14500   6.750   4.203   6.213
 4534SOL    HW114501   6.724   4.276   6.275
 4534SOL    HW214502   6.716   4.223   6.121
 4535SOL     OW14503   4.832   1.945   2.613
 4535SOL    HW114504   4.814   1.976   2.520
 4535SOL    HW214505   4.752   1.961   2.671
 4536SOL     OW14506   6.879   0.216   3.664
 4536SOL    HW114507   6.966   0.169   3.671
 4536SOL    HW214508   6.827   0.204   3.749
 4537SOL     OW14509   5.138   3.142   5.414
 4537SOL    HW114510   5.057   3.098   5.451
 4537SOL    HW214511   5.150   3.232   5.456
 4538SOL     OW14512   3.763   2.095   1.690
 4538SOL    HW114513   3.696   2.107   1.763
 4538SOL    HW214514   3.760   2.174   1.629
 4539SOL     OW14515   2.593   3.552   1.224
 4539SOL    HW114516   2.673   3.607   1.249
 4539SOL    HW214517   2.510   3.604   1.243
 4540SOL     OW14518   3.732   3.018   4.526
 4540SOL    HW114519   3.700   3.103   4.567
 4540SOL    HW214520   3.720   2.943   4.591
 4541SOL     OW14521   6.215   1.066   1.571
 4541SOL    HW114522   6.258   1.033   1.655
 4541SOL    HW214523   6.144   1.002   1.541
 4542SOL     OW14524   5.326   6.505   3.461
 4542SOL    HW114525   5.273   6.530   3.542
 4542SOL    HW214526   5.346   6.587   3.407
 4543SOL     OW14527   5.243   2.441   2.668
 4543SOL    HW114528   5.303   2.379   2.718
 4543SOL    HW214529   5.151   2.438   2.707
 4544SOL     OW14530   5.804   4.974   6.644
 4544SOL    HW114531   5.816   5.007   6.738
 4544SOL    HW214532   5.892   4.945   6.607
 4545SOL     OW14533   4.475   3.456   0.168
 4545SOL    HW114534   4.451   3.507   0.085
 4545SOL    HW214535   4.436   3.503   0.248
 4546SOL     OW14536   0.764   5.835   0.510
 4546SOL    HW114537   0.698   5.864   0.580
 4546SOL    HW214538   0.836   5.903   0.502
 4547SOL     OW14539   4.545   1.404   2.304
 4547SOL    HW114540   4.483   1.482   2.302
 4547SOL    HW214541   4.517   1.338   2.234
 4548SOL     OW14542   0.712   3.153   4.609
 4548SOL    HW114543   0.716   3.162   4.510
 4548SOL    HW214544   0.616   3.152   4.639
 4549SOL     OW14545   5.801   1.169   2.277
 4549SOL    HW114546   5.833   1.226   2.352
 4549SOL    HW214547   5.794   1.224   2.194
 4550SOL     OW14548   2.086   5.323   5.127
 4550SOL    HW114549   2.181   5.327   5.097
 4550SOL    HW214550   2.072   5.242   5.184
 4551SOL     OW14551   6.503   3.612   0.736
 4551SOL    HW114552   6.462   3.526   0.708
 4551SOL    HW214553   6.602   3.609   0.720
 4552SOL     OW14554   0.214   3.421   5.034
 4552SOL    HW114555   0.152   3.496   5.056
 4552SOL    HW214556   0.175   3.365   4.961
 4553SOL     OW14557   5.485   4.995   6.874
 4553SOL    HW114558   5.562   5.056   6.852
 4553SOL    HW214559   5.461   4.941   6.793
 4554SOL     OW14560   6.663   6.542   4.246
 4554SOL    HW114561   6.692   6.569   4.154
 4554SOL    HW214562   6.696   6.610   4.312
 4555SOL     OW14563   3.884   2.837   0.316
 4555SOL    HW114564   3.980   2.837   0.346
 4555SOL    HW214565   3.874   2.897   0.237
 4556SOL     OW14566   4.251   0.289   5.279
 4556SOL    HW114567   4.171   0.337   5.243
 4556SOL    HW214568   4.330   0.308   5.221
 4557SOL     OW14569   5.173   0.873   3.915
 4557SOL    HW114570   5.162   0.967   3.948
 4557SOL    HW214571   5.197   0.875   3.818
 4558SOL     OW14572   0.383   3.229   6.648
 4558SOL    HW114573   0.304   3.172   6.624
 4558SOL    HW214574   0.357   3.294   6.719
 4559SOL     OW14575   1.616   6.690   1.536
 4559SOL    HW114576   1.587   6.697   1.441
 4559SOL    HW214577   1.577   6.608   1.577
 4560SOL     OW14578   6.070   2.525   3.401
 4560SOL    HW114579   5.992   2.519   3.339
 4560SOL    HW214580   6.044   2.578   3.481
 4561SOL     OW14581   2.984   6.021   6.310
 4561SOL    HW114582   2.935   6.103   6.341
 4561SOL    HW214583   2.980   5.951   6.381
 4562SOL     OW14584   3.112   4.001   5.727
 4562SOL    HW114585   3.101   3.987   5.628
 4562SOL    HW214586   3.135   4.097   5.744
 4563SOL     OW14587   5.721   3.003   6.805
 4563SOL    HW114588   5.633   3.049   6.819
 4563SOL    HW214589   5.795   3.068   6.821
 4564SOL     OW14590   0.055   5.150   0.069
 4564SOL    HW114591   6.982   5.137   0.110
 4564SOL    HW214592   0.093   5.062   0.042
 4565SOL     OW14593   3.565   0.814   4.251
 4565SOL    HW114594   3.493   0.782   4.313
 4565SOL    HW214595   3.613   0.736   4.212
 4566SOL     OW14596   2.026   0.517   1.099
 4566SOL    HW114597   2.004   0.491   1.005
 4566SOL    HW214598   1.941   0.523   1.153
 4567SOL     OW14599   5.567   2.390   0.770
 4567SOL    HW114600   5.595   2.435   0.685
 4567SOL    HW214601   5.473   2.416   0.792
 4568SOL     OW14602   4.563   4.465   4.011
 4568SOL    HW114603   4.532   4.447   4.105
 4568SOL    HW214604   4.495   4.522   3.965
 4569SOL     OW14605   1.752   1.621   3.928
 4569SOL    HW114606   1.689   1.583   3.860
 4569SOL    HW214607   1.712   1.611   4.019
 4570SOL     OW14608   5.361   5.734   4.948
 4570SOL    HW114609   5.318   5.734   5.038
 4570SOL    HW214610   5.297   5.696   4.881
 4571SOL     OW14611   3.641   2.955   3.866
 4571SOL    HW114612   3.628   3.048   3.832
 4571SOL    HW214613   3.739   2.932   3.863
 4572SOL     OW14614   2.592   5.559   1.165
 4572SOL    HW114615   2.556   5.551   1.072
 4572SOL    HW214616   2.572   5.650   1.201
 4573SOL     OW14617   4.850   0.178   1.340
 4573SOL    HW114618   4.777   0.203   1.277
 4573SOL    HW214619   4.926   0.242   1.331
 4574SOL     OW14620   0.125   4.839   1.949
 4574SOL    HW114621   0.171   4.918   1.910
 4574SOL    HW214622   0.087   4.863   2.039
 4575SOL     OW14623   6.772   5.915   1.881
 4575SOL    HW114624   6.678   5.885   1.869
 4575SOL    HW214625   6.825   5.842   1.924
 4576SOL     OW14626   3.307   6.609   4.270
 4576SOL    HW114627   3.257   6.625   4.185
 4576SOL    HW214628   3.368   6.686   4.289
 4577SOL     OW14629   2.252   4.216   3.839
 4577SOL    HW114630   2.153   4.230   3.830
 4577SOL    HW214631   2.287   4.273   3.913
 4578SOL     OW14632   5.983   5.958   3.486
 4578SOL    HW114633   6.029   5.974   3.398
 4578SOL    HW214634   5.979   5.860   3.504
 4579SOL     OW14635   4.538   1.883   3.351
 4579SOL    HW114636   4.534   1.949   3.426
 4579SOL    HW214637   4.497   1.922   3.269
 4580SOL     OW14638   0.480   5.308   0.164
 4580SOL    HW114639   0.563   5.267   0.202
 4580SOL    HW214640   0.467   5.276   0.070
 4581SOL     OW14641   3.606   5.503   4.956
 4581SOL    HW114642   3.663   5.526   4.877
 4581SOL    HW214643   3.510   5.504   4.929
 4582SOL     OW14644   4.822   6.590   3.303
 4582SOL    HW114645   4.779   6.590   3.213
 4582SOL    HW214646   4.912   6.547   3.298
 4583SOL     OW14647   3.500   6.849   5.490
 4583SOL    HW114648   3.505   6.767   5.546
 4583SOL    HW214649   3.418   6.847   5.434
 4584SOL     OW14650   6.739   5.109   5.650
 4584SOL    HW114651   6.794   5.107   5.733
 4584SOL    HW214652   6.714   5.015   5.625
 4585SOL     OW14653   2.851   6.621   2.209
 4585SOL    HW114654   2.762   6.606   2.253
 4585SOL    HW214655   2.837   6.638   2.111
 4586SOL     OW14656   2.293   6.133   1.534
 4586SOL    HW114657   2.213   6.184   1.504
 4586SOL    HW214658   2.279   6.035   1.516
 4587SOL     OW14659   2.923   4.906   0.939
 4587SOL    HW114660   2.843   4.923   0.996
 4587SOL    HW214661   2.985   4.843   0.987
 4588SOL     OW14662   3.545   4.099   4.885
 4588SOL    HW114663   3.548   3.999   4.877
 4588SOL    HW214664   3.452   4.131   4.867
 4589SOL     OW14665   2.396   2.134   3.315
 4589SOL    HW114666   2.345   2.170   3.393
 4589SOL    HW214667   2.471   2.077   3.349
 4590SOL     OW14668   4.334   6.337   2.835
 4590SOL    HW114669   4.425   6.301   2.854
 4590SOL    HW214670   4.301   6.388   2.915
 4591SOL     OW14671   4.754   5.995   4.957
 4591SOL    HW114672   4.725   6.011   5.051
 4591SOL    HW214673   4.734   6.077   4.902
 4592SOL     OW14674   3.322   1.960   5.737
 4592SOL    HW114675   3.406   2.014   5.725
 4592SOL    HW214676   3.242   2.018   5.719
 4593SOL     OW14677   4.250   5.778   1.708
 4593SOL    HW114678   4.167   5.809   1.662
 4593SOL    HW214679   4.269   5.839   1.786
 4594SOL     OW14680   3.797   2.119   2.314
 4594SOL    HW114681   3.816   2.201   2.369
 4594SOL    HW214682   3.765   2.147   2.224
 4595SOL     OW14683   4.184   3.111   5.580
 4595SOL    HW114684   4.188   3.187   5.514
 4595SOL    HW214685   4.164   3.026   5.531
 4596SOL     OW14686   4.776   0.732   2.563
 4596SOL    HW114687   4.772   0.824   2.602
 4596SOL    HW214688   4.790   0.739   2.464
 4597SOL     OW14689   6.636   3.733   6.588
 4597SOL    HW114690   6.703   3.685   6.531
 4597SOL    HW214691   6.680   3.809   6.634
 4598SOL     OW14692   2.691   4.055   6.593
 4598SOL    HW114693   2.693   3.967   6.546
 4598SOL    HW214694   2.725   4.126   6.532
 4599SOL     OW14695   3.566   5.001   0.369
 4599SOL    HW114696   3.583   4.921   0.311
 4599SOL    HW214697   3.629   5.074   0.345
 4600SOL     OW14698   2.438   3.720   0.785
 4600SOL    HW114699   2.393   3.664   0.855
 4600SOL    HW214700   2.369   3.774   0.737
 4601SOL     OW14701   2.111   5.210   3.217
 4601SOL    HW114702   2.059   5.140   3.266
 4601SOL    HW214703   2.068   5.300   3.231
 4602SOL     OW14704   1.580   0.095   1.763
 4602SOL    HW114705   1.537   0.011   1.729
 4602SOL    HW214706   1.526   0.174   1.733
 4603SOL     OW14707   3.012   1.713   1.589
 4603SOL    HW114708   3.005   1.613   1.587
 4603SOL    HW214709   3.038   1.743   1.681
 4604SOL     OW14710   1.304   0.010   3.147
 4604SOL    HW114711   1.294   0.036   3.243
 4604SOL    HW214712   1.333   0.089   3.094
 4605SOL     OW14713   5.407   6.695   5.358
 4605SOL    HW114714   5.355   6.611   5.375
 4605SOL    HW214715   5.379   6.733   5.270
 4606SOL     OW14716   5.993   6.342   4.421
 4606SOL    HW114717   6.050   6.383   4.349
 4606SOL    HW214718   5.999   6.242   4.414
 4607SOL     OW14719   3.025   3.275   0.727
 4607SOL    HW114720   2.933   3.308   0.751
 4607SOL    HW214721   3.045   3.193   0.780
 4608SOL     OW14722   1.596   3.078   5.899
 4608SOL    HW114723   1.616   3.074   5.997
 4608SOL    HW214724   1.642   3.003   5.852
 4609SOL     OW14725   3.252   0.198   0.575
 4609SOL    HW114726   3.307   0.178   0.494
 4609SOL    HW214727   3.279   0.286   0.613
 4610SOL     OW14728   6.789   3.683   0.563
 4610SOL    HW114729   6.814   3.618   0.635
 4610SOL    HW214730   6.823   3.649   0.475
 4611SOL     OW14731   1.707   5.119   6.406
 4611SOL    HW114732   1.750   5.052   6.345
 4611SOL    HW214733   1.707   5.083   6.499
 4612SOL     OW14734   1.624   0.811   6.736
 4612SOL    HW114735   1.658   0.853   6.652
 4612SOL    HW214736   1.667   0.722   6.749
 4613SOL     OW14737   3.806   4.942   1.471
 4613SOL    HW114738   3.783   4.996   1.390
 4613SOL    HW214739   3.760   4.853   1.467
 4614SOL     OW14740   1.925   4.246   0.347
 4614SOL    HW114741   1.956   4.315   0.413
 4614SOL    HW214742   1.995   4.175   0.338
 4615SOL     OW14743   5.718   3.179   6.419
 4615SOL    HW114744   5.742   3.263   6.468
 4615SOL    HW214745   5.721   3.101   6.481
 4616SOL     OW14746   5.375   0.537   6.780
 4616SOL    HW114747   5.285   0.524   6.822
 4616SOL    HW214748   5.365   0.581   6.691
 4617SOL     OW14749   0.358   4.189   1.427
 4617SOL    HW114750   0.362   4.183   1.527
 4617SOL    HW214751   0.323   4.103   1.390
 4618SOL     OW14752   1.298   3.160   6.231
 4618SOL    HW114753   1.364   3.094   6.267
 4618SOL    HW214754   1.328   3.190   6.140
 4619SOL     OW14755   4.081   1.201   3.954
 4619SOL    HW114756   4.152   1.130   3.961
 4619SOL    HW214757   4.007   1.168   3.895
 4620SOL     OW14758   1.841   5.806   0.453
 4620SOL    HW114759   1.899   5.887   0.447
 4620SOL    HW214760   1.806   5.797   0.546
 4621SOL     OW14761   6.757   0.647   6.821
 4621SOL    HW114762   6.733   0.588   6.898
 4621SOL    HW214763   6.674   0.688   6.783
 4622SOL     OW14764   1.767   4.606   0.370
 4622SOL    HW114765   1.730   4.519   0.404
 4622SOL    HW214766   1.848   4.630   0.423
 4623SOL     OW14767   5.606   3.166   3.826
 4623SOL    HW114768   5.507   3.181   3.825
 4623SOL    HW214769   5.650   3.239   3.879
 4624SOL     OW14770   4.417   6.443   5.954
 4624SOL    HW114771   4.362   6.495   5.888
 4624SOL    HW214772   4.358   6.382   6.006
 4625SOL     OW14773   1.283   4.365   6.321
 4625SOL    HW114774   1.250   4.373   6.226
 4625SOL    HW214775   1.227   4.297   6.369
 4626SOL     OW14776   6.493   4.340   2.010
 4626SOL    HW114777   6.406   4.302   1.978
 4626SOL    HW214778   6.527   4.406   1.943
 4627SOL     OW14779   1.910   0.109   4.550
 4627SOL    HW114780   1.939   0.013   4.548
 4627SOL    HW214781   1.817   0.115   4.587
 4628SOL     OW14782   6.503   2.710   2.075
 4628SOL    HW114783   6.478   2.657   1.994
 4628SOL    HW214784   6.600   2.736   2.069
 4629SOL     OW14785   4.523   5.020   3.888
 4629SOL    HW114786   4.543   5.005   3.985
 4629SOL    HW214787   4.425   5.009   3.873
 4630SOL     OW14788   2.740   6.307   2.539
 4630SOL    HW114789   2.694   6.221   2.563
 4630SOL    HW214790   2.744   6.314   2.439
 4631SOL     OW14791   1.670   0.834   2.464
 4631SOL    HW114792   1.764   0.844   2.498
 4631SOL    HW214793   1.653   0.906   2.396
 4632SOL     OW14794   5.904   5.889   3.997
 4632SOL    HW114795   5.844   5.809   3.996
 4632SOL    HW214796   5.926   5.916   3.904
 4633SOL     OW14797   4.885   2.855   6.447
 4633SOL    HW114798   4.809   2.910   6.483
 4633SOL    HW214799   4.970   2.907   6.455
 4634SOL     OW14800   2.670   3.863   0.872
 4634SOL    HW114801   2.599   3.800   0.841
 4634SOL    HW214802   2.692   3.927   0.799
 4635SOL     OW14803   4.754   3.321   1.634
 4635SOL    HW114804   4.668   3.327   1.584
 4635SOL    HW214805   4.826   3.286   1.574
 4636SOL     OW14806   1.181   5.038   2.194
 4636SOL    HW114807   1.129   5.015   2.113
 4636SOL    HW214808   1.131   5.011   2.276
 4637SOL     OW14809   0.565   1.072   5.763
 4637SOL    HW114810   0.615   1.129   5.828
 4637SOL    HW214811   0.614   1.070   5.676
 4638SOL     OW14812   4.435   4.830   5.637
 4638SOL    HW114813   4.475   4.744   5.670
 4638SOL    HW214814   4.369   4.810   5.565
 4639SOL     OW14815   6.662   2.451   5.546
 4639SOL    HW114816   6.643   2.413   5.455
 4639SOL    HW214817   6.594   2.521   5.568
 4640SOL     OW14818   6.737   5.122   2.850
 4640SOL    HW114819   6.730   5.195   2.781
 4640SOL    HW214820   6.717   5.159   2.940
 4641SOL     OW14821   2.426   3.836   5.447
 4641SOL    HW114822   2.338   3.788   5.456
 4641SOL    HW214823   2.442   3.858   5.351
 4642SOL     OW14824   5.586   5.492   4.728
 4642SOL    HW114825   5.593   5.518   4.632
 4642SOL    HW214826   5.490   5.470   4.749
 4643SOL     OW14827   4.495   4.004   1.220
 4643SOL    HW114828   4.565   3.963   1.278
 4643SOL    HW214829   4.466   4.092   1.258
 4644SOL     OW14830   3.200   4.993   5.620
 4644SOL    HW114831   3.266   5.050   5.670
 4644SOL    HW214832   3.201   5.019   5.524
 4645SOL     OW14833   1.781   6.338   4.505
 4645SOL    HW114834   1.760   6.258   4.562
 4645SOL    HW214835   1.799   6.308   4.411
 4646SOL     OW14836   3.353   1.437   0.978
 4646SOL    HW114837   3.442   1.467   1.013
 4646SOL    HW214838   3.281   1.492   1.022
 4647SOL     OW14839   6.448   0.578   5.152
 4647SOL    HW114840   6.410   0.515   5.221
 4647SOL    HW214841   6.520   0.531   5.101
 4648SOL     OW14842   2.340   6.278   3.456
 4648SOL    HW114843   2.315   6.315   3.367
 4648SOL    HW214844   2.345   6.352   3.522
 4649SOL     OW14845   5.841   5.660   5.808
 4649SOL    HW114846   5.939   5.680   5.797
 4649SOL    HW214847   5.790   5.746   5.810
 4650SOL     OW14848   6.376   4.748   1.454
 4650SOL    HW114849   6.432   4.672   1.487
 4650SOL    HW214850   6.435   4.825   1.432
 4651SOL     OW14851   5.723   2.038   1.961
 4651SOL    HW114852   5.648   1.983   1.924
 4651SOL    HW214853   5.790   1.978   2.004
 4652SOL     OW14854   0.251   6.046   5.504
 4652SOL    HW114855   0.155   6.035   5.479
 4652SOL    HW214856   0.306   5.980   5.454
 4653SOL     OW14857   1.768   4.865   0.218
 4653SOL    HW114858   1.776   4.775   0.262
 4653SOL    HW214859   1.724   4.853   0.129
 4654SOL     OW14860   1.544   1.886   0.763
 4654SOL    HW114861   1.457   1.865   0.718
 4654SOL    HW214862   1.620   1.852   0.707
 4655SOL     OW14863   0.598   5.034   4.162
 4655SOL    HW114864   0.524   4.999   4.220
 4655SOL    HW214865   0.594   5.134   4.161
 4656SOL     OW14866   2.821   0.790   2.926
 4656SOL    HW114867   2.761   0.711   2.934
 4656SOL    HW214868   2.807   0.852   3.003
 4657SOL     OW14869   6.566   0.796   5.889
 4657SOL    HW114870   6.542   0.776   5.984
 4657SOL    HW214871   6.604   0.713   5.846
 4658SOL     OW14872   5.424   0.148   3.596
 4658SOL    HW114873   5.382   0.190   3.677
 4658SOL    HW214874   5.425   0.214   3.521
 4659SOL     OW14875   2.081   3.331   4.035
 4659SOL    HW114876   2.126   3.292   4.116
 4659SOL    HW214877   2.040   3.257   3.982
 4660SOL     OW14878   6.531   1.420   4.950
 4660SOL    HW114879   6.596   1.434   5.024
 4660SOL    HW214880   6.533   1.324   4.921
 4661SOL     OW14881   3.349   2.918   3.784
 4661SOL    HW114882   3.422   2.878   3.839
 4661SOL    HW214883   3.362   2.891   3.688
 4662SOL     OW14884   6.206   6.598   4.778
 4662SOL    HW114885   6.290   6.561   4.737
 4662SOL    HW214886   6.219   6.695   4.798
 4663SOL     OW14887   0.720   2.000   2.506
 4663SOL    HW114888   0.693   1.904   2.517
 4663SOL    HW214889   0.796   2.006   2.441
 4664SOL     OW14890   3.723   4.709   0.129
 4664SOL    HW114891   3.797   4.755   0.178
 4664SOL    HW214892   3.652   4.681   0.194
 4665SOL     OW14893   5.820   0.708   5.984
 4665SOL    HW114894   5.857   0.732   5.894
 4665SOL    HW214895   5.880   0.745   6.055
 4666SOL     OW14896   1.864   1.284   0.545
 4666SOL    HW114897   1.868   1.190   0.511
 4666SOL    HW214898   1.908   1.288   0.635
 4667SOL     OW14899   0.435   6.393   4.219
 4667SOL    HW114900   0.472   6.370   4.309
 4667SOL    HW214901   0.339   6.418   4.228
 4668SOL     OW14902   5.758   0.964   4.951
 4668SOL    HW114903   5.767   1.002   4.859
 4668SOL    HW214904   5.849   0.942   4.987
 4669SOL     OW14905   2.474   1.802   2.507
 4669SOL    HW114906   2.437   1.852   2.586
 4669SOL    HW214907   2.560   1.844   2.478
 4670SOL     OW14908   2.796   1.799   4.633
 4670SOL    HW114909   2.891   1.823   4.612
 4670SOL    HW214910   2.749   1.773   4.548
 4671SOL     OW14911   6.054   1.842   2.600
 4671SOL    HW114912   6.080   1.856   2.504
 4671SOL    HW214913   6.049   1.930   2.646
 4672SOL     OW14914   2.862   2.275   5.148
 4672SOL    HW114915   2.783   2.335   5.159
 4672SOL    HW214916   2.945   2.331   5.138
 4673SOL     OW14917   5.327   0.472   2.236
 4673SOL    HW114918   5.245   0.418   2.217
 4673SOL    HW214919   5.405   0.434   2.188
 4674SOL     OW14920   4.367   6.451   5.552
 4674SOL    HW114921   4.456   6.495   5.541
 4674SOL    HW214922   4.307   6.477   5.477
 4675SOL     OW14923   0.968   4.211   6.481
 4675SOL    HW114924   0.964   4.228   6.580
 4675SOL    HW214925   1.045   4.150   6.461
 4676SOL     OW14926   1.286   4.700   3.854
 4676SOL    HW114927   1.357   4.629   3.853
 4676SOL    HW214928   1.310   4.772   3.788
 4677SOL     OW14929   1.081   3.565   0.628
 4677SOL    HW114930   1.165   3.616   0.611
 4677SOL    HW214931   1.047   3.526   0.542
 4678SOL     OW14932   1.497   2.244   1.353
 4678SOL    HW114933   1.401   2.259   1.378
 4678SOL    HW214934   1.552   2.238   1.436
 4679SOL     OW14935   4.816   0.534   2.200
 4679SOL    HW114936   4.723   0.500   2.214
 4679SOL    HW214937   4.865   0.473   2.137
 4680SOL     OW14938   2.678   0.852   6.861
 4680SOL    HW114939   2.686   0.772   6.919
 4680SOL    HW214940   2.767   0.875   6.823
 4681SOL     OW14941   4.890   5.698   2.236
 4681SOL    HW114942   4.935   5.617   2.275
 4681SOL    HW214943   4.793   5.678   2.221
 4682SOL     OW14944   3.571   2.748   6.255
 4682SOL    HW114945   3.621   2.820   6.207
 4682SOL    HW214946   3.486   2.785   6.292
 4683SOL     OW14947   6.683   4.134   4.352
 4683SOL    HW114948   6.750   4.189   4.302
 4683SOL    HW214949   6.721   4.043   4.372
 4684SOL     OW14950   5.307   0.262   5.829
 4684SOL    HW114951   5.281   0.216   5.745
 4684SOL    HW214952   5.371   0.336   5.809
 4685SOL     OW14953   3.297   4.090   3.956
 4685SOL    HW114954   3.229   4.036   3.907
 4685SOL    HW214955   3.313   4.049   4.046
 4686SOL     OW14956   1.306   6.986   6.659
 4686SOL    HW114957   1.246   6.906   6.663
 4686SOL    HW214958   1.358   6.985   6.573
 4687SOL     OW14959   1.252   0.507   2.638
 4687SOL    HW114960   1.227   0.525   2.543
 4687SOL    HW214961   1.172   0.475   2.688
 4688SOL     OW14962   5.066   2.709   4.742
 4688SOL    HW114963   4.998   2.683   4.810
 4688SOL    HW214964   5.151   2.661   4.759
 4689SOL     OW14965   6.873   0.854   1.354
 4689SOL    HW114966   6.972   0.865   1.365
 4689SOL    HW214967   6.833   0.940   1.323
 4690SOL     OW14968   3.697   2.306   1.518
 4690SOL    HW114969   3.631   2.331   1.588
 4690SOL    HW214970   3.748   2.387   1.489
 4691SOL     OW14971   6.378   3.527   1.998
 4691SOL    HW114972   6.358   3.432   2.021
 4691SOL    HW214973   6.475   3.545   2.013
 4692SOL     OW14974   5.679   2.759   3.146
 4692SOL    HW114975   5.648   2.675   3.101
 4692SOL    HW214976   5.651   2.757   3.242
 4693SOL     OW14977   6.646   0.305   4.097
 4693SOL    HW114978   6.727   0.265   4.138
 4693SOL    HW214979   6.565   0.279   4.150
 4694SOL     OW14980   2.098   6.668   5.865
 4694SOL    HW114981   2.021   6.632   5.813
 4694SOL    HW214982   2.158   6.593   5.893
 4695SOL     OW14983   2.170   4.887   1.761
 4695SOL    HW114984   2.269   4.872   1.760
 4695SOL    HW214985   2.150   4.973   1.809
 4696SOL     OW14986   2.155   6.314   6.237
 4696SOL    HW114987   2.071   6.358   6.204
 4696SOL    HW214988   2.232   6.377   6.228
 4697SOL     OW14989   4.561   5.787   1.280
 4697SOL    HW114990   4.493   5.830   1.340
 4697SOL    HW214991   4.626   5.736   1.336
 4698SOL     OW14992   5.112   1.619   4.774
 4698SOL    HW114993   5.167   1.536   4.766
 4698SOL    HW214994   5.059   1.633   4.690
 4699SOL     OW14995   0.851   1.465   2.615
 4699SOL    HW114996   0.882   1.381   2.662
 4699SOL    HW214997   0.764   1.447   2.569
 4700SOL     OW14998   6.938   2.102   3.545
 4700SOL    HW114999   6.868   2.108   3.473
 4700SOL    HW215000   6.978   2.192   3.560
 4701SOL     OW15001   3.003   2.678   1.748
 4701SOL    HW115002   2.982   2.590   1.791
 4701SOL    HW215003   2.927   2.707   1.691
 4702SOL     OW15004   5.984   5.203   1.325
 4702SOL    HW115005   6.032   5.183   1.411
 4702SOL    HW215006   5.999   5.128   1.260
 4703SOL     OW15007   0.029   4.681   4.089
 4703SOL    HW115008   6.958   4.727   4.077
 4703SOL    HW215009   0.017   4.583   4.074
 4704SOL     OW15010   1.667   4.806   4.725
 4704SOL    HW115011   1.759   4.837   4.704
 4704SOL    HW215012   1.653   4.805   4.824
 4705SOL     OW15013   3.044   2.092   1.381
 4705SOL    HW115014   2.950   2.073   1.408
 4705SOL    HW215015   3.068   2.037   1.301
 4706SOL     OW15016   1.760   1.690   1.021
 4706SOL    HW115017   1.690   1.707   1.090
 4706SOL    HW215018   1.771   1.592   1.008
 4707SOL     OW15019   1.856   5.406   2.400
 4707SOL    HW115020   1.800   5.472   2.350
 4707SOL    HW215021   1.832   5.409   2.497
 4708SOL     OW15022   2.046   2.845   6.563
 4708SOL    HW115023   2.065   2.843   6.661
 4708SOL    HW215024   1.968   2.905   6.545
 4709SOL     OW15025   5.812   3.545   4.953
 4709SOL    HW115026   5.715   3.543   4.979
 4709SOL    HW215027   5.850   3.635   4.975
 4710SOL     OW15028   5.887   5.171   5.350
 4710SOL    HW115029   5.803   5.215   5.381
 4710SOL    HW215030   5.902   5.086   5.400
 4711SOL     OW15031   4.727   4.351   2.841
 4711SOL    HW115032   4.827   4.359   2.842
 4711SOL    HW215033   4.699   4.272   2.895
 4712SOL     OW15034   4.222   4.697   6.026
 4712SOL    HW115035   4.306   4.750   6.037
 4712SOL    HW215036   4.196   4.696   5.929
 4713SOL     OW15037   5.343   4.833   1.117
 4713SOL    HW115038   5.358   4.795   1.208
 4713SOL    HW215039   5.294   4.920   1.126
 4714SOL     OW15040   4.617   2.053   5.957
 4714SOL    HW115041   4.589   1.969   6.005
 4714SOL    HW215042   4.716   2.062   5.962
 4715SOL     OW15043   6.743   1.658   1.860
 4715SOL    HW115044   6.773   1.656   1.955
 4715SOL    HW215045   6.770   1.573   1.814
 4716SOL     OW15046   3.791   4.587   5.760
 4716SOL    HW115047   3.786   4.678   5.801
 4716SOL    HW215048   3.701   4.559   5.728
 4717SOL     OW15049   1.824   4.865   6.267
 4717SOL    HW115050   1.882   4.783   6.268
 4717SOL    HW215051   1.871   4.938   6.218
 4718SOL     OW15052   4.985   3.531   2.879
 4718SOL    HW115053   5.009   3.566   2.788
 4718SOL    HW215054   4.921   3.456   2.869
 4719SOL     OW15055   6.000   3.962   4.143
 4719SOL    HW115056   5.904   3.945   4.122
 4719SOL    HW215057   6.043   4.011   4.066
 4720SOL     OW15058   0.836   1.847   6.092
 4720SOL    HW115059   0.810   1.905   6.169
 4720SOL    HW215060   0.931   1.819   6.101
 4721SOL     OW15061   0.508   2.993   2.734
 4721SOL    HW115062   0.496   2.931   2.812
 4721SOL    HW215063   0.448   3.072   2.745
 4722SOL     OW15064   1.850   5.247   5.841
 4722SOL    HW115065   1.917   5.307   5.884
 4722SOL    HW215066   1.786   5.213   5.910
 4723SOL     OW15067   3.058   4.321   6.039
 4723SOL    HW115068   3.103   4.392   6.093
 4723SOL    HW215069   3.110   4.304   5.955
 4724SOL     OW15070   0.326   0.691   4.132
 4724SOL    HW115071   0.395   0.729   4.192
 4724SOL    HW215072   0.247   0.661   4.186
 4725SOL     OW15073   6.187   5.501   1.365
 4725SOL    HW115074   6.246   5.575   1.333
 4725SOL    HW215075   6.110   5.491   1.302
 4726SOL     OW15076   1.809   2.739   6.025
 4726SOL    HW115077   1.857   2.710   6.109
 4726SOL    HW215078   1.866   2.719   5.946
 4727SOL     OW15079   6.137   5.727   1.745
 4727SOL    HW115080   6.079   5.672   1.685
 4727SOL    HW215081   6.229   5.731   1.708
 4728SOL     OW15082   4.153   0.885   3.444
 4728SOL    HW115083   4.203   0.971   3.431
 4728SOL    HW215084   4.149   0.864   3.541
 4729SOL     OW15085   0.319   1.396   2.753
 4729SOL    HW115086   0.406   1.372   2.796
 4729SOL    HW215087   0.244   1.359   2.807
 4730SOL     OW15088   2.752   0.649   3.499
 4730SOL    HW115089   2.793   0.738   3.520
 4730SOL    HW215090   2.768   0.627   3.403
 4731SOL     OW15091   3.455   6.896   2.330
 4731SOL    HW115092   3.439   6.807   2.373
 4731SOL    HW215093   3.481   6.883   2.235
 4732SOL     OW15094   0.127   4.998   4.698
 4732SOL    HW115095   0.174   4.923   4.651
 4732SOL    HW215096   0.058   4.960   4.760
 4733SOL     OW15097   2.128   3.899   3.243
 4733SOL    HW115098   2.035   3.901   3.208
 4733SOL    HW215099   2.189   3.860   3.173
 4734SOL     OW15100   4.763   4.339   6.342
 4734SOL    HW115101   4.666   4.331   6.366
 4734SOL    HW215102   4.775   4.410   6.273
 4735SOL     OW15103   6.965   0.928   5.465
 4735SOL    HW115104   6.916   0.866   5.526
 4735SOL    HW215105   0.024   0.880   5.422
 4736SOL     OW15106   6.393   0.211   5.149
 4736SOL    HW115107   6.395   0.238   5.245
 4736SOL    HW215108   6.339   0.276   5.097
 4737SOL     OW15109   2.224   5.239   0.087
 4737SOL    HW115110   2.183   5.326   0.061
 4737SOL    HW215111   2.319   5.254   0.114
 4738SOL     OW15112   0.301   5.836   3.508
 4738SOL    HW115113   0.310   5.738   3.487
 4738SOL    HW215114   0.391   5.875   3.522
 4739SOL     OW15115   6.050   3.567   2.982
 4739SOL    HW115116   5.999   3.508   2.920
 4739SOL    HW215117   6.113   3.511   3.037
 4740SOL     OW15118   1.948   6.614   0.905
 4740SOL    HW115119   1.948   6.713   0.894
 4740SOL    HW215120   1.853   6.580   0.905
 4741SOL     OW15121   5.789   4.820   1.789
 4741SOL    HW115122   5.738   4.737   1.765
 4741SOL    HW215123   5.876   4.794   1.832
 4742SOL     OW15124   2.249   5.689   2.157
 4742SOL    HW115125   2.155   5.658   2.165
 4742SOL    HW215126   2.282   5.674   2.064
 4743SOL     OW15127   2.759   3.747   0.351
 4743SOL    HW115128   2.681   3.701   0.309
 4743SOL    HW215129   2.774   3.709   0.442
 4744SOL     OW15130   2.863   1.427   6.036
 4744SOL    HW115131   2.912   1.499   5.987
 4744SOL    HW215132   2.773   1.461   6.062
 4745SOL     OW15133   4.409   5.832   4.322
 4745SOL    HW115134   4.396   5.844   4.224
 4745SOL    HW215135   4.348   5.759   4.354
 4746SOL     OW15136   5.697   1.592   0.814
 4746SOL    HW115137   5.748   1.661   0.866
 4746SOL    HW215138   5.629   1.549   0.874
 4747SOL     OW15139   1.107   2.570   2.339
 4747SOL    HW115140   1.101   2.661   2.378
 4747SOL    HW215141   1.029   2.553   2.279
 4748SOL     OW15142   2.369   6.315   0.343
 4748SOL    HW115143   2.369   6.385   0.271
 4748SOL    HW215144   2.390   6.226   0.303
 4749SOL     OW15145   3.485   1.240   6.878
 4749SOL    HW115146   3.458   1.336   6.870
 4749SOL    HW215147   3.414   1.182   6.838
 4750SOL     OW15148   0.658   1.908   4.992
 4750SOL    HW115149   0.625   1.969   5.064
 4750SOL    HW215150   0.746   1.942   4.958
 4751SOL     OW15151   1.269   4.194   6.782
 4751SOL    HW115152   1.297   4.254   6.707
 4751SOL    HW215153   1.181   4.225   6.818
 4752SOL     OW15154   1.805   6.215   1.164
 4752SOL    HW115155   1.796   6.298   1.218
 4752SOL    HW215156   1.737   6.148   1.194
 4753SOL     OW15157   0.252   0.782   6.175
 4753SOL    HW115158   0.287   0.712   6.112
 4753SOL    HW215159   0.243   0.743   6.267
 4754SOL     OW15160   1.554   1.158   6.478
 4754SOL    HW115161   1.463   1.122   6.461
 4754SOL    HW215162   1.547   1.249   6.520
 4755SOL     OW15163   2.936   0.006   3.082
 4755SOL    HW115164   2.959   0.089   3.132
 4755SOL    HW215165   3.019   6.969   3.068
 4756SOL     OW15166   5.649   2.306   1.034
 4756SOL    HW115167   5.695   2.219   1.016
 4756SOL    HW215168   5.612   2.342   0.949
 4757SOL     OW15169   2.529   2.889   0.687
 4757SOL    HW115170   2.528   2.790   0.701
 4757SOL    HW215171   2.489   2.934   0.767
 4758SOL     OW15172   6.264   3.842   6.416
 4758SOL    HW115173   6.226   3.887   6.496
 4758SOL    HW215174   6.320   3.907   6.364
 4759SOL     OW15175   0.000   4.068   6.807
 4759SOL    HW115176   0.012   3.978   6.851
 4759SOL    HW215177   0.015   4.140   6.875
 4760SOL     OW15178   0.898   2.569   0.248
 4760SOL    HW115179   0.825   2.607   0.305
 4760SOL    HW215180   0.981   2.624   0.260
 4761SOL     OW15181   2.998   6.235   6.809
 4761SOL    HW115182   3.008   6.140   6.778
 4761SOL    HW215183   2.941   6.285   6.745
 4762SOL     OW15184   3.734   0.098   2.664
 4762SOL    HW115185   3.786   0.180   2.639
 4762SOL    HW215186   3.734   0.035   2.586
 4763SOL     OW15187   4.884   4.864   4.886
 4763SOL    HW115188   4.949   4.826   4.819
 4763SOL    HW215189   4.914   4.955   4.914
 4764SOL     OW15190   3.519   3.489   3.926
 4764SOL    HW115191   3.579   3.558   3.887
 4764SOL    HW215192   3.558   3.454   4.011
 4765SOL     OW15193   5.974   5.694   6.183
 4765SOL    HW115194   5.942   5.615   6.236
 4765SOL    HW215195   6.045   5.742   6.233
 4766SOL     OW15196   2.827   1.678   3.488
 4766SOL    HW115197   2.742   1.628   3.472
 4766SOL    HW215198   2.893   1.619   3.535
 4767SOL     OW15199   4.593   0.703   6.891
 4767SOL    HW115200   4.541   0.671   6.971
 4767SOL    HW215201   4.546   0.781   6.849
 4768SOL     OW15202   1.605   0.879   5.576
 4768SOL    HW115203   1.672   0.874   5.650
 4768SOL    HW215204   1.653   0.880   5.488
 4769SOL     OW15205   4.702   0.656   1.756
 4769SOL    HW115206   4.653   0.629   1.839
 4769SOL    HW215207   4.755   0.739   1.774
 4770SOL     OW15208   2.390   1.249   3.921
 4770SOL    HW115209   2.411   1.326   3.981
 4770SOL    HW215210   2.291   1.241   3.911
 4771SOL     OW15211   4.037   4.586   6.203
 4771SOL    HW115212   4.008   4.513   6.141
 4771SOL    HW215213   4.105   4.643   6.158
 4772SOL     OW15214   3.680   2.916   6.905
 4772SOL    HW115215   3.620   2.841   6.878
 4772SOL    HW215216   3.766   2.911   6.853
 4773SOL     OW15217   6.694   5.037   4.946
 4773SOL    HW115218   6.673   5.133   4.968
 4773SOL    HW215219   6.624   4.978   4.986
 4774SOL     OW15220   1.971   4.400   0.092
 4774SOL    HW115221   1.975   4.330   0.021
 4774SOL    HW215222   1.954   4.357   0.180
 4775SOL     OW15223   1.815   2.896   2.339
 4775SOL    HW115224   1.803   2.855   2.429
 4775SOL    HW215225   1.896   2.954   2.339
 4776SOL     OW15226   4.226   5.334   1.780
 4776SOL    HW115227   4.254   5.302   1.871
 4776SOL    HW215228   4.224   5.257   1.716
 4777SOL     OW15229   1.664   4.548   1.319
 4777SOL    HW115230   1.656   4.481   1.245
 4777SOL    HW215231   1.699   4.503   1.401
 4778SOL     OW15232   5.355   3.268   2.614
 4778SOL    HW115233   5.287   3.195   2.622
 4778SOL    HW215234   5.446   3.232   2.637
 4779SOL     OW15235   5.478   1.403   2.807
 4779SOL    HW115236   5.568   1.444   2.792
 4779SOL    HW215237   5.419   1.424   2.729
 4780SOL     OW15238   1.638   1.763   5.476
 4780SOL    HW115239   1.678   1.773   5.385
 4780SOL    HW215240   1.611   1.852   5.511
 4781SOL     OW15241   2.701   5.230   2.849
 4781SOL    HW115242   2.605   5.258   2.847
 4781SOL    HW215243   2.719   5.178   2.933
 4782SOL     OW15244   6.036   6.312   0.073
 4782SOL    HW115245   6.052   6.255   0.154
 4782SOL    HW215246   6.029   6.254   7.009
 4783SOL     OW15247   5.716   4.346   3.269
 4783SOL    HW115248   5.627   4.324   3.229
 4783SOL    HW215249   5.705   4.360   3.367
 4784SOL     OW15250   5.031   4.515   4.625
 4784SOL    HW115251   5.054   4.419   4.614
 4784SOL    HW215252   4.972   4.545   4.550
 4785SOL     OW15253   5.589   6.097   0.741
 4785SOL    HW115254   5.631   6.015   0.702
 4785SOL    HW215255   5.489   6.088   0.737
 4786SOL     OW15256   1.515   4.189   2.578
 4786SOL    HW115257   1.423   4.178   2.541
 4786SOL    HW215258   1.568   4.106   2.562
 4787SOL     OW15259   3.923   2.098   2.646
 4787SOL    HW115260   3.995   2.098   2.716
 4787SOL    HW215261   3.962   2.069   2.559
 4788SOL     OW15262   2.481   0.491   4.712
 4788SOL    HW115263   2.393   0.456   4.680
 4788SOL    HW215264   2.498   0.457   4.804
 4789SOL     OW15265   5.207   5.834   6.986
 4789SOL    HW115266   5.139   5.817   0.041
 4789SOL    HW215267   5.280   5.766   6.992
 4790SOL     OW15268   5.448   6.849   6.534
 4790SOL    HW115269   5.481   6.836   6.627
 4790SOL    HW215270   5.494   6.786   6.472
 4791SOL     OW15271   4.310   2.371   3.267
 4791SOL    HW115272   4.217   2.336   3.257
 4791SOL    HW215273   4.350   2.387   3.176
 4792SOL     OW15274   3.376   3.084   0.658
 4792SOL    HW115275   3.314   3.087   0.736
 4792SOL    HW215276   3.354   3.005   0.601
 4793SOL     OW15277   0.538   0.753   0.173
 4793SOL    HW115278   0.573   0.836   0.130
 4793SOL    HW215279   0.472   0.777   0.244
 4794SOL     OW15280   5.757   0.932   1.853
 4794SOL    HW115281   5.775   0.920   1.951
 4794SOL    HW215282   5.831   0.984   1.812
 4795SOL     OW15283   5.834   2.404   4.381
 4795SOL    HW115284   5.772   2.412   4.460
 4795SOL    HW215285   5.854   2.496   4.346
 4796SOL     OW15286   4.984   3.879   0.270
 4796SOL    HW115287   4.933   3.935   0.205
 4796SOL    HW215288   5.023   3.937   0.342
 4797SOL     OW15289   1.382   5.830   4.808
 4797SOL    HW115290   1.471   5.874   4.825
 4797SOL    HW215291   1.394   5.731   4.805
 4798SOL     OW15292   6.936   5.466   6.129
 4798SOL    HW115293   6.844   5.472   6.090
 4798SOL    HW215294   6.966   5.558   6.157
 4799SOL     OW15295   5.073   1.899   3.930
 4799SOL    HW115296   5.112   1.882   3.840
 4799SOL    HW215297   4.993   1.840   3.943
 4800SOL     OW15298   1.540   2.846   3.550
 4800SOL    HW115299   1.453   2.867   3.505
 4800SOL    HW215300   1.604   2.921   3.536
 4801SOL     OW15301   0.140   1.655   0.845
 4801SOL    HW115302   0.145   1.606   0.758
 4801SOL    HW215303   0.213   1.723   0.850
 4802SOL     OW15304   1.966   0.192   1.927
 4802SOL    HW115305   1.903   0.118   1.902
 4802SOL    HW215306   1.992   0.183   2.023
 4803SOL     OW15307   1.157   6.765   1.121
 4803SOL    HW115308   1.104   6.800   1.198
 4803SOL    HW215309   1.134   6.669   1.106
 4804SOL     OW15310   4.599   5.622   0.567
 4804SOL    HW115311   4.676   5.560   0.575
 4804SOL    HW215312   4.587   5.650   0.472
 4805SOL     OW15313   0.321   6.917   2.112
 4805SOL    HW115314   0.269   6.890   2.030
 4805SOL    HW215315   0.338   6.836   2.168
 4806SOL     OW15316   0.004   2.353   3.644
 4806SOL    HW115317   0.062   2.380   3.721
 4806SOL    HW215318   0.002   2.427   3.576
 4807SOL     OW15319   0.798   0.495   3.006
 4807SOL    HW115320   0.741   0.454   2.934
 4807SOL    HW215321   0.776   0.451   3.094
 4808SOL     OW15322   6.970   1.892   0.393
 4808SOL    HW115323   6.871   1.886   0.395
 4808SOL    HW215324   7.003   1.930   0.480
 4809SOL     OW15325   4.935   6.777   0.282
 4809SOL    HW115326   4.949   6.872   0.254
 4809SOL    HW215327   4.891   6.726   0.208
 4810SOL     OW15328   2.151   6.485   6.854
 4810SOL    HW115329   2.155   6.386   6.838
 4810SOL    HW215330   2.080   6.504   6.922
 4811SOL     OW15331   5.266   3.912   4.147
 4811SOL    HW115332   5.248   3.934   4.052
 4811SOL    HW215333   5.320   3.986   4.189
 4812SOL     OW15334   6.459   5.318   4.026
 4812SOL    HW115335   6.381   5.380   4.037
 4812SOL    HW215336   6.432   5.239   3.970
 4813SOL     OW15337   5.595   3.524   2.762
 4813SOL    HW115338   5.602   3.445   2.823
 4813SOL    HW215339   5.499   3.546   2.747
 4814SOL     OW15340   0.433   2.863   1.610
 4814SOL    HW115341   0.527   2.845   1.579
 4814SOL    HW215342   0.368   2.831   1.541
 4815SOL     OW15343   4.646   0.615   3.784
 4815SOL    HW115344   4.740   0.622   3.752
 4815SOL    HW215345   4.626   0.690   3.847
 4816SOL     OW15346   6.000   4.422   4.452
 4816SOL    HW115347   6.054   4.406   4.535
 4816SOL    HW215348   5.972   4.334   4.413
 4817SOL     OW15349   6.247   1.619   6.600
 4817SOL    HW115350   6.180   1.591   6.532
 4817SOL    HW215351   6.297   1.699   6.568
 4818SOL     OW15352   6.887   6.186   3.640
 4818SOL    HW115353   6.910   6.143   3.727
 4818SOL    HW215354   6.845   6.119   3.579
 4819SOL     OW15355   1.539   3.182   0.711
 4819SOL    HW115356   1.454   3.225   0.683
 4819SOL    HW215357   1.581   3.137   0.632
 4820SOL     OW15358   6.648   3.587   2.009
 4820SOL    HW115359   6.685   3.631   2.091
 4820SOL    HW215360   6.640   3.654   1.935
 4821SOL     OW15361   0.665   5.643   3.870
 4821SOL    HW115362   0.733   5.711   3.843
 4821SOL    HW215363   0.704   5.581   3.939
 4822SOL     OW15364   2.846   4.852   4.267
 4822SOL    HW115365   2.854   4.930   4.205
 4822SOL    HW215366   2.808   4.774   4.218
 4823SOL     OW15367   1.288   2.218   0.569
 4823SOL    HW115368   1.327   2.262   0.650
 4823SOL    HW215369   1.206   2.167   0.596
 4824SOL     OW15370   6.728   2.123   6.695
 4824SOL    HW115371   6.678   2.133   6.782
 4824SOL    HW215372   6.822   2.096   6.714
 4825SOL     OW15373   1.301   5.977   3.660
 4825SOL    HW115374   1.320   5.906   3.592
 4825SOL    HW215375   1.202   5.989   3.668
 4826SOL     OW15376   4.161   6.811   0.361
 4826SOL    HW115377   4.245   6.805   0.414
 4826SOL    HW215378   4.163   6.744   0.287
 4827SOL     OW15379   5.945   1.105   1.782
 4827SOL    HW115380   5.920   1.138   1.691
 4827SOL    HW215381   6.017   1.163   1.820
 4828SOL     OW15382   5.361   1.000   6.346
 4828SOL    HW115383   5.384   0.999   6.444
 4828SOL    HW215384   5.266   1.031   6.335
 4829SOL     OW15385   4.658   5.527   5.062
 4829SOL    HW115386   4.658   5.623   5.037
 4829SOL    HW215387   4.654   5.518   5.161
 4830SOL     OW15388   1.704   6.684   3.497
 4830SOL    HW115389   1.686   6.596   3.541
 4830SOL    HW215390   1.677   6.679   3.401
 4831SOL     OW15391   3.189   4.703   5.548
 4831SOL    HW115392   3.159   4.686   5.455
 4831SOL    HW215393   3.200   4.801   5.563
 4832SOL     OW15394   3.900   3.081   3.858
 4832SOL    HW115395   3.948   3.073   3.946
 4832SOL    HW215396   3.836   3.158   3.862
 4833SOL     OW15397   6.077   2.287   5.056
 4833SOL    HW115398   6.123   2.269   4.969
 4833SOL    HW215399   5.980   2.262   5.048
 4834SOL     OW15400   0.917   5.280   1.165
 4834SOL    HW115401   0.991   5.230   1.121
 4834SOL    HW215402   0.852   5.311   1.096
 4835SOL     OW15403   0.141   3.395   6.477
 4835SOL    HW115404   0.145   3.412   6.575
 4835SOL    HW215405   0.180   3.473   6.428
 4836SOL     OW15406   4.194   1.083   5.493
 4836SOL    HW115407   4.196   1.049   5.587
 4836SOL    HW215408   4.098   1.089   5.462
 4837SOL     OW15409   1.560   3.444   4.914
 4837SOL    HW115410   1.578   3.539   4.941
 4837SOL    HW215411   1.473   3.414   4.952
 4838SOL     OW15412   2.308   4.121   5.863
 4838SOL    HW115413   2.323   4.059   5.786
 4838SOL    HW215414   2.346   4.211   5.841
 4839SOL     OW15415   2.697   0.826   1.795
 4839SOL    HW115416   2.693   0.835   1.895
 4839SOL    HW215417   2.765   0.756   1.771
 4840SOL     OW15418   5.018   2.611   3.389
 4840SOL    HW115419   4.999   2.558   3.306
 4840SOL    HW215420   4.998   2.555   3.469
 4841SOL     OW15421   2.717   5.134   3.095
 4841SOL    HW115422   2.668   5.193   3.159
 4841SOL    HW215423   2.804   5.106   3.135
 4842SOL     OW15424   4.409   4.798   3.635
 4842SOL    HW115425   4.430   4.892   3.661
 4842SOL    HW215426   4.488   4.759   3.586
 4843SOL     OW15427   5.539   2.527   0.068
 4843SOL    HW115428   5.635   2.516   0.044
 4843SOL    HW215429   5.499   2.598   0.010
 4844SOL     OW15430   0.613   4.869   6.739
 4844SOL    HW115431   0.531   4.856   6.683
 4844SOL    HW215432   0.681   4.800   6.714
 4845SOL     OW15433   5.344   4.327   4.678
 4845SOL    HW115434   5.360   4.370   4.766
 4845SOL    HW215435   5.400   4.372   4.608
 4846SOL     OW15436   6.565   4.111   4.611
 4846SOL    HW115437   6.589   4.043   4.680
 4846SOL    HW215438   6.593   4.078   4.520
 4847SOL     OW15439   2.938   6.974   6.779
 4847SOL    HW115440   2.890   6.909   6.720
 4847SOL    HW215441   2.936   6.941   6.874
 4848SOL     OW15442   4.525   1.516   3.555
 4848SOL    HW115443   4.517   1.528   3.654
 4848SOL    HW215444   4.515   1.419   3.533
 4849SOL     OW15445   1.591   5.700   1.819
 4849SOL    HW115446   1.509   5.692   1.762
 4849SOL    HW215447   1.579   5.776   1.884
 4850SOL     OW15448   3.522   0.310   2.307
 4850SOL    HW115449   3.568   0.394   2.277
 4850SOL    HW215450   3.521   0.306   2.406
 4851SOL     OW15451   4.519   4.698   6.725
 4851SOL    HW115452   4.614   4.705   6.754
 4851SOL    HW215453   4.478   4.616   6.764
 4852SOL     OW15454   5.008   3.734   5.386
 4852SOL    HW115455   4.910   3.726   5.403
 4852SOL    HW215456   5.034   3.674   5.311
 4853SOL     OW15457   4.232   0.702   2.972
 4853SOL    HW115458   4.230   0.725   3.069
 4853SOL    HW215459   4.220   0.785   2.918
 4854SOL     OW15460   4.048   6.824   2.270
 4854SOL    HW115461   4.025   6.778   2.184
 4854SOL    HW215462   4.035   6.760   2.346
 4855SOL     OW15463   4.261   4.790   5.439
 4855SOL    HW115464   4.203   4.709   5.429
 4855SOL    HW215465   4.264   4.839   5.351
 4856SOL     OW15466   0.945   2.235   2.164
 4856SOL    HW115467   0.943   2.335   2.154
 4856SOL    HW215468   0.947   2.212   2.261
 4857SOL     OW15469   2.703   2.015   5.973
 4857SOL    HW115470   2.641   2.020   5.895
 4857SOL    HW215471   2.790   1.973   5.945
 4858SOL     OW15472   2.334   5.385   5.091
 4858SOL    HW115473   2.392   5.313   5.129
 4858SOL    HW215474   2.351   5.394   4.993
 4859SOL     OW15475   6.655   5.371   3.220
 4859SOL    HW115476   6.571   5.336   3.178
 4859SOL    HW215477   6.631   5.436   3.293
 4860SOL     OW15478   4.047   5.162   1.195
 4860SOL    HW115479   4.037   5.213   1.280
 4860SOL    HW215480   4.077   5.225   1.122
 4861SOL     OW15481   5.845   4.768   4.644
 4861SOL    HW115482   5.772   4.830   4.673
 4861SOL    HW215483   5.927   4.821   4.621
 4862SOL     OW15484   1.477   5.164   4.521
 4862SOL    HW115485   1.544   5.163   4.447
 4862SOL    HW215486   1.405   5.230   4.500
 4863SOL     OW15487   5.793   1.526   1.341
 4863SOL    HW115488   5.845   1.574   1.412
 4863SOL    HW215489   5.767   1.590   1.269
 4864SOL     OW15490   2.582   2.805   1.722
 4864SOL    HW115491   2.494   2.836   1.758
 4864SOL    HW215492   2.591   2.706   1.739
 4865SOL     OW15493   4.115   6.955   5.109
 4865SOL    HW115494   4.097   0.036   5.126
 4865SOL    HW215495   4.032   6.903   5.126
 4866SOL     OW15496   0.641   5.046   1.828
 4866SOL    HW115497   0.560   5.086   1.784
 4866SOL    HW215498   0.722   5.095   1.798
 4867SOL     OW15499   5.827   4.738   5.705
 4867SOL    HW115500   5.852   4.747   5.801
 4867SOL    HW215501   5.855   4.648   5.671
 4868SOL     OW15502   2.106   5.771   1.787
 4868SOL    HW115503   2.040   5.746   1.858
 4868SOL    HW215504   2.168   5.841   1.822
 4869SOL     OW15505   0.301   2.137   1.779
 4869SOL    HW115506   0.222   2.125   1.839
 4869SOL    HW215507   0.270   2.144   1.684
 4870SOL     OW15508   5.863   1.276   1.066
 4870SOL    HW115509   5.890   1.222   0.986
 4870SOL    HW215510   5.872   1.374   1.043
 4871SOL     OW15511   1.706   2.697   5.113
 4871SOL    HW115512   1.751   2.772   5.066
 4871SOL    HW215513   1.737   2.693   5.208
 4872SOL     OW15514   2.403   2.714   2.457
 4872SOL    HW115515   2.443   2.677   2.373
 4872SOL    HW215516   2.417   2.649   2.532
 4873SOL     OW15517   1.180   6.586   5.860
 4873SOL    HW115518   1.223   6.523   5.924
 4873SOL    HW215519   1.099   6.543   5.820
 4874SOL     OW15520   5.707   1.457   4.063
 4874SOL    HW115521   5.617   1.416   4.048
 4874SOL    HW215522   5.695   1.551   4.096
 4875SOL     OW15523   6.793   2.988   0.698
 4875SOL    HW115524   6.873   2.941   0.661
 4875SOL    HW215525   6.711   2.958   0.649
 4876SOL     OW15526   6.769   1.236   6.927
 4876SOL    HW115527   6.864   1.267   6.921
 4876SOL    HW215528   6.708   1.314   6.931
 4877SOL     OW15529   4.207   1.868   1.734
 4877SOL    HW115530   4.157   1.793   1.776
 4877SOL    HW215531   4.291   1.833   1.694
 4878SOL     OW15532   1.122   2.874   2.330
 4878SOL    HW115533   1.088   2.968   2.333
 4878SOL    HW215534   1.217   2.874   2.301
 4879SOL     OW15535   3.733   6.314   3.403
 4879SOL    HW115536   3.657   6.254   3.378
 4879SOL    HW215537   3.714   6.356   3.492
 4880SOL     OW15538   6.700   2.269   5.961
 4880SOL    HW115539   6.798   2.253   5.949
 4880SOL    HW215540   6.667   2.215   6.038
 4881SOL     OW15541   2.853   6.402   6.019
 4881SOL    HW115542   2.882   6.498   6.023
 4881SOL    HW215543   2.777   6.393   5.954
 4882SOL     OW15544   5.519   5.947   6.689
 4882SOL    HW115545   5.611   5.920   6.661
 4882SOL    HW215546   5.510   6.047   6.685
 4883SOL     OW15547   6.061   5.858   0.407
 4883SOL    HW115548   6.137   5.848   0.343
 4883SOL    HW215549   5.992   5.788   0.389
 4884SOL     OW15550   4.417   6.114   1.756
 4884SOL    HW115551   4.373   6.100   1.845
 4884SOL    HW215552   4.400   6.208   1.726
 4885SOL     OW15553   1.332   0.652   2.303
 4885SOL    HW115554   1.235   0.643   2.284
 4885SOL    HW215555   1.347   0.728   2.366
 4886SOL     OW15556   6.203   1.327   5.836
 4886SOL    HW115557   6.174   1.343   5.742
 4886SOL    HW215558   6.141   1.374   5.899
 4887SOL     OW15559   0.038   2.180   5.441
 4887SOL    HW115560   0.050   2.085   5.414
 4887SOL    HW215561   0.088   2.239   5.378
 4888SOL     OW15562   4.605   6.190   1.305
 4888SOL    HW115563   4.662   6.218   1.228
 4888SOL    HW215564   4.526   6.138   1.273
 4889SOL     OW15565   1.378   3.476   6.301
 4889SOL    HW115566   1.317   3.407   6.262
 4889SOL    HW215567   1.472   3.443   6.299
 4890SOL     OW15568   6.814   0.627   4.505
 4890SOL    HW115569   6.745   0.673   4.561
 4890SOL    HW215570   6.817   0.670   4.415
 4891SOL     OW15571   1.264   4.899   0.711
 4891SOL    HW115572   1.227   4.908   0.619
 4891SOL    HW215573   1.224   4.818   0.755
 4892SOL     OW15574   1.964   5.638   2.156
 4892SOL    HW115575   1.905   5.641   2.075
 4892SOL    HW215576   1.909   5.614   2.236
 4893SOL     OW15577   6.986   4.503   6.297
 4893SOL    HW115578   6.970   4.535   6.390
 4893SOL    HW215579   6.919   4.546   6.235
 4894SOL     OW15580   0.356   6.992   3.663
 4894SOL    HW115581   0.435   6.942   3.697
 4894SOL    HW215582   0.384   0.036   3.589
 4895SOL     OW15583   6.550   4.233   6.468
 4895SOL    HW115584   6.602   4.198   6.545
 4895SOL    HW215585   6.595   4.315   6.432
 4896SOL     OW15586   4.452   0.670   4.794
 4896SOL    HW115587   4.487   0.590   4.745
 4896SOL    HW215588   4.360   0.692   4.762
 4897SOL     OW15589   2.572   5.511   0.036
 4897SOL    HW115590   2.588   5.580   0.107
 4897SOL    HW215591   2.595   5.420   0.071
 4898SOL     OW15592   4.880   2.744   4.532
 4898SOL    HW115593   4.953   2.741   4.600
 4898SOL    HW215594   4.919   2.734   4.440
 4899SOL     OW15595   0.146   3.188   4.479
 4899SOL    HW115596   0.239   3.217   4.499
 4899SOL    HW215597   0.090   3.267   4.454
 4900SOL     OW15598   0.543   6.607   5.820
 4900SOL    HW115599   0.579   6.700   5.811
 4900SOL    HW215600   0.508   6.577   5.732
 4901SOL     OW15601   5.843   6.392   3.123
 4901SOL    HW115602   5.755   6.419   3.163
 4901SOL    HW215603   5.828   6.351   3.033
 4902SOL     OW15604   3.575   5.351   0.596
 4902SOL    HW115605   3.539   5.273   0.648
 4902SOL    HW215606   3.668   5.332   0.567
 4903SOL     OW15607   5.882   4.527   6.523
 4903SOL    HW115608   5.956   4.464   6.547
 4903SOL    HW215609   5.842   4.499   6.436
 4904SOL     OW15610   3.268   0.932   3.939
 4904SOL    HW115611   3.172   0.907   3.935
 4904SOL    HW215612   3.303   0.916   4.032
 4905SOL     OW15613   6.076   3.706   3.227
 4905SOL    HW115614   6.066   3.684   3.130
 4905SOL    HW215615   6.075   3.805   3.238
 4906SOL     OW15616   4.693   0.100   1.787
 4906SOL    HW115617   4.677   0.068   1.694
 4906SOL    HW215618   4.734   0.027   1.842
 4907SOL     OW15619   2.786   2.720   1.315
 4907SOL    HW115620   2.719   2.783   1.355
 4907SOL    HW215621   2.878   2.745   1.347
 4908SOL     OW15622   5.306   4.537   6.094
 4908SOL    HW115623   5.381   4.585   6.050
 4908SOL    HW215624   5.284   4.454   6.043
 4909SOL     OW15625   6.183   6.813   5.622
 4909SOL    HW115626   6.231   6.802   5.535
 4909SOL    HW215627   6.242   6.783   5.697
 4910SOL     OW15628   5.595   6.822   5.522
 4910SOL    HW115629   5.519   6.766   5.486
 4910SOL    HW215630   5.612   6.898   5.460
 4911SOL     OW15631   0.268   4.099   6.722
 4911SOL    HW115632   0.171   4.099   6.747
 4911SOL    HW215633   0.277   4.075   6.626
 4912SOL     OW15634   2.004   3.036   1.866
 4912SOL    HW115635   2.036   3.128   1.889
 4912SOL    HW215636   2.041   2.971   1.932
 4913SOL     OW15637   2.856   3.359   1.939
 4913SOL    HW115638   2.767   3.385   1.977
 4913SOL    HW215639   2.843   3.313   1.851
 4914SOL     OW15640   1.172   0.126   2.861
 4914SOL    HW115641   1.198   0.062   2.789
 4914SOL    HW215642   1.083   0.099   2.899
 4915SOL     OW15643   3.990   6.580   4.038
 4915SOL    HW115644   3.903   6.531   4.030
 4915SOL    HW215645   4.027   6.599   3.947
 4916SOL     OW15646   1.244   1.652   1.998
 4916SOL    HW115647   1.236   1.699   2.086
 4916SOL    HW215648   1.330   1.601   1.995
 4917SOL     OW15649   0.921   5.276   6.289
 4917SOL    HW115650   0.946   5.309   6.380
 4917SOL    HW215651   0.880   5.351   6.237
 4918SOL     OW15652   2.268   6.700   4.327
 4918SOL    HW115653   2.334   6.654   4.268
 4918SOL    HW215654   2.284   6.799   4.324
 4919SOL     OW15655   2.240   3.055   1.095
 4919SOL    HW115656   2.171   3.102   1.039
 4919SOL    HW215657   2.196   3.013   1.174
 4920SOL     OW15658   3.215   1.741   6.583
 4920SOL    HW115659   3.162   1.792   6.515
 4920SOL    HW215660   3.288   1.799   6.618
 4921SOL     OW15661   6.588   4.686   2.280
 4921SOL    HW115662   6.672   4.648   2.319
 4921SOL    HW215663   6.589   4.673   2.181
 4922SOL     OW15664   1.090   3.456   6.038
 4922SOL    HW115665   1.104   3.522   6.111
 4922SOL    HW215666   1.147   3.376   6.054
 4923SOL     OW15667   3.297   2.278   6.950
 4923SOL    HW115668   3.359   2.328   6.889
 4923SOL    HW215669   3.351   2.216   7.008
 4924SOL     OW15670   0.127   2.918   4.351
 4924SOL    HW115671   0.204   2.938   4.291
 4924SOL    HW215672   0.106   2.999   4.406
 4925SOL     OW15673   4.698   5.254   5.080
 4925SOL    HW115674   4.688   5.353   5.068
 4925SOL    HW215675   4.760   5.235   5.156
 4926SOL     OW15676   4.358   3.410   0.477
 4926SOL    HW115677   4.424   3.476   0.441
 4926SOL    HW215678   4.266   3.450   0.475
 4927SOL     OW15679   3.036   3.545   1.813
 4927SOL    HW115680   3.057   3.605   1.891
 4927SOL    HW215681   2.992   3.462   1.846
 4928SOL     OW15682   6.936   1.545   6.203
 4928SOL    HW115683   6.858   1.574   6.258
 4928SOL    HW215684   6.906   1.528   6.109
 4929SOL     OW15685   1.187   4.290   4.491
 4929SOL    HW115686   1.271   4.287   4.546
 4929SOL    HW215687   1.112   4.249   4.542
 4930SOL     OW15688   0.135   3.556   0.034
 4930SOL    HW115689   0.108   3.544   6.955
 4930SOL    HW215690   0.234   3.543   0.042
 4931SOL     OW15691   5.350   6.555   0.934
 4931SOL    HW115692   5.432   6.497   0.941
 4931SOL    HW215693   5.339   6.607   1.018
 4932SOL     OW15694   3.401   1.699   0.669
 4932SOL    HW115695   3.343   1.753   0.730
 4932SOL    HW215696   3.495   1.732   0.674
 4933SOL     OW15697   2.353   6.970   4.985
 4933SOL    HW115698   2.444   7.009   4.976
 4933SOL    HW215699   2.297   0.013   5.043
 4934SOL     OW15700   2.124   6.210   5.575
 4934SOL    HW115701   2.108   6.151   5.497
 4934SOL    HW215702   2.189   6.282   5.551
 4935SOL     OW15703   1.937   2.416   0.630
 4935SOL    HW115704   2.035   2.427   0.647
 4935SOL    HW215705   1.889   2.498   0.660
 4936SOL     OW15706   6.931   4.496   0.879
 4936SOL    HW115707   6.881   4.422   0.833
 4936SOL    HW215708   6.898   4.504   0.973
 4937SOL     OW15709   0.299   3.984   5.355
 4937SOL    HW115710   0.374   4.001   5.418
 4937SOL    HW215711   0.317   3.901   5.303
 4938SOL     OW15712   3.638   4.380   0.686
 4938SOL    HW115713   3.659   4.365   0.590
 4938SOL    HW215714   3.538   4.379   0.699
 4939SOL     OW15715   0.812   1.768   1.193
 4939SOL    HW115716   0.911   1.756   1.188
 4939SOL    HW215717   0.791   1.834   1.264
 4940SOL     OW15718   1.880   1.454   4.899
 4940SOL    HW115719   1.898   1.530   4.836
 4940SOL    HW215720   1.965   1.429   4.946
 4941SOL     OW15721   3.415   1.991   6.169
 4941SOL    HW115722   3.423   2.088   6.187
 4941SOL    HW215723   3.338   1.953   6.221
 4942SOL     OW15724   0.106   1.247   2.539
 4942SOL    HW115725   0.161   1.174   2.499
 4942SOL    HW215726   0.162   1.300   2.603
 4943SOL     OW15727   4.712   2.506   6.850
 4943SOL    HW115728   4.643   2.479   6.917
 4943SOL    HW215729   4.770   2.577   6.890
 4944SOL     OW15730   0.704   5.006   0.643
 4944SOL    HW115731   0.718   4.933   0.710
 4944SOL    HW215732   0.612   5.043   0.654
 4945SOL     OW15733   2.374   0.401   6.450
 4945SOL    HW115734   2.371   0.406   6.550
 4945SOL    HW215735   2.431   0.475   6.415
 4946SOL     OW15736   2.674   6.018   0.095
 4946SOL    HW115737   2.580   6.039   0.125
 4946SOL    HW215738   2.680   6.028   7.013
 4947SOL     OW15739   1.230   0.279   1.257
 4947SOL    HW115740   1.189   0.234   1.337
 4947SOL    HW215741   1.273   0.365   1.286
 4948SOL     OW15742   1.469   3.337   2.163
 4948SOL    HW115743   1.442   3.341   2.067
 4948SOL    HW215744   1.520   3.253   2.180
 4949SOL     OW15745   6.409   5.084   6.928
 4949SOL    HW115746   6.352   5.055   7.005
 4949SOL    HW215747   6.371   5.168   6.889
 4950SOL     OW15748   4.044   3.912   5.692
 4950SOL    HW115749   3.996   3.830   5.661
 4950SOL    HW215750   4.132   3.886   5.732
 4951SOL     OW15751   4.755   5.129   3.764
 4951SOL    HW115752   4.715   5.082   3.843
 4951SOL    HW215753   4.729   5.081   3.680
 4952SOL     OW15754   0.944   0.859   6.946
 4952SOL    HW115755   1.039   0.829   6.941
 4952SOL    HW215756   0.891   0.813   6.875
 4953SOL     OW15757   1.262   1.158   5.977
 4953SOL    HW115758   1.181   1.215   5.988
 4953SOL    HW215759   1.311   1.186   5.895
 4954SOL     OW15760   3.555   3.901   5.816
 4954SOL    HW115761   3.465   3.887   5.857
 4954SOL    HW215762   3.580   3.819   5.764
 4955SOL     OW15763   3.483   6.070   0.160
 4955SOL    HW115764   3.510   5.997   0.223
 4955SOL    HW215765   3.393   6.049   0.122
 4956SOL     OW15766   2.259   0.283   3.966
 4956SOL    HW115767   2.350   0.276   4.005
 4956SOL    HW215768   2.203   0.205   3.997
 4957SOL     OW15769   5.868   5.545   0.090
 4957SOL    HW115770   5.784   5.494   0.069
 4957SOL    HW215771   5.938   5.523   0.022
 4958SOL     OW15772   3.366   5.241   0.189
 4958SOL    HW115773   3.386   5.146   0.213
 4958SOL    HW215774   3.271   5.262   0.211
 4959SOL     OW15775   1.716   1.772   3.233
 4959SOL    HW115776   1.713   1.709   3.155
 4959SOL    HW215777   1.744   1.863   3.201
 4960SOL     OW15778   5.044   3.761   4.558
 4960SOL    HW115779   5.000   3.679   4.595
 4960SOL    HW215780   5.112   3.795   4.623
 4961SOL     OW15781   3.714   2.843   2.276
 4961SOL    HW115782   3.779   2.787   2.223
 4961SOL    HW215783   3.670   2.909   2.216
 4962SOL     OW15784   1.993   2.162   0.491
 4962SOL    HW115785   1.990   2.254   0.532
 4962SOL    HW215786   1.912   2.148   0.435
 4963SOL     OW15787   0.609   3.728   6.907
 4963SOL    HW115788   0.627   3.682   6.820
 4963SOL    HW215789   0.564   3.816   6.889
 4964SOL     OW15790   1.143   5.431   3.723
 4964SOL    HW115791   1.151   5.410   3.625
 4964SOL    HW215792   1.049   5.458   3.743
 4965SOL     OW15793   2.435   0.697   2.801
 4965SOL    HW115794   2.509   0.670   2.738
 4965SOL    HW215795   2.354   0.641   2.781
 4966SOL     OW15796   4.295   0.003   5.599
 4966SOL    HW115797   4.394   0.003   5.617
 4966SOL    HW215798   4.278   7.002   5.502
 4967SOL     OW15799   4.645   4.417   3.171
 4967SOL    HW115800   4.579   4.489   3.149
 4967SOL    HW215801   4.620   4.376   3.259
 4968SOL     OW15802   6.572   3.039   3.237
 4968SOL    HW115803   6.596   2.951   3.196
 4968SOL    HW215804   6.488   3.073   3.195
 4969SOL     OW15805   1.080   5.815   4.435
 4969SOL    HW115806   1.086   5.850   4.528
 4969SOL    HW215807   1.028   5.729   4.435
 4970SOL     OW15808   2.414   1.077   1.205
 4970SOL    HW115809   2.485   1.014   1.236
 4970SOL    HW215810   2.438   1.170   1.232
 4971SOL     OW15811   0.201   6.250   2.260
 4971SOL    HW115812   0.272   6.179   2.265
 4971SOL    HW215813   0.231   6.331   2.311
 4972SOL     OW15814   0.389   3.497   0.331
 4972SOL    HW115815   0.361   3.468   0.422
 4972SOL    HW215816   0.330   3.455   0.263
 4973SOL     OW15817   5.410   2.401   0.255
 4973SOL    HW115818   5.312   2.402   0.237
 4973SOL    HW215819   5.455   2.469   0.197
 4974SOL     OW15820   3.136   0.363   5.349
 4974SOL    HW115821   3.043   0.383   5.380
 4974SOL    HW215822   3.142   0.379   5.250
 4975SOL     OW15823   5.674   4.260   1.060
 4975SOL    HW115824   5.739   4.305   0.999
 4975SOL    HW215825   5.610   4.205   1.006
 4976SOL     OW15826   0.872   0.359   3.865
 4976SOL    HW115827   0.830   0.396   3.782
 4976SOL    HW215828   0.808   0.367   3.941
 4977SOL     OW15829   1.058   3.365   4.901
 4977SOL    HW115830   1.001   3.369   4.983
 4977SOL    HW215831   1.153   3.348   4.928
 4978SOL     OW15832   6.180   5.680   4.543
 4978SOL    HW115833   6.089   5.699   4.506
 4978SOL    HW215834   6.202   5.583   4.530
 4979SOL     OW15835   3.809   6.352   6.347
 4979SOL    HW115836   3.839   6.268   6.392
 4979SOL    HW215837   3.871   6.426   6.372
 4980SOL     OW15838   5.606   2.973   3.631
 4980SOL    HW115839   5.613   3.070   3.654
 4980SOL    HW215840   5.652   2.919   3.702
 4981SOL     OW15841   3.291   6.583   2.878
 4981SOL    HW115842   3.305   6.562   2.975
 4981SOL    HW215843   3.194   6.585   2.858
 4982SOL     OW15844   3.697   1.657   4.764
 4982SOL    HW115845   3.681   1.744   4.810
 4982SOL    HW215846   3.754   1.671   4.683
 4983SOL     OW15847   5.276   3.740   3.031
 4983SOL    HW115848   5.248   3.779   2.943
 4983SOL    HW215849   5.326   3.809   3.083
 4984SOL     OW15850   5.006   3.593   5.154
 4984SOL    HW115851   5.064   3.514   5.175
 4984SOL    HW215852   4.914   3.562   5.131
 4985SOL     OW15853   4.988   0.075   2.544
 4985SOL    HW115854   5.005   0.013   2.468
 4985SOL    HW215855   5.029   0.164   2.524
 4986SOL     OW15856   1.606   5.459   1.019
 4986SOL    HW115857   1.580   5.362   1.030
 4986SOL    HW215858   1.575   5.510   1.099
 4987SOL     OW15859   2.140   4.041   1.646
 4987SOL    HW115860   2.060   4.016   1.700
 4987SOL    HW215861   2.156   4.140   1.654
 4988SOL     OW15862   6.283   5.522   4.117
 4988SOL    HW115863   6.363   5.566   4.075
 4988SOL    HW215864   6.314   5.456   4.186
 4989SOL     OW15865   6.854   0.140   4.183
 4989SOL    HW115866   6.901   0.076   4.244
 4989SOL    HW215867   6.922   0.201   4.141
 4990SOL     OW15868   5.090   1.929   5.729
 4990SOL    HW115869   5.086   1.886   5.639
 4990SOL    HW215870   5.023   2.003   5.733
 4991SOL     OW15871   2.361   5.631   5.183
 4991SOL    HW115872   2.391   5.673   5.097
 4991SOL    HW215873   2.328   5.538   5.165
 4992SOL     OW15874   2.610   2.714   5.576
 4992SOL    HW115875   2.668   2.665   5.511
 4992SOL    HW215876   2.530   2.658   5.599
 4993SOL     OW15877   2.307   5.233   3.413
 4993SOL    HW115878   2.243   5.244   3.337
 4993SOL    HW215879   2.263   5.183   3.487
 4994SOL     OW15880   2.806   4.958   5.255
 4994SOL    HW115881   2.855   4.878   5.290
 4994SOL    HW215882   2.836   5.040   5.305
 4995SOL     OW15883   0.480   2.053   5.876
 4995SOL    HW115884   0.475   2.137   5.929
 4995SOL    HW215885   0.418   2.059   5.798
 4996SOL     OW15886   0.026   0.796   4.772
 4996SOL    HW115887   0.008   0.832   4.680
 4996SOL    HW215888   0.099   0.850   4.815
 4997SOL     OW15889   4.128   1.491   0.635
 4997SOL    HW115890   4.128   1.430   0.556
 4997SOL    HW215891   4.035   1.497   0.671
 4998SOL     OW15892   0.833   3.885   3.654
 4998SOL    HW115893   0.784   3.972   3.665
 4998SOL    HW215894   0.835   3.861   3.557
 4999SOL     OW15895   6.813   2.605   3.168
 4999SOL    HW115896   6.849   2.642   3.254
 4999SOL    HW215897   6.743   2.536   3.188
 5000SOL     OW15898   3.034   6.684   3.178
 5000SOL    HW115899   3.094   6.606   3.160
 5000SOL    HW215900   3.045   6.753   3.107
 5001SOL     OW15901   6.968   6.108   3.364
 5001SOL    HW115902   6.948   6.204   3.340
 5001SOL    HW215903   6.882   6.057   3.367
 5002SOL     OW15904   0.827   5.345   3.836
 5002SOL    HW115905   0.880   5.315   3.915
 5002SOL    HW215906   0.742   5.293   3.831
 5003SOL     OW15907   3.879   1.503   0.756
 5003SOL    HW115908   3.803   1.438   0.758
 5003SOL    HW215909   3.854   1.581   0.699
 5004SOL     OW15910   4.260   6.260   0.237
 5004SOL    HW115911   4.214   6.174   0.259
 5004SOL    HW215912   4.359   6.249   0.250
 5005SOL     OW15913   4.257   3.086   1.031
 5005SOL    HW115914   4.235   3.034   1.113
 5005SOL    HW215915   4.354   3.079   1.011
 5006SOL     OW15916   4.651   0.956   2.747
 5006SOL    HW115917   4.747   0.981   2.750
 5006SOL    HW215918   4.622   0.922   2.837
 5007SOL     OW15919   6.436   5.138   2.650
 5007SOL    HW115920   6.462   5.051   2.608
 5007SOL    HW215921   6.407   5.202   2.579
 5008SOL     OW15922   4.750   6.911   3.679
 5008SOL    HW115923   4.664   6.862   3.689
 5008SOL    HW215924   4.743   6.978   3.606
 5009SOL     OW15925   0.731   1.629   6.479
 5009SOL    HW115926   0.762   1.702   6.418
 5009SOL    HW215927   0.653   1.582   6.439
 5010SOL     OW15928   4.924   4.423   0.964
 5010SOL    HW115929   4.909   4.387   1.056
 5010SOL    HW215930   4.900   4.354   0.896
 5011SOL     OW15931   1.612   2.221   5.874
 5011SOL    HW115932   1.559   2.148   5.917
 5011SOL    HW215933   1.710   2.207   5.891
 5012SOL     OW15934   5.941   2.873   5.571
 5012SOL    HW115935   5.938   2.966   5.607
 5012SOL    HW215936   6.024   2.827   5.603
 5013SOL     OW15937   5.642   6.054   5.160
 5013SOL    HW115938   5.546   6.064   5.135
 5013SOL    HW215939   5.652   6.065   5.259
 5014SOL     OW15940   6.372   3.639   0.982
 5014SOL    HW115941   6.429   3.651   0.900
 5014SOL    HW215942   6.362   3.542   1.001
 5015SOL     OW15943   6.230   4.961   4.110
 5015SOL    HW115944   6.144   5.011   4.118
 5015SOL    HW215945   6.289   5.006   4.044
 5016SOL     OW15946   1.022   1.713   6.292
 5016SOL    HW115947   1.084   1.758   6.228
 5016SOL    HW215948   1.054   1.620   6.311
 5017SOL     OW15949   1.395   2.982   1.932
 5017SOL    HW115950   1.450   2.925   1.870
 5017SOL    HW215951   1.302   2.946   1.935
 5018SOL     OW15952   0.610   0.440   0.164
 5018SOL    HW115953   0.540   0.503   0.197
 5018SOL    HW215954   0.695   0.456   0.214
 5019SOL     OW15955   2.000   4.241   3.974
 5019SOL    HW115956   1.913   4.290   3.984
 5019SOL    HW215957   1.993   4.176   3.898
 5020SOL     OW15958   1.951   0.080   3.363
 5020SOL    HW115959   1.998   0.050   3.446
 5020SOL    HW215960   1.860   0.114   3.386
 5021SOL     OW15961   2.817   0.386   1.687
 5021SOL    HW115962   2.865   0.462   1.731
 5021SOL    HW215963   2.844   0.380   1.591
 5022SOL     OW15964   0.165   3.464   1.313
 5022SOL    HW115965   0.178   3.366   1.323
 5022SOL    HW215966   0.226   3.499   1.242
 5023SOL     OW15967   0.950   2.472   2.735
 5023SOL    HW115968   1.015   2.400   2.761
 5023SOL    HW215969   0.868   2.464   2.792
 5024SOL     OW15970   4.353   4.331   6.807
 5024SOL    HW115971   4.298   4.310   6.888
 5024SOL    HW215972   4.445   4.358   6.835
 5025SOL     OW15973   5.265   2.259   4.933
 5025SOL    HW115974   5.253   2.321   4.855
 5025SOL    HW215975   5.176   2.229   4.966
 5026SOL     OW15976   4.888   5.609   4.754
 5026SOL    HW115977   4.791   5.630   4.744
 5026SOL    HW215978   4.899   5.527   4.811
 5027SOL     OW15979   5.290   6.211   0.953
 5027SOL    HW115980   5.369   6.273   0.960
 5027SOL    HW215981   5.292   6.166   0.865
 5028SOL     OW15982   6.543   1.827   2.098
 5028SOL    HW115983   6.634   1.850   2.064
 5028SOL    HW215984   6.546   1.818   2.198
 5029SOL     OW15985   5.603   2.537   2.997
 5029SOL    HW115986   5.529   2.574   2.941
 5029SOL    HW215987   5.679   2.509   2.937
 5030SOL     OW15988   0.621   3.094   0.869
 5030SOL    HW115989   0.580   3.147   0.944
 5030SOL    HW215990   0.695   3.147   0.828
 5031SOL     OW15991   6.497   0.090   5.925
 5031SOL    HW115992   6.584   0.123   5.891
 5031SOL    HW215993   6.464   0.150   5.998
 5032SOL     OW15994   2.445   4.505   6.235
 5032SOL    HW115995   2.395   4.424   6.264
 5032SOL    HW215996   2.515   4.479   6.168
 5033SOL     OW15997   1.737   6.883   4.339
 5033SOL    HW115998   1.767   6.830   4.260
 5033SOL    HW215999   1.747   6.981   4.319
 5034SOL     OW16000   4.321   5.748   3.725
 5034SOL    HW116001   4.391   5.683   3.756
 5034SOL    HW216002   4.232   5.704   3.727
 5035SOL     OW16003   1.524   3.577   3.675
 5035SOL    HW116004   1.457   3.641   3.639
 5035SOL    HW216005   1.596   3.627   3.722
 5036SOL     OW16006   1.467   3.199   4.730
 5036SOL    HW116007   1.554   3.190   4.778
 5036SOL    HW216008   1.405   3.126   4.759
 5037SOL     OW16009   5.445   4.492   1.180
 5037SOL    HW116010   5.348   4.507   1.201
 5037SOL    HW216011   5.464   4.523   1.087
 5038SOL     OW16012   3.011   3.725   4.611
 5038SOL    HW116013   3.110   3.721   4.605
 5038SOL    HW216014   2.976   3.637   4.645
 5039SOL     OW16015   0.657   3.119   6.572
 5039SOL    HW116016   0.673   3.025   6.603
 5039SOL    HW216017   0.564   3.146   6.597
 5040SOL     OW16018   0.608   2.099   5.192
 5040SOL    HW116019   0.589   2.071   5.286
 5040SOL    HW216020   0.525   2.134   5.150
 5041SOL     OW16021   6.643   2.784   1.028
 5041SOL    HW116022   6.652   2.882   1.011
 5041SOL    HW216023   6.656   2.766   1.126
 5042SOL     OW16024   0.767   1.681   5.561
 5042SOL    HW116025   0.791   1.586   5.581
 5042SOL    HW216026   0.808   1.707   5.474
 5043SOL     OW16027   3.169   6.760   1.972
 5043SOL    HW116028   3.156   6.721   2.063
 5043SOL    HW216029   3.080   6.772   1.928
 5044SOL     OW16030   0.581   6.033   0.913
 5044SOL    HW116031   0.494   5.988   0.933
 5044SOL    HW216032   0.588   6.048   0.814
 5045SOL     OW16033   5.921   2.947   1.683
 5045SOL    HW116034   5.980   3.028   1.679
 5045SOL    HW216035   5.972   2.867   1.651
 5046SOL     OW16036   4.098   3.198   2.111
 5046SOL    HW116037   4.136   3.284   2.077
 5046SOL    HW216038   4.172   3.141   2.147
 5047SOL     OW16039   1.917   4.003   3.794
 5047SOL    HW116040   1.830   4.007   3.842
 5047SOL    HW216041   1.974   3.931   3.833
 5048SOL     OW16042   1.877   0.107   5.728
 5048SOL    HW116043   1.961   0.105   5.674
 5048SOL    HW216044   1.884   0.042   5.803
 5049SOL     OW16045   3.692   1.660   6.867
 5049SOL    HW116046   3.765   1.592   6.870
 5049SOL    HW216047   3.604   1.614   6.851
 5050SOL     OW16048   1.025   0.455   0.929
 5050SOL    HW116049   1.093   0.496   0.989
 5050SOL    HW216050   1.061   0.450   0.836
 5051SOL     OW16051   4.324   4.285   1.057
 5051SOL    HW116052   4.255   4.242   1.115
 5051SOL    HW216053   4.287   4.296   0.964
 5052SOL     OW16054   1.796   3.501   4.354
 5052SOL    HW116055   1.826   3.546   4.270
 5052SOL    HW216056   1.778   3.404   4.336
 5053SOL     OW16057   6.424   0.672   0.872
 5053SOL    HW116058   6.448   0.575   0.880
 5053SOL    HW216059   6.394   0.707   0.960
 5054SOL     OW16060   4.075   5.286   3.160
 5054SOL    HW116061   3.997   5.319   3.213
 5054SOL    HW216062   4.160   5.324   3.198
 5055SOL     OW16063   0.119   4.347   5.370
 5055SOL    HW116064   0.088   4.438   5.343
 5055SOL    HW216065   0.045   4.281   5.355
 5056SOL     OW16066   6.657   4.601   3.106
 5056SOL    HW116067   6.692   4.553   3.025
 5056SOL    HW216068   6.558   4.591   3.111
 5057SOL     OW16069   6.955   6.147   2.486
 5057SOL    HW116070   6.903   6.087   2.424
 5057SOL    HW216071   6.960   6.239   2.446
 5058SOL     OW16072   2.729   5.332   5.456
 5058SOL    HW116073   2.743   5.421   5.499
 5058SOL    HW216074   2.650   5.336   5.395
 5059SOL     OW16075   6.949   0.183   1.996
 5059SOL    HW116076   6.850   0.174   2.008
 5059SOL    HW216077   6.996   0.159   2.081
 5060SOL     OW16078   0.110   2.823   6.560
 5060SOL    HW116079   0.209   2.839   6.557
 5060SOL    HW216080   0.067   2.861   6.479
 5061SOL     OW16081   5.947   3.319   0.775
 5061SOL    HW116082   5.951   3.249   0.703
 5061SOL    HW216083   5.851   3.339   0.796
 5062SOL     OW16084   6.307   6.975   6.901
 5062SOL    HW116085   6.263   0.047   6.890
 5062SOL    HW216086   6.261   6.923   6.973
 5063SOL     OW16087   0.982   6.529   2.790
 5063SOL    HW116088   0.952   6.437   2.765
 5063SOL    HW216089   0.902   6.587   2.807
 5064SOL     OW16090   5.528   4.047   0.106
 5064SOL    HW116091   5.579   4.008   0.030
 5064SOL    HW216092   5.456   4.107   0.071
 5065SOL     OW16093   2.660   6.870   6.145
 5065SOL    HW116094   2.696   6.938   6.209
 5065SOL    HW216095   2.607   6.801   6.195
 5066SOL     OW16096   5.103   4.855   0.551
 5066SOL    HW116097   5.201   4.863   0.533
 5066SOL    HW216098   5.085   4.764   0.590
 5067SOL     OW16099   5.663   0.915   6.507
 5067SOL    HW116100   5.615   1.003   6.502
 5067SOL    HW216101   5.667   0.874   6.416
 5068SOL     OW16102   3.314   4.998   1.168
 5068SOL    HW116103   3.331   4.961   1.259
 5068SOL    HW216104   3.375   5.075   1.152
 5069SOL     OW16105   6.939   5.424   3.318
 5069SOL    HW116106   7.002   5.500   3.303
 5069SOL    HW216107   6.846   5.453   3.294
 5070SOL     OW16108   5.136   2.395   3.790
 5070SOL    HW116109   5.152   2.460   3.716
 5070SOL    HW216110   5.040   2.398   3.817
 5071SOL     OW16111   5.398   0.769   1.369
 5071SOL    HW116112   5.482   0.821   1.381
 5071SOL    HW216113   5.398   0.726   1.279
 5072SOL     OW16114   0.543   4.163   2.147
 5072SOL    HW116115   0.513   4.179   2.053
 5072SOL    HW216116   0.642   4.169   2.152
 5073SOL     OW16117   4.062   2.233   3.246
 5073SOL    HW116118   4.049   2.247   3.148
 5073SOL    HW216119   4.015   2.149   3.274
 5074SOL     OW16120   4.076   4.273   5.333
 5074SOL    HW116121   4.124   4.224   5.405
 5074SOL    HW216122   4.142   4.305   5.265
 5075SOL     OW16123   6.689   0.383   4.498
 5075SOL    HW116124   6.722   0.475   4.477
 5075SOL    HW216125   6.636   0.349   4.420
 5076SOL     OW16126   5.524   0.402   1.061
 5076SOL    HW116127   5.438   0.358   1.036
 5076SOL    HW216128   5.576   0.422   0.978
 5077SOL     OW16129   6.661   1.603   2.541
 5077SOL    HW116130   6.646   1.566   2.449
 5077SOL    HW216131   6.720   1.540   2.592
 5078SOL     OW16132   0.430   1.674   4.683
 5078SOL    HW116133   0.428   1.703   4.779
 5078SOL    HW216134   0.396   1.581   4.675
 5079SOL     OW16135   4.611   5.080   4.654
 5079SOL    HW116136   4.671   5.137   4.710
 5079SOL    HW216137   4.665   5.035   4.582
 5080SOL     OW16138   5.550   0.364   6.019
 5080SOL    HW116139   5.623   0.380   5.952
 5080SOL    HW216140   5.576   0.288   6.078
 5081SOL     OW16141   3.154   3.639   3.207
 5081SOL    HW116142   3.090   3.582   3.155
 5081SOL    HW216143   3.122   3.734   3.205
 5082SOL     OW16144   0.876   2.078   5.205
 5082SOL    HW116145   0.778   2.091   5.195
 5082SOL    HW216146   0.918   2.066   5.114
 5083SOL     OW16147   0.904   3.890   2.199
 5083SOL    HW116148   0.996   3.897   2.236
 5083SOL    HW216149   0.838   3.924   2.266
 5084SOL     OW16150   1.229   5.795   2.252
 5084SOL    HW116151   1.326   5.814   2.239
 5084SOL    HW216152   1.176   5.846   2.184
 5085SOL     OW16153   6.370   3.860   0.504
 5085SOL    HW116154   6.426   3.936   0.535
 5085SOL    HW216155   6.411   3.774   0.535
 5086SOL     OW16156   6.209   5.680   4.825
 5086SOL    HW116157   6.294   5.649   4.868
 5086SOL    HW216158   6.219   5.672   4.725
 5087SOL     OW16159   5.201   5.140   5.659
 5087SOL    HW116160   5.145   5.059   5.644
 5087SOL    HW216161   5.235   5.140   5.753
 5088SOL     OW16162   6.292   0.923   6.531
 5088SOL    HW116163   6.225   0.998   6.529
 5088SOL    HW216164   6.276   0.866   6.612
 5089SOL     OW16165   5.378   2.893   3.754
 5089SOL    HW116166   5.344   2.960   3.820
 5089SOL    HW216167   5.467   2.923   3.719
 5090SOL     OW16168   1.172   4.843   0.129
 5090SOL    HW116169   1.104   4.773   0.149
 5090SOL    HW216170   1.264   4.804   0.135
 5091SOL     OW16171   0.746   5.910   3.759
 5091SOL    HW116172   0.737   5.916   3.858
 5091SOL    HW216173   0.805   5.984   3.726
 5092SOL     OW16174   3.136   3.073   0.896
 5092SOL    HW116175   3.054   3.023   0.922
 5092SOL    HW216176   3.217   3.017   0.916
 5093SOL     OW16177   0.456   1.087   2.520
 5093SOL    HW116178   0.407   1.087   2.607
 5093SOL    HW216179   0.398   1.128   2.449
 5094SOL     OW16180   0.476   6.990   6.812
 5094SOL    HW116181   0.536   0.053   6.819
 5094SOL    HW216182   0.472   6.960   6.716
 5095SOL     OW16183   3.286   6.901   5.286
 5095SOL    HW116184   3.191   6.881   5.261
 5095SOL    HW216185   3.309   6.994   5.256
 5096SOL     OW16186   3.578   6.411   2.409
 5096SOL    HW116187   3.478   6.412   2.421
 5096SOL    HW216188   3.600   6.387   2.314
 5097SOL     OW16189   1.033   2.259   6.971
 5097SOL    HW116190   1.092   2.337   6.991
 5097SOL    HW216191   1.073   2.176   7.010
 5098SOL     OW16192   1.184   2.372   2.924
 5098SOL    HW116193   1.177   2.343   3.020
 5098SOL    HW216194   1.205   2.469   2.920
 5099SOL     OW16195   0.486   1.319   4.055
 5099SOL    HW116196   0.559   1.276   4.003
 5099SOL    HW216197   0.398   1.279   4.028
 5100SOL     OW16198   4.994   4.734   5.436
 5100SOL    HW116199   5.005   4.783   5.349
 5100SOL    HW216200   5.070   4.671   5.448
 5101SOL     OW16201   5.408   6.160   0.476
 5101SOL    HW116202   5.335   6.214   0.434
 5101SOL    HW216203   5.414   6.071   0.431
 5102SOL     OW16204   3.545   6.195   3.844
 5102SOL    HW116205   3.494   6.115   3.812
 5102SOL    HW216206   3.481   6.261   3.884
 5103SOL     OW16207   1.227   2.434   3.467
 5103SOL    HW116208   1.195   2.406   3.557
 5103SOL    HW216209   1.324   2.414   3.458
 5104SOL     OW16210   0.644   0.477   0.482
 5104SOL    HW116211   0.727   0.507   0.435
 5104SOL    HW216212   0.637   0.377   0.476
 5105SOL     OW16213   1.493   3.043   0.180
 5105SOL    HW116214   1.501   3.110   0.106
 5105SOL    HW216215   1.583   3.003   0.198
 5106SOL     OW16216   2.180   6.981   2.168
 5106SOL    HW116217   2.107   0.031   2.182
 5106SOL    HW216218   2.213   6.988   2.073
 5107SOL     OW16219   1.660   0.189   6.189
 5107SOL    HW116220   1.757   0.207   6.178
 5107SOL    HW216221   1.620   0.254   6.253
 5108SOL     OW16222   3.615   3.637   4.550
 5108SOL    HW116223   3.660   3.629   4.461
 5108SOL    HW216224   3.564   3.553   4.569
 5109SOL     OW16225   0.337   2.208   2.281
 5109SOL    HW116226   0.335   2.200   2.381
 5109SOL    HW216227   0.424   2.173   2.246
 5110SOL     OW16228   1.976   5.475   5.627
 5110SOL    HW116229   2.050   5.433   5.575
 5110SOL    HW216230   1.894   5.481   5.570
 5111SOL     OW16231   1.226   0.371   6.406
 5111SOL    HW116232   1.206   0.342   6.500
 5111SOL    HW216233   1.189   0.463   6.391
 5112SOL     OW16234   0.327   0.010   3.354
 5112SOL    HW116235   0.404   6.970   3.328
 5112SOL    HW216236   0.242   6.986   3.319
 5113SOL     OW16237   0.862   1.138   6.855
 5113SOL    HW116238   0.798   1.094   6.791
 5113SOL    HW216239   0.932   1.072   6.882
 5114SOL     OW16240   5.021   5.173   6.463
 5114SOL    HW116241   5.107   5.195   6.508
 5114SOL    HW216242   5.012   5.228   6.380
 5115SOL     OW16243   2.756   3.860   5.173
 5115SOL    HW116244   2.768   3.786   5.239
 5115SOL    HW216245   2.666   3.901   5.184
 5116SOL     OW16246   6.845   3.724   1.199
 5116SOL    HW116247   6.831   3.770   1.287
 5116SOL    HW216248   6.826   3.626   1.210
 5117SOL     OW16249   2.428   5.300   2.845
 5117SOL    HW116250   2.410   5.260   2.935
 5117SOL    HW216251   2.382   5.246   2.775
 5118SOL     OW16252   3.836   0.102   0.959
 5118SOL    HW116253   3.908   0.124   1.025
 5118SOL    HW216254   3.793   0.016   0.983
 5119SOL     OW16255   5.949   0.645   2.670
 5119SOL    HW116256   5.879   0.583   2.633
 5119SOL    HW216257   5.984   0.607   2.755
 5120SOL     OW16258   3.664   1.330   0.766
 5120SOL    HW116259   3.683   1.236   0.735
 5120SOL    HW216260   3.620   1.327   0.855
 5121SOL     OW16261   0.667   4.151   4.488
 5121SOL    HW116262   0.637   4.127   4.581
 5121SOL    HW216263   0.666   4.069   4.431
 5122SOL     OW16264   2.441   5.558   2.789
 5122SOL    HW116265   2.540   5.569   2.783
 5122SOL    HW216266   2.418   5.461   2.794
 5123SOL     OW16267   6.336   2.877   2.391
 5123SOL    HW116268   6.267   2.821   2.346
 5123SOL    HW216269   6.320   2.877   2.490
 5124SOL     OW16270   3.558   6.700   0.291
 5124SOL    HW116271   3.507   6.614   0.285
 5124SOL    HW216272   3.653   6.681   0.313
 5125SOL     OW16273   0.473   2.022   6.252
 5125SOL    HW116274   0.393   2.075   6.223
 5125SOL    HW216275   0.548   2.084   6.275
 5126SOL     OW16276   4.856   1.655   0.521
 5126SOL    HW116277   4.885   1.643   0.616
 5126SOL    HW216278   4.878   1.574   0.468
 5127SOL     OW16279   5.044   3.619   6.091
 5127SOL    HW116280   5.092   3.532   6.093
 5127SOL    HW216281   4.949   3.603   6.062
 5128SOL     OW16282   0.043   0.437   0.001
 5128SOL    HW116283   7.011   0.350   7.013
 5128SOL    HW216284   0.142   0.420   7.013
 5129SOL     OW16285   4.608   2.687   3.854
 5129SOL    HW116286   4.551   2.618   3.898
 5129SOL    HW216287   4.597   2.775   3.900
 5130SOL     OW16288   2.097   6.845   4.883
 5130SOL    HW116289   2.043   6.929   4.888
 5130SOL    HW216290   2.190   6.863   4.916
 5131SOL     OW16291   2.959   4.845   2.976
 5131SOL    HW116292   2.985   4.867   3.070
 5131SOL    HW216293   2.862   4.823   2.972
 5132SOL     OW16294   3.178   1.851   6.326
 5132SOL    HW116295   3.173   1.938   6.276
 5132SOL    HW216296   3.089   1.806   6.323
 5133SOL     OW16297   4.078   4.434   6.420
 5133SOL    HW116298   4.061   4.500   6.347
 5133SOL    HW216299   4.034   4.347   6.396
 5134SOL     OW16300   6.031   5.759   0.899
 5134SOL    HW116301   6.043   5.761   0.998
 5134SOL    HW216302   5.944   5.716   0.877
 5135SOL     OW16303   0.974   2.817   2.100
 5135SOL    HW116304   0.955   2.835   2.197
 5135SOL    HW216305   0.890   2.785   2.056
 5136SOL     OW16306   6.842   0.166   4.648
 5136SOL    HW116307   6.790   0.080   4.644
 5136SOL    HW216308   6.807   0.230   4.580
 5137SOL     OW16309   5.191   0.775   3.316
 5137SOL    HW116310   5.214   0.870   3.294
 5137SOL    HW216311   5.115   0.745   3.258
 5138SOL     OW16312   3.305   3.721   2.698
 5138SOL    HW116313   3.208   3.722   2.677
 5138SOL    HW216314   3.322   3.658   2.773
 5139SOL     OW16315   4.988   0.925   5.081
 5139SOL    HW116316   5.073   0.974   5.062
 5139SOL    HW216317   4.921   0.945   5.009
 5140SOL     OW16318   2.738   3.665   5.824
 5140SOL    HW116319   2.823   3.718   5.831
 5140SOL    HW216320   2.670   3.719   5.775
 5141SOL     OW16321   0.972   2.997   1.444
 5141SOL    HW116322   1.008   2.911   1.407
 5141SOL    HW216323   0.949   3.058   1.368
 5142SOL     OW16324   6.916   6.711   2.843
 5142SOL    HW116325   6.914   6.716   2.943
 5142SOL    HW216326   6.973   6.785   2.807
 5143SOL     OW16327   6.391   6.141   2.615
 5143SOL    HW116328   6.439   6.085   2.547
 5143SOL    HW216329   6.317   6.191   2.571
 5144SOL     OW16330   1.533   3.010   4.953
 5144SOL    HW116331   1.534   3.092   5.010
 5144SOL    HW216332   1.622   2.998   4.909
 5145SOL     OW16333   1.180   4.967   5.913
 5145SOL    HW116334   1.108   4.923   5.859
 5145SOL    HW216335   1.139   5.038   5.970
 5146SOL     OW16336   5.242   5.931   6.709
 5146SOL    HW116337   5.339   5.958   6.707
 5146SOL    HW216338   5.211   5.924   6.804
 5147SOL     OW16339   4.487   1.449   2.747
 5147SOL    HW116340   4.440   1.369   2.708
 5147SOL    HW216341   4.481   1.445   2.847
 5148SOL     OW16342   6.076   1.374   0.458
 5148SOL    HW116343   6.025   1.447   0.503
 5148SOL    HW216344   6.174   1.388   0.473
 5149SOL     OW16345   3.011   6.595   3.639
 5149SOL    HW116346   2.931   6.654   3.657
 5149SOL    HW216347   2.985   6.525   3.573
 5150SOL     OW16348   6.794   0.725   4.242
 5150SOL    HW116349   6.712   0.776   4.269
 5150SOL    HW216350   6.782   0.689   4.150
 5151SOL     OW16351   5.265   4.513   2.105
 5151SOL    HW116352   5.172   4.479   2.089
 5151SOL    HW216353   5.299   4.477   2.192
 5152SOL     OW16354   2.191   1.293   0.398
 5152SOL    HW116355   2.141   1.353   0.461
 5152SOL    HW216356   2.149   1.297   0.308
 5153SOL     OW16357   2.169   2.136   0.270
 5153SOL    HW116358   2.114   2.138   0.353
 5153SOL    HW216359   2.264   2.157   0.293
 5154SOL     OW16360   0.821   2.997   6.809
 5154SOL    HW116361   0.906   3.040   6.781
 5154SOL    HW216362   0.749   3.066   6.819
 5155SOL     OW16363   1.422   0.784   0.309
 5155SOL    HW116364   1.341   0.733   0.279
 5155SOL    HW216365   1.496   0.720   0.328
 5156SOL     OW16366   5.105   4.141   5.918
 5156SOL    HW116367   5.114   4.095   6.006
 5156SOL    HW216368   5.176   4.108   5.855
 5157SOL     OW16369   3.731   1.196   1.781
 5157SOL    HW116370   3.694   1.219   1.871
 5157SOL    HW216371   3.689   1.255   1.712
 5158SOL     OW16372   2.010   3.097   2.805
 5158SOL    HW116373   1.982   3.139   2.719
 5158SOL    HW216374   2.100   3.054   2.793
 5159SOL     OW16375   6.718   2.978   5.925
 5159SOL    HW116376   6.777   2.915   5.875
 5159SOL    HW216377   6.643   2.927   5.967
 5160SOL     OW16378   6.555   0.356   2.900
 5160SOL    HW116379   6.497   0.281   2.934
 5160SOL    HW216380   6.506   0.442   2.908
 5161SOL     OW16381   1.026   1.819   6.555
 5161SOL    HW116382   1.024   1.740   6.493
 5161SOL    HW216383   1.121   1.848   6.569
 5162SOL     OW16384   0.339   6.935   5.841
 5162SOL    HW116385   0.287   6.865   5.890
 5162SOL    HW216386   0.275   6.995   5.793
 5163SOL     OW16387   3.170   0.747   1.385
 5163SOL    HW116388   3.134   0.717   1.297
 5163SOL    HW216389   3.103   0.805   1.431
 5164SOL     OW16390   2.763   2.984   0.201
 5164SOL    HW116391   2.720   3.054   0.258
 5164SOL    HW216392   2.848   2.953   0.245
 5165SOL     OW16393   0.910   5.123   5.541
 5165SOL    HW116394   0.961   5.190   5.595
 5165SOL    HW216395   0.973   5.058   5.499
 5166SOL     OW16396   6.730   6.248   5.462
 5166SOL    HW116397   6.812   6.216   5.414
 5166SOL    HW216398   6.653   6.190   5.438
 5167SOL     OW16399   6.651   3.598   6.170
 5167SOL    HW116400   6.634   3.696   6.158
 5167SOL    HW216401   6.749   3.580   6.165
 5168SOL     OW16402   5.115   1.571   3.379
 5168SOL    HW116403   5.173   1.541   3.455
 5168SOL    HW216404   5.157   1.544   3.293
 5169SOL     OW16405   5.236   5.942   4.611
 5169SOL    HW116406   5.235   5.860   4.554
 5169SOL    HW216407   5.237   6.023   4.552
 5170SOL     OW16408   2.453   3.606   6.170
 5170SOL    HW116409   2.551   3.618   6.154
 5170SOL    HW216410   2.423   3.521   6.125
 5171SOL     OW16411   1.886   6.561   5.718
 5171SOL    HW116412   1.815   6.557   5.789
 5171SOL    HW216413   1.846   6.535   5.630
 5172SOL     OW16414   4.813   5.252   5.629
 5172SOL    HW116415   4.861   5.192   5.693
 5172SOL    HW216416   4.762   5.196   5.563
 5173SOL     OW16417   4.253   6.208   3.927
 5173SOL    HW116418   4.273   6.291   3.980
 5173SOL    HW216419   4.336   6.154   3.916
 5174SOL     OW16420   0.429   6.011   3.262
 5174SOL    HW116421   0.439   5.972   3.353
 5174SOL    HW216422   0.518   6.008   3.215
 5175SOL     OW16423   2.951   1.701   6.325
 5175SOL    HW116424   2.900   1.771   6.276
 5175SOL    HW216425   2.917   1.610   6.299
 5176SOL     OW16426   5.599   6.262   6.436
 5176SOL    HW116427   5.695   6.288   6.427
 5176SOL    HW216428   5.564   6.292   6.525
 5177SOL     OW16429   5.330   5.567   1.099
 5177SOL    HW116430   5.288   5.600   1.015
 5177SOL    HW216431   5.400   5.499   1.077
 5178SOL     OW16432   0.983   4.034   0.785
 5178SOL    HW116433   0.994   3.935   0.791
 5178SOL    HW216434   0.888   4.056   0.761
 5179SOL     OW16435   4.083   5.260   2.799
 5179SOL    HW116436   4.074   5.192   2.727
 5179SOL    HW216437   3.996   5.270   2.847
 5180SOL     OW16438   2.951   5.229   2.069
 5180SOL    HW116439   2.907   5.199   1.985
 5180SOL    HW216440   3.050   5.237   2.055
 5181SOL     OW16441   6.405   1.388   5.585
 5181SOL    HW116442   6.505   1.380   5.579
 5181SOL    HW216443   6.379   1.484   5.572
 5182SOL     OW16444   2.148   6.082   2.406
 5182SOL    HW116445   2.144   5.982   2.409
 5182SOL    HW216446   2.243   6.112   2.408
 5183SOL     OW16447   5.546   1.636   3.826
 5183SOL    HW116448   5.616   1.673   3.765
 5183SOL    HW216449   5.544   1.690   3.911
 5184SOL     OW16450   3.170   1.468   1.827
 5184SOL    HW116451   3.094   1.408   1.851
 5184SOL    HW216452   3.137   1.562   1.820
 5185SOL     OW16453   6.288   0.448   1.374
 5185SOL    HW116454   6.287   0.453   1.274
 5185SOL    HW216455   6.366   0.393   1.404
 5186SOL     OW16456   5.589   2.325   6.394
 5186SOL    HW116457   5.551   2.242   6.351
 5186SOL    HW216458   5.673   2.302   6.442
 5187SOL     OW16459   1.348   4.725   5.068
 5187SOL    HW116460   1.331   4.645   5.009
 5187SOL    HW216461   1.294   4.717   5.152
 5188SOL     OW16462   0.315   0.380   2.030
 5188SOL    HW116463   0.399   0.344   2.071
 5188SOL    HW216464   0.312   0.479   2.043
 5189SOL     OW16465   5.355   6.166   6.327
 5189SOL    HW116466   5.437   6.187   6.379
 5189SOL    HW216467   5.323   6.074   6.350
 5190SOL     OW16468   1.392   5.292   0.616
 5190SOL    HW116469   1.343   5.288   0.704
 5190SOL    HW216470   1.353   5.225   0.553
 5191SOL     OW16471   3.031   4.113   1.421
 5191SOL    HW116472   2.994   4.191   1.471
 5191SOL    HW216473   3.039   4.137   1.324
 5192SOL     OW16474   0.666   4.293   2.749
 5192SOL    HW116475   0.755   4.276   2.708
 5192SOL    HW216476   0.619   4.206   2.765
 5193SOL     OW16477   3.735   0.200   4.404
 5193SOL    HW116478   3.704   0.295   4.392
 5193SOL    HW216479   3.752   0.183   4.501
 5194SOL     OW16480   4.296   1.338   5.456
 5194SOL    HW116481   4.247   1.376   5.378
 5194SOL    HW216482   4.268   1.244   5.472
 5195SOL     OW16483   1.482   1.228   5.095
 5195SOL    HW116484   1.407   1.278   5.139
 5195SOL    HW216485   1.446   1.145   5.053
 5196SOL     OW16486   5.801   6.117   2.983
 5196SOL    HW116487   5.757   6.148   2.899
 5196SOL    HW216488   5.732   6.091   3.049
 5197SOL     OW16489   2.166   3.832   5.708
 5197SOL    HW116490   2.135   3.888   5.631
 5197SOL    HW216491   2.112   3.748   5.711
 5198SOL     OW16492   6.361   5.818   4.198
 5198SOL    HW116493   6.314   5.882   4.136
 5198SOL    HW216494   6.416   5.755   4.144
 5199SOL     OW16495   0.883   5.718   1.649
 5199SOL    HW116496   0.820   5.779   1.600
 5199SOL    HW216497   0.857   5.623   1.633
 5200SOL     OW16498   6.790   3.818   5.039
 5200SOL    HW116499   6.711   3.769   5.076
 5200SOL    HW216500   6.872   3.761   5.048
 5201SOL     OW16501   0.782   5.811   4.337
 5201SOL    HW116502   0.860   5.749   4.334
 5201SOL    HW216503   0.768   5.843   4.431
 5202SOL     OW16504   0.309   4.909   1.543
 5202SOL    HW116505   0.334   4.871   1.453
 5202SOL    HW216506   0.209   4.917   1.548
 5203SOL     OW16507   6.600   3.185   6.719
 5203SOL    HW116508   6.540   3.116   6.680
 5203SOL    HW216509   6.696   3.158   6.703
 5204SOL     OW16510   5.623   5.115   6.183
 5204SOL    HW116511   5.566   5.197   6.183
 5204SOL    HW216512   5.705   5.132   6.128
 5205SOL     OW16513   2.375   5.980   0.456
 5205SOL    HW116514   2.380   5.890   0.499
 5205SOL    HW216515   2.431   6.045   0.507
 5206SOL     OW16516   0.358   4.104   4.962
 5206SOL    HW116517   0.306   4.162   5.024
 5206SOL    HW216518   0.436   4.065   5.011
 5207SOL     OW16519   1.455   6.165   2.590
 5207SOL    HW116520   1.378   6.137   2.648
 5207SOL    HW216521   1.437   6.256   2.553
 5208SOL     OW16522   4.566   1.985   0.316
 5208SOL    HW116523   4.511   1.909   0.282
 5208SOL    HW216524   4.517   2.033   0.389
 5209SOL     OW16525   6.337   5.426   3.267
 5209SOL    HW116526   6.260   5.406   3.206
 5209SOL    HW216527   6.390   5.502   3.230
 5210SOL     OW16528   5.123   3.546   3.459
 5210SOL    HW116529   5.098   3.548   3.362
 5210SOL    HW216530   5.201   3.606   3.475
 5211SOL     OW16531   3.118   4.080   1.846
 5211SOL    HW116532   3.101   4.083   1.945
 5211SOL    HW216533   3.079   4.162   1.803
 5212SOL     OW16534   0.812   6.965   6.594
 5212SOL    HW116535   0.819   0.003   6.677
 5212SOL    HW216536   0.754   7.012   6.527
 5213SOL     OW16537   4.812   1.701   6.442
 5213SOL    HW116538   4.862   1.721   6.527
 5213SOL    HW216539   4.793   1.786   6.394
 5214SOL     OW16540   4.731   2.177   0.131
 5214SOL    HW116541   4.729   2.095   0.188
 5214SOL    HW216542   4.645   2.186   0.081
 5215SOL     OW16543   5.903   5.395   4.200
 5215SOL    HW116544   5.831   5.346   4.151
 5215SOL    HW216545   5.917   5.485   4.158
 5216SOL     OW16546   3.789   5.679   1.125
 5216SOL    HW116547   3.817   5.716   1.214
 5216SOL    HW216548   3.833   5.731   1.052
 5217SOL     OW16549   3.139   5.458   3.836
 5217SOL    HW116550   3.050   5.504   3.833
 5217SOL    HW216551   3.134   5.381   3.900
 5218SOL     OW16552   1.121   0.707   3.305
 5218SOL    HW116553   1.153   0.801   3.309
 5218SOL    HW216554   1.046   0.694   3.370
 5219SOL     OW16555   3.132   0.019   0.974
 5219SOL    HW116556   3.156   0.026   0.877
 5219SOL    HW216557   3.058   0.083   0.995
 5220SOL     OW16558   0.719   6.233   2.457
 5220SOL    HW116559   0.666   6.160   2.499
 5220SOL    HW216560   0.767   6.197   2.377
 5221SOL     OW16561   4.666   0.701   0.612
 5221SOL    HW116562   4.729   0.752   0.552
 5221SOL    HW216563   4.704   0.610   0.630
 5222SOL     OW16564   0.122   6.087   2.683
 5222SOL    HW116565   0.102   6.082   2.781
 5222SOL    HW216566   0.036   6.096   2.632
 5223SOL     OW16567   4.332   6.625   1.504
 5223SOL    HW116568   4.303   6.677   1.424
 5223SOL    HW216569   4.265   6.553   1.523
 5224SOL     OW16570   5.818   0.693   3.645
 5224SOL    HW116571   5.803   0.763   3.575
 5224SOL    HW216572   5.768   0.610   3.622
 5225SOL     OW16573   7.003   6.585   5.509
 5225SOL    HW116574   0.083   6.567   5.491
 5225SOL    HW216575   6.994   6.643   5.589
 5226SOL     OW16576   2.274   0.781   3.945
 5226SOL    HW116577   2.346   0.840   3.909
 5226SOL    HW216578   2.184   0.815   3.916
 5227SOL     OW16579   5.747   3.462   4.655
 5227SOL    HW116580   5.778   3.497   4.743
 5227SOL    HW216581   5.808   3.389   4.625
 5228SOL     OW16582   4.772   6.907   1.928
 5228SOL    HW116583   4.771   6.832   1.862
 5228SOL    HW216584   4.809   6.876   2.015
 5229SOL     OW16585   0.556   4.290   4.050
 5229SOL    HW116586   0.532   4.199   4.016
 5229SOL    HW216587   0.644   4.286   4.096
 5230SOL     OW16588   0.564   1.541   6.867
 5230SOL    HW116589   0.636   1.474   6.884
 5230SOL    HW216590   0.518   1.520   6.781
 5231SOL     OW16591   3.190   3.970   3.390
 5231SOL    HW116592   3.225   4.047   3.443
 5231SOL    HW216593   3.260   3.942   3.323
 5232SOL     OW16594   5.448   2.817   4.767
 5232SOL    HW116595   5.393   2.897   4.791
 5232SOL    HW216596   5.389   2.736   4.764
 5233SOL     OW16597   0.926   0.052   2.905
 5233SOL    HW116598   0.949   6.986   2.956
 5233SOL    HW216599   0.827   0.066   2.907
 5234SOL     OW16600   3.556   4.199   1.215
 5234SOL    HW116601   3.496   4.247   1.152
 5234SOL    HW216602   3.651   4.230   1.203
 5235SOL     OW16603   1.284   1.992   1.868
 5235SOL    HW116604   1.251   2.036   1.951
 5235SOL    HW216605   1.207   1.975   1.806
 5236SOL     OW16606   6.276   3.070   0.366
 5236SOL    HW116607   6.363   3.070   0.317
 5236SOL    HW216608   6.294   3.069   0.465
 5237SOL     OW16609   2.214   2.130   2.348
 5237SOL    HW116610   2.134   2.070   2.340
 5237SOL    HW216611   2.199   2.212   2.293
 5238SOL     OW16612   1.847   3.320   1.147
 5238SOL    HW116613   1.936   3.299   1.189
 5238SOL    HW216614   1.778   3.257   1.184
 5239SOL     OW16615   2.743   3.198   5.485
 5239SOL    HW116616   2.831   3.185   5.529
 5239SOL    HW216617   2.709   3.110   5.451
 5240SOL     OW16618   3.900   1.883   4.091
 5240SOL    HW116619   3.951   1.835   4.163
 5240SOL    HW216620   3.835   1.820   4.049
 5241SOL     OW16621   4.124   5.687   5.697
 5241SOL    HW116622   4.147   5.718   5.790
 5241SOL    HW216623   4.066   5.605   5.703
 5242SOL     OW16624   3.777   0.591   5.781
 5242SOL    HW116625   3.816   0.632   5.699
 5242SOL    HW216626   3.771   0.491   5.769
 5243SOL     OW16627   1.477   3.978   0.574
 5243SOL    HW116628   1.556   4.004   0.519
 5243SOL    HW216629   1.442   4.059   0.622
 5244SOL     OW16630   6.147   3.204   6.807
 5244SOL    HW116631   6.180   3.189   6.900
 5244SOL    HW216632   6.215   3.255   6.755
 5245SOL     OW16633   4.682   4.477   6.061
 5245SOL    HW116634   4.613   4.405   6.058
 5245SOL    HW216635   4.763   4.447   6.011
 5246SOL     OW16636   1.378   3.854   3.607
 5246SOL    HW116637   1.310   3.888   3.542
 5246SOL    HW216638   1.470   3.880   3.576
 5247SOL     OW16639   0.544   4.641   0.175
 5247SOL    HW116640   0.456   4.606   0.142
 5247SOL    HW216641   0.541   4.651   0.274
 5248SOL     OW16642   5.140   1.310   0.565
 5248SOL    HW116643   5.070   1.255   0.519
 5248SOL    HW216644   5.177   1.377   0.501
 5249SOL     OW16645   0.939   5.220   6.978
 5249SOL    HW116646   0.915   5.296   0.022
 5249SOL    HW216647   1.004   5.160   0.007
 5250SOL     OW16648   1.265   1.642   5.704
 5250SOL    HW116649   1.293   1.670   5.612
 5250SOL    HW216650   1.304   1.553   5.725
 5251SOL     OW16651   0.693   2.640   1.713
 5251SOL    HW116652   0.751   2.706   1.761
 5251SOL    HW216653   0.673   2.675   1.621
 5252SOL     OW16654   5.289   5.918   0.996
 5252SOL    HW116655   5.210   5.858   1.006
 5252SOL    HW216656   5.258   6.013   0.995
 5253SOL     OW16657   5.837   2.924   4.046
 5253SOL    HW116658   5.855   2.999   3.982
 5253SOL    HW216659   5.908   2.923   4.117
 5254SOL     OW16660   5.479   0.654   4.421
 5254SOL    HW116661   5.400   0.706   4.452
 5254SOL    HW216662   5.554   0.664   4.487
 5255SOL     OW16663   2.271   5.755   2.862
 5255SOL    HW116664   2.332   5.690   2.817
 5255SOL    HW216665   2.323   5.810   2.928
 5256SOL     OW16666   4.761   5.992   2.214
 5256SOL    HW116667   4.760   5.913   2.153
 5256SOL    HW216668   4.811   5.970   2.298
 5257SOL     OW16669   2.977   1.371   2.678
 5257SOL    HW116670   2.951   1.278   2.703
 5257SOL    HW216671   3.014   1.418   2.758
 5258SOL     OW16672   5.700   2.164   1.572
 5258SOL    HW116673   5.625   2.139   1.511
 5258SOL    HW216674   5.769   2.091   1.570
 5259SOL     OW16675   6.171   5.004   1.527
 5259SOL    HW116676   6.152   4.931   1.460
 5259SOL    HW216677   6.090   5.017   1.584
 5260SOL     OW16678   4.912   2.845   1.897
 5260SOL    HW116679   4.974   2.830   1.975
 5260SOL    HW216680   4.821   2.868   1.932
 5261SOL     OW16681   2.377   2.686   5.029
 5261SOL    HW116682   2.370   2.786   5.026
 5261SOL    HW216683   2.406   2.657   5.120
 5262SOL     OW16684   0.858   0.269   1.536
 5262SOL    HW116685   0.824   0.329   1.608
 5262SOL    HW216686   0.873   0.323   1.453
 5263SOL     OW16687   1.526   0.115   6.892
 5263SOL    HW116688   1.452   0.098   6.827
 5263SOL    HW216689   1.608   0.064   6.864
 5264SOL     OW16690   1.055   0.329   0.456
 5264SOL    HW116691   1.064   0.259   0.526
 5264SOL    HW216692   1.051   0.419   0.499
 5265SOL     OW16693   5.321   4.737   3.939
 5265SOL    HW116694   5.263   4.810   3.973
 5265SOL    HW216695   5.405   4.733   3.993
 5266SOL     OW16696   1.545   0.005   1.425
 5266SOL    HW116697   1.636   6.985   1.443
 5266SOL    HW216698   1.543   0.047   1.334
 5267SOL     OW16699   3.984   3.839   5.072
 5267SOL    HW116700   3.941   3.929   5.072
 5267SOL    HW216701   3.913   3.768   5.067
 5268SOL     OW16702   5.567   5.081   5.808
 5268SOL    HW116703   5.514   5.045   5.885
 5268SOL    HW216704   5.550   5.180   5.800
 5269SOL     OW16705   2.671   5.811   5.394
 5269SOL    HW116706   2.627   5.828   5.306
 5269SOL    HW216707   2.769   5.833   5.387
 5270SOL     OW16708   6.897   2.007   3.146
 5270SOL    HW116709   6.953   2.056   3.080
 5270SOL    HW216710   6.955   1.974   3.221
 5271SOL     OW16711   5.326   3.776   5.254
 5271SOL    HW116712   5.271   3.728   5.185
 5271SOL    HW216713   5.422   3.750   5.244
 5272SOL     OW16714   2.569   2.129   3.662
 5272SOL    HW116715   2.583   2.167   3.753
 5272SOL    HW216716   2.472   2.134   3.639
 5273SOL     OW16717   6.562   0.929   5.609
 5273SOL    HW116718   6.501   0.852   5.592
 5273SOL    HW216719   6.551   0.961   5.703
 5274SOL     OW16720   0.631   5.189   4.612
 5274SOL    HW116721   0.698   5.180   4.685
 5274SOL    HW216722   0.622   5.102   4.563
 5275SOL     OW16723   2.389   6.509   0.167
 5275SOL    HW116724   2.430   6.595   0.198
 5275SOL    HW216725   2.305   6.528   0.117
 5276SOL     OW16726   0.016   0.409   0.371
 5276SOL    HW116727   0.101   0.462   0.376
 5276SOL    HW216728   0.027   0.325   0.424
 5277SOL     OW16729   0.507   1.008   1.560
 5277SOL    HW116730   0.446   0.932   1.579
 5277SOL    HW216731   0.527   1.011   1.462
 5278SOL     OW16732   0.191   4.797   6.121
 5278SOL    HW116733   0.185   4.890   6.085
 5278SOL    HW216734   0.135   4.736   6.064
 5279SOL     OW16735   2.627   6.338   0.166
 5279SOL    HW116736   2.576   6.329   0.080
 5279SOL    HW216737   2.564   6.331   0.243
 5280SOL     OW16738   4.856   5.930   6.030
 5280SOL    HW116739   4.759   5.930   6.004
 5280SOL    HW216740   4.864   5.951   6.127
 5281SOL     OW16741   2.204   6.566   4.802
 5281SOL    HW116742   2.132   6.497   4.791
 5281SOL    HW216743   2.162   6.655   4.822
 5282SOL     OW16744   6.675   5.785   0.775
 5282SOL    HW116745   6.753   5.730   0.805
 5282SOL    HW216746   6.704   5.880   0.763
 5283SOL     OW16747   1.613   0.625   4.131
 5283SOL    HW116748   1.570   0.655   4.216
 5283SOL    HW216749   1.551   0.563   4.083
 5284SOL     OW16750   4.847   2.882   2.227
 5284SOL    HW116751   4.919   2.830   2.180
 5284SOL    HW216752   4.786   2.922   2.159
 5285SOL     OW16753   2.245   1.592   3.928
 5285SOL    HW116754   2.321   1.614   3.868
 5285SOL    HW216755   2.182   1.529   3.882
 5286SOL     OW16756   0.334   3.247   1.382
 5286SOL    HW116757   0.424   3.270   1.344
 5286SOL    HW216758   0.331   3.274   1.478
 5287SOL     OW16759   0.581   5.054   2.343
 5287SOL    HW116760   0.539   5.006   2.267
 5287SOL    HW216761   0.603   4.988   2.416
 5288SOL     OW16762   4.250   0.837   1.467
 5288SOL    HW116763   4.335   0.824   1.518
 5288SOL    HW216764   4.188   0.760   1.484
 5289SOL     OW16765   1.855   5.338   6.389
 5289SOL    HW116766   1.947   5.315   6.422
 5289SOL    HW216767   1.798   5.256   6.389
 5290SOL     OW16768   1.743   3.008   5.405
 5290SOL    HW116769   1.797   3.092   5.408
 5290SOL    HW216770   1.790   2.940   5.348
 5291SOL     OW16771   2.950   6.077   4.770
 5291SOL    HW116772   2.997   6.145   4.827
 5291SOL    HW216773   2.966   5.986   4.807
 5292SOL     OW16774   0.888   4.065   4.828
 5292SOL    HW116775   0.964   4.019   4.782
 5292SOL    HW216776   0.920   4.102   4.915
 5293SOL     OW16777   2.315   0.551   3.441
 5293SOL    HW116778   2.300   0.595   3.529
 5293SOL    HW216779   2.228   0.517   3.406
 5294SOL     OW16780   4.912   0.015   4.243
 5294SOL    HW116781   4.829   0.064   4.214
 5294SOL    HW216782   4.905   7.010   4.341
 5295SOL     OW16783   2.218   0.505   1.305
 5295SOL    HW116784   2.297   0.561   1.280
 5295SOL    HW216785   2.144   0.522   1.240
 5296SOL     OW16786   4.651   4.966   2.198
 5296SOL    HW116787   4.662   5.065   2.195
 5296SOL    HW216788   4.739   4.923   2.218
 5297SOL     OW16789   3.345   4.859   5.909
 5297SOL    HW116790   3.333   4.904   5.821
 5297SOL    HW216791   3.258   4.861   5.959
 5298SOL     OW16792   3.238   1.124   6.978
 5298SOL    HW116793   3.208   1.141   0.055
 5298SOL    HW216794   3.196   1.191   6.916
 5299SOL     OW16795   1.573   0.414   1.314
 5299SOL    HW116796   1.623   0.393   1.398
 5299SOL    HW216797   1.481   0.444   1.337
 5300SOL     OW16798   3.045   4.818   6.844
 5300SOL    HW116799   3.039   4.804   6.943
 5300SOL    HW216800   3.062   4.915   6.825
 5301SOL     OW16801   6.744   6.832   5.847
 5301SOL    HW116802   6.834   6.807   5.813
 5301SOL    HW216803   6.680   6.842   5.770
 5302SOL     OW16804   4.943   4.859   3.364
 5302SOL    HW116805   4.857   4.812   3.383
 5302SOL    HW216806   5.017   4.793   3.360
 5303SOL     OW16807   1.644   6.284   5.040
 5303SOL    HW116808   1.592   6.230   5.106
 5303SOL    HW216809   1.615   6.380   5.044
 5304SOL     OW16810   0.073   0.401   3.478
 5304SOL    HW116811   0.073   0.318   3.534
 5304SOL    HW216812   7.010   0.457   3.503
 5305SOL     OW16813   6.479   5.291   4.699
 5305SOL    HW116814   6.542   5.332   4.632
 5305SOL    HW216815   6.403   5.248   4.650
 5306SOL     OW16816   0.722   2.172   6.268
 5306SOL    HW116817   0.699   2.209   6.358
 5306SOL    HW216818   0.819   2.145   6.267
 5307SOL     OW16819   0.817   1.472   1.430
 5307SOL    HW116820   0.861   1.389   1.465
 5307SOL    HW216821   0.718   1.465   1.443
 5308SOL     OW16822   1.911   4.277   2.525
 5308SOL    HW116823   1.843   4.236   2.465
 5308SOL    HW216824   1.932   4.213   2.600
 5309SOL     OW16825   5.486   6.264   3.431
 5309SOL    HW116826   5.412   6.317   3.472
 5309SOL    HW216827   5.502   6.181   3.485
 5310SOL     OW16828   6.190   1.621   3.065
 5310SOL    HW116829   6.173   1.640   2.968
 5310SOL    HW216830   6.261   1.684   3.098
 5311SOL     OW16831   6.145   6.791   0.035
 5311SOL    HW116832   6.185   6.699   0.032
 5311SOL    HW216833   6.053   6.786   0.074
 5312SOL     OW16834   5.674   6.651   0.982
 5312SOL    HW116835   5.676   6.661   0.882
 5312SOL    HW216836   5.713   6.563   1.008
 5313SOL     OW16837   1.701   6.520   5.914
 5313SOL    HW116838   1.654   6.455   5.973
 5313SOL    HW216839   1.636   6.561   5.850
 5314SOL     OW16840   5.894   2.191   1.835
 5314SOL    HW116841   5.900   2.140   1.749
 5314SOL    HW216842   5.829   2.145   1.896
 5315SOL     OW16843   4.123   2.229   3.523
 5315SOL    HW116844   4.206   2.276   3.551
 5315SOL    HW216845   4.108   2.244   3.425
 5316SOL     OW16846   0.064   2.802   4.960
 5316SOL    HW116847   0.147   2.777   4.911
 5316SOL    HW216848   7.013   2.836   4.895
 5317SOL     OW16849   5.545   3.212   0.924
 5317SOL    HW116850   5.449   3.228   0.899
 5317SOL    HW216851   5.603   3.278   0.877
 5318SOL     OW16852   6.743   4.088   5.866
 5318SOL    HW116853   6.803   4.090   5.786
 5318SOL    HW216854   6.726   4.181   5.898
 5319SOL     OW16855   4.094   5.974   2.562
 5319SOL    HW116856   4.067   5.949   2.469
 5319SOL    HW216857   4.104   5.891   2.617
 5320SOL     OW16858   4.661   5.904   0.710
 5320SOL    HW116859   4.583   5.963   0.688
 5320SOL    HW216860   4.637   5.808   0.693
 5321SOL     OW16861   1.523   4.095   5.873
 5321SOL    HW116862   1.516   4.024   5.803
 5321SOL    HW216863   1.526   4.053   5.963
 5322SOL     OW16864   4.039   6.174   1.720
 5322SOL    HW116865   3.985   6.121   1.785
 5322SOL    HW216866   4.003   6.159   1.627
 5323SOL     OW16867   4.117   0.416   6.539
 5323SOL    HW116868   4.098   0.425   6.441
 5323SOL    HW216869   4.092   0.501   6.586
 5324SOL     OW16870   1.249   1.520   1.748
 5324SOL    HW116871   1.242   1.579   1.829
 5324SOL    HW216872   1.158   1.496   1.716
 5325SOL     OW16873   2.185   2.826   4.740
 5325SOL    HW116874   2.248   2.796   4.668
 5325SOL    HW216875   2.204   2.921   4.763
 5326SOL     OW16876   6.047   6.912   1.477
 5326SOL    HW116877   6.115   6.875   1.541
 5326SOL    HW216878   6.055   6.865   1.389
 5327SOL     OW16879   0.597   2.720   5.588
 5327SOL    HW116880   0.683   2.719   5.639
 5327SOL    HW216881   0.617   2.734   5.491
 5328SOL     OW16882   4.243   5.336   0.647
 5328SOL    HW116883   4.182   5.415   0.658
 5328SOL    HW216884   4.323   5.347   0.705
 5329SOL     OW16885   2.680   6.087   6.182
 5329SOL    HW116886   2.725   5.997   6.183
 5329SOL    HW216887   2.734   6.151   6.237
 5330SOL     OW16888   2.611   5.356   1.343
 5330SOL    HW116889   2.527   5.328   1.390
 5330SOL    HW216890   2.588   5.416   1.266
 5331SOL     OW16891   6.297   1.574   6.296
 5331SOL    HW116892   6.198   1.580   6.285
 5331SOL    HW216893   6.319   1.514   6.374
 5332SOL     OW16894   0.775   4.542   1.738
 5332SOL    HW116895   0.826   4.596   1.804
 5332SOL    HW216896   0.728   4.603   1.674
 5333SOL     OW16897   0.848   6.485   4.509
 5333SOL    HW116898   0.929   6.458   4.561
 5333SOL    HW216899   0.809   6.568   4.550
 5334SOL     OW16900   3.611   0.080   5.494
 5334SOL    HW116901   3.580   0.124   5.579
 5334SOL    HW216902   3.566   7.008   5.485
 5335SOL     OW16903   6.655   6.071   0.784
 5335SOL    HW116904   6.575   6.109   0.830
 5335SOL    HW216905   6.735   6.079   0.843
 5336SOL     OW16906   0.949   3.844   1.254
 5336SOL    HW116907   0.939   3.808   1.161
 5336SOL    HW216908   0.935   3.770   1.320
 5337SOL     OW16909   5.388   4.731   1.606
 5337SOL    HW116910   5.469   4.702   1.656
 5337SOL    HW216911   5.376   4.830   1.618
 5338SOL     OW16912   5.341   2.787   0.657
 5338SOL    HW116913   5.429   2.744   0.676
 5338SOL    HW216914   5.318   2.849   0.732
 5339SOL     OW16915   6.675   0.196   2.105
 5339SOL    HW116916   6.582   0.160   2.114
 5339SOL    HW216917   6.671   0.292   2.080
 5340SOL     OW16918   4.870   2.715   6.960
 5340SOL    HW116919   4.813   2.794   6.981
 5340SOL    HW216920   4.963   2.731   6.992
 5341SOL     OW16921   4.877   0.422   0.929
 5341SOL    HW116922   4.855   0.426   0.832
 5341SOL    HW216923   4.886   0.326   0.956
 5342SOL     OW16924   2.324   0.453   5.843
 5342SOL    HW116925   2.286   0.486   5.930
 5342SOL    HW216926   2.350   0.531   5.786
 5343SOL     OW16927   3.171   4.325   1.198
 5343SOL    HW116928   3.249   4.314   1.135
 5343SOL    HW216929   3.089   4.288   1.155
 5344SOL     OW16930   2.114   2.387   2.546
 5344SOL    HW116931   2.047   2.334   2.597
 5344SOL    HW216932   2.120   2.352   2.453
 5345SOL     OW16933   4.806   0.282   3.501
 5345SOL    HW116934   4.902   0.274   3.528
 5345SOL    HW216935   4.771   0.193   3.474
 5346SOL     OW16936   3.101   0.513   3.919
 5346SOL    HW116937   3.017   0.539   3.966
 5346SOL    HW216938   3.079   0.466   3.833
 5347SOL     OW16939   6.792   1.344   1.761
 5347SOL    HW116940   6.709   1.374   1.714
 5347SOL    HW216941   6.809   1.248   1.740
 5348SOL     OW16942   6.419   1.507   0.033
 5348SOL    HW116943   6.428   1.561   0.117
 5348SOL    HW216944   6.414   1.410   0.055
 5349SOL     OW16945   5.977   0.284   1.118
 5349SOL    HW116946   5.898   0.285   1.057
 5349SOL    HW216947   5.994   0.190   1.150
 5350SOL     OW16948   2.573   0.645   6.631
 5350SOL    HW116949   2.658   0.694   6.650
 5350SOL    HW216950   2.573   0.615   6.535
 5351SOL     OW16951   4.415   1.232   2.115
 5351SOL    HW116952   4.369   1.171   2.180
 5351SOL    HW216953   4.462   1.177   2.046
 5352SOL     OW16954   3.420   0.379   3.156
 5352SOL    HW116955   3.452   0.306   3.216
 5352SOL    HW216956   3.497   0.436   3.128
 5353SOL     OW16957   6.014   0.262   6.146
 5353SOL    HW116958   6.061   0.350   6.143
 5353SOL    HW216959   6.066   0.194   6.093
 5354SOL     OW16960   1.526   3.350   0.962
 5354SOL    HW116961   1.580   3.425   0.924
 5354SOL    HW216962   1.445   3.334   0.906
 5355SOL     OW16963   4.708   1.415   5.972
 5355SOL    HW116964   4.644   1.346   5.936
 5355SOL    HW216965   4.698   1.500   5.920
 5356SOL     OW16966   6.687   3.129   1.449
 5356SOL    HW116967   6.757   3.068   1.413
 5356SOL    HW216968   6.611   3.136   1.384
 5357SOL     OW16969   3.753   5.824   0.359
 5357SOL    HW116970   3.794   5.873   0.283
 5357SOL    HW216971   3.653   5.831   0.353
 5358SOL     OW16972   5.400   4.324   1.878
 5358SOL    HW116973   5.344   4.405   1.895
 5358SOL    HW216974   5.467   4.314   1.952
 5359SOL     OW16975   3.329   0.472   5.512
 5359SOL    HW116976   3.261   0.423   5.458
 5359SOL    HW216977   3.354   0.417   5.592
 5360SOL     OW16978   4.464   1.747   0.186
 5360SOL    HW116979   4.369   1.728   0.160
 5360SOL    HW216980   4.522   1.670   0.158
 5361SOL     OW16981   1.332   1.021   6.414
 5361SOL    HW116982   1.376   0.976   6.336
 5361SOL    HW216983   1.273   0.956   6.461
 5362SOL     OW16984   4.056   5.680   3.652
 5362SOL    HW116985   3.981   5.650   3.712
 5362SOL    HW216986   4.037   5.771   3.617
 5363SOL     OW16987   1.056   5.960   4.725
 5363SOL    HW116988   1.125   5.980   4.794
 5363SOL    HW216989   0.992   5.892   4.761
 5364SOL     OW16990   1.330   6.007   6.734
 5364SOL    HW116991   1.421   6.004   6.777
 5364SOL    HW216992   1.321   6.090   6.680
 5365SOL     OW16993   4.023   2.048   6.310
 5365SOL    HW116994   4.005   2.063   6.213
 5365SOL    HW216995   4.122   2.046   6.325
 5366SOL     OW16996   3.537   3.543   5.999
 5366SOL    HW116997   3.625   3.573   5.962
 5366SOL    HW216998   3.475   3.523   5.924
 5367SOL     OW16999   0.418   5.005   0.724
 5367SOL    HW117000   0.471   4.971   0.801
 5367SOL    HW217001   0.354   4.934   0.693
 5368SOL     OW17002   0.735   0.404   3.646
 5368SOL    HW117003   0.809   0.426   3.582
 5368SOL    HW217004   0.648   0.438   3.611
 5369SOL     OW17005   2.129   3.606   2.462
 5369SOL    HW117006   2.077   3.672   2.408
 5369SOL    HW217007   2.225   3.633   2.466
 5370SOL     OW17008   3.591   2.815   1.419
 5370SOL    HW117009   3.639   2.840   1.503
 5370SOL    HW217010   3.515   2.754   1.442
 5371SOL     OW17011   1.928   4.097   5.070
 5371SOL    HW117012   1.889   4.080   5.160
 5371SOL    HW217013   2.009   4.156   5.079
 5372SOL     OW17014   3.384   6.254   2.678
 5372SOL    HW117015   3.337   6.308   2.748
 5372SOL    HW217016   3.322   6.236   2.602
 5373SOL     OW17017   2.162   5.117   3.638
 5373SOL    HW117018   2.069   5.087   3.660
 5373SOL    HW217019   2.223   5.091   3.713
 5374SOL     OW17020   3.064   2.526   0.530
 5374SOL    HW117021   2.974   2.522   0.573
 5374SOL    HW217022   3.135   2.511   0.599
 5375SOL     OW17023   1.264   4.039   5.136
 5375SOL    HW117024   1.304   4.105   5.199
 5375SOL    HW217025   1.323   4.031   5.055
 5376SOL     OW17026   2.848   4.623   5.867
 5376SOL    HW117027   2.941   4.628   5.833
 5376SOL    HW217028   2.807   4.715   5.864
 5377SOL     OW17029   0.569   2.203   1.849
 5377SOL    HW117030   0.479   2.222   1.809
 5377SOL    HW217031   0.556   2.162   1.940
 5378SOL     OW17032   4.929   0.443   6.733
 5378SOL    HW117033   4.873   0.525   6.748
 5378SOL    HW217034   4.911   0.406   6.642
 5379SOL     OW17035   6.843   6.781   0.485
 5379SOL    HW117036   6.829   6.704   0.424
 5379SOL    HW217037   6.769   6.784   0.553
 5380SOL     OW17038   2.099   1.615   5.237
 5380SOL    HW117039   2.062   1.676   5.168
 5380SOL    HW217040   2.175   1.562   5.197
 5381SOL     OW17041   5.960   3.968   1.882
 5381SOL    HW117042   6.020   3.922   1.947
 5381SOL    HW217043   5.880   3.911   1.865
 5382SOL     OW17044   1.880   6.671   1.403
 5382SOL    HW117045   1.937   6.745   1.437
 5382SOL    HW217046   1.788   6.680   1.442
 5383SOL     OW17047   2.062   2.048   4.896
 5383SOL    HW117048   2.039   2.129   4.951
 5383SOL    HW217049   2.029   1.966   4.942
 5384SOL     OW17050   4.885   6.485   4.799
 5384SOL    HW117051   4.952   6.513   4.868
 5384SOL    HW217052   4.931   6.437   4.725
 5385SOL     OW17053   3.606   4.136   2.601
 5385SOL    HW117054   3.678   4.067   2.596
 5385SOL    HW217055   3.624   4.198   2.677
 5386SOL     OW17056   5.603   6.453   5.900
 5386SOL    HW117057   5.537   6.515   5.859
 5386SOL    HW217058   5.661   6.414   5.828
 5387SOL     OW17059   3.626   4.803   0.883
 5387SOL    HW117060   3.596   4.782   0.976
 5387SOL    HW217061   3.698   4.738   0.856
 5388SOL     OW17062   5.924   5.909   3.098
 5388SOL    HW117063   5.899   6.003   3.072
 5388SOL    HW217064   5.841   5.859   3.125
 5389SOL     OW17065   5.835   3.271   1.594
 5389SOL    HW117066   5.922   3.248   1.637
 5389SOL    HW217067   5.837   3.240   1.498
 5390SOL     OW17068   6.345   5.045   6.371
 5390SOL    HW117069   6.287   5.071   6.449
 5390SOL    HW217070   6.438   5.078   6.386
 5391SOL     OW17071   3.840   4.285   0.025
 5391SOL    HW117072   3.865   4.191   7.017
 5391SOL    HW217073   3.775   4.282   0.101
 5392SOL     OW17074   0.561   2.682   3.199
 5392SOL    HW117075   0.614   2.721   3.275
 5392SOL    HW217076   0.624   2.643   3.131
 5393SOL     OW17077   6.563   6.738   6.393
 5393SOL    HW117078   6.488   6.708   6.334
 5393SOL    HW217079   6.527   6.795   6.467
 5394SOL     OW17080   1.855   3.822   6.132
 5394SOL    HW117081   1.925   3.890   6.153
 5394SOL    HW217082   1.888   3.731   6.158
 5395SOL     OW17083   4.488   0.648   1.264
 5395SOL    HW117084   4.501   0.603   1.352
 5395SOL    HW217085   4.504   0.583   1.190
 5396SOL     OW17086   5.079   2.268   1.156
 5396SOL    HW117087   5.022   2.345   1.128
 5396SOL    HW217088   5.046   2.233   1.244
 5397SOL     OW17089   1.535   2.756   1.635
 5397SOL    HW117090   1.621   2.774   1.684
 5397SOL    HW217091   1.483   2.686   1.684
 5398SOL     OW17092   3.475   3.789   2.517
 5398SOL    HW117093   3.408   3.760   2.585
 5398SOL    HW217094   3.431   3.851   2.452
 5399SOL     OW17095   0.842   5.189   0.267
 5399SOL    HW117096   0.855   5.279   0.227
 5399SOL    HW217097   0.799   5.128   0.200
 5400SOL     OW17098   2.340   3.538   6.717
 5400SOL    HW117099   2.344   3.542   6.617
 5400SOL    HW217100   2.265   3.594   6.750
 5401SOL     OW17101   6.275   1.548   0.631
 5401SOL    HW117102   6.337   1.474   0.604
 5401SOL    HW217103   6.265   1.549   0.730
 5402SOL     OW17104   1.025   6.061   2.365
 5402SOL    HW117105   1.115   6.062   2.322
 5402SOL    HW217106   0.972   5.984   2.329
 5403SOL     OW17107   6.236   2.673   6.240
 5403SOL    HW117108   6.292   2.624   6.173
 5403SOL    HW217109   6.295   2.716   6.308
 5404SOL     OW17110   0.777   2.831   3.073
 5404SOL    HW117111   0.812   2.741   3.048
 5404SOL    HW217112   0.846   2.881   3.126
 5405SOL     OW17113   6.627   4.427   5.435
 5405SOL    HW117114   6.548   4.480   5.464
 5405SOL    HW217115   6.705   4.449   5.494
 5406SOL     OW17116   1.576   0.218   3.155
 5406SOL    HW117117   1.651   0.276   3.125
 5406SOL    HW217118   1.548   0.157   3.081
 5407SOL     OW17119   4.168   3.483   6.356
 5407SOL    HW117120   4.151   3.389   6.326
 5407SOL    HW217121   4.151   3.490   6.454
 5408SOL     OW17122   3.652   0.996   6.405
 5408SOL    HW117123   3.581   0.984   6.336
 5408SOL    HW217124   3.613   0.976   6.495
 5409SOL     OW17125   4.877   0.467   1.376
 5409SOL    HW117126   4.847   0.468   1.472
 5409SOL    HW217127   4.972   0.436   1.371
 5410SOL     OW17128   1.370   2.966   3.117
 5410SOL    HW117129   1.439   2.903   3.153
 5410SOL    HW217130   1.407   3.013   3.037
 5411SOL     OW17131   2.463   4.510   4.839
 5411SOL    HW117132   2.505   4.476   4.923
 5411SOL    HW217133   2.365   4.520   4.852
 5412SOL     OW17134   6.154   1.872   2.188
 5412SOL    HW117135   6.208   1.819   2.253
 5412SOL    HW217136   6.178   1.969   2.197
 5413SOL     OW17137   1.610   6.874   2.669
 5413SOL    HW117138   1.541   6.802   2.675
 5413SOL    HW217139   1.699   6.836   2.695
 5414SOL     OW17140   4.091   0.084   6.291
 5414SOL    HW117141   4.118   0.130   6.375
 5414SOL    HW217142   4.010   0.027   6.309
 5415SOL     OW17143   6.375   3.609   2.937
 5415SOL    HW117144   6.341   3.580   3.026
 5415SOL    HW217145   6.472   3.632   2.944
 5416SOL     OW17146   4.394   5.021   4.406
 5416SOL    HW117147   4.369   5.006   4.502
 5416SOL    HW217148   4.430   5.113   4.394
 5417SOL     OW17149   2.620   6.826   5.580
 5417SOL    HW117150   2.713   6.834   5.617
 5417SOL    HW217151   2.619   6.856   5.485
 5418SOL     OW17152   3.588   1.252   3.374
 5418SOL    HW117153   3.538   1.295   3.449
 5418SOL    HW217154   3.561   1.156   3.366
 5419SOL     OW17155   3.454   4.172   6.935
 5419SOL    HW117156   3.444   4.266   6.966
 5419SOL    HW217157   3.489   4.172   6.841
 5420SOL     OW17158   1.269   2.637   2.935
 5420SOL    HW117159   1.296   2.711   2.996
 5420SOL    HW217160   1.259   2.672   2.842
 5421SOL     OW17161   2.239   2.423   0.628
 5421SOL    HW117162   2.326   2.390   0.592
 5421SOL    HW217163   2.236   2.407   0.727
 5422SOL     OW17164   0.933   2.808   0.455
 5422SOL    HW117165   0.887   2.722   0.478
 5422SOL    HW217166   1.020   2.789   0.410
 5423SOL     OW17167   4.184   2.938   5.944
 5423SOL    HW117168   4.250   3.005   5.909
 5423SOL    HW217169   4.133   2.977   6.020
 5424SOL     OW17170   5.446   3.122   5.733
 5424SOL    HW117171   5.437   3.029   5.767
 5424SOL    HW217172   5.516   3.126   5.662
 5425SOL     OW17173   5.066   1.302   4.914
 5425SOL    HW117174   4.983   1.356   4.927
 5425SOL    HW217175   5.077   1.239   4.990
 5426SOL     OW17176   0.716   7.013   4.786
 5426SOL    HW117177   0.663   0.033   4.862
 5426SOL    HW217178   0.663   6.944   4.738
 5427SOL     OW17179   3.784   0.010   0.352
 5427SOL    HW117180   3.776   0.002   0.452
 5427SOL    HW217181   3.740   6.948   0.309
 5428SOL     OW17182   2.054   0.675   0.581
 5428SOL    HW117183   2.146   0.637   0.567
 5428SOL    HW217184   1.985   0.609   0.553
 5429SOL     OW17185   1.206   2.413   6.189
 5429SOL    HW117186   1.223   2.326   6.141
 5429SOL    HW217187   1.159   2.476   6.127
 5430SOL     OW17188   2.084   2.708   5.201
 5430SOL    HW117189   2.096   2.806   5.215
 5430SOL    HW217190   2.171   2.662   5.217
 5431SOL     OW17191   3.600   5.582   4.298
 5431SOL    HW117192   3.579   5.633   4.215
 5431SOL    HW217193   3.652   5.640   4.361
 5432SOL     OW17194   5.906   4.746   1.506
 5432SOL    HW117195   5.851   4.762   1.588
 5432SOL    HW217196   5.972   4.673   1.523
 5433SOL     OW17197   1.427   1.903   3.550
 5433SOL    HW117198   1.383   1.843   3.484
 5433SOL    HW217199   1.430   1.858   3.639
 5434SOL     OW17200   2.367   6.052   5.216
 5434SOL    HW117201   2.298   6.032   5.146
 5434SOL    HW217202   2.351   5.995   5.296
 5435SOL     OW17203   4.615   0.965   2.290
 5435SOL    HW117204   4.564   0.882   2.314
 5435SOL    HW217205   4.706   0.939   2.256
 5436SOL     OW17206   5.134   4.099   2.941
 5436SOL    HW117207   5.120   4.136   3.033
 5436SOL    HW217208   5.078   4.018   2.928
 5437SOL     OW17209   3.816   4.880   6.207
 5437SOL    HW117210   3.837   4.782   6.200
 5437SOL    HW217211   3.728   4.898   6.164
 5438SOL     OW17212   6.569   0.821   0.684
 5438SOL    HW117213   6.537   0.766   0.762
 5438SOL    HW217214   6.631   0.766   0.628
 5439SOL     OW17215   1.375   2.665   0.580
 5439SOL    HW117216   1.329   2.710   0.656
 5439SOL    HW217217   1.466   2.704   0.567
 5440SOL     OW17218   2.118   0.780   1.515
 5440SOL    HW117219   2.157   0.844   1.448
 5440SOL    HW217220   2.182   0.767   1.590
 5441SOL     OW17221   4.004   1.884   4.508
 5441SOL    HW117222   3.908   1.911   4.514
 5441SOL    HW217223   4.021   1.840   4.420
 5442SOL     OW17224   3.404   1.201   1.613
 5442SOL    HW117225   3.383   1.177   1.518
 5442SOL    HW217226   3.491   1.250   1.618
 5443SOL     OW17227   1.548   6.672   5.735
 5443SOL    HW117228   1.561   6.771   5.749
 5443SOL    HW217229   1.537   6.654   5.637
 5444SOL     OW17230   0.378   0.873   3.667
 5444SOL    HW117231   0.453   0.863   3.601
 5444SOL    HW217232   0.315   0.796   3.658
 5445SOL     OW17233   6.179   3.725   2.049
 5445SOL    HW117234   6.226   3.658   1.992
 5445SOL    HW217235   6.181   3.695   2.144
 5446SOL     OW17236   6.459   6.102   6.038
 5446SOL    HW117237   6.502   6.131   5.952
 5446SOL    HW217238   6.360   6.095   6.025
 5447SOL     OW17239   3.071   2.860   1.120
 5447SOL    HW117240   3.069   2.798   1.199
 5447SOL    HW217241   3.152   2.918   1.125
 5448SOL     OW17242   5.447   1.470   6.531
 5448SOL    HW117243   5.434   1.416   6.614
 5448SOL    HW217244   5.471   1.564   6.556
 5449SOL     OW17245   0.243   2.385   0.018
 5449SOL    HW117246   0.204   2.337   6.956
 5449SOL    HW217247   0.342   2.373   0.020
 5450SOL     OW17248   2.266   6.236   0.941
 5450SOL    HW117249   2.287   6.166   1.009
 5450SOL    HW217250   2.197   6.298   0.979
 5451SOL     OW17251   2.703   0.422   2.452
 5451SOL    HW117252   2.742   0.411   2.544
 5451SOL    HW217253   2.711   0.518   2.424
 5452SOL     OW17254   2.966   3.792   5.768
 5452SOL    HW117255   3.012   3.877   5.793
 5452SOL    HW217256   2.999   3.761   5.679
 5453SOL     OW17257   0.251   5.395   5.360
 5453SOL    HW117258   0.350   5.409   5.360
 5453SOL    HW217259   0.227   5.321   5.296
 5454SOL     OW17260   0.979   3.707   5.663
 5454SOL    HW117261   0.979   3.652   5.746
 5454SOL    HW217262   0.958   3.650   5.584
 5455SOL     OW17263   6.418   1.923   0.783
 5455SOL    HW117264   6.392   2.018   0.763
 5455SOL    HW217265   6.511   1.920   0.819
 5456SOL     OW17266   3.530   6.987   1.243
 5456SOL    HW117267   3.529   6.980   1.143
 5456SOL    HW217268   3.436   6.980   1.277
 5457SOL     OW17269   6.181   3.504   1.466
 5457SOL    HW117270   6.208   3.409   1.477
 5457SOL    HW217271   6.227   3.543   1.387
 5458SOL     OW17272   1.600   4.356   5.852
 5458SOL    HW117273   1.563   4.263   5.843
 5458SOL    HW217274   1.698   4.351   5.870
 5459SOL     OW17275   2.337   3.853   6.157
 5459SOL    HW117276   2.352   3.865   6.059
 5459SOL    HW217277   2.382   3.769   6.187
 5460SOL     OW17278   3.961   0.248   4.175
 5460SOL    HW117279   3.898   0.242   4.252
 5460SOL    HW217280   3.921   0.202   4.096
 5461SOL     OW17281   4.192   6.694   4.825
 5461SOL    HW117282   4.101   6.727   4.852
 5461SOL    HW217283   4.230   6.755   4.756
 5462SOL     OW17284   0.088   0.686   1.624
 5462SOL    HW117285   0.012   0.746   1.649
 5462SOL    HW217286   0.054   0.593   1.613
 5463SOL     OW17287   6.673   3.070   0.940
 5463SOL    HW117288   6.709   3.033   0.855
 5463SOL    HW217289   6.745   3.071   1.010
 5464SOL     OW17290   1.609   6.857   4.698
 5464SOL    HW117291   1.683   6.876   4.762
 5464SOL    HW217292   1.603   6.758   4.681
 5465SOL     OW17293   2.917   5.762   6.962
 5465SOL    HW117294   2.885   5.851   6.994
 5465SOL    HW217295   2.841   5.698   6.958
 5466SOL     OW17296   5.096   6.477   4.402
 5466SOL    HW117297   5.006   6.460   4.443
 5466SOL    HW217298   5.154   6.396   4.414
 5467SOL     OW17299   5.909   2.004   1.569
 5467SOL    HW117300   5.854   1.921   1.580
 5467SOL    HW217301   6.004   1.984   1.594
 5468SOL     OW17302   4.289   1.583   6.605
 5468SOL    HW117303   4.337   1.509   6.559
 5468SOL    HW217304   4.195   1.555   6.625
 5469SOL     OW17305   4.906   4.936   1.683
 5469SOL    HW117306   4.830   4.905   1.741
 5469SOL    HW217307   4.870   4.991   1.608
 5470SOL     OW17308   0.309   4.792   3.637
 5470SOL    HW117309   0.397   4.759   3.672
 5470SOL    HW217310   0.235   4.753   3.691
 5471SOL     OW17311   6.722   4.295   2.112
 5471SOL    HW117312   6.729   4.353   2.194
 5471SOL    HW217313   6.625   4.288   2.086
 5472SOL     OW17314   3.649   5.358   5.373
 5472SOL    HW117315   3.592   5.311   5.305
 5472SOL    HW217316   3.599   5.437   5.409
 5473SOL     OW17317   2.013   4.622   3.935
 5473SOL    HW117318   1.916   4.612   3.914
 5473SOL    HW217319   2.034   4.574   4.021
 5474SOL     OW17320   0.633   5.962   3.085
 5474SOL    HW117321   0.696   5.903   3.136
 5474SOL    HW217322   0.681   6.001   3.006
 5475SOL     OW17323   3.237   2.734   1.575
 5475SOL    HW117324   3.286   2.820   1.587
 5475SOL    HW217325   3.154   2.736   1.630
 5476SOL     OW17326   2.111   3.220   6.776
 5476SOL    HW117327   2.140   3.313   6.800
 5476SOL    HW217328   2.014   3.208   6.797
 5477SOL     OW17329   2.295   2.520   2.104
 5477SOL    HW117330   2.252   2.567   2.181
 5477SOL    HW217331   2.385   2.487   2.131
 5478SOL     OW17332   0.246   5.554   5.075
 5478SOL    HW117333   0.176   5.487   5.102
 5478SOL    HW217334   0.219   5.598   4.990
 5479SOL     OW17335   4.288   6.050   5.668
 5479SOL    HW117336   4.296   6.004   5.580
 5479SOL    HW217337   4.335   6.138   5.664
 5480SOL     OW17338   0.208   2.283   5.982
 5480SOL    HW117339   0.116   2.289   5.943
 5480SOL    HW217340   0.205   2.232   6.068
 5481SOL     OW17341   4.387   6.361   3.135
 5481SOL    HW117342   4.294   6.388   3.162
 5481SOL    HW217343   4.382   6.274   3.085
 5482SOL     OW17344   1.539   6.157   2.141
 5482SOL    HW117345   1.636   6.180   2.130
 5482SOL    HW217346   1.495   6.152   2.051
 5483SOL     OW17347   0.719   2.407   6.911
 5483SOL    HW117348   0.701   2.435   7.005
 5483SOL    HW217349   0.702   2.308   6.902
 5484SOL     OW17350   5.074   0.029   5.121
 5484SOL    HW117351   5.156   0.083   5.138
 5484SOL    HW217352   5.044   0.042   5.026
 5485SOL     OW17353   3.159   0.690   4.614
 5485SOL    HW117354   3.065   0.722   4.600
 5485SOL    HW217355   3.190   0.720   4.705
 5486SOL     OW17356   2.824   5.219   3.889
 5486SOL    HW117357   2.922   5.238   3.901
 5486SOL    HW217358   2.796   5.152   3.958
 5487SOL     OW17359   3.604   6.067   5.153
 5487SOL    HW117360   3.632   6.131   5.225
 5487SOL    HW217361   3.661   5.986   5.156
 5488SOL     OW17362   4.640   2.084   6.565
 5488SOL    HW117363   4.691   2.051   6.645
 5488SOL    HW217364   4.627   2.008   6.501
 5489SOL     OW17365   6.531   2.685   4.009
 5489SOL    HW117366   6.500   2.776   3.981
 5489SOL    HW217367   6.452   2.633   4.042
 5490SOL     OW17368   0.574   5.318   2.433
 5490SOL    HW117369   0.604   5.226   2.412
 5490SOL    HW217370   0.475   5.325   2.421
 5491SOL     OW17371   6.332   4.103   0.756
 5491SOL    HW117372   6.376   4.014   0.764
 5491SOL    HW217373   6.240   4.099   0.793
 5492SOL     OW17374   0.832   2.005   6.966
 5492SOL    HW117375   0.930   2.016   6.983
 5492SOL    HW217376   0.794   1.943   0.019
 5493SOL     OW17377   4.210   3.965   6.160
 5493SOL    HW117378   4.132   4.017   6.124
 5493SOL    HW217379   4.184   3.870   6.171
 5494SOL     OW17380   5.774   2.088   4.979
 5494SOL    HW117381   5.835   2.010   4.980
 5494SOL    HW217382   5.762   2.123   5.072
 5495SOL     OW17383   5.851   0.743   0.660
 5495SOL    HW117384   5.882   0.802   0.734
 5495SOL    HW217385   5.751   0.742   0.657
 5496SOL     OW17386   4.174   6.339   6.046
 5496SOL    HW117387   4.197   6.246   6.017
 5496SOL    HW217388   4.163   6.340   6.146
 5497SOL     OW17389   0.820   0.071   6.210
 5497SOL    HW117390   0.811   0.169   6.227
 5497SOL    HW217391   0.915   0.042   6.227
 5498SOL     OW17392   0.353   6.060   1.975
 5498SOL    HW117393   0.409   6.081   1.895
 5498SOL    HW217394   0.407   6.005   2.039
 5499SOL     OW17395   2.062   0.544   3.319
 5499SOL    HW117396   2.077   0.469   3.254
 5499SOL    HW217397   2.079   0.631   3.273
 5500SOL     OW17398   1.270   6.288   1.655
 5500SOL    HW117399   1.177   6.321   1.670
 5500SOL    HW217400   1.335   6.362   1.673
 5501SOL     OW17401   5.410   3.500   0.796
 5501SOL    HW117402   5.431   3.543   0.708
 5501SOL    HW217403   5.487   3.513   0.858
 5502SOL     OW17404   4.652   3.968   0.358
 5502SOL    HW117405   4.716   3.911   0.307
 5502SOL    HW217406   4.559   3.950   0.327
 5503SOL     OW17407   6.442   2.985   1.311
 5503SOL    HW117408   6.504   2.929   1.365
 5503SOL    HW217409   6.356   2.936   1.298
 5504SOL     OW17410   3.194   1.911   6.852
 5504SOL    HW117411   3.184   1.948   6.945
 5504SOL    HW217412   3.104   1.895   6.812
 5505SOL     OW17413   2.450   5.244   2.190
 5505SOL    HW117414   2.475   5.301   2.268
 5505SOL    HW217415   2.511   5.263   2.113
 5506SOL     OW17416   6.576   2.772   6.303
 5506SOL    HW117417   6.492   2.804   6.347
 5506SOL    HW217418   6.581   2.673   6.308
 5507SOL     OW17419   3.876   5.964   0.159
 5507SOL    HW117420   3.795   5.978   0.101
 5507SOL    HW217421   3.905   6.052   0.197
 5508SOL     OW17422   6.651   2.161   6.205
 5508SOL    HW117423   6.689   2.071   6.186
 5508SOL    HW217424   6.602   2.158   6.292
 5509SOL     OW17425   6.260   4.127   0.245
 5509SOL    HW117426   6.199   4.200   0.278
 5509SOL    HW217427   6.208   4.044   0.230
 5510SOL     OW17428   5.689   5.736   0.013
 5510SOL    HW117429   5.752   5.671   0.056
 5510SOL    HW217430   5.737   5.822   7.011
 5511SOL     OW17431   1.059   2.707   6.279
 5511SOL    HW117432   1.095   2.672   6.365
 5511SOL    HW217433   0.973   2.755   6.296
 5512SOL     OW17434   3.380   0.107   2.202
 5512SOL    HW117435   3.400   0.026   2.257
 5512SOL    HW217436   3.426   0.187   2.240
 5513SOL     OW17437   4.010   4.757   6.692
 5513SOL    HW117438   3.953   4.675   6.686
 5513SOL    HW217439   4.092   4.737   6.746
 5514SOL     OW17440   3.841   1.701   0.217
 5514SOL    HW117441   3.906   1.648   0.164
 5514SOL    HW217442   3.774   1.640   0.258
 5515SOL     OW17443   3.461   4.875   2.586
 5515SOL    HW117444   3.478   4.780   2.610
 5515SOL    HW217445   3.365   4.897   2.604
 5516SOL     OW17446   0.565   2.948   6.316
 5516SOL    HW117447   0.550   2.850   6.304
 5516SOL    HW217448   0.662   2.966   6.326
 5517SOL     OW17449   1.014   1.893   4.388
 5517SOL    HW117450   0.959   1.854   4.462
 5517SOL    HW217451   1.097   1.933   4.427
 5518SOL     OW17452   4.302   4.406   5.890
 5518SOL    HW117453   4.251   4.391   5.805
 5518SOL    HW217454   4.262   4.482   5.941
 5519SOL     OW17455   5.271   2.874   5.445
 5519SOL    HW117456   5.225   2.959   5.419
 5519SOL    HW217457   5.211   2.796   5.427
 5520SOL     OW17458   5.142   5.813   1.739
 5520SOL    HW117459   5.163   5.819   1.836
 5520SOL    HW217460   5.050   5.848   1.723
 5521SOL     OW17461   4.577   0.419   2.288
 5521SOL    HW117462   4.561   0.427   2.386
 5521SOL    HW217463   4.494   0.384   2.243
 5522SOL     OW17464   4.562   6.523   6.611
 5522SOL    HW117465   4.537   6.601   6.554
 5522SOL    HW217466   4.640   6.476   6.571
 5523SOL     OW17467   5.238   1.530   0.389
 5523SOL    HW117468   5.303   1.529   0.313
 5523SOL    HW217469   5.199   1.622   0.399
 5524SOL     OW17470   2.005   1.561   2.663
 5524SOL    HW117471   1.971   1.581   2.571
 5524SOL    HW217472   2.103   1.544   2.660
 5525SOL     OW17473   6.574   0.963   1.074
 5525SOL    HW117474   6.584   0.934   0.979
 5525SOL    HW217475   6.549   0.885   1.131
 5526SOL     OW17476   5.233   4.126   3.903
 5526SOL    HW117477   5.302   4.199   3.897
 5526SOL    HW217478   5.254   4.055   3.837
 5527SOL     OW17479   6.149   0.325   2.449
 5527SOL    HW117480   6.069   0.275   2.482
 5527SOL    HW217481   6.229   0.299   2.504
 5528SOL     OW17482   1.686   1.354   0.217
 5528SOL    HW117483   1.661   1.271   0.266
 5528SOL    HW217484   1.719   1.331   0.126
 5529SOL     OW17485   3.570   0.583   2.252
 5529SOL    HW117486   3.656   0.631   2.272
 5529SOL    HW217487   3.503   0.648   2.216
 5530SOL     OW17488   0.972   1.505   1.211
 5530SOL    HW117489   0.975   1.408   1.185
 5530SOL    HW217490   0.909   1.517   1.288
 5531SOL     OW17491   1.427   4.760   0.177
 5531SOL    HW117492   1.481   4.758   0.261
 5531SOL    HW217493   1.480   4.719   0.103
 5532SOL     OW17494   0.078   4.588   5.919
 5532SOL    HW117495   0.039   4.506   5.960
 5532SOL    HW217496   0.176   4.573   5.901
 5533SOL     OW17497   3.143   1.234   3.572
 5533SOL    HW117498   3.128   1.333   3.564
 5533SOL    HW217499   3.204   1.204   3.499
 5534SOL     OW17500   1.441   0.664   4.340
 5534SOL    HW117501   1.377   0.590   4.362
 5534SOL    HW217502   1.395   0.752   4.354
 5535SOL     OW17503   0.272   2.047   2.578
 5535SOL    HW117504   0.187   2.024   2.624
 5535SOL    HW217505   0.347   2.048   2.644
 5536SOL     OW17506   4.536   0.475   4.607
 5536SOL    HW117507   4.531   0.481   4.507
 5536SOL    HW217508   4.479   0.399   4.638
 5537SOL     OW17509   2.800   2.247   2.948
 5537SOL    HW117510   2.722   2.299   2.983
 5537SOL    HW217511   2.767   2.170   2.893
 5538SOL     OW17512   4.001   5.268   3.540
 5538SOL    HW117513   4.067   5.342   3.529
 5538SOL    HW217514   3.991   5.248   3.638
 5539SOL     OW17515   2.497   3.775   0.177
 5539SOL    HW117516   2.524   3.686   0.143
 5539SOL    HW217517   2.567   3.843   0.156
 5540SOL     OW17518   3.764   5.455   1.006
 5540SOL    HW117519   3.677   5.406   1.012
 5540SOL    HW217520   3.755   5.544   1.050
 5541SOL     OW17521   4.542   0.516   6.683
 5541SOL    HW117522   4.474   0.544   6.614
 5541SOL    HW217523   4.549   0.586   6.753
 5542SOL     OW17524   5.744   3.615   6.705
 5542SOL    HW117525   5.707   3.707   6.702
 5542SOL    HW217526   5.671   3.549   6.723
 5543SOL     OW17527   0.887   2.413   4.802
 5543SOL    HW117528   0.911   2.477   4.875
 5543SOL    HW217529   0.933   2.441   4.717
 5544SOL     OW17530   5.710   6.845   0.076
 5544SOL    HW117531   5.701   6.752   0.042
 5544SOL    HW217532   5.637   6.902   0.038
 5545SOL     OW17533   2.603   2.420   2.067
 5545SOL    HW117534   2.696   2.384   2.060
 5545SOL    HW217535   2.569   2.443   1.976
 5546SOL     OW17536   3.361   5.512   4.824
 5546SOL    HW117537   3.297   5.585   4.799
 5546SOL    HW217538   3.374   5.451   4.746
 5547SOL     OW17539   2.654   4.980   3.774
 5547SOL    HW117540   2.587   4.990   3.848
 5547SOL    HW217541   2.690   5.070   3.750
 5548SOL     OW17542   6.612   1.767   4.494
 5548SOL    HW117543   6.524   1.807   4.518
 5548SOL    HW217544   6.630   1.688   4.553
 5549SOL     OW17545   2.938   5.022   5.780
 5549SOL    HW117546   2.945   4.924   5.803
 5549SOL    HW217547   3.028   5.055   5.750
 5550SOL     OW17548   2.981   6.223   2.617
 5550SOL    HW117549   2.894   6.246   2.574
 5550SOL    HW217550   3.054   6.226   2.549
 5551SOL     OW17551   0.624   1.443   2.496
 5551SOL    HW117552   0.679   1.368   2.461
 5551SOL    HW217553   0.530   1.433   2.465
 5552SOL     OW17554   2.090   2.379   2.261
 5552SOL    HW117555   1.996   2.405   2.242
 5552SOL    HW217556   2.148   2.403   2.184
 5553SOL     OW17557   4.857   6.513   5.818
 5553SOL    HW117558   4.885   6.563   5.900
 5553SOL    HW217559   4.936   6.503   5.757
 5554SOL     OW17560   2.840   0.198   5.779
 5554SOL    HW117561   2.897   0.120   5.807
 5554SOL    HW217562   2.758   0.165   5.732
 5555SOL     OW17563   1.369   5.655   1.684
 5555SOL    HW117564   1.324   5.567   1.666
 5555SOL    HW217565   1.305   5.729   1.666
 5556SOL     OW17566   6.828   1.355   4.951
 5556SOL    HW117567   6.778   1.439   4.973
 5556SOL    HW217568   6.890   1.373   4.875
 5557SOL     OW17569   3.753   0.736   2.376
 5557SOL    HW117570   3.694   0.714   2.453
 5557SOL    HW217571   3.782   0.832   2.382
 5558SOL     OW17572   5.034   2.632   6.302
 5558SOL    HW117573   4.987   2.706   6.349
 5558SOL    HW217574   5.027   2.646   6.203
 5559SOL     OW17575   3.553   0.928   0.675
 5559SOL    HW117576   3.612   0.885   0.606
 5559SOL    HW217577   3.608   0.986   0.734
 5560SOL     OW17578   0.216   2.079   4.786
 5560SOL    HW117579   0.228   1.983   4.761
 5560SOL    HW217580   0.127   2.111   4.753
 5561SOL     OW17581   2.125   4.496   2.080
 5561SOL    HW117582   2.198   4.515   2.014
 5561SOL    HW217583   2.110   4.397   2.085
 5562SOL     OW17584   4.381   2.729   0.366
 5562SOL    HW117585   4.438   2.793   0.315
 5562SOL    HW217586   4.440   2.671   0.423
 5563SOL     OW17587   3.747   4.467   1.121
 5563SOL    HW117588   3.665   4.524   1.127
 5563SOL    HW217589   3.778   4.444   1.213
 5564SOL     OW17590   6.552   0.699   2.275
 5564SOL    HW117591   6.538   0.606   2.242
 5564SOL    HW217592   6.489   0.718   2.350
 5565SOL     OW17593   1.536   2.733   5.924
 5565SOL    HW117594   1.629   2.750   5.957
 5565SOL    HW217595   1.483   2.688   5.996
 5566SOL     OW17596   2.384   4.343   0.633
 5566SOL    HW117597   2.346   4.403   0.703
 5566SOL    HW217598   2.481   4.325   0.652
 5567SOL     OW17599   1.279   5.863   3.306
 5567SOL    HW117600   1.280   5.813   3.219
 5567SOL    HW217601   1.261   5.799   3.380
 5568SOL     OW17602   4.220   3.035   6.803
 5568SOL    HW117603   4.284   3.006   6.874
 5568SOL    HW217604   4.126   3.026   6.836
 5569SOL     OW17605   4.787   1.335   6.340
 5569SOL    HW117606   4.739   1.248   6.352
 5569SOL    HW217607   4.876   1.319   6.299
 5570SOL     OW17608   1.997   2.410   6.120
 5570SOL    HW117609   1.915   2.355   6.131
 5570SOL    HW217610   2.030   2.404   6.026
 5571SOL     OW17611   0.414   4.453   6.468
 5571SOL    HW117612   0.507   4.465   6.433
 5571SOL    HW217613   0.348   4.483   6.399
 5572SOL     OW17614   1.023   3.564   5.410
 5572SOL    HW117615   1.113   3.597   5.440
 5572SOL    HW217616   0.967   3.641   5.379
 5573SOL     OW17617   0.117   3.541   6.769
 5573SOL    HW117618   0.019   3.532   6.786
 5573SOL    HW217619   0.137   3.634   6.737
 5574SOL     OW17620   2.299   6.217   4.472
 5574SOL    HW117621   2.326   6.155   4.399
 5574SOL    HW217622   2.277   6.164   4.554
 5575SOL     OW17623   1.377   1.477   2.758
 5575SOL    HW117624   1.415   1.474   2.850
 5575SOL    HW217625   1.410   1.399   2.705
 5576SOL     OW17626   5.221   6.904   6.301
 5576SOL    HW117627   5.254   6.823   6.252
 5576SOL    HW217628   5.280   6.981   6.279
 5577SOL     OW17629   1.351   4.966   4.939
 5577SOL    HW117630   1.442   5.001   4.959
 5577SOL    HW217631   1.332   4.888   4.999
 5578SOL     OW17632   4.281   1.855   6.244
 5578SOL    HW117633   4.284   1.944   6.290
 5578SOL    HW217634   4.185   1.826   6.236
 5579SOL     OW17635   4.871   4.692   2.060
 5579SOL    HW117636   4.883   4.761   2.131
 5579SOL    HW217637   4.942   4.704   1.990
 5580SOL     OW17638   6.505   1.227   2.109
 5580SOL    HW117639   6.492   1.253   2.013
 5580SOL    HW217640   6.468   1.135   2.124
 5581SOL     OW17641   3.386   3.347   0.547
 5581SOL    HW117642   3.321   3.387   0.611
 5581SOL    HW217643   3.408   3.253   0.575
 5582SOL     OW17644   3.046   3.596   5.144
 5582SOL    HW117645   2.995   3.629   5.064
 5582SOL    HW217646   3.059   3.497   5.137
 5583SOL     OW17647   4.328   1.296   6.550
 5583SOL    HW117648   4.272   1.326   6.473
 5583SOL    HW217649   4.271   1.289   6.632
 5584SOL     OW17650   4.887   3.388   4.358
 5584SOL    HW117651   4.907   3.364   4.453
 5584SOL    HW217652   4.849   3.308   4.311
 5585SOL     OW17653   6.971   0.840   3.540
 5585SOL    HW117654   6.986   0.913   3.473
 5585SOL    HW217655   6.961   0.880   3.631
 5586SOL     OW17656   1.732   0.887   0.053
 5586SOL    HW117657   1.736   0.957   6.998
 5586SOL    HW217658   1.680   0.809   0.019
 5587SOL     OW17659   3.678   6.723   3.137
 5587SOL    HW117660   3.702   6.637   3.091
 5587SOL    HW217661   3.724   6.799   3.091
 5588SOL     OW17662   4.671   5.418   0.140
 5588SOL    HW117663   4.712   5.406   0.230
 5588SOL    HW217664   4.730   5.376   0.071
 5589SOL     OW17665   1.415   2.576   6.824
 5589SOL    HW117666   1.336   2.637   6.833
 5589SOL    HW217667   1.385   2.481   6.834
 5590SOL     OW17668   6.186   0.604   3.456
 5590SOL    HW117669   6.109   0.659   3.488
 5590SOL    HW217670   6.216   0.638   3.366
 5591SOL     OW17671   5.117   1.415   6.182
 5591SOL    HW117672   5.189   1.472   6.220
 5591SOL    HW217673   5.101   1.440   6.087
 5592SOL     OW17674   1.285   3.709   2.614
 5592SOL    HW117675   1.249   3.667   2.531
 5592SOL    HW217676   1.250   3.661   2.695
 5593SOL     OW17677   2.273   3.689   5.194
 5593SOL    HW117678   2.236   3.680   5.287
 5593SOL    HW217679   2.356   3.744   5.197
 5594SOL     OW17680   2.826   0.727   6.117
 5594SOL    HW117681   2.824   0.805   6.055
 5594SOL    HW217682   2.913   0.679   6.108
 5595SOL     OW17683   6.870   3.258   0.548
 5595SOL    HW117684   6.895   3.171   0.592
 5595SOL    HW217685   6.772   3.274   0.559
 5596SOL     OW17686   5.220   3.642   4.134
 5596SOL    HW117687   5.242   3.740   4.143
 5596SOL    HW217688   5.135   3.622   4.183
 5597SOL     OW17689   0.242   1.954   6.757
 5597SOL    HW117690   0.299   1.886   6.801
 5597SOL    HW217691   0.169   1.909   6.706
 5598SOL     OW17692   6.468   6.880   3.259
 5598SOL    HW117693   6.524   6.862   3.178
 5598SOL    HW217694   6.502   6.826   3.336
 5599SOL     OW17695   5.014   3.031   2.858
 5599SOL    HW117696   4.986   2.979   2.938
 5599SOL    HW217697   4.961   3.116   2.853
 5600SOL     OW17698   2.127   3.225   2.024
 5600SOL    HW117699   2.149   3.210   2.121
 5600SOL    HW217700   2.121   3.323   2.006
 5601SOL     OW17701   4.955   2.275   6.567
 5601SOL    HW117702   4.959   2.292   6.665
 5601SOL    HW217703   4.879   2.213   6.546
 5602SOL     OW17704   5.689   0.932   2.514
 5602SOL    HW117705   5.664   0.862   2.448
 5602SOL    HW217706   5.608   0.984   2.540
 5603SOL     OW17707   3.871   1.165   6.630
 5603SOL    HW117708   3.859   1.068   6.647
 5603SOL    HW217709   3.802   1.217   6.680
 5604SOL     OW17710   1.703   4.180   3.613
 5604SOL    HW117711   1.654   4.112   3.559
 5604SOL    HW217712   1.695   4.159   3.710
 5605SOL     OW17713   3.320   6.695   4.740
 5605SOL    HW117714   3.246   6.753   4.772
 5605SOL    HW217715   3.332   6.619   4.804
 5606SOL     OW17716   4.500   4.469   1.251
 5606SOL    HW117717   4.423   4.479   1.188
 5606SOL    HW217718   4.580   4.516   1.214
 5607SOL     OW17719   1.691   1.726   1.908
 5607SOL    HW117720   1.612   1.764   1.860
 5607SOL    HW217721   1.668   1.711   2.004
 5608SOL     OW17722   6.750   6.601   3.991
 5608SOL    HW117723   6.693   6.663   3.937
 5608SOL    HW217724   6.727   6.506   3.967
 5609SOL     OW17725   7.016   1.112   0.548
 5609SOL    HW117726   0.033   1.145   0.636
 5609SOL    HW217727   0.019   1.179   0.477
 5610SOL     OW17728   5.329   6.559   6.536
 5610SOL    HW117729   5.250   6.617   6.516
 5610SOL    HW217730   5.362   6.517   6.452
 5611SOL     OW17731   0.036   4.281   1.485
 5611SOL    HW117732   0.129   4.276   1.521
 5611SOL    HW217733   7.003   4.199   1.509
 5612SOL     OW17734   5.342   1.935   1.056
 5612SOL    HW117735   5.254   1.901   1.091
 5612SOL    HW217736   5.413   1.923   1.125
 5613SOL     OW17737   6.638   5.294   5.315
 5613SOL    HW117738   6.696   5.362   5.270
 5613SOL    HW217739   6.621   5.321   5.409
 5614SOL     OW17740   5.319   2.452   4.410
 5614SOL    HW117741   5.366   2.533   4.376
 5614SOL    HW217742   5.385   2.378   4.423
 5615SOL     OW17743   0.764   3.170   2.510
 5615SOL    HW117744   0.674   3.213   2.508
 5615SOL    HW217745   0.812   3.197   2.594
 5616SOL     OW17746   1.987   3.042   1.593
 5616SOL    HW117747   1.992   3.026   1.692
 5616SOL    HW217748   1.928   2.973   1.551
 5617SOL     OW17749   0.408   4.998   4.804
 5617SOL    HW117750   0.311   4.985   4.783
 5617SOL    HW217751   0.462   4.990   4.721
 5618SOL     OW17752   5.165   1.124   3.005
 5618SOL    HW117753   5.233   1.196   2.990
 5618SOL    HW217754   5.077   1.153   2.967
 5619SOL     OW17755   3.717   4.038   4.270
 5619SOL    HW117756   3.625   4.057   4.236
 5619SOL    HW217757   3.736   4.093   4.351
 5620SOL     OW17758   4.811   4.542   5.616
 5620SOL    HW117759   4.859   4.629   5.626
 5620SOL    HW217760   4.875   4.467   5.632
 5621SOL     OW17761   0.957   3.070   0.347
 5621SOL    HW117762   0.946   2.980   0.387
 5621SOL    HW217763   1.029   3.068   0.278
 5622SOL     OW17764   5.361   5.781   3.375
 5622SOL    HW117765   5.356   5.766   3.474
 5622SOL    HW217766   5.351   5.879   3.356
 5623SOL     OW17767   4.554   4.437   3.688
 5623SOL    HW117768   4.620   4.375   3.728
 5623SOL    HW217769   4.501   4.482   3.760
 5624SOL     OW17770   4.992   3.856   4.140
 5624SOL    HW117771   5.001   3.762   4.172
 5624SOL    HW217772   5.081   3.903   4.146
 5625SOL     OW17773   3.871   6.953   6.299
 5625SOL    HW117774   3.910   6.875   6.252
 5625SOL    HW217775   3.825   6.923   6.382
 5626SOL     OW17776   1.873   4.353   5.936
 5626SOL    HW117777   1.922   4.271   5.963
 5626SOL    HW217778   1.926   4.434   5.960
 5627SOL     OW17779   0.903   5.633   0.773
 5627SOL    HW117780   0.838   5.623   0.698
 5627SOL    HW217781   0.985   5.679   0.740
 5628SOL     OW17782   0.985   2.547   6.821
 5628SOL    HW117783   0.908   2.539   6.885
 5628SOL    HW217784   1.066   2.504   6.860
 5629SOL     OW17785   0.709   3.121   5.073
 5629SOL    HW117786   0.728   3.164   4.984
 5629SOL    HW217787   0.648   3.043   5.059
 5630SOL     OW17788   0.786   4.678   6.611
 5630SOL    HW117789   0.842   4.620   6.671
 5630SOL    HW217790   0.785   4.640   6.519
 5631SOL     OW17791   2.990   0.878   3.888
 5631SOL    HW117792   2.913   0.938   3.868
 5631SOL    HW217793   2.957   0.787   3.913
 5632SOL     OW17794   2.782   6.327   6.659
 5632SOL    HW117795   2.749   6.419   6.682
 5632SOL    HW217796   2.707   6.262   6.666
 5633SOL     OW17797   1.742   5.599   4.750
 5633SOL    HW117798   1.802   5.533   4.704
 5633SOL    HW217799   1.713   5.561   4.838
 5634SOL     OW17800   2.409   0.204   1.435
 5634SOL    HW117801   2.374   0.278   1.491
 5634SOL    HW217802   2.357   0.198   1.350
 5635SOL     OW17803   4.096   0.895   2.796
 5635SOL    HW117804   4.027   0.840   2.844
 5635SOL    HW217805   4.142   0.839   2.728
 5636SOL     OW17806   5.080   0.425   4.264
 5636SOL    HW117807   4.983   0.406   4.244
 5636SOL    HW217808   5.106   0.379   4.349
 5637SOL     OW17809   6.181   0.072   5.703
 5637SOL    HW117810   6.153   0.097   5.796
 5637SOL    HW217811   6.196   6.990   5.698
 5638SOL     OW17812   1.373   6.433   0.034
 5638SOL    HW117813   1.423   6.517   0.015
 5638SOL    HW217814   1.282   6.456   0.069
 5639SOL     OW17815   3.530   6.918   1.513
 5639SOL    HW117816   3.603   6.855   1.541
 5639SOL    HW217817   3.520   6.915   1.414
 5640SOL     OW17818   4.656   6.499   4.401
 5640SOL    HW117819   4.614   6.410   4.417
 5640SOL    HW217820   4.627   6.535   4.312
 5641SOL     OW17821   6.511   4.651   3.781
 5641SOL    HW117822   6.540   4.588   3.709
 5641SOL    HW217823   6.456   4.602   3.848
 5642SOL     OW17824   2.144   2.096   6.370
 5642SOL    HW117825   2.105   2.037   6.300
 5642SOL    HW217826   2.077   2.165   6.396
 5643SOL     OW17827   5.261   2.784   3.395
 5643SOL    HW117828   5.265   2.880   3.423
 5643SOL    HW217829   5.166   2.754   3.393
 5644SOL     OW17830   2.921   0.948   5.941
 5644SOL    HW117831   2.997   0.887   5.959
 5644SOL    HW217832   2.898   0.945   5.844
 5645SOL     OW17833   6.460   6.410   4.410
 5645SOL    HW117834   6.426   6.481   4.471
 5645SOL    HW217835   6.524   6.451   4.344
 5646SOL     OW17836   6.587   1.065   2.648
 5646SOL    HW117837   6.539   1.134   2.594
 5646SOL    HW217838   6.683   1.092   2.658
 5647SOL     OW17839   5.839   3.385   6.509
 5647SOL    HW117840   5.823   3.442   6.590
 5647SOL    HW217841   5.920   3.418   6.461
 5648SOL     OW17842   1.538   1.974   3.958
 5648SOL    HW117843   1.461   2.024   3.996
 5648SOL    HW217844   1.504   1.895   3.906
 5649SOL     OW17845   6.613   0.763   4.643
 5649SOL    HW117846   6.513   0.767   4.647
 5649SOL    HW217847   6.649   0.739   4.734
 5650SOL     OW17848   6.211   4.766   5.756
 5650SOL    HW117849   6.158   4.844   5.790
 5650SOL    HW217850   6.150   4.692   5.731
 5651SOL     OW17851   5.795   0.447   3.134
 5651SOL    HW117852   5.890   0.450   3.164
 5651SOL    HW217853   5.754   0.537   3.148
 5652SOL     OW17854   4.312   4.447   6.556
 5652SOL    HW117855   4.218   4.425   6.530
 5652SOL    HW217856   4.334   4.400   6.642
 5653SOL     OW17857   2.078   6.609   6.627
 5653SOL    HW117858   2.101   6.535   6.564
 5653SOL    HW217859   2.098   6.580   6.721
 5654SOL     OW17860   2.538   6.748   0.354
 5654SOL    HW117861   2.548   6.789   0.445
 5654SOL    HW217862   2.624   6.755   0.305
 5655SOL     OW17863   6.151   5.800   2.361
 5655SOL    HW117864   6.236   5.753   2.380
 5655SOL    HW217865   6.074   5.737   2.373
 5656SOL     OW17866   3.259   4.922   6.261
 5656SOL    HW117867   3.316   4.999   6.232
 5656SOL    HW217868   3.197   4.951   6.334
 5657SOL     OW17869   5.003   5.606   1.891
 5657SOL    HW117870   5.090   5.595   1.940
 5657SOL    HW217871   4.998   5.540   1.816
 5658SOL     OW17872   4.618   6.771   5.835
 5658SOL    HW117873   4.571   6.844   5.885
 5658SOL    HW217874   4.586   6.682   5.869
 5659SOL     OW17875   2.921   3.684   2.419
 5659SOL    HW117876   2.950   3.591   2.443
 5659SOL    HW217877   2.822   3.686   2.406
 5660SOL     OW17878   0.426   5.114   1.676
 5660SOL    HW117879   0.492   5.159   1.616
 5660SOL    HW217880   0.382   5.039   1.628
 5661SOL     OW17881   5.935   5.935   4.667
 5661SOL    HW117882   5.921   5.873   4.590
 5661SOL    HW217883   5.846   5.968   4.700
 5662SOL     OW17884   1.750   3.766   4.833
 5662SOL    HW117885   1.654   3.755   4.861
 5662SOL    HW217886   1.765   3.723   4.745
 5663SOL     OW17887   2.611   4.069   0.405
 5663SOL    HW117888   2.628   4.096   0.499
 5663SOL    HW217889   2.527   4.014   0.400
 5664SOL     OW17890   6.489   6.890   1.340
 5664SOL    HW117891   6.466   6.878   1.243
 5664SOL    HW217892   6.512   6.801   1.380
 5665SOL     OW17893   1.445   0.864   5.807
 5665SOL    HW117894   1.488   0.838   5.721
 5665SOL    HW217895   1.480   0.953   5.837
 5666SOL     OW17896   5.087   6.071   6.541
 5666SOL    HW117897   5.039   6.126   6.608
 5666SOL    HW217898   5.135   5.996   6.586
 5667SOL     OW17899   5.264   4.390   3.310
 5667SOL    HW117900   5.195   4.330   3.349
 5667SOL    HW217901   5.225   4.440   3.232
 5668SOL     OW17902   5.899   2.631   6.480
 5668SOL    HW117903   5.877   2.601   6.387
 5668SOL    HW217904   5.969   2.701   6.476
 5669SOL     OW17905   0.483   2.047   5.439
 5669SOL    HW117906   0.432   2.128   5.469
 5669SOL    HW217907   0.486   1.981   5.514
 5670SOL     OW17908   1.425   3.244   1.893
 5670SOL    HW117909   1.426   3.147   1.916
 5670SOL    HW217910   1.489   3.261   1.818
 5671SOL     OW17911   0.673   0.648   6.123
 5671SOL    HW117912   0.659   0.736   6.077
 5671SOL    HW217913   0.762   0.611   6.096
 5672SOL     OW17914   4.560   4.599   5.697
 5672SOL    HW117915   4.650   4.594   5.652
 5672SOL    HW217916   4.510   4.514   5.682
 5673SOL     OW17917   2.042   6.468   1.493
 5673SOL    HW117918   1.989   6.431   1.570
 5673SOL    HW217919   1.985   6.533   1.442
 5674SOL     OW17920   0.786   2.781   0.807
 5674SOL    HW117921   0.824   2.859   0.857
 5674SOL    HW217922   0.692   2.801   0.780
 5675SOL     OW17923   4.029   1.236   5.129
 5675SOL    HW117924   4.009   1.272   5.038
 5675SOL    HW217925   3.975   1.154   5.146
 5676SOL     OW17926   2.321   6.474   2.387
 5676SOL    HW117927   2.287   6.396   2.440
 5676SOL    HW217928   2.320   6.556   2.444
 5677SOL     OW17929   5.862   0.117   2.814
 5677SOL    HW117930   5.856   0.018   2.802
 5677SOL    HW217931   5.782   0.150   2.864
 5678SOL     OW17932   1.521   5.469   2.619
 5678SOL    HW117933   1.620   5.459   2.608
 5678SOL    HW217934   1.500   5.479   2.716
 5679SOL     OW17935   3.670   5.766   5.765
 5679SOL    HW117936   3.737   5.807   5.827
 5679SOL    HW217937   3.678   5.809   5.674
 5680SOL     OW17938   1.664   0.333   6.562
 5680SOL    HW117939   1.696   0.427   6.575
 5680SOL    HW217940   1.585   0.333   6.500
 5681SOL     OW17941   3.141   3.644   0.208
 5681SOL    HW117942   3.135   3.677   0.113
 5681SOL    HW217943   3.218   3.581   0.216
 5682SOL     OW17944   2.103   3.631   4.705
 5682SOL    HW117945   2.167   3.700   4.671
 5682SOL    HW217946   2.069   3.659   4.795
 5683SOL     OW17947   3.348   3.800   4.804
 5683SOL    HW117948   3.323   3.862   4.879
 5683SOL    HW217949   3.439   3.824   4.770
 5684SOL     OW17950   3.393   4.058   2.749
 5684SOL    HW117951   3.445   4.084   2.830
 5684SOL    HW217952   3.450   4.071   2.668
 5685SOL     OW17953   0.334   0.141   1.904
 5685SOL    HW117954   0.266   0.166   1.835
 5685SOL    HW217955   0.328   0.205   1.981
 5686SOL     OW17956   3.652   4.800   6.483
 5686SOL    HW117957   3.712   4.721   6.479
 5686SOL    HW217958   3.599   4.806   6.399
 5687SOL     OW17959   4.567   6.027   6.217
 5687SOL    HW117960   4.539   6.046   6.311
 5687SOL    HW217961   4.619   6.105   6.181
 5688SOL     OW17962   5.337   1.517   2.366
 5688SOL    HW117963   5.343   1.419   2.384
 5688SOL    HW217964   5.268   1.535   2.297
 5689SOL     OW17965   3.698   2.900   5.217
 5689SOL    HW117966   3.760   2.963   5.263
 5689SOL    HW217967   3.694   2.921   5.120
 5690SOL     OW17968   3.856   0.280   2.925
 5690SOL    HW117969   3.909   0.201   2.894
 5690SOL    HW217970   3.851   0.280   3.025
 5691SOL     OW17971   3.144   0.443   4.486
 5691SOL    HW117972   3.216   0.375   4.499
 5691SOL    HW217973   3.149   0.512   4.558
 5692SOL     OW17974   5.857   2.944   0.402
 5692SOL    HW117975   5.797   2.865   0.417
 5692SOL    HW217976   5.853   3.005   0.481
 5693SOL     OW17977   5.651   3.232   1.775
 5693SOL    HW117978   5.572   3.233   1.715
 5693SOL    HW217979   5.733   3.254   1.722
 5694SOL     OW17980   1.961   2.291   5.021
 5694SOL    HW117981   1.943   2.336   5.109
 5694SOL    HW217982   1.941   2.354   4.947
 5695SOL     OW17983   1.748   3.417   3.467
 5695SOL    HW117984   1.665   3.363   3.480
 5695SOL    HW217985   1.824   3.374   3.517
 5696SOL     OW17986   3.443   1.560   6.794
 5696SOL    HW117987   3.400   1.614   6.866
 5696SOL    HW217988   3.375   1.537   6.724
 5697SOL     OW17989   6.657   3.920   0.635
 5697SOL    HW117990   6.578   3.889   0.688
 5697SOL    HW217991   6.713   3.841   0.610
 5698SOL     OW17992   1.769   4.337   4.343
 5698SOL    HW117993   1.808   4.293   4.424
 5698SOL    HW217994   1.676   4.368   4.363
 5699SOL     OW17995   0.884   2.559   5.074
 5699SOL    HW117996   0.843   2.649   5.059
 5699SOL    HW217997   0.846   2.518   5.157
 5700SOL     OW17998   1.206   5.195   4.185
 5700SOL    HW117999   1.233   5.278   4.137
 5700SOL    HW218000   1.219   5.207   4.283
 5701SOL     OW18001   4.838   2.305   2.521
 5701SOL    HW118002   4.859   2.221   2.473
 5701SOL    HW218003   4.830   2.380   2.455
 5702SOL     OW18004   4.056   0.644   6.688
 5702SOL    HW118005   3.956   0.641   6.678
 5702SOL    HW218006   4.078   0.664   6.784
 5703SOL     OW18007   5.131   3.944   2.515
 5703SOL    HW118008   5.109   4.018   2.578
 5703SOL    HW218009   5.227   3.949   2.489
 5704SOL     OW18010   5.315   3.725   3.528
 5704SOL    HW118011   5.372   3.643   3.528
 5704SOL    HW218012   5.373   3.805   3.507
 5705SOL     OW18013   6.903   0.946   3.783
 5705SOL    HW118014   6.949   0.950   3.872
 5705SOL    HW218015   6.823   0.888   3.789
 5706SOL     OW18016   2.360   1.530   5.847
 5706SOL    HW118017   2.396   1.446   5.888
 5706SOL    HW218018   2.379   1.529   5.749
 5707SOL     OW18019   4.219   1.058   1.304
 5707SOL    HW118020   4.158   1.046   1.226
 5707SOL    HW218021   4.228   0.971   1.353
 5708SOL     OW18022   1.130   6.655   0.630
 5708SOL    HW118023   1.054   6.701   0.585
 5708SOL    HW218024   1.145   6.566   0.586
 5709SOL     OW18025   0.411   2.854   0.895
 5709SOL    HW118026   0.468   2.881   0.972
 5709SOL    HW218027   0.328   2.809   0.928
 5710SOL     OW18028   3.456   5.041   6.568
 5710SOL    HW118029   3.435   5.051   6.471
 5710SOL    HW218030   3.504   4.954   6.583
 5711SOL     OW18031   4.721   1.427   4.800
 5711SOL    HW118032   4.778   1.475   4.866
 5711SOL    HW218033   4.683   1.344   4.842
 5712SOL     OW18034   5.334   6.691   6.160
 5712SOL    HW118035   5.406   6.685   6.091
 5712SOL    HW218036   5.300   6.600   6.181
 5713SOL     OW18037   0.153   4.001   2.559
 5713SOL    HW118038   0.145   3.902   2.549
 5713SOL    HW218039   0.080   4.035   2.617
 5714SOL     OW18040   2.497   0.544   1.300
 5714SOL    HW118041   2.588   0.504   1.288
 5714SOL    HW218042   2.484   0.570   1.395
 5715SOL     OW18043   0.610   5.961   3.977
 5715SOL    HW118044   0.601   6.053   3.940
 5715SOL    HW218045   0.643   5.966   4.072
 5716SOL     OW18046   1.458   2.531   5.144
 5716SOL    HW118047   1.538   2.588   5.126
 5716SOL    HW218048   1.485   2.436   5.156
 5717SOL     OW18049   0.616   3.728   5.809
 5717SOL    HW118050   0.662   3.715   5.897
 5717SOL    HW218051   0.685   3.742   5.738
 5718SOL     OW18052   3.123   6.013   6.068
 5718SOL    HW118053   3.067   6.049   6.143
 5718SOL    HW218054   3.176   5.935   6.100
 5719SOL     OW18055   2.005   0.853   6.874
 5719SOL    HW118056   1.953   0.921   6.927
 5719SOL    HW218057   1.984   0.863   6.777
 5720SOL     OW18058   2.278   6.006   4.135
 5720SOL    HW118059   2.332   6.001   4.219
 5720SOL    HW218060   2.274   5.916   4.093
 5721SOL     OW18061   6.393   5.323   6.473
 5721SOL    HW118062   6.466   5.324   6.542
 5721SOL    HW218063   6.307   5.294   6.516
 5722SOL     OW18064   5.289   0.911   4.468
 5722SOL    HW118065   5.262   0.976   4.396
 5722SOL    HW218066   5.233   0.926   4.549
 5723SOL     OW18067   6.927   4.750   0.876
 5723SOL    HW118068   6.918   4.652   0.889
 5723SOL    HW218069   6.866   4.798   0.939
 5724SOL     OW18070   4.439   2.865   6.350
 5724SOL    HW118071   4.454   2.954   6.306
 5724SOL    HW218072   4.524   2.812   6.347
 5725SOL     OW18073   5.885   6.684   5.523
 5725SOL    HW118074   5.803   6.740   5.533
 5725SOL    HW218075   5.960   6.725   5.576
 5726SOL     OW18076   3.781   5.193   5.561
 5726SOL    HW118077   3.823   5.124   5.502
 5726SOL    HW218078   3.725   5.255   5.506
 5727SOL     OW18079   5.609   2.412   3.546
 5727SOL    HW118080   5.618   2.497   3.598
 5727SOL    HW218081   5.520   2.411   3.500
 5728SOL     OW18082   3.857   1.194   5.648
 5728SOL    HW118083   3.867   1.281   5.599
 5728SOL    HW218084   3.825   1.211   5.741
 5729SOL     OW18085   2.637   2.155   3.927
 5729SOL    HW118086   2.698   2.078   3.909
 5729SOL    HW218087   2.595   2.144   4.017
 5730SOL     OW18088   3.916   4.508   0.461
 5730SOL    HW118089   3.969   4.443   0.514
 5730SOL    HW218090   3.924   4.599   0.501
 5731SOL     OW18091   4.484   1.003   5.186
 5731SOL    HW118092   4.462   1.096   5.155
 5731SOL    HW218093   4.453   0.992   5.281
 5732SOL     OW18094   6.742   3.843   4.369
 5732SOL    HW118095   6.809   3.791   4.422
 5732SOL    HW218096   6.689   3.780   4.312
 5733SOL     OW18097   2.109   6.434   1.013
 5733SOL    HW118098   2.046   6.495   0.966
 5733SOL    HW218099   2.169   6.487   1.072
 5734SOL     OW18100   1.684   0.008   5.559
 5734SOL    HW118101   1.678   0.032   5.462
 5734SOL    HW218102   1.745   0.071   5.606
 5735SOL     OW18103   5.287   1.355   0.817
 5735SOL    HW118104   5.316   1.447   0.790
 5735SOL    HW218105   5.235   1.313   0.743
 5736SOL     OW18106   4.658   3.532   6.647
 5736SOL    HW118107   4.660   3.506   6.551
 5736SOL    HW218108   4.752   3.540   6.682
 5737SOL     OW18109   5.275   5.485   2.589
 5737SOL    HW118110   5.246   5.391   2.570
 5737SOL    HW218111   5.361   5.485   2.640
 5738SOL     OW18112   3.271   1.870   0.843
 5738SOL    HW118113   3.201   1.941   0.834
 5738SOL    HW218114   3.328   1.891   0.922
 5739SOL     OW18115   2.381   1.285   5.999
 5739SOL    HW118116   2.353   1.259   6.091
 5739SOL    HW218117   2.418   1.204   5.952
 5740SOL     OW18118   4.870   2.701   2.638
 5740SOL    HW118119   4.800   2.653   2.584
 5740SOL    HW218120   4.957   2.699   2.589
 5741SOL     OW18121   1.496   3.451   3.913
 5741SOL    HW118122   1.415   3.395   3.931
 5741SOL    HW218123   1.486   3.496   3.824
 5742SOL     OW18124   6.325   4.504   2.328
 5742SOL    HW118125   6.398   4.484   2.263
 5742SOL    HW218126   6.279   4.589   2.302
 5743SOL     OW18127   3.266   6.653   6.441
 5743SOL    HW118128   3.301   6.725   6.500
 5743SOL    HW218129   3.219   6.584   6.496
 5744SOL     OW18130   5.310   5.727   3.674
 5744SOL    HW118131   5.319   5.826   3.677
 5744SOL    HW218132   5.213   5.702   3.678
 5745SOL     OW18133   1.224   3.314   2.329
 5745SOL    HW118134   1.299   3.333   2.265
 5745SOL    HW218135   1.261   3.269   2.411
 5746SOL     OW18136   5.407   0.699   3.475
 5746SOL    HW118137   5.345   0.734   3.405
 5746SOL    HW218138   5.499   0.690   3.437
 5747SOL     OW18139   1.519   6.626   1.942
 5747SOL    HW118140   1.583   6.675   1.882
 5747SOL    HW218141   1.543   6.642   2.037
 5748SOL     OW18142   6.263   6.816   0.291
 5748SOL    HW118143   6.227   6.742   0.347
 5748SOL    HW218144   6.217   6.815   0.202
 5749SOL     OW18145   1.841   6.367   6.390
 5749SOL    HW118146   1.887   6.371   6.301
 5749SOL    HW218147   1.788   6.451   6.404
 5750SOL     OW18148   6.213   2.572   4.217
 5750SOL    HW118149   6.286   2.505   4.234
 5750SOL    HW218150   6.196   2.625   4.300
 5751SOL     OW18151   0.030   3.754   4.228
 5751SOL    HW118152   0.052   3.710   4.315
 5751SOL    HW218153   0.053   3.852   4.233
 5752SOL     OW18154   5.636   1.412   6.934
 5752SOL    HW118155   5.731   1.417   6.963
 5752SOL    HW218156   5.596   1.503   6.934
 5753SOL     OW18157   3.698   3.135   4.089
 5753SOL    HW118158   3.663   3.138   3.996
 5753SOL    HW218159   3.651   3.063   4.140
 5754SOL     OW18160   6.101   0.191   0.828
 5754SOL    HW118161   6.188   0.140   0.824
 5754SOL    HW218162   6.086   0.222   0.921
 5755SOL     OW18163   0.536   3.757   6.636
 5755SOL    HW118164   0.470   3.820   6.596
 5755SOL    HW218165   0.523   3.666   6.596
 5756SOL     OW18166   5.971   6.626   1.675
 5756SOL    HW118167   5.996   6.622   1.578
 5756SOL    HW218168   5.879   6.590   1.687
 5757SOL     OW18169   1.562   1.912   4.260
 5757SOL    HW118170   1.563   1.820   4.298
 5757SOL    HW218171   1.631   1.919   4.187
 5758SOL     OW18172   6.062   6.562   3.059
 5758SOL    HW118173   6.008   6.496   3.111
 5758SOL    HW218174   6.157   6.561   3.091
 5759SOL     OW18175   2.390   6.172   2.737
 5759SOL    HW118176   2.356   6.258   2.699
 5759SOL    HW218177   2.482   6.186   2.774
 5760SOL     OW18178   0.594   2.172   0.263
 5760SOL    HW118179   0.520   2.168   0.196
 5760SOL    HW218180   0.680   2.194   0.217
 5761SOL     OW18181   6.339   6.675   5.438
 5761SOL    HW118182   6.264   6.666   5.372
 5761SOL    HW218183   6.408   6.738   5.402
 5762SOL     OW18184   0.832   6.374   5.511
 5762SOL    HW118185   0.912   6.394   5.567
 5762SOL    HW218186   0.838   6.424   5.424
 5763SOL     OW18187   5.230   0.486   0.138
 5763SOL    HW118188   5.196   0.454   0.050
 5763SOL    HW218189   5.229   0.411   0.204
 5764SOL     OW18190   4.013   6.222   4.081
 5764SOL    HW118191   4.102   6.232   4.037
 5764SOL    HW218192   3.942   6.213   4.011
 5765SOL     OW18193   6.691   6.698   2.466
 5765SOL    HW118194   6.688   6.660   2.559
 5765SOL    HW218195   6.635   6.781   2.463
 5766SOL     OW18196   0.699   0.946   4.537
 5766SOL    HW118197   0.725   0.927   4.632
 5766SOL    HW218198   0.782   0.956   4.482
 5767SOL     OW18199   6.493   6.417   0.271
 5767SOL    HW118200   6.493   6.352   0.194
 5767SOL    HW218201   6.440   6.379   0.347
 5768SOL     OW18202   1.093   0.591   4.937
 5768SOL    HW118203   1.154   0.596   5.016
 5768SOL    HW218204   1.087   0.496   4.906
 5769SOL     OW18205   1.227   2.197   6.006
 5769SOL    HW118206   1.179   2.214   5.920
 5769SOL    HW218207   1.298   2.129   5.993
 5770SOL     OW18208   1.192   3.961   2.542
 5770SOL    HW118209   1.171   4.017   2.622
 5770SOL    HW218210   1.208   3.867   2.572
 5771SOL     OW18211   2.671   6.210   2.846
 5771SOL    HW118212   2.647   6.233   2.940
 5771SOL    HW218213   2.706   6.291   2.799
 5772SOL     OW18214   2.491   0.762   3.403
 5772SOL    HW118215   2.436   0.683   3.432
 5772SOL    HW218216   2.587   0.736   3.401
 5773SOL     OW18217   5.924   0.543   4.697
 5773SOL    HW118218   5.872   0.506   4.775
 5773SOL    HW218219   5.877   0.520   4.612
 5774SOL     OW18220   1.002   5.979   3.621
 5774SOL    HW118221   0.966   6.068   3.647
 5774SOL    HW218222   0.992   5.966   3.522
 5775SOL     OW18223   5.326   4.564   2.766
 5775SOL    HW118224   5.404   4.518   2.808
 5775SOL    HW218225   5.298   4.642   2.822
 5776SOL     OW18226   3.763   0.576   4.154
 5776SOL    HW118227   3.728   0.520   4.078
 5776SOL    HW218228   3.831   0.640   4.119
 5777SOL     OW18229   0.495   0.591   1.817
 5777SOL    HW118230   0.468   0.672   1.765
 5777SOL    HW218231   0.462   0.598   1.911
 5778SOL     OW18232   0.307   0.890   0.273
 5778SOL    HW118233   0.220   0.892   0.321
 5778SOL    HW218234   0.307   0.961   0.202
 5779SOL     OW18235   5.816   1.393   0.277
 5779SOL    HW118236   5.838   1.361   0.185
 5779SOL    HW218237   5.782   1.487   0.271
 5780SOL     OW18238   5.314   4.952   4.750
 5780SOL    HW118239   5.347   4.989   4.663
 5780SOL    HW218240   5.354   5.004   4.825
 5781SOL     OW18241   1.136   5.964   5.983
 5781SOL    HW118242   1.201   5.989   5.912
 5781SOL    HW218243   1.101   6.046   6.028
 5782SOL     OW18244   5.884   0.776   1.348
 5782SOL    HW118245   5.946   0.835   1.401
 5782SOL    HW218246   5.937   0.703   1.306
 5783SOL     OW18247   2.287   2.502   6.626
 5783SOL    HW118248   2.288   2.601   6.616
 5783SOL    HW218249   2.362   2.474   6.686
 5784SOL     OW18250   6.939   6.224   0.393
 5784SOL    HW118251   6.967   6.240   0.298
 5784SOL    HW218252   6.974   6.136   0.424
 5785SOL     OW18253   1.998   0.917   2.153
 5785SOL    HW118254   2.026   0.919   2.057
 5785SOL    HW218255   2.045   0.990   2.203
 5786SOL     OW18256   6.045   5.339   2.241
 5786SOL    HW118257   5.996   5.258   2.206
 5786SOL    HW218258   6.111   5.370   2.173
 5787SOL     OW18259   1.683   3.265   6.756
 5787SOL    HW118260   1.718   3.222   6.673
 5787SOL    HW218261   1.745   3.339   6.784
 5788SOL     OW18262   3.180   0.491   3.497
 5788SOL    HW118263   3.155   0.586   3.517
 5788SOL    HW218264   3.276   0.476   3.521
 5789SOL     OW18265   3.078   4.633   6.241
 5789SOL    HW118266   3.147   4.693   6.283
 5789SOL    HW218267   3.017   4.598   6.311
 5790SOL     OW18268   1.727   3.849   4.056
 5790SOL    HW118269   1.648   3.790   4.070
 5790SOL    HW218270   1.785   3.848   4.137
 5791SOL     OW18271   1.231   1.102   3.302
 5791SOL    HW118272   1.283   1.184   3.276
 5791SOL    HW218273   1.155   1.089   3.238
 5792SOL     OW18274   0.779   2.217   3.498
 5792SOL    HW118275   0.759   2.215   3.595
 5792SOL    HW218276   0.878   2.208   3.484
 5793SOL     OW18277   6.192   1.639   5.338
 5793SOL    HW118278   6.186   1.550   5.293
 5793SOL    HW218279   6.208   1.711   5.270
 5794SOL     OW18280   0.019   3.971   6.525
 5794SOL    HW118281   0.018   4.036   6.449
 5794SOL    HW218282   7.012   4.019   6.609
 5795SOL     OW18283   6.681   4.742   6.899
 5795SOL    HW118284   6.663   4.742   6.801
 5795SOL    HW218285   6.694   4.648   6.930
 5796SOL     OW18286   2.654   2.015   0.646
 5796SOL    HW118287   2.695   2.047   0.731
 5796SOL    HW218288   2.649   1.915   0.646
 5797SOL     OW18289   3.241   3.290   5.409
 5797SOL    HW118290   3.204   3.203   5.378
 5797SOL    HW218291   3.261   3.348   5.330
 5798SOL     OW18292   6.534   4.826   3.968
 5798SOL    HW118293   6.534   4.759   3.894
 5798SOL    HW218294   6.618   4.817   4.021
 5799SOL     OW18295   5.414   0.416   4.297
 5799SOL    HW118296   5.473   0.394   4.220
 5799SOL    HW218297   5.447   0.500   4.341
 5800SOL     OW18298   5.630   6.357   6.827
 5800SOL    HW118299   5.631   6.416   6.907
 5800SOL    HW218300   5.664   6.407   6.748
 5801SOL     OW18301   1.381   1.189   1.815
 5801SOL    HW118302   1.455   1.252   1.790
 5801SOL    HW218303   1.421   1.104   1.850
 5802SOL     OW18304   6.934   2.637   4.611
 5802SOL    HW118305   7.017   2.643   4.554
 5802SOL    HW218306   6.936   2.710   4.679
 5803SOL     OW18307   1.490   5.140   1.331
 5803SOL    HW118308   1.484   5.234   1.366
 5803SOL    HW218309   1.578   5.101   1.357
 5804SOL     OW18310   0.145   3.033   6.740
 5804SOL    HW118311   0.082   3.014   6.665
 5804SOL    HW218312   0.208   2.956   6.751
 5805SOL     OW18313   4.887   3.563   6.775
 5805SOL    HW118314   4.928   3.633   6.833
 5805SOL    HW218315   4.894   3.474   6.820
 5806SOL     OW18316   6.366   6.429   6.199
 5806SOL    HW118317   6.394   6.407   6.106
 5806SOL    HW218318   6.378   6.527   6.215
 5807SOL     OW18319   2.718   4.228   1.534
 5807SOL    HW118320   2.725   4.140   1.487
 5807SOL    HW218321   2.800   4.242   1.590
 5808SOL     OW18322   6.792   1.716   3.660
 5808SOL    HW118323   6.851   1.651   3.612
 5808SOL    HW218324   6.699   1.678   3.665
 5809SOL     OW18325   0.936   2.918   4.102
 5809SOL    HW118326   1.021   2.866   4.097
 5809SOL    HW218327   0.930   2.965   4.190
 5810SOL     OW18328   3.360   1.756   2.482
 5810SOL    HW118329   3.398   1.692   2.416
 5810SOL    HW218330   3.433   1.791   2.541
 5811SOL     OW18331   2.537   0.098   1.749
 5811SOL    HW118332   2.530   0.196   1.729
 5811SOL    HW218333   2.583   0.052   1.673
 5812SOL     OW18334   4.367   0.667   4.282
 5812SOL    HW118335   4.309   0.672   4.363
 5812SOL    HW218336   4.425   0.585   4.288
 5813SOL     OW18337   1.757   2.155   5.253
 5813SOL    HW118338   1.809   2.102   5.320
 5813SOL    HW218339   1.819   2.192   5.184
 5814SOL     OW18340   0.574   5.272   1.505
 5814SOL    HW118341   0.543   5.349   1.448
 5814SOL    HW218342   0.666   5.245   1.478
 5815SOL     OW18343   4.098   6.467   4.488
 5815SOL    HW118344   4.076   6.369   4.488
 5815SOL    HW218345   4.185   6.481   4.534
 5816SOL     OW18346   5.398   6.284   0.126
 5816SOL    HW118347   5.425   6.196   0.087
 5816SOL    HW218348   5.319   6.271   0.186
 5817SOL     OW18349   5.695   2.651   5.991
 5817SOL    HW118350   5.760   2.686   5.924
 5817SOL    HW218351   5.693   2.551   5.987
 5818SOL     OW18352   6.117   6.690   5.252
 5818SOL    HW118353   6.166   6.737   5.179
 5818SOL    HW218354   6.020   6.685   5.228
 5819SOL     OW18355   6.752   6.942   1.253
 5819SOL    HW118356   6.806   6.912   1.331
 5819SOL    HW218357   6.655   6.937   1.275
 5820SOL     OW18358   5.393   4.954   2.034
 5820SOL    HW118359   5.311   4.904   2.064
 5820SOL    HW218360   5.438   4.903   1.961
 5821SOL     OW18361   3.079   6.880   2.723
 5821SOL    HW118362   3.091   6.898   2.625
 5821SOL    HW218363   2.997   6.928   2.755
 5822SOL     OW18364   0.209   1.002   2.621
 5822SOL    HW118365   0.153   0.951   2.686
 5822SOL    HW218366   0.245   0.939   2.552
 5823SOL     OW18367   1.857   2.813   3.687
 5823SOL    HW118368   1.933   2.861   3.644
 5823SOL    HW218369   1.783   2.802   3.620
 5824SOL     OW18370   4.648   0.243   3.924
 5824SOL    HW118371   4.625   0.259   3.828
 5824SOL    HW218372   4.738   0.283   3.943
 5825SOL     OW18373   3.343   1.125   1.334
 5825SOL    HW118374   3.358   1.027   1.321
 5825SOL    HW218375   3.276   1.157   1.268
 5826SOL     OW18376   0.587   6.609   3.687
 5826SOL    HW118377   0.519   6.596   3.760
 5826SOL    HW218378   0.594   6.526   3.633
 5827SOL     OW18379   2.003   4.819   5.767
 5827SOL    HW118380   1.992   4.774   5.679
 5827SOL    HW218381   2.095   4.801   5.802
 5828SOL     OW18382   6.142   1.640   1.102
 5828SOL    HW118383   6.069   1.705   1.118
 5828SOL    HW218384   6.205   1.640   1.180
 5829SOL     OW18385   2.133   1.153   1.450
 5829SOL    HW118386   2.041   1.141   1.411
 5829SOL    HW218387   2.186   1.070   1.434
 5830SOL     OW18388   1.546   1.117   5.852
 5830SOL    HW118389   1.617   1.105   5.922
 5830SOL    HW218390   1.578   1.183   5.784
 5831SOL     OW18391   5.581   5.343   3.169
 5831SOL    HW118392   5.639   5.314   3.245
 5831SOL    HW218393   5.520   5.416   3.200
 5832SOL     OW18394   3.476   3.410   4.630
 5832SOL    HW118395   3.436   3.437   4.718
 5832SOL    HW218396   3.417   3.342   4.586
 5833SOL     OW18397   3.070   3.049   4.819
 5833SOL    HW118398   3.102   3.025   4.728
 5833SOL    HW218399   2.992   2.992   4.843
 5834SOL     OW18400   5.920   0.924   6.565
 5834SOL    HW118401   5.824   0.925   6.539
 5834SOL    HW218402   5.968   0.999   6.519
 5835SOL     OW18403   5.176   2.707   3.709
 5835SOL    HW118404   5.122   2.675   3.786
 5835SOL    HW218405   5.256   2.757   3.743
 5836SOL     OW18406   3.780   0.022   3.726
 5836SOL    HW118407   3.814   6.950   3.697
 5836SOL    HW218408   3.719   0.011   3.805
 5837SOL     OW18409   4.164   3.877   6.498
 5837SOL    HW118410   4.081   3.845   6.543
 5837SOL    HW218411   4.148   3.882   6.399
 5838SOL     OW18412   0.745   1.428   6.214
 5838SOL    HW118413   0.662   1.474   6.246
 5838SOL    HW218414   0.781   1.477   6.135
 5839SOL     OW18415   6.771   2.508   2.209
 5839SOL    HW118416   6.777   2.564   2.126
 5839SOL    HW218417   6.715   2.556   2.277
 5840SOL     OW18418   3.082   5.769   0.503
 5840SOL    HW118419   3.177   5.771   0.534
 5840SOL    HW218420   3.062   5.680   0.462
 5841SOL     OW18421   6.393   1.744   3.492
 5841SOL    HW118422   6.328   1.704   3.427
 5841SOL    HW218423   6.350   1.821   3.540
 5842SOL     OW18424   3.446   1.867   1.081
 5842SOL    HW118425   3.528   1.823   1.043
 5842SOL    HW218426   3.463   1.894   1.176
 5843SOL     OW18427   0.237   2.648   0.961
 5843SOL    HW118428   0.290   2.581   1.013
 5843SOL    HW218429   0.140   2.636   0.981
 5844SOL     OW18430   1.617   6.308   6.067
 5844SOL    HW118431   1.589   6.321   6.162
 5844SOL    HW218432   1.601   6.213   6.040
 5845SOL     OW18433   1.894   2.822   4.682
 5845SOL    HW118434   1.859   2.806   4.774
 5845SOL    HW218435   1.993   2.835   4.685
 5846SOL     OW18436   0.317   3.791   6.980
 5846SOL    HW118437   0.348   3.712   0.016
 5846SOL    HW218438   0.393   3.854   6.966
 5847SOL     OW18439   1.593   2.696   4.287
 5847SOL    HW118440   1.563   2.774   4.233
 5847SOL    HW218441   1.616   2.727   4.380
 5848SOL     OW18442   0.815   4.564   3.710
 5848SOL    HW118443   0.851   4.656   3.691
 5848SOL    HW218444   0.751   4.569   3.786
 5849SOL     OW18445   2.418   0.199   5.802
 5849SOL    HW118446   2.391   0.293   5.827
 5849SOL    HW218447   2.392   0.137   5.876
 5850SOL     OW18448   0.819   4.391   2.985
 5850SOL    HW118449   0.736   4.424   3.030
 5850SOL    HW218450   0.796   4.313   2.926
 5851SOL     OW18451   6.301   2.857   1.986
 5851SOL    HW118452   6.370   2.788   2.007
 5851SOL    HW218453   6.299   2.925   2.059
 5852SOL     OW18454   4.119   6.341   3.279
 5852SOL    HW118455   4.085   6.252   3.309
 5852SOL    HW218456   4.043   6.406   3.276
 5853SOL     OW18457   4.919   3.897   4.997
 5853SOL    HW118458   4.907   3.799   5.012
 5853SOL    HW218459   4.911   3.918   4.900
 5854SOL     OW18460   1.508   1.400   6.603
 5854SOL    HW118461   1.589   1.458   6.593
 5854SOL    HW218462   1.426   1.454   6.584
 5855SOL     OW18463   1.620   1.669   4.396
 5855SOL    HW118464   1.696   1.718   4.439
 5855SOL    HW218465   1.559   1.634   4.467
 5856SOL     OW18466   0.832   6.324   3.013
 5856SOL    HW118467   0.797   6.319   2.919
 5856SOL    HW218468   0.762   6.361   3.073
 5857SOL     OW18469   0.760   2.453   5.296
 5857SOL    HW118470   0.682   2.515   5.308
 5857SOL    HW218471   0.737   2.364   5.335
 5858SOL     OW18472   3.044   6.883   3.922
 5858SOL    HW118473   2.993   6.949   3.866
 5858SOL    HW218474   3.125   6.927   3.959
 5859SOL     OW18475   5.812   5.234   2.079
 5859SOL    HW118476   5.762   5.311   2.118
 5859SOL    HW218477   5.747   5.163   2.052
 5860SOL     OW18478   6.888   4.695   0.527
 5860SOL    HW118479   6.897   4.739   0.616
 5860SOL    HW218480   6.831   4.751   0.467
 5861SOL     OW18481   5.963   1.707   4.076
 5861SOL    HW118482   6.003   1.646   4.007
 5861SOL    HW218483   5.879   1.666   4.112
 5862SOL     OW18484   5.686   5.161   4.184
 5862SOL    HW118485   5.587   5.153   4.185
 5862SOL    HW218486   5.724   5.114   4.264
 5863SOL     OW18487   2.371   1.135   0.503
 5863SOL    HW118488   2.344   1.077   0.580
 5863SOL    HW218489   2.290   1.175   0.461
 5864SOL     OW18490   4.769   5.193   0.976
 5864SOL    HW118491   4.719   5.279   0.986
 5864SOL    HW218492   4.736   5.144   0.895
 5865SOL     OW18493   4.259   0.780   3.220
 5865SOL    HW118494   4.341   0.834   3.202
 5865SOL    HW218495   4.219   0.808   3.308
 5866SOL     OW18496   3.355   1.701   6.995
 5866SOL    HW118497   3.431   1.688   0.041
 5866SOL    HW218498   3.310   1.789   7.014
 5867SOL     OW18499   6.712   2.925   1.728
 5867SOL    HW118500   6.787   2.980   1.691
 5867SOL    HW218501   6.664   2.977   1.799
 5868SOL     OW18502   0.515   6.171   5.293
 5868SOL    HW118503   0.499   6.072   5.293
 5868SOL    HW218504   0.496   6.207   5.384
 5869SOL     OW18505   2.539   4.872   4.244
 5869SOL    HW118506   2.516   4.857   4.340
 5869SOL    HW218507   2.573   4.787   4.204
 5870SOL     OW18508   5.001   5.713   4.025
 5870SOL    HW118509   4.926   5.760   3.978
 5870SOL    HW218510   4.972   5.620   4.049
 5871SOL     OW18511   3.567   4.784   0.550
 5871SOL    HW118512   3.653   4.747   0.585
 5871SOL    HW218513   3.581   4.878   0.519
 5872SOL     OW18514   4.210   5.458   3.600
 5872SOL    HW118515   4.243   5.421   3.687
 5872SOL    HW218516   4.158   5.542   3.617
 5873SOL     OW18517   2.149   3.088   0.377
 5873SOL    HW118518   2.225   3.058   0.433
 5873SOL    HW218519   2.104   3.166   0.421
 5874SOL     OW18520   0.673   4.518   6.372
 5874SOL    HW118521   0.687   4.579   6.294
 5874SOL    HW218522   0.695   4.424   6.346
 5875SOL     OW18523   3.948   2.169   1.198
 5875SOL    HW118524   4.044   2.195   1.188
 5875SOL    HW218525   3.941   2.081   1.244
 5876SOL     OW18526   4.532   3.982   5.901
 5876SOL    HW118527   4.579   4.030   5.975
 5876SOL    HW218528   4.483   3.903   5.938
 5877SOL     OW18529   5.328   6.682   2.886
 5877SOL    HW118530   5.317   6.665   2.788
 5877SOL    HW218531   5.276   6.763   2.913
 5878SOL     OW18532   4.867   3.268   2.799
 5878SOL    HW118533   4.778   3.225   2.785
 5878SOL    HW218534   4.907   3.291   2.710
 5879SOL     OW18535   3.092   4.820   5.057
 5879SOL    HW118536   3.139   4.801   4.971
 5879SOL    HW218537   3.014   4.757   5.067
 5880SOL     OW18538   6.340   2.245   0.310
 5880SOL    HW118539   6.316   2.279   0.401
 5880SOL    HW218540   6.376   2.152   0.318
 5881SOL     OW18541   1.088   5.859   2.843
 5881SOL    HW118542   1.036   5.803   2.908
 5881SOL    HW218543   1.097   5.952   2.879
 5882SOL     OW18544   1.383   5.514   5.222
 5882SOL    HW118545   1.334   5.600   5.208
 5882SOL    HW218546   1.437   5.520   5.306
 5883SOL     OW18547   0.132   5.725   0.096
 5883SOL    HW118548   0.197   5.671   0.150
 5883SOL    HW218549   0.092   5.667   0.024
 5884SOL     OW18550   0.516   1.192   1.912
 5884SOL    HW118551   0.599   1.199   1.858
 5884SOL    HW218552   0.465   1.277   1.907
 5885SOL     OW18553   0.182   5.641   1.900
 5885SOL    HW118554   0.254   5.706   1.925
 5885SOL    HW218555   0.165   5.646   1.801
 5886SOL     OW18556   1.543   4.947   3.694
 5886SOL    HW118557   1.551   4.919   3.790
 5886SOL    HW218558   1.561   4.868   3.635
 5887SOL     OW18559   2.337   4.088   0.794
 5887SOL    HW118560   2.299   4.005   0.753
 5887SOL    HW218561   2.359   4.070   0.890
 5888SOL     OW18562   2.831   6.223   1.766
 5888SOL    HW118563   2.835   6.292   1.839
 5888SOL    HW218564   2.810   6.269   1.679
 5889SOL     OW18565   4.922   1.351   1.829
 5889SOL    HW118566   5.018   1.335   1.851
 5889SOL    HW218567   4.908   1.449   1.814
 5890SOL     OW18568   2.371   4.687   2.872
 5890SOL    HW118569   2.322   4.683   2.785
 5890SOL    HW218570   2.465   4.656   2.859
 5891SOL     OW18571   2.659   2.914   6.959
 5891SOL    HW118572   2.688   2.836   6.904
 5891SOL    HW218573   2.717   2.921   0.023
 5892SOL     OW18574   0.449   2.723   1.248
 5892SOL    HW118575   0.464   2.805   1.192
 5892SOL    HW218576   0.354   2.721   1.279
 5893SOL     OW18577   0.240   6.348   1.436
 5893SOL    HW118578   0.236   6.257   1.475
 5893SOL    HW218579   0.317   6.353   1.372
 5894SOL     OW18580   2.708   5.078   6.460
 5894SOL    HW118581   2.759   5.126   6.531
 5894SOL    HW218582   2.724   4.980   6.468
 5895SOL     OW18583   5.744   2.699   4.272
 5895SOL    HW118584   5.814   2.749   4.323
 5895SOL    HW218585   5.704   2.759   4.203
 5896SOL     OW18586   5.423   2.646   0.974
 5896SOL    HW118587   5.360   2.575   0.943
 5896SOL    HW218588   5.451   2.703   0.897
 5897SOL     OW18589   3.698   3.707   6.738
 5897SOL    HW118590   3.702   3.795   6.786
 5897SOL    HW218591   3.657   3.638   6.798
 5898SOL     OW18592   3.507   0.679   6.445
 5898SOL    HW118593   3.414   0.668   6.410
 5898SOL    HW218594   3.562   0.599   6.422
 5899SOL     OW18595   0.490   0.215   0.068
 5899SOL    HW118596   0.501   0.197   6.987
 5899SOL    HW218597   0.571   0.262   0.102
 5900SOL     OW18598   5.648   6.328   2.815
 5900SOL    HW118599   5.639   6.263   2.739
 5900SOL    HW218600   5.570   6.317   2.878
 5901SOL     OW18601   1.283   0.653   5.120
 5901SOL    HW118602   1.322   0.584   5.181
 5901SOL    HW218603   1.338   0.736   5.123
 5902SOL     OW18604   4.302   3.649   5.913
 5902SOL    HW118605   4.296   3.742   5.875
 5902SOL    HW218606   4.291   3.582   5.840
 5903SOL     OW18607   5.744   1.279   5.595
 5903SOL    HW118608   5.792   1.285   5.508
 5903SOL    HW218609   5.710   1.186   5.607
 5904SOL     OW18610   7.009   5.178   1.768
 5904SOL    HW118611   0.073   5.128   1.802
 5904SOL    HW218612   0.022   5.250   1.706
 5905SOL     OW18613   6.233   2.089   4.520
 5905SOL    HW118614   6.188   2.000   4.520
 5905SOL    HW218615   6.277   2.104   4.608
 5906SOL     OW18616   4.190   0.180   4.512
 5906SOL    HW118617   4.142   0.102   4.471
 5906SOL    HW218618   4.131   0.260   4.510
 5907SOL     OW18619   0.654   3.387   5.844
 5907SOL    HW118620   0.623   3.354   5.755
 5907SOL    HW218621   0.577   3.422   5.896
 5908SOL     OW18622   4.408   3.333   6.561
 5908SOL    HW118623   4.383   3.243   6.526
 5908SOL    HW218624   4.450   3.387   6.488
 5909SOL     OW18625   6.440   4.837   3.443
 5909SOL    HW118626   6.411   4.927   3.413
 5909SOL    HW218627   6.482   4.843   3.534
 5910SOL     OW18628   2.549   4.332   1.736
 5910SOL    HW118629   2.553   4.267   1.812
 5910SOL    HW218630   2.623   4.313   1.672
 5911SOL     OW18631   6.400   0.737   5.480
 5911SOL    HW118632   6.320   0.732   5.541
 5911SOL    HW218633   6.387   0.675   5.403
 5912SOL     OW18634   0.603   3.944   6.067
 5912SOL    HW118635   0.613   3.998   5.984
 5912SOL    HW218636   0.684   3.886   6.079
 5913SOL     OW18637   1.642   2.818   4.566
 5913SOL    HW118638   1.734   2.832   4.602
 5913SOL    HW218639   1.589   2.762   4.630
 5914SOL     OW18640   1.192   5.626   0.171
 5914SOL    HW118641   1.100   5.659   0.149
 5914SOL    HW218642   1.205   5.535   0.131
 5915SOL     OW18643   5.572   4.112   4.411
 5915SOL    HW118644   5.569   4.208   4.437
 5915SOL    HW218645   5.510   4.060   4.469
 5916SOL     OW18646   3.282   0.802   6.293
 5916SOL    HW118647   3.342   0.881   6.281
 5916SOL    HW218648   3.279   0.749   6.208
 5917SOL     OW18649   3.388   3.796   1.977
 5917SOL    HW118650   3.371   3.871   1.913
 5917SOL    HW218651   3.458   3.735   1.939
 5918SOL     OW18652   3.277   1.568   4.069
 5918SOL    HW118653   3.197   1.508   4.065
 5918SOL    HW218654   3.315   1.579   3.977
 5919SOL     OW18655   1.546   2.152   6.668
 5919SOL    HW118656   1.609   2.225   6.693
 5919SOL    HW218657   1.452   2.179   6.689
 5920SOL     OW18658   2.467   4.322   0.018
 5920SOL    HW118659   2.515   4.410   0.012
 5920SOL    HW218660   2.499   4.262   6.962
 5921SOL     OW18661   3.740   6.336   4.821
 5921SOL    HW118662   3.689   6.251   4.838
 5921SOL    HW218663   3.837   6.315   4.812
 5922SOL     OW18664   6.604   5.362   2.134
 5922SOL    HW118665   6.586   5.303   2.212
 5922SOL    HW218666   6.659   5.312   2.067
 5923SOL     OW18667   0.583   0.853   3.165
 5923SOL    HW118668   0.650   0.923   3.190
 5923SOL    HW218669   0.602   0.820   3.073
 5924SOL     OW18670   5.469   1.932   4.738
 5924SOL    HW118671   5.435   2.023   4.714
 5924SOL    HW218672   5.452   1.869   4.662
 5925SOL     OW18673   6.688   6.169   0.523
 5925SOL    HW118674   6.779   6.197   0.492
 5925SOL    HW218675   6.695   6.125   0.612
 5926SOL     OW18676   2.895   6.445   1.918
 5926SOL    HW118677   2.825   6.515   1.925
 5926SOL    HW218678   2.980   6.485   1.882
 5927SOL     OW18679   2.032   5.203   1.137
 5927SOL    HW118680   1.948   5.205   1.082
 5927SOL    HW218681   2.105   5.162   1.082
 5928SOL     OW18682   6.801   6.238   1.187
 5928SOL    HW118683   6.804   6.266   1.283
 5928SOL    HW218684   6.862   6.160   1.173
 5929SOL     OW18685   0.163   6.707   5.956
 5929SOL    HW118686   0.231   6.689   6.026
 5929SOL    HW218687   0.121   6.621   5.926
 5930SOL     OW18688   6.402   1.622   5.094
 5930SOL    HW118689   6.448   1.559   5.032
 5930SOL    HW218690   6.453   1.627   5.180
 5931SOL     OW18691   5.487   4.582   0.477
 5931SOL    HW118692   5.552   4.562   0.403
 5931SOL    HW218693   5.517   4.538   0.561
 5932SOL     OW18694   2.628   0.521   0.413
 5932SOL    HW118695   2.721   0.494   0.435
 5932SOL    HW218696   2.622   0.546   0.317
 5933SOL     OW18697   5.984   2.091   3.142
 5933SOL    HW118698   5.932   2.165   3.186
 5933SOL    HW218699   5.994   2.015   3.206
 5934SOL     OW18700   4.177   3.290   1.796
 5934SOL    HW118701   4.261   3.247   1.761
 5934SOL    HW218702   4.101   3.226   1.787
 5935SOL     OW18703   3.550   3.417   2.686
 5935SOL    HW118704   3.521   3.339   2.630
 5935SOL    HW218705   3.591   3.486   2.627
 5936SOL     OW18706   6.156   6.200   6.835
 5936SOL    HW118707   6.134   6.227   6.741
 5936SOL    HW218708   6.253   6.212   6.852
 5937SOL     OW18709   0.836   4.050   0.257
 5937SOL    HW118710   0.791   4.128   0.299
 5937SOL    HW218711   0.883   4.079   0.174
 5938SOL     OW18712   2.540   5.294   1.073
 5938SOL    HW118713   2.553   5.209   1.123
 5938SOL    HW218714   2.450   5.332   1.094
 5939SOL     OW18715   1.024   0.410   2.313
 5939SOL    HW118716   0.999   0.420   2.216
 5939SOL    HW218717   1.051   0.316   2.331
 5940SOL     OW18718   4.277   4.673   3.286
 5940SOL    HW118719   4.229   4.692   3.372
 5940SOL    HW218720   4.242   4.732   3.214
 5941SOL     OW18721   6.065   2.599   3.987
 5941SOL    HW118722   6.103   2.690   3.969
 5941SOL    HW218723   6.104   2.564   4.072
 5942SOL     OW18724   6.882   1.458   4.695
 5942SOL    HW118725   6.956   1.402   4.657
 5942SOL    HW218726   6.908   1.555   4.691
 5943SOL     OW18727   1.867   5.540   0.963
 5943SOL    HW118728   1.871   5.614   1.030
 5943SOL    HW218729   1.773   5.507   0.955
 5944SOL     OW18730   5.659   2.904   2.797
 5944SOL    HW118731   5.635   2.812   2.765
 5944SOL    HW218732   5.735   2.898   2.861
 5945SOL     OW18733   6.656   5.846   6.079
 5945SOL    HW118734   6.576   5.906   6.085
 5945SOL    HW218735   6.645   5.785   6.000
 5946SOL     OW18736   4.014   2.674   5.316
 5946SOL    HW118737   3.921   2.660   5.351
 5946SOL    HW218738   4.046   2.589   5.275
 5947SOL     OW18739   5.825   3.607   2.624
 5947SOL    HW118740   5.745   3.597   2.682
 5947SOL    HW218741   5.835   3.525   2.568
 5948SOL     OW18742   3.005   5.742   3.108
 5948SOL    HW118743   2.955   5.829   3.112
 5948SOL    HW218744   3.103   5.761   3.094
 5949SOL     OW18745   4.770   4.036   2.877
 5949SOL    HW118746   4.823   3.957   2.906
 5949SOL    HW218747   4.749   4.094   2.956
 5950SOL     OW18748   6.943   1.730   4.736
 5950SOL    HW118749   6.891   1.816   4.739
 5950SOL    HW218750   0.002   1.734   4.801
 5951SOL     OW18751   2.110   0.889   3.174
 5951SOL    HW118752   2.121   0.987   3.190
 5951SOL    HW218753   2.016   0.863   3.193
 5952SOL     OW18754   0.416   6.670   4.437
 5952SOL    HW118755   0.318   6.678   4.456
 5952SOL    HW218756   0.444   6.574   4.445
 5953SOL     OW18757   0.795   3.646   6.251
 5953SOL    HW118758   0.856   3.568   6.269
 5953SOL    HW218759   0.700   3.614   6.250
 5954SOL     OW18760   1.558   4.976   6.095
 5954SOL    HW118761   1.617   4.896   6.106
 5954SOL    HW218762   1.503   4.988   6.178
 5955SOL     OW18763   3.737   5.495   2.465
 5955SOL    HW118764   3.732   5.524   2.560
 5955SOL    HW218765   3.794   5.414   2.457
 5956SOL     OW18766   0.330   1.725   0.337
 5956SOL    HW118767   0.246   1.673   0.319
 5956SOL    HW218768   0.312   1.797   0.403
 5957SOL     OW18769   4.048   6.580   5.928
 5957SOL    HW118770   4.081   6.492   5.962
 5957SOL    HW218771   4.125   6.635   5.895
 5958SOL     OW18772   1.191   5.618   2.469
 5958SOL    HW118773   1.150   5.535   2.429
 5958SOL    HW218774   1.217   5.681   2.395
 5959SOL     OW18775   1.634   0.703   5.924
 5959SOL    HW118776   1.708   0.769   5.909
 5959SOL    HW218777   1.547   0.745   5.898
 5960SOL     OW18778   3.724   5.895   5.506
 5960SOL    HW118779   3.775   5.906   5.421
 5960SOL    HW218780   3.742   5.974   5.565
 5961SOL     OW18781   2.800   1.151   5.714
 5961SOL    HW118782   2.755   1.236   5.689
 5961SOL    HW218783   2.884   1.170   5.764
 5962SOL     OW18784   5.331   4.213   2.648
 5962SOL    HW118785   5.380   4.249   2.569
 5962SOL    HW218786   5.233   4.216   2.631
 5963SOL     OW18787   4.244   4.367   1.727
 5963SOL    HW118788   4.180   4.310   1.676
 5963SOL    HW218789   4.319   4.311   1.763
 5964SOL     OW18790   1.215   3.418   5.256
 5964SOL    HW118791   1.295   3.466   5.293
 5964SOL    HW218792   1.136   3.435   5.315
 5965SOL     OW18793   2.301   2.191   4.332
 5965SOL    HW118794   2.309   2.119   4.401
 5965SOL    HW218795   2.380   2.187   4.270
 5966SOL     OW18796   1.617   6.237   4.245
 5966SOL    HW118797   1.608   6.337   4.237
 5966SOL    HW218798   1.583   6.208   4.334
 5967SOL     OW18799   4.643   5.434   1.045
 5967SOL    HW118800   4.679   5.518   1.005
 5967SOL    HW218801   4.657   5.435   1.144
 5968SOL     OW18802   1.803   2.031   3.954
 5968SOL    HW118803   1.708   1.998   3.952
 5968SOL    HW218804   1.831   2.056   3.861
 5969SOL     OW18805   0.987   2.195   2.869
 5969SOL    HW118806   1.023   2.102   2.875
 5969SOL    HW218807   1.053   2.259   2.908
 5970SOL     OW18808   2.174   4.144   3.381
 5970SOL    HW118809   2.093   4.137   3.438
 5970SOL    HW218810   2.196   4.054   3.344
 5971SOL     OW18811   2.889   5.540   3.830
 5971SOL    HW118812   2.815   5.529   3.896
 5971SOL    HW218813   2.858   5.597   3.754
 5972SOL     OW18814   6.190   0.307   1.692
 5972SOL    HW118815   6.111   0.270   1.742
 5972SOL    HW218816   6.163   0.390   1.644
 5973SOL     OW18817   2.453   4.846   3.356
 5973SOL    HW118818   2.366   4.847   3.306
 5973SOL    HW218819   2.435   4.845   3.454
 5974SOL     OW18820   0.939   4.427   6.162
 5974SOL    HW118821   1.031   4.399   6.133
 5974SOL    HW218822   0.882   4.347   6.176
 5975SOL     OW18823   2.083   2.564   6.452
 5975SOL    HW118824   2.144   2.548   6.529
 5975SOL    HW218825   1.990   2.582   6.487
 5976SOL     OW18826   3.459   3.728   4.311
 5976SOL    HW118827   3.485   3.631   4.310
 5976SOL    HW218828   3.540   3.784   4.323
 5977SOL     OW18829   0.464   3.676   2.782
 5977SOL    HW118830   0.465   3.644   2.876
 5977SOL    HW218831   0.381   3.643   2.736
 5978SOL     OW18832   5.004   5.496   1.413
 5978SOL    HW118833   5.071   5.558   1.454
 5978SOL    HW218834   5.045   5.446   1.338
 5979SOL     OW18835   0.547   1.469   1.683
 5979SOL    HW118836   0.596   1.556   1.684
 5979SOL    HW218837   0.464   1.477   1.739
 5980SOL     OW18838   6.045   2.635   5.323
 5980SOL    HW118839   6.091   2.712   5.367
 5980SOL    HW218840   6.072   2.550   5.367
 5981SOL     OW18841   3.227   2.262   0.465
 5981SOL    HW118842   3.140   2.301   0.434
 5981SOL    HW218843   3.286   2.336   0.498
 5982SOL     OW18844   6.309   2.834   6.840
 5982SOL    HW118845   6.248   2.861   6.765
 5982SOL    HW218846   6.378   2.906   6.853
 5983SOL     OW18847   0.660   0.660   4.414
 5983SOL    HW118848   0.639   0.717   4.493
 5983SOL    HW218849   0.630   0.566   4.431
 5984SOL     OW18850   0.676   0.113   5.941
 5984SOL    HW118851   0.711   0.194   5.894
 5984SOL    HW218852   0.729   0.095   6.024
 5985SOL     OW18853   6.027   2.957   4.265
 5985SOL    HW118854   5.981   2.896   4.329
 5985SOL    HW218855   6.124   2.935   4.262
 5986SOL     OW18856   3.234   3.654   2.334
 5986SOL    HW118857   3.136   3.658   2.352
 5986SOL    HW218858   3.268   3.746   2.314
 5987SOL     OW18859   3.938   7.013   5.437
 5987SOL    HW118860   3.951   0.030   5.531
 5987SOL    HW218861   3.893   0.067   5.383
 5988SOL     OW18862   3.718   6.655   6.101
 5988SOL    HW118863   3.700   6.726   6.032
 5988SOL    HW218864   3.674   6.569   6.073
 5989SOL     OW18865   2.957   1.611   6.633
 5989SOL    HW118866   2.924   1.526   6.593
 5989SOL    HW218867   3.019   1.656   6.568
 5990SOL     OW18868   3.189   6.146   3.134
 5990SOL    HW118869   3.174   6.130   3.232
 5990SOL    HW218870   3.272   6.098   3.105
 5991SOL     OW18871   3.756   4.878   3.285
 5991SOL    HW118872   3.783   4.792   3.329
 5991SOL    HW218873   3.659   4.873   3.259
 5992SOL     OW18874   4.035   1.746   4.290
 5992SOL    HW118875   4.032   1.647   4.279
 5992SOL    HW218876   4.131   1.776   4.294
 5993SOL     OW18877   2.802   5.267   4.183
 5993SOL    HW118878   2.891   5.225   4.200
 5993SOL    HW218879   2.748   5.267   4.267
 5994SOL     OW18880   6.575   2.021   0.097
 5994SOL    HW118881   6.627   2.065   0.024
 5994SOL    HW218882   6.479   2.015   0.070
 5995SOL     OW18883   0.490   3.779   1.909
 5995SOL    HW118884   0.585   3.749   1.915
 5995SOL    HW218885   0.449   3.780   2.000
 5996SOL     OW18886   1.544   5.964   6.158
 5996SOL    HW118887   1.524   5.977   6.060
 5996SOL    HW218888   1.631   5.916   6.169
 5997SOL     OW18889   0.834   0.417   1.314
 5997SOL    HW118890   0.735   0.402   1.304
 5997SOL    HW218891   0.861   0.495   1.256
 5998SOL     OW18892   5.400   3.372   3.304
 5998SOL    HW118893   5.446   3.428   3.235
 5998SOL    HW218894   5.343   3.303   3.258
 5999SOL     OW18895   2.027   2.804   3.036
 5999SOL    HW118896   2.102   2.738   3.046
 5999SOL    HW218897   1.974   2.808   3.120
 6000SOL     OW18898   5.470   1.214   3.513
 6000SOL    HW118899   5.440   1.268   3.434
 6000SOL    HW218900   5.507   1.276   3.583
 6001SOL     OW18901   5.954   1.214   0.057
 6001SOL    HW118902   5.983   1.174   6.987
 6001SOL    HW218903   5.887   1.154   0.101
 6002SOL     OW18904   2.535   0.222   2.468
 6002SOL    HW118905   2.470   0.205   2.394
 6002SOL    HW218906   2.591   0.302   2.446
 6003SOL     OW18907   4.812   4.066   4.122
 6003SOL    HW118908   4.854   4.122   4.051
 6003SOL    HW218909   4.876   3.993   4.148
 6004SOL     OW18910   0.579   3.443   1.688
 6004SOL    HW118911   0.658   3.403   1.736
 6004SOL    HW218912   0.610   3.515   1.626
 6005SOL     OW18913   2.075   6.332   2.502
 6005SOL    HW118914   2.098   6.310   2.597
 6005SOL    HW218915   2.086   6.251   2.445
 6006SOL     OW18916   2.269   5.981   6.831
 6006SOL    HW118917   2.311   5.901   6.788
 6006SOL    HW218918   2.265   5.967   6.930
 6007SOL     OW18919   5.366   3.586   4.768
 6007SOL    HW118920   5.297   3.607   4.837
 6007SOL    HW218921   5.328   3.524   4.700
 6008SOL     OW18922   4.785   3.994   1.906
 6008SOL    HW118923   4.829   4.082   1.920
 6008SOL    HW218924   4.786   3.971   1.808
 6009SOL     OW18925   3.816   1.271   4.585
 6009SOL    HW118926   3.722   1.279   4.616
 6009SOL    HW218927   3.864   1.358   4.599
 6010SOL     OW18928   1.854   4.768   3.654
 6010SOL    HW118929   1.912   4.688   3.662
 6010SOL    HW218930   1.795   4.758   3.573
 6011SOL     OW18931   6.414   2.086   1.928
 6011SOL    HW118932   6.434   2.169   1.980
 6011SOL    HW218933   6.439   2.006   1.983
 6012SOL     OW18934   1.060   2.763   1.359
 6012SOL    HW118935   1.155   2.740   1.339
 6012SOL    HW218936   1.000   2.691   1.324
 6013SOL     OW18937   5.452   0.366   2.467
 6013SOL    HW118938   5.419   0.408   2.382
 6013SOL    HW218939   5.385   0.382   2.540
 6014SOL     OW18940   6.319   1.068   0.694
 6014SOL    HW118941   6.253   0.993   0.696
 6014SOL    HW218942   6.273   1.151   0.662
 6015SOL     OW18943   6.149   0.061   4.645
 6015SOL    HW118944   6.072   0.093   4.591
 6015SOL    HW218945   6.145   0.100   4.736
 6016SOL     OW18946   1.456   0.334   5.602
 6016SOL    HW118947   1.539   0.332   5.657
 6016SOL    HW218948   1.472   0.386   5.518
 6017SOL     OW18949   0.309   3.713   2.160
 6017SOL    HW118950   0.247   3.641   2.129
 6017SOL    HW218951   0.259   3.775   2.221
 6018SOL     OW18952   3.362   5.164   1.456
 6018SOL    HW118953   3.375   5.239   1.521
 6018SOL    HW218954   3.393   5.192   1.365
 6019SOL     OW18955   6.595   6.712   3.456
 6019SOL    HW118956   6.691   6.741   3.447
 6019SOL    HW218957   6.589   6.637   3.521
 6020SOL     OW18958   2.187   5.975   2.724
 6020SOL    HW118959   2.260   6.040   2.706
 6020SOL    HW218960   2.226   5.890   2.759
 6021SOL     OW18961   2.923   0.401   3.693
 6021SOL    HW118962   2.879   0.358   3.614
 6021SOL    HW218963   2.965   0.487   3.664
 6022SOL     OW18964   3.598   1.490   5.691
 6022SOL    HW118965   3.570   1.395   5.674
 6022SOL    HW218966   3.669   1.491   5.761
 6023SOL     OW18967   0.029   2.100   1.870
 6023SOL    HW118968   7.015   2.005   1.861
 6023SOL    HW218969   0.001   2.136   1.959
 6024SOL     OW18970   6.395   5.793   2.564
 6024SOL    HW118971   6.482   5.840   2.576
 6024SOL    HW218972   6.321   5.854   2.592
 6025SOL     OW18973   4.717   2.000   2.379
 6025SOL    HW118974   4.624   1.983   2.346
 6025SOL    HW218975   4.774   2.031   2.303
 6026SOL     OW18976   0.741   4.133   5.620
 6026SOL    HW118977   0.665   4.186   5.657
 6026SOL    HW218978   0.827   4.175   5.648
 6027SOL     OW18979   4.440   4.453   0.444
 6027SOL    HW118980   4.475   4.535   0.398
 6027SOL    HW218981   4.430   4.379   0.378
 6028SOL     OW18982   0.664   4.073   6.590
 6028SOL    HW118983   0.715   4.148   6.631
 6028SOL    HW218984   0.686   4.068   6.492
 6029SOL     OW18985   1.159   5.259   1.791
 6029SOL    HW118986   1.225   5.252   1.865
 6029SOL    HW218987   1.176   5.188   1.723
 6030SOL     OW18988   1.879   6.527   1.821
 6030SOL    HW118989   1.963   6.546   1.872
 6030SOL    HW218990   1.821   6.608   1.820
 6031SOL     OW18991   4.899   0.952   4.360
 6031SOL    HW118992   4.930   0.944   4.455
 6031SOL    HW218993   4.945   0.883   4.304
 6032SOL     OW18994   1.335   2.419   1.987
 6032SOL    HW118995   1.327   2.482   2.064
 6032SOL    HW218996   1.312   2.326   2.018
 6033SOL     OW18997   0.277   6.908   4.661
 6033SOL    HW118998   0.197   6.963   4.636
 6033SOL    HW218999   0.266   6.815   4.625
 6034SOL     OW19000   2.347   4.657   4.611
 6034SOL    HW119001   2.420   4.620   4.668
 6034SOL    HW219002   2.264   4.602   4.623
 6035SOL     OW19003   4.688   0.175   4.206
 6035SOL    HW119004   4.752   0.236   4.253
 6035SOL    HW219005   4.648   0.223   4.128
 6036SOL     OW19006   5.622   0.439   5.108
 6036SOL    HW119007   5.693   0.402   5.168
 6036SOL    HW219008   5.549   0.479   5.163
 6037SOL     OW19009   0.739   5.899   4.580
 6037SOL    HW119010   0.719   5.996   4.596
 6037SOL    HW219011   0.700   5.845   4.655
 6038SOL     OW19012   0.381   3.953   6.504
 6038SOL    HW119013   0.458   4.017   6.504
 6038SOL    HW219014   0.343   3.946   6.412
 6039SOL     OW19015   3.536   3.385   4.187
 6039SOL    HW119016   3.590   3.302   4.169
 6039SOL    HW219017   3.522   3.395   4.285
 6040SOL     OW19018   1.319   0.838   0.565
 6040SOL    HW119019   1.337   0.839   0.466
 6040SOL    HW219020   1.382   0.900   0.611
 6041SOL     OW19021   0.706   2.906   0.181
 6041SOL    HW119022   0.659   2.909   0.269
 6041SOL    HW219023   0.795   2.950   0.190
 6042SOL     OW19024   5.163   5.653   4.738
 6042SOL    HW119025   5.085   5.705   4.773
 6042SOL    HW219026   5.179   5.678   4.642
 6043SOL     OW19027   0.144   4.586   3.452
 6043SOL    HW119028   0.105   4.606   3.542
 6043SOL    HW219029   0.243   4.576   3.461
 6044SOL     OW19030   1.340   0.550   1.019
 6044SOL    HW119031   1.372   0.471   0.966
 6044SOL    HW219032   1.303   0.620   0.957
 6045SOL     OW19033   6.348   4.240   6.750
 6045SOL    HW119034   6.324   4.214   6.844
 6045SOL    HW219035   6.360   4.158   6.695
 6046SOL     OW19036   1.267   3.507   6.813
 6046SOL    HW119037   1.344   3.476   6.758
 6046SOL    HW219038   1.186   3.452   6.791
 6047SOL     OW19039   1.473   5.889   5.140
 6047SOL    HW119040   1.492   5.873   5.043
 6047SOL    HW219041   1.389   5.842   5.166
 6048SOL     OW19042   4.395   5.832   4.040
 6048SOL    HW119043   4.402   5.733   4.036
 6048SOL    HW219044   4.448   5.873   3.966
 6049SOL     OW19045   6.747   5.690   0.207
 6049SOL    HW119046   6.799   5.667   0.124
 6049SOL    HW219047   6.702   5.608   0.242
 6050SOL     OW19048   5.962   4.371   5.356
 6050SOL    HW119049   5.880   4.335   5.313
 6050SOL    HW219050   6.017   4.419   5.288
 6051SOL     OW19051   3.068   1.931   3.764
 6051SOL    HW119052   2.993   1.956   3.703
 6051SOL    HW219053   3.084   1.832   3.760
 6052SOL     OW19054   0.469   1.810   6.861
 6052SOL    HW119055   0.518   1.725   6.844
 6052SOL    HW219056   0.466   1.827   6.960
 6053SOL     OW19057   0.779   0.324   6.279
 6053SOL    HW119058   0.828   0.383   6.215
 6053SOL    HW219059   0.730   0.381   6.346
 6054SOL     OW19060   0.801   4.228   5.992
 6054SOL    HW119061   0.776   4.225   6.089
 6054SOL    HW219062   0.724   4.196   5.937
 6055SOL     OW19063   5.677   6.598   2.845
 6055SOL    HW119064   5.594   6.637   2.804
 6055SOL    HW219065   5.670   6.498   2.846
 6056SOL     OW19066   5.080   2.935   6.199
 6056SOL    HW119067   5.102   2.982   6.114
 6056SOL    HW219068   5.065   2.838   6.181
 6057SOL     OW19069   4.419   0.924   6.851
 6057SOL    HW119070   4.375   0.887   6.932
 6057SOL    HW219071   4.415   1.024   6.854
 6058SOL     OW19072   5.213   2.037   5.372
 6058SOL    HW119073   5.300   2.018   5.327
 6058SOL    HW219074   5.215   2.130   5.411
 6059SOL     OW19075   0.190   6.465   6.831
 6059SOL    HW119076   0.098   6.437   6.802
 6059SOL    HW219077   0.233   6.519   6.759
 6060SOL     OW19078   2.797   5.370   6.579
 6060SOL    HW119079   2.751   5.409   6.659
 6060SOL    HW219080   2.752   5.401   6.496
 6061SOL     OW19081   2.004   1.372   0.215
 6061SOL    HW119082   1.917   1.342   0.177
 6061SOL    HW219083   1.988   1.447   0.279
 6062SOL     OW19084   1.477   0.429   3.536
 6062SOL    HW119085   1.568   0.423   3.576
 6062SOL    HW219086   1.484   0.463   3.442
 6063SOL     OW19087   6.052   5.732   6.952
 6063SOL    HW119088   6.083   5.762   0.025
 6063SOL    HW219089   6.132   5.709   6.895
 6064SOL     OW19090   1.266   5.667   2.724
 6064SOL    HW119091   1.251   5.633   2.630
 6064SOL    HW219092   1.205   5.744   2.741
 6065SOL     OW19093   5.255   0.118   1.248
 6065SOL    HW119094   5.221   0.210   1.228
 6065SOL    HW219095   5.302   0.119   1.336
 6066SOL     OW19096   4.424   2.282   5.594
 6066SOL    HW119097   4.431   2.189   5.630
 6066SOL    HW219098   4.350   2.330   5.642
 6067SOL     OW19099   4.717   1.670   6.843
 6067SOL    HW119100   4.767   1.697   6.926
 6067SOL    HW219101   4.765   1.704   6.763
 6068SOL     OW19102   5.024   0.798   5.468
 6068SOL    HW119103   4.966   0.753   5.400
 6068SOL    HW219104   5.109   0.828   5.426
 6069SOL     OW19105   6.600   5.474   3.599
 6069SOL    HW119106   6.623   5.555   3.652
 6069SOL    HW219107   6.675   5.408   3.605
 6070SOL     OW19108   4.863   3.474   0.955
 6070SOL    HW119109   4.824   3.433   0.873
 6070SOL    HW219110   4.899   3.565   0.934
 6071SOL     OW19111   4.825   0.003   5.279
 6071SOL    HW119112   4.877   0.089   5.280
 6071SOL    HW219113   4.738   0.018   5.233
 6072SOL     OW19114   6.024   1.665   1.475
 6072SOL    HW119115   6.072   1.740   1.520
 6072SOL    HW219116   6.006   1.592   1.541
 6073SOL     OW19117   5.915   1.124   0.853
 6073SOL    HW119118   5.988   1.057   0.869
 6073SOL    HW219119   5.901   1.135   0.755
 6074SOL     OW19120   0.484   0.668   5.825
 6074SOL    HW119121   0.579   0.699   5.822
 6074SOL    HW219122   0.429   0.723   5.762
 6075SOL     OW19123   5.194   3.560   5.770
 6075SOL    HW119124   5.220   3.645   5.723
 6075SOL    HW219125   5.183   3.579   5.867
 6076SOL     OW19126   2.631   0.587   4.131
 6076SOL    HW119127   2.602   0.553   4.220
 6076SOL    HW219128   2.578   0.543   4.059
 6077SOL     OW19129   5.290   4.797   3.480
 6077SOL    HW119130   5.284   4.705   3.519
 6077SOL    HW219131   5.383   4.815   3.449
 6078SOL     OW19132   1.868   4.498   4.705
 6078SOL    HW119133   1.829   4.498   4.797
 6078SOL    HW219134   1.884   4.592   4.676
 6079SOL     OW19135   2.938   2.099   0.666
 6079SOL    HW119136   2.886   2.029   0.616
 6079SOL    HW219137   2.883   2.135   0.740
 6080SOL     OW19138   5.909   3.312   3.149
 6080SOL    HW119139   5.971   3.265   3.213
 6080SOL    HW219140   5.815   3.303   3.182
 6081SOL     OW19141   0.332   4.287   1.678
 6081SOL    HW119142   0.411   4.340   1.708
 6081SOL    HW219143   0.260   4.292   1.747
 6082SOL     OW19144   4.413   1.804   5.095
 6082SOL    HW119145   4.341   1.828   5.029
 6082SOL    HW219146   4.496   1.779   5.046
 6083SOL     OW19147   1.969   6.941   6.937
 6083SOL    HW119148   1.982   6.846   6.962
 6083SOL    HW219149   1.954   6.996   0.002
 6084SOL     OW19150   0.094   5.704   6.157
 6084SOL    HW119151   0.057   5.786   6.113
 6084SOL    HW219152   0.193   5.700   6.143
 6085SOL     OW19153   5.178   4.993   1.281
 6085SOL    HW119154   5.162   4.941   1.366
 6085SOL    HW219155   5.256   5.054   1.293
 6086SOL     OW19156   3.233   1.925   2.112
 6086SOL    HW119157   3.318   1.961   2.149
 6086SOL    HW219158   3.175   2.000   2.082
 6087SOL     OW19159   3.938   0.677   0.593
 6087SOL    HW119160   3.935   0.583   0.558
 6087SOL    HW219161   3.909   0.676   0.689
 6088SOL     OW19162   0.389   0.716   5.158
 6088SOL    HW119163   0.333   0.797   5.143
 6088SOL    HW219164   0.461   0.736   5.225
 6089SOL     OW19165   6.656   3.933   1.028
 6089SOL    HW119166   6.689   3.839   1.024
 6089SOL    HW219167   6.713   3.986   1.090
 6090SOL     OW19168   6.883   6.098   4.223
 6090SOL    HW119169   6.967   6.102   4.170
 6090SOL    HW219170   6.807   6.075   4.163
 6091SOL     OW19171   6.865   2.294   2.072
 6091SOL    HW119172   6.787   2.249   2.029
 6091SOL    HW219173   6.833   2.368   2.131
 6092SOL     OW19174   0.966   3.774   0.763
 6092SOL    HW119175   1.019   3.699   0.723
 6092SOL    HW219176   0.890   3.798   0.702
 6093SOL     OW19177   0.888   4.660   0.463
 6093SOL    HW119178   0.864   4.756   0.448
 6093SOL    HW219179   0.830   4.622   0.535
 6094SOL     OW19180   0.439   1.315   0.898
 6094SOL    HW119181   0.344   1.340   0.914
 6094SOL    HW219182   0.487   1.310   0.986
 6095SOL     OW19183   0.043   3.654   5.111
 6095SOL    HW119184   0.123   3.700   5.149
 6095SOL    HW219185   6.995   3.634   5.185
 6096SOL     OW19186   5.525   1.833   2.598
 6096SOL    HW119187   5.477   1.913   2.633
 6096SOL    HW219188   5.559   1.852   2.506
 6097SOL     OW19189   3.862   1.768   2.364
 6097SOL    HW119190   3.937   1.831   2.384
 6097SOL    HW219191   3.800   1.765   2.442
 6098SOL     OW19192   0.640   0.856   6.646
 6098SOL    HW119193   0.670   0.897   6.561
 6098SOL    HW219194   0.542   0.871   6.659
 6099SOL     OW19195   5.940   3.895   4.728
 6099SOL    HW119196   5.877   3.880   4.652
 6099SOL    HW219197   5.928   3.824   4.796
 6100SOL     OW19198   6.904   3.065   1.103
 6100SOL    HW119199   6.969   3.057   1.027
 6100SOL    HW219200   6.923   3.149   1.153
 6101SOL     OW19201   6.251   6.414   3.864
 6101SOL    HW119202   6.244   6.376   3.772
 6101SOL    HW219203   6.279   6.342   3.928
 6102SOL     OW19204   3.337   6.378   5.047
 6102SOL    HW119205   3.375   6.463   5.083
 6102SOL    HW219206   3.331   6.310   5.120
 6103SOL     OW19207   5.689   1.808   5.289
 6103SOL    HW119208   5.738   1.804   5.376
 6103SOL    HW219209   5.681   1.717   5.250
 6104SOL     OW19210   2.063   2.961   1.291
 6104SOL    HW119211   1.976   2.960   1.340
 6104SOL    HW219212   2.139   2.947   1.355
 6105SOL     OW19213   3.351   4.913   4.574
 6105SOL    HW119214   3.315   4.895   4.665
 6105SOL    HW219215   3.291   4.871   4.506
 6106SOL     OW19216   2.119   5.129   4.489
 6106SOL    HW119217   2.082   5.045   4.526
 6106SOL    HW219218   2.178   5.108   4.411
 6107SOL     OW19219   2.177   5.113   6.301
 6107SOL    HW119220   2.242   5.169   6.249
 6107SOL    HW219221   2.095   5.098   6.247
 6108SOL     OW19222   5.439   2.038   4.971
 6108SOL    HW119223   5.407   2.132   4.956
 6108SOL    HW219224   5.490   2.008   4.891
 6109SOL     OW19225   6.974   4.702   1.418
 6109SOL    HW119226   0.011   4.644   1.356
 6109SOL    HW219227   0.017   4.768   1.462
 6110SOL     OW19228   3.507   1.984   3.945
 6110SOL    HW119229   3.502   2.026   4.036
 6110SOL    HW219230   3.423   2.004   3.895
 6111SOL     OW19231   0.408   4.506   3.755
 6111SOL    HW119232   0.408   4.518   3.656
 6111SOL    HW219233   0.481   4.562   3.796
 6112SOL     OW19234   1.232   0.868   1.291
 6112SOL    HW119235   1.285   0.805   1.348
 6112SOL    HW219236   1.255   0.962   1.316
 6113SOL     OW19237   1.359   4.650   5.514
 6113SOL    HW119238   1.345   4.736   5.563
 6113SOL    HW219239   1.456   4.637   5.497
 6114SOL     OW19240   3.751   4.289   0.903
 6114SOL    HW119241   3.713   4.332   0.821
 6114SOL    HW219242   3.740   4.351   0.981
 6115SOL     OW19243   0.181   4.632   2.401
 6115SOL    HW119244   0.259   4.628   2.338
 6115SOL    HW219245   0.196   4.705   2.467
 6116SOL     OW19246   4.079   2.427   1.135
 6116SOL    HW119247   4.051   2.423   1.231
 6116SOL    HW219248   4.053   2.514   1.095
 6117SOL     OW19249   5.271   5.751   3.958
 6117SOL    HW119250   5.174   5.742   3.982
 6117SOL    HW219251   5.288   5.709   3.870
 6118SOL     OW19252   6.365   0.271   3.833
 6118SOL    HW119253   6.314   0.193   3.868
 6118SOL    HW219254   6.462   0.261   3.855
 6119SOL     OW19255   5.782   5.249   4.679
 6119SOL    HW119256   5.722   5.299   4.740
 6119SOL    HW219257   5.738   5.164   4.650
 6120SOL     OW19258   2.167   1.902   2.881
 6120SOL    HW119259   2.222   1.935   2.804
 6120SOL    HW219260   2.189   1.956   2.962
 6121SOL     OW19261   0.003   2.314   3.234
 6121SOL    HW119262   7.015   2.349   3.141
 6121SOL    HW219263   0.097   2.283   3.253
 6122SOL     OW19264   4.042   5.439   3.935
 6122SOL    HW119265   3.992   5.357   3.962
 6122SOL    HW219266   4.083   5.481   4.016
 6123SOL     OW19267   5.851   1.660   2.592
 6123SOL    HW119268   5.923   1.730   2.596
 6123SOL    HW219269   5.843   1.626   2.498
 6124SOL     OW19270   2.847   0.151   5.012
 6124SOL    HW119271   2.804   0.154   5.102
 6124SOL    HW219272   2.945   0.136   5.023
 6125SOL     OW19273   1.174   4.323   2.356
 6125SOL    HW119274   1.076   4.303   2.359
 6125SOL    HW219275   1.199   4.357   2.266
 6126SOL     OW19276   3.630   6.712   3.412
 6126SOL    HW119277   3.548   6.667   3.448
 6126SOL    HW219278   3.641   6.687   3.316
 6127SOL     OW19279   1.957   5.529   1.463
 6127SOL    HW119280   2.016   5.597   1.506
 6127SOL    HW219281   1.862   5.560   1.466
 6128SOL     OW19282   5.472   4.106   1.753
 6128SOL    HW119283   5.562   4.096   1.796
 6128SOL    HW219284   5.426   4.186   1.793
 6129SOL     OW19285   6.642   3.565   3.608
 6129SOL    HW119286   6.658   3.655   3.649
 6129SOL    HW219287   6.573   3.574   3.536
 6130SOL     OW19288   5.189   3.346   2.912
 6130SOL    HW119289   5.240   3.310   2.834
 6130SOL    HW219290   5.126   3.418   2.881
 6131SOL     OW19291   6.756   1.024   5.300
 6131SOL    HW119292   6.816   1.015   5.380
 6131SOL    HW219293   6.704   0.939   5.288
 6132SOL     OW19294   6.982   2.547   0.457
 6132SOL    HW119295   6.923   2.582   0.385
 6132SOL    HW219296   0.041   2.495   0.417
 6133SOL     OW19297   1.544   5.054   0.284
 6133SOL    HW119298   1.601   4.977   0.309
 6133SOL    HW219299   1.528   5.054   0.185
 6134SOL     OW19300   4.720   3.753   6.434
 6134SOL    HW119301   4.748   3.658   6.428
 6134SOL    HW219302   4.689   3.772   6.528
 6135SOL     OW19303   5.970   6.635   2.240
 6135SOL    HW119304   5.961   6.661   2.143
 6135SOL    HW219305   5.931   6.707   2.297
 6136SOL     OW19306   1.498   2.163   2.619
 6136SOL    HW119307   1.542   2.252   2.626
 6136SOL    HW219308   1.561   2.098   2.576
 6137SOL     OW19309   3.461   0.211   6.352
 6137SOL    HW119310   3.460   0.151   6.272
 6137SOL    HW219311   3.469   0.156   6.435
 6138SOL     OW19312   4.646   0.869   2.987
 6138SOL    HW119313   4.628   0.916   3.073
 6138SOL    HW219314   4.639   0.770   3.000
 6139SOL     OW19315   2.307   6.167   3.798
 6139SOL    HW119316   2.236   6.102   3.775
 6139SOL    HW219317   2.303   6.244   3.734
 6140SOL     OW19318   2.227   5.668   1.263
 6140SOL    HW119319   2.217   5.664   1.362
 6140SOL    HW219320   2.137   5.676   1.220
 6141SOL     OW19321   0.905   6.196   5.042
 6141SOL    HW119322   1.003   6.189   5.027
 6141SOL    HW219323   0.867   6.104   5.058
 6142SOL     OW19324   6.948   3.273   3.986
 6142SOL    HW119325   6.909   3.182   3.971
 6142SOL    HW219326   6.876   3.337   4.014
 6143SOL     OW19327   6.182   5.866   6.274
 6143SOL    HW119328   6.236   5.929   6.331
 6143SOL    HW219329   6.234   5.842   6.193
 6144SOL     OW19330   0.321   5.768   4.486
 6144SOL    HW119331   0.385   5.769   4.409
 6144SOL    HW219332   0.327   5.855   4.535
 6145SOL     OW19333   5.820   5.044   3.712
 6145SOL    HW119334   5.884   5.120   3.724
 6145SOL    HW219335   5.783   5.046   3.620
 6146SOL     OW19336   5.937   1.938   3.369
 6146SOL    HW119337   5.987   1.939   3.456
 6146SOL    HW219338   5.839   1.949   3.387
 6147SOL     OW19339   0.936   3.852   3.917
 6147SOL    HW119340   0.885   3.893   3.841
 6147SOL    HW219341   1.028   3.889   3.919
 6148SOL     OW19342   6.309   6.580   3.257
 6148SOL    HW119343   6.310   6.678   3.280
 6148SOL    HW219344   6.352   6.528   3.332
 6149SOL     OW19345   1.305   5.957   4.598
 6149SOL    HW119346   1.207   5.978   4.595
 6149SOL    HW219347   1.326   5.907   4.681
 6150SOL     OW19348   4.738   6.657   6.276
 6150SOL    HW119349   4.835   6.637   6.262
 6150SOL    HW219350   4.721   6.677   6.372
 6151SOL     OW19351   4.305   0.178   4.945
 6151SOL    HW119352   4.349   0.217   5.026
 6151SOL    HW219353   4.208   0.162   4.964
 6152SOL     OW19354   6.450   4.022   6.306
 6152SOL    HW119355   6.455   4.083   6.385
 6152SOL    HW219356   6.537   3.974   6.295
 6153SOL     OW19357   3.547   5.527   5.733
 6153SOL    HW119358   3.600   5.612   5.744
 6153SOL    HW219359   3.521   5.517   5.637
 6154SOL     OW19360   5.423   3.105   3.092
 6154SOL    HW119361   5.336   3.146   3.118
 6154SOL    HW219362   5.408   3.038   3.019
 6155SOL     OW19363   2.672   4.663   4.483
 6155SOL    HW119364   2.607   4.603   4.435
 6155SOL    HW219365   2.731   4.707   4.416
 6156SOL     OW19366   5.684   0.779   4.625
 6156SOL    HW119367   5.766   0.722   4.625
 6156SOL    HW219368   5.627   0.756   4.703
 6157SOL     OW19369   1.293   1.040   4.682
 6157SOL    HW119370   1.330   0.953   4.649
 6157SOL    HW219371   1.240   1.084   4.609
 6158SOL     OW19372   4.943   6.613   6.880
 6158SOL    HW119373   5.000   6.694   6.873
 6158SOL    HW219374   5.001   6.532   6.891
 6159SOL     OW19375   5.240   3.681   6.290
 6159SOL    HW119376   5.193   3.682   6.201
 6159SOL    HW219377   5.198   3.612   6.349
 6160SOL     OW19378   6.380   5.404   0.079
 6160SOL    HW119379   6.439   5.345   0.134
 6160SOL    HW219380   6.290   5.411   0.122
 6161SOL     OW19381   5.646   0.025   6.289
 6161SOL    HW119382   5.669   0.086   6.366
 6161SOL    HW219383   5.659   6.947   6.317
 6162SOL     OW19384   5.923   5.666   3.553
 6162SOL    HW119385   5.960   5.620   3.634
 6162SOL    HW219386   5.941   5.611   3.472
 6163SOL     OW19387   6.912   3.888   2.931
 6163SOL    HW119388   6.956   3.907   2.843
 6163SOL    HW219389   6.826   3.940   2.937
 6164SOL     OW19390   4.512   3.085   0.965
 6164SOL    HW119391   4.587   3.018   0.962
 6164SOL    HW219392   4.544   3.169   1.008
 6165SOL     OW19393   4.044   6.934   0.774
 6165SOL    HW119394   4.134   6.974   0.758
 6165SOL    HW219395   3.983   7.003   0.814
 6166SOL     OW19396   3.080   0.472   0.309
 6166SOL    HW119397   3.179   0.483   0.318
 6166SOL    HW219398   3.061   0.388   0.259
 6167SOL     OW19399   6.954   5.163   3.277
 6167SOL    HW119400   0.019   5.167   3.220
 6167SOL    HW219401   6.928   5.256   3.304
 6168SOL     OW19402   0.133   2.749   1.685
 6168SOL    HW119403   0.118   2.660   1.728
 6168SOL    HW219404   0.136   2.820   1.756
 6169SOL     OW19405   1.317   4.168   0.941
 6169SOL    HW119406   1.255   4.094   0.963
 6169SOL    HW219407   1.323   4.179   0.842
 6170SOL     OW19408   6.493   2.042   3.496
 6170SOL    HW119409   6.589   2.018   3.513
 6170SOL    HW219410   6.438   2.019   3.576
 6171SOL     OW19411   5.551   2.150   6.129
 6171SOL    HW119412   5.567   2.051   6.136
 6171SOL    HW219413   5.506   2.170   6.042
 6172SOL     OW19414   0.291   4.661   4.033
 6172SOL    HW119415   0.303   4.582   3.972
 6172SOL    HW219416   0.196   4.664   4.064
 6173SOL     OW19417   5.432   6.314   3.002
 6173SOL    HW119418   5.426   6.393   3.064
 6173SOL    HW219419   5.487   6.243   3.044
 6174SOL     OW19420   0.567   2.383   3.378
 6174SOL    HW119421   0.587   2.395   3.280
 6174SOL    HW219422   0.634   2.320   3.418
 6175SOL     OW19423   4.135   2.707   6.618
 6175SOL    HW119424   4.207   2.692   6.686
 6175SOL    HW219425   4.177   2.737   6.532
 6176SOL     OW19426   2.895   5.143   5.485
 6176SOL    HW119427   2.819   5.208   5.479
 6176SOL    HW219428   2.890   5.094   5.572
 6177SOL     OW19429   5.995   5.342   1.655
 6177SOL    HW119430   5.932   5.384   1.590
 6177SOL    HW219431   5.974   5.244   1.663
 6178SOL     OW19432   4.298   4.585   1.937
 6178SOL    HW119433   4.370   4.586   2.007
 6178SOL    HW219434   4.289   4.493   1.900
 6179SOL     OW19435   4.769   5.298   4.837
 6179SOL    HW119436   4.864   5.277   4.813
 6179SOL    HW219437   4.753   5.273   4.933
 6180SOL     OW19438   2.109   3.632   6.800
 6180SOL    HW119439   2.136   3.671   6.889
 6180SOL    HW219440   2.069   3.704   6.743
 6181SOL     OW19441   0.203   6.374   0.214
 6181SOL    HW119442   0.261   6.379   0.133
 6181SOL    HW219443   0.224   6.451   0.274
 6182SOL     OW19444   2.856   2.626   5.715
 6182SOL    HW119445   2.781   2.693   5.716
 6182SOL    HW219446   2.822   2.537   5.746
 6183SOL     OW19447   0.388   0.519   0.601
 6183SOL    HW119448   0.478   0.516   0.558
 6183SOL    HW219449   0.386   0.459   0.680
 6184SOL     OW19450   3.597   6.333   5.569
 6184SOL    HW119451   3.502   6.329   5.601
 6184SOL    HW219452   3.626   6.428   5.561
 6185SOL     OW19453   3.211   3.142   3.815
 6185SOL    HW119454   3.167   3.165   3.729
 6185SOL    HW219455   3.273   3.065   3.801
 6186SOL     OW19456   1.296   1.832   2.279
 6186SOL    HW119457   1.306   1.740   2.316
 6186SOL    HW219458   1.200   1.850   2.257
 6187SOL     OW19459   3.590   2.057   5.705
 6187SOL    HW119460   3.648   2.069   5.786
 6187SOL    HW219461   3.586   1.960   5.682
 6188SOL     OW19462   1.365   1.367   5.721
 6188SOL    HW119463   1.288   1.344   5.662
 6188SOL    HW219464   1.449   1.368   5.668
 6189SOL     OW19465   6.912   5.616   0.888
 6189SOL    HW119466   6.958   5.618   0.799
 6189SOL    HW219467   6.854   5.535   0.893
 6190SOL     OW19468   0.871   2.982   3.843
 6190SOL    HW119469   0.892   2.985   3.941
 6190SOL    HW219470   0.790   3.037   3.825
 6191SOL     OW19471   3.405   4.404   0.015
 6191SOL    HW119472   3.469   4.449   0.077
 6191SOL    HW219473   3.340   4.471   6.995
 6192SOL     OW19474   2.547   1.960   1.597
 6192SOL    HW119475   2.601   1.932   1.676
 6192SOL    HW219476   2.520   1.879   1.545
 6193SOL     OW19477   4.677   5.559   6.822
 6193SOL    HW119478   4.620   5.613   6.759
 6193SOL    HW219479   4.767   5.545   6.781
 6194SOL     OW19480   5.429   6.728   5.855
 6194SOL    HW119481   5.374   6.811   5.851
 6194SOL    HW219482   5.526   6.753   5.854
 6195SOL     OW19483   4.871   5.405   5.834
 6195SOL    HW119484   4.779   5.429   5.867
 6195SOL    HW219485   4.863   5.337   5.761
 6196SOL     OW19486   6.813   3.582   3.381
 6196SOL    HW119487   6.778   3.580   3.475
 6196SOL    HW219488   6.899   3.531   3.376
 6197SOL     OW19489   0.788   5.572   0.525
 6197SOL    HW119490   0.885   5.569   0.503
 6197SOL    HW219491   0.754   5.666   0.517
 6198SOL     OW19492   6.551   1.753   5.856
 6198SOL    HW119493   6.502   1.835   5.825
 6198SOL    HW219494   6.485   1.681   5.879
 6199SOL     OW19495   2.300   0.073   6.084
 6199SOL    HW119496   2.202   0.065   6.065
 6199SOL    HW219497   2.319   0.162   6.125
 6200SOL     OW19498   1.736   6.990   6.778
 6200SOL    HW119499   1.736   0.006   6.684
 6200SOL    HW219500   1.829   6.969   6.807
 6201SOL     OW19501   0.529   4.800   4.005
 6201SOL    HW119502   0.443   4.750   4.019
 6201SOL    HW219503   0.533   4.877   4.070
 6202SOL     OW19504   5.651   0.922   1.347
 6202SOL    HW119505   5.738   0.879   1.323
 6202SOL    HW219506   5.646   1.013   1.306
 6203SOL     OW19507   0.100   1.409   2.073
 6203SOL    HW119508   0.046   1.418   2.157
 6203SOL    HW219509   0.194   1.438   2.091
 6204SOL     OW19510   1.209   6.238   4.651
 6204SOL    HW119511   1.123   6.197   4.621
 6204SOL    HW219512   1.247   6.185   4.728
 6205SOL     OW19513   6.914   4.334   3.621
 6205SOL    HW119514   6.963   4.266   3.677
 6205SOL    HW219515   6.848   4.286   3.562
 6206SOL     OW19516   5.168   2.112   3.581
 6206SOL    HW119517   5.077   2.082   3.610
 6206SOL    HW219518   5.159   2.190   3.519
 6207SOL     OW19519   1.523   5.688   3.409
 6207SOL    HW119520   1.622   5.694   3.418
 6207SOL    HW219521   1.480   5.709   3.497
 6208SOL     OW19522   3.714   4.363   6.175
 6208SOL    HW119523   3.729   4.431   6.247
 6208SOL    HW219524   3.618   4.336   6.174
 6209SOL     OW19525   3.449   0.847   2.519
 6209SOL    HW119526   3.413   0.888   2.602
 6209SOL    HW219527   3.416   0.753   2.512
 6210SOL     OW19528   5.357   0.409   3.693
 6210SOL    HW119529   5.327   0.443   3.782
 6210SOL    HW219530   5.290   0.434   3.623
 6211SOL     OW19531   5.385   2.618   5.203
 6211SOL    HW119532   5.409   2.536   5.150
 6211SOL    HW219533   5.468   2.659   5.240
 6212SOL     OW19534   4.993   4.164   4.653
 6212SOL    HW119535   5.051   4.200   4.579
 6212SOL    HW219536   5.035   4.082   4.691
 6213SOL     OW19537   5.282   6.085   0.724
 6213SOL    HW119538   5.247   5.997   0.693
 6213SOL    HW219539   5.313   6.139   0.645
 6214SOL     OW19540   6.765   6.279   6.441
 6214SOL    HW119541   6.673   6.287   6.403
 6214SOL    HW219542   6.807   6.370   6.445
 6215SOL     OW19543   5.843   2.524   4.947
 6215SOL    HW119544   5.919   2.540   5.009
 6215SOL    HW219545   5.875   2.535   4.852
 6216SOL     OW19546   5.173   2.861   5.855
 6216SOL    HW119547   5.270   2.846   5.872
 6216SOL    HW219548   5.156   2.958   5.840
 6217SOL     OW19549   0.162   4.206   2.108
 6217SOL    HW119550   0.249   4.247   2.135
 6217SOL    HW219551   0.114   4.268   2.046
 6218SOL     OW19552   4.992   6.765   1.341
 6218SOL    HW119553   4.947   6.693   1.394
 6218SOL    HW219554   5.059   6.812   1.398
 6219SOL     OW19555   2.643   0.757   0.595
 6219SOL    HW119556   2.724   0.810   0.569
 6219SOL    HW219557   2.634   0.678   0.534
 6220SOL     OW19558   3.061   0.469   2.831
 6220SOL    HW119559   3.159   0.450   2.842
 6220SOL    HW219560   3.049   0.557   2.786
 6221SOL     OW19561   4.286   5.061   5.190
 6221SOL    HW119562   4.197   5.052   5.235
 6221SOL    HW219563   4.299   4.985   5.126
 6222SOL     OW19564   0.443   0.959   2.103
 6222SOL    HW119565   0.483   1.020   2.034
 6222SOL    HW219566   0.346   0.944   2.082
 6223SOL     OW19567   6.744   5.281   3.999
 6223SOL    HW119568   6.757   5.380   4.005
 6223SOL    HW219569   6.648   5.261   3.980
 6224SOL     OW19570   3.799   7.006   0.017
 6224SOL    HW119571   3.798   6.907   0.033
 6224SOL    HW219572   3.715   0.015   6.986
 6225SOL     OW19573   5.537   5.265   6.571
 6225SOL    HW119574   5.553   5.289   6.667
 6225SOL    HW219575   5.624   5.269   6.521
 6226SOL     OW19576   1.064   1.319   4.207
 6226SOL    HW119577   1.129   1.263   4.157
 6226SOL    HW219578   0.988   1.344   4.147
 6227SOL     OW19579   2.442   4.142   6.165
 6227SOL    HW119580   2.522   4.185   6.123
 6227SOL    HW219581   2.377   4.115   6.093
 6228SOL     OW19582   0.622   2.920   4.067
 6228SOL    HW119583   0.563   3.001   4.068
 6228SOL    HW219584   0.586   2.853   4.001
 6229SOL     OW19585   6.958   4.489   4.994
 6229SOL    HW119586   6.981   4.394   5.016
 6229SOL    HW219587   6.894   4.491   4.918
 6230SOL     OW19588   0.756   0.536   0.989
 6230SOL    HW119589   0.695   0.470   0.944
 6230SOL    HW219590   0.851   0.509   0.973
 6231SOL     OW19591   2.166   5.336   5.425
 6231SOL    HW119592   2.257   5.294   5.428
 6231SOL    HW219593   2.123   5.315   5.338
 6232SOL     OW19594   3.886   0.902   6.718
 6232SOL    HW119595   3.983   0.894   6.738
 6232SOL    HW219596   3.851   0.815   6.685
 6233SOL     OW19597   0.153   4.506   0.751
 6233SOL    HW119598   0.067   4.507   0.802
 6233SOL    HW219599   0.182   4.600   0.734
 6234SOL     OW19600   4.959   5.189   3.028
 6234SOL    HW119601   4.875   5.244   3.023
 6234SOL    HW219602   4.965   5.147   3.119
 6235SOL     OW19603   0.676   0.864   1.842
 6235SOL    HW119604   0.577   0.880   1.831
 6235SOL    HW219605   0.723   0.893   1.759
 6236SOL     OW19606   6.329   5.947   1.512
 6236SOL    HW119607   6.375   6.036   1.508
 6236SOL    HW219608   6.233   5.959   1.487
 6237SOL     OW19609   4.192   1.151   2.672
 6237SOL    HW119610   4.287   1.137   2.645
 6237SOL    HW219611   4.164   1.079   2.736
 6238SOL     OW19612   2.231   6.919   3.795
 6238SOL    HW119613   2.200   6.969   3.876
 6238SOL    HW219614   2.254   6.825   3.821
 6239SOL     OW19615   3.963   1.517   4.577
 6239SOL    HW119616   4.017   1.479   4.502
 6239SOL    HW219617   3.917   1.600   4.546
 6240SOL     OW19618   3.909   3.393   4.371
 6240SOL    HW119619   3.894   3.380   4.469
 6240SOL    HW219620   3.920   3.304   4.327
 6241SOL     OW19621   4.194   0.053   3.345
 6241SOL    HW119622   4.213   6.981   3.304
 6241SOL    HW219623   4.272   0.081   3.402
 6242SOL     OW19624   3.479   2.014   4.624
 6242SOL    HW119625   3.413   2.044   4.693
 6242SOL    HW219626   3.430   1.989   4.540
 6243SOL     OW19627   3.026   0.688   0.007
 6243SOL    HW119628   3.066   0.765   6.975
 6243SOL    HW219629   3.004   0.716   0.100
 6244SOL     OW19630   4.676   2.659   1.516
 6244SOL    HW119631   4.673   2.747   1.563
 6244SOL    HW219632   4.610   2.597   1.558
 6245SOL     OW19633   0.028   4.930   1.537
 6245SOL    HW119634   6.974   4.940   1.607
 6245SOL    HW219635   0.018   5.004   1.470
 6246SOL     OW19636   1.222   5.788   5.276
 6246SOL    HW119637   1.222   5.818   5.371
 6246SOL    HW219638   1.146   5.725   5.261
 6247SOL     OW19639   5.578   5.444   2.841
 6247SOL    HW119640   5.496   5.391   2.865
 6247SOL    HW219641   5.647   5.382   2.804
 6248SOL     OW19642   4.340   2.580   6.190
 6248SOL    HW119643   4.319   2.640   6.267
 6248SOL    HW219644   4.356   2.635   6.108
 6249SOL     OW19645   5.451   2.276   2.752
 6249SOL    HW119646   5.464   2.291   2.850
 6249SOL    HW219647   5.529   2.312   2.702
 6250SOL     OW19648   5.306   6.907   5.146
 6250SOL    HW119649   5.207   6.927   5.147
 6250SOL    HW219650   5.350   6.962   5.075
 6251SOL     OW19651   2.831   1.114   3.951
 6251SOL    HW119652   2.763   1.123   4.024
 6251SOL    HW219653   2.889   1.195   3.949
 6252SOL     OW19654   2.711   4.778   0.383
 6252SOL    HW119655   2.694   4.867   0.425
 6252SOL    HW219656   2.800   4.744   0.415
 6253SOL     OW19657   4.857   6.104   3.449
 6253SOL    HW119658   4.812   6.184   3.488
 6253SOL    HW219659   4.950   6.098   3.485
 6254SOL     OW19660   6.979   6.943   1.866
 6254SOL    HW119661   6.980   0.021   1.896
 6254SOL    HW219662   6.935   6.886   1.936
 6255SOL     OW19663   2.432   0.699   1.075
 6255SOL    HW119664   2.457   0.649   1.159
 6255SOL    HW219665   2.509   0.696   1.011
 6256SOL     OW19666   0.244   4.619   2.037
 6256SOL    HW119667   0.200   4.704   2.007
 6256SOL    HW219668   0.293   4.636   2.123
 6257SOL     OW19669   4.192   3.846   0.493
 6257SOL    HW119670   4.241   3.759   0.493
 6257SOL    HW219671   4.126   3.847   0.417
 6258SOL     OW19672   4.235   5.043   3.855
 6258SOL    HW119673   4.154   5.094   3.826
 6258SOL    HW219674   4.206   4.960   3.903
 6259SOL     OW19675   4.853   0.295   4.991
 6259SOL    HW119676   4.766   0.272   4.948
 6259SOL    HW219677   4.914   0.338   4.924
 6260SOL     OW19678   3.546   2.200   0.060
 6260SOL    HW119679   3.588   2.170   6.992
 6260SOL    HW219680   3.558   2.299   0.071
 6261SOL     OW19681   4.792   6.518   1.398
 6261SOL    HW119682   4.704   6.476   1.419
 6261SOL    HW219683   4.819   6.579   1.473
 6262SOL     OW19684   6.130   1.408   3.561
 6262SOL    HW119685   6.117   1.507   3.560
 6262SOL    HW219686   6.228   1.388   3.569
 6263SOL     OW19687   6.013   6.334   5.964
 6263SOL    HW119688   6.087   6.274   5.934
 6263SOL    HW219689   6.025   6.424   5.921
 6264SOL     OW19690   1.242   6.624   1.560
 6264SOL    HW119691   1.266   6.571   1.479
 6264SOL    HW219692   1.146   6.650   1.556
 6265SOL     OW19693   3.835   6.467   6.777
 6265SOL    HW119694   3.881   6.401   6.717
 6265SOL    HW219695   3.745   6.431   6.803
 6266SOL     OW19696   2.809   5.072   3.494
 6266SOL    HW119697   2.860   5.127   3.428
 6266SOL    HW219698   2.868   5.000   3.530
 6267SOL     OW19699   0.856   6.386   4.117
 6267SOL    HW119700   0.855   6.409   4.020
 6267SOL    HW219701   0.874   6.468   4.171
 6268SOL     OW19702   3.153   1.741   1.327
 6268SOL    HW119703   3.116   1.733   1.419
 6268SOL    HW219704   3.126   1.829   1.288
 6269SOL     OW19705   0.243   6.007   0.196
 6269SOL    HW119706   0.153   6.013   0.153
 6269SOL    HW219707   0.246   5.927   0.256
 6270SOL     OW19708   1.474   6.104   1.063
 6270SOL    HW119709   1.540   6.165   1.018
 6270SOL    HW219710   1.456   6.026   1.003
 6271SOL     OW19711   6.885   3.479   6.149
 6271SOL    HW119712   6.944   3.418   6.095
 6271SOL    HW219713   6.868   3.437   6.238
 6272SOL     OW19714   6.959   0.973   0.871
 6272SOL    HW119715   6.872   1.017   0.853
 6272SOL    HW219716   0.017   1.032   0.841
 6273SOL     OW19717   0.376   6.514   2.919
 6273SOL    HW119718   0.311   6.472   2.982
 6273SOL    HW219719   0.329   6.585   2.866
 6274SOL     OW19720   3.537   5.716   4.061
 6274SOL    HW119721   3.438   5.724   4.071
 6274SOL    HW219722   3.559   5.677   3.972
 6275SOL     OW19723   3.000   5.488   1.431
 6275SOL    HW119724   3.007   5.407   1.488
 6275SOL    HW219725   2.919   5.540   1.456
 6276SOL     OW19726   1.227   4.392   2.085
 6276SOL    HW119727   1.304   4.452   2.106
 6276SOL    HW219728   1.217   4.383   1.986
 6277SOL     OW19729   5.440   2.320   1.231
 6277SOL    HW119730   5.505   2.314   1.155
 6277SOL    HW219731   5.354   2.277   1.205
 6278SOL     OW19732   3.745   3.070   0.113
 6278SOL    HW119733   3.826   3.129   0.113
 6278SOL    HW219734   3.735   3.027   0.024
 6279SOL     OW19735   1.036   6.531   2.114
 6279SOL    HW119736   1.029   6.462   2.187
 6279SOL    HW219737   1.131   6.539   2.085
 6280SOL     OW19738   4.923   0.968   6.805
 6280SOL    HW119739   4.970   1.054   6.785
 6280SOL    HW219740   4.867   0.980   6.887
 6281SOL     OW19741   5.798   3.715   6.397
 6281SOL    HW119742   5.777   3.783   6.467
 6281SOL    HW219743   5.893   3.687   6.404
 6282SOL     OW19744   0.565   4.133   5.880
 6282SOL    HW119745   0.564   4.209   5.815
 6282SOL    HW219746   0.472   4.114   5.910
 6283SOL     OW19747   2.472   6.908   4.477
 6283SOL    HW119748   2.392   6.933   4.532
 6283SOL    HW219749   2.553   6.906   4.535
 6284SOL     OW19750   2.066   3.968   6.212
 6284SOL    HW119751   2.152   3.917   6.202
 6284SOL    HW219752   2.067   4.017   6.299
 6285SOL     OW19753   1.746   4.577   3.882
 6285SOL    HW119754   1.740   4.675   3.860
 6285SOL    HW219755   1.719   4.524   3.802
 6286SOL     OW19756   1.072   3.354   6.749
 6286SOL    HW119757   1.042   3.324   6.659
 6286SOL    HW219758   1.019   3.307   6.820
 6287SOL     OW19759   3.991   5.389   5.353
 6287SOL    HW119760   3.923   5.444   5.402
 6287SOL    HW219761   4.072   5.445   5.334
 6288SOL     OW19762   3.286   3.982   6.202
 6288SOL    HW119763   3.272   3.950   6.109
 6288SOL    HW219764   3.205   4.033   6.232
 6289SOL     OW19765   2.492   4.864   5.629
 6289SOL    HW119766   2.471   4.916   5.546
 6289SOL    HW219767   2.545   4.782   5.605
 6290SOL     OW19768   6.187   0.423   2.896
 6290SOL    HW119769   6.249   0.428   2.974
 6290SOL    HW219770   6.147   0.331   2.890
 6291SOL     OW19771   2.983   3.132   2.284
 6291SOL    HW119772   2.895   3.099   2.251
 6291SOL    HW219773   3.053   3.061   2.271
 6292SOL     OW19774   0.943   4.143   5.050
 6292SOL    HW119775   1.011   4.216   5.048
 6292SOL    HW219776   0.878   4.160   5.124
 6293SOL     OW19777   2.807   1.273   0.485
 6293SOL    HW119778   2.784   1.249   0.390
 6293SOL    HW219779   2.756   1.214   0.548
 6294SOL     OW19780   1.342   0.262   2.368
 6294SOL    HW119781   1.356   0.326   2.292
 6294SOL    HW219782   1.430   0.245   2.413
 6295SOL     OW19783   4.668   2.477   5.525
 6295SOL    HW119784   4.658   2.433   5.614
 6295SOL    HW219785   4.679   2.406   5.454
 6296SOL     OW19786   6.960   2.043   0.166
 6296SOL    HW119787   0.035   2.079   0.154
 6296SOL    HW219788   6.961   1.968   0.232
 6297SOL     OW19789   0.181   1.025   4.428
 6297SOL    HW119790   0.147   1.074   4.348
 6297SOL    HW219791   0.281   1.027   4.429
 6298SOL     OW19792   6.896   0.700   6.382
 6298SOL    HW119793   6.886   0.713   6.481
 6298SOL    HW219794   6.938   0.781   6.342
 6299SOL     OW19795   3.089   1.640   3.815
 6299SOL    HW119796   3.180   1.603   3.797
 6299SOL    HW219797   3.031   1.627   3.735
 6300SOL     OW19798   2.839   2.298   1.263
 6300SOL    HW119799   2.867   2.380   1.311
 6300SOL    HW219800   2.909   2.272   1.196
 6301SOL     OW19801   3.829   6.301   0.936
 6301SOL    HW119802   3.846   6.215   0.886
 6301SOL    HW219803   3.762   6.355   0.886
 6302SOL     OW19804   1.687   3.550   0.567
 6302SOL    HW119805   1.702   3.647   0.547
 6302SOL    HW219806   1.774   3.502   0.567
 6303SOL     OW19807   6.410   4.779   4.817
 6303SOL    HW119808   6.422   4.684   4.787
 6303SOL    HW219809   6.465   4.796   4.899
 6304SOL     OW19810   2.056   2.443   4.648
 6304SOL    HW119811   2.091   2.363   4.600
 6304SOL    HW219812   2.130   2.486   4.700
 6305SOL     OW19813   1.084   5.940   5.010
 6305SOL    HW119814   0.993   5.970   5.040
 6305SOL    HW219815   1.086   5.840   5.006
 6306SOL     OW19816   0.917   4.433   4.002
 6306SOL    HW119817   0.828   4.477   3.994
 6306SOL    HW219818   0.938   4.384   3.918
 6307SOL     OW19819   3.357   3.460   2.891
 6307SOL    HW119820   3.442   3.437   2.843
 6307SOL    HW219821   3.283   3.402   2.857
 6308SOL     OW19822   0.958   0.820   1.421
 6308SOL    HW119823   1.046   0.860   1.396
 6308SOL    HW219824   0.914   0.876   1.492
 6309SOL     OW19825   1.952   5.937   5.176
 6309SOL    HW119826   1.928   6.005   5.246
 6309SOL    HW219827   1.877   5.872   5.167
 6310SOL     OW19828   0.978   6.814   3.043
 6310SOL    HW119829   1.067   6.776   3.019
 6310SOL    HW219830   0.906   6.762   2.997
 6311SOL     OW19831   5.639   1.506   6.147
 6311SOL    HW119832   5.580   1.425   6.145
 6311SOL    HW219833   5.619   1.561   6.228
 6312SOL     OW19834   3.816   5.556   1.811
 6312SOL    HW119835   3.784   5.627   1.747
 6312SOL    HW219836   3.911   5.533   1.791
 6313SOL     OW19837   5.435   4.906   2.905
 6313SOL    HW119838   5.383   4.931   2.823
 6313SOL    HW219839   5.466   4.989   2.951
 6314SOL     OW19840   2.120   6.284   2.812
 6314SOL    HW119841   2.191   6.304   2.880
 6314SOL    HW219842   2.122   6.186   2.789
 6315SOL     OW19843   2.253   2.613   3.034
 6315SOL    HW119844   2.324   2.615   2.965
 6315SOL    HW219845   2.213   2.522   3.040
 6316SOL     OW19846   4.861   0.642   4.948
 6316SOL    HW119847   4.874   0.629   5.046
 6316SOL    HW219848   4.946   0.621   4.899
 6317SOL     OW19849   4.874   3.540   3.620
 6317SOL    HW119850   4.942   3.517   3.550
 6317SOL    HW219851   4.847   3.457   3.668
 6318SOL     OW19852   5.682   6.579   0.034
 6318SOL    HW119853   5.605   6.548   0.091
 6318SOL    HW219854   5.767   6.572   0.087
 6319SOL     OW19855   4.904   2.532   4.118
 6319SOL    HW119856   4.995   2.491   4.116
 6319SOL    HW219857   4.876   2.555   4.025
 6320SOL     OW19858   5.806   2.244   6.525
 6320SOL    HW119859   5.793   2.188   6.607
 6320SOL    HW219860   5.892   2.219   6.481
 6321SOL     OW19861   1.001   3.799   0.395
 6321SOL    HW119862   0.923   3.806   0.456
 6321SOL    HW219863   1.025   3.890   0.360
 6322SOL     OW19864   1.936   0.999   2.873
 6322SOL    HW119865   1.858   0.970   2.929
 6322SOL    HW219866   2.014   0.939   2.890
 6323SOL     OW19867   1.892   6.233   0.909
 6323SOL    HW119868   1.986   6.266   0.905
 6323SOL    HW219869   1.863   6.224   1.004
 6324SOL     OW19870   5.137   3.846   1.559
 6324SOL    HW119871   5.178   3.813   1.644
 6324SOL    HW219872   5.194   3.817   1.482
 6325SOL     OW19873   0.919   3.456   4.117
 6325SOL    HW119874   1.011   3.495   4.111
 6325SOL    HW219875   0.905   3.396   4.038
 6326SOL     OW19876   5.185   5.324   5.037
 6326SOL    HW119877   5.094   5.360   5.055
 6326SOL    HW219878   5.234   5.310   5.123
 6327SOL     OW19879   0.849   1.163   2.690
 6327SOL    HW119880   0.917   1.137   2.758
 6327SOL    HW219881   0.759   1.171   2.734
 6328SOL     OW19882   4.184   3.486   4.823
 6328SOL    HW119883   4.158   3.399   4.781
 6328SOL    HW219884   4.284   3.495   4.821
 6329SOL     OW19885   0.367   2.884   4.611
 6329SOL    HW119886   0.310   2.838   4.543
 6329SOL    HW219887   0.463   2.862   4.594
 6330SOL     OW19888   4.388   1.693   3.070
 6330SOL    HW119889   4.391   1.710   2.971
 6330SOL    HW219890   4.367   1.777   3.118
 6331SOL     OW19891   1.518   3.294   3.600
 6331SOL    HW119892   1.552   3.232   3.671
 6331SOL    HW219893   1.517   3.387   3.634
 6332SOL     OW19894   4.295   2.363   0.187
 6332SOL    HW119895   4.260   2.293   0.249
 6332SOL    HW219896   4.220   2.400   0.132
 6333SOL     OW19897   5.940   1.598   6.901
 6333SOL    HW119898   6.038   1.586   6.893
 6333SOL    HW219899   5.914   1.610   6.997
 6334SOL     OW19900   2.264   1.098   1.858
 6334SOL    HW119901   2.303   1.142   1.777
 6334SOL    HW219902   2.300   1.142   1.940
 6335SOL     OW19903   5.777   2.591   5.293
 6335SOL    HW119904   5.873   2.610   5.314
 6335SOL    HW219905   5.719   2.650   5.349
 6336SOL     OW19906   0.845   5.649   6.057
 6336SOL    HW119907   0.785   5.726   6.036
 6336SOL    HW219908   0.915   5.678   6.123
 6337SOL     OW19909   6.366   0.264   5.592
 6337SOL    HW119910   6.384   0.334   5.661
 6337SOL    HW219911   6.310   0.191   5.633
 6338SOL     OW19912   0.840   0.748   2.623
 6338SOL    HW119913   0.753   0.792   2.602
 6338SOL    HW219914   0.856   0.673   2.558
 6339SOL     OW19915   0.093   4.093   3.343
 6339SOL    HW119916   0.151   4.161   3.389
 6339SOL    HW219917   0.132   4.070   3.254
 6340SOL     OW19918   2.302   5.439   6.630
 6340SOL    HW119919   2.355   5.356   6.647
 6340SOL    HW219920   2.297   5.494   6.714
 6341SOL     OW19921   1.171   4.476   3.000
 6341SOL    HW119922   1.204   4.490   2.907
 6341SOL    HW219923   1.248   4.481   3.064
 6342SOL     OW19924   2.324   6.826   1.537
 6342SOL    HW119925   2.417   6.860   1.547
 6342SOL    HW219926   2.327   6.727   1.519
 6343SOL     OW19927   1.645   4.485   6.754
 6343SOL    HW119928   1.578   4.457   6.685
 6343SOL    HW219929   1.736   4.490   6.713
 6344SOL     OW19930   1.808   1.338   3.870
 6344SOL    HW119931   1.879   1.397   3.832
 6344SOL    HW219932   1.822   1.244   3.839
 6345SOL     OW19933   0.342   3.164   3.603
 6345SOL    HW119934   0.270   3.204   3.661
 6345SOL    HW219935   0.431   3.181   3.644
 6346SOL     OW19936   0.520   4.659   4.353
 6346SOL    HW119937   0.607   4.615   4.330
 6346SOL    HW219938   0.512   4.667   4.452
 6347SOL     OW19939   1.916   1.614   2.384
 6347SOL    HW119940   1.981   1.538   2.383
 6347SOL    HW219941   1.823   1.578   2.384
 6348SOL     OW19942   1.039   2.333   0.368
 6348SOL    HW119943   1.062   2.420   0.411
 6348SOL    HW219944   0.960   2.293   0.413
 6349SOL     OW19945   6.204   1.328   0.806
 6349SOL    HW119946   6.260   1.288   0.879
 6349SOL    HW219947   6.127   1.378   0.846
 6350SOL     OW19948   0.114   0.123   1.408
 6350SOL    HW119949   0.091   0.198   1.471
 6350SOL    HW219950   0.192   0.150   1.352
 6351SOL     OW19951   6.393   2.580   2.272
 6351SOL    HW119952   6.296   2.592   2.249
 6351SOL    HW219953   6.449   2.635   2.211
 6352SOL     OW19954   4.079   0.463   5.163
 6352SOL    HW119955   4.101   0.561   5.154
 6352SOL    HW219956   4.024   0.449   5.246
 6353SOL     OW19957   3.885   5.907   5.928
 6353SOL    HW119958   3.849   5.967   6.000
 6353SOL    HW219959   3.977   5.936   5.902
 6354SOL     OW19960   5.713   4.792   2.661
 6354SOL    HW119961   5.670   4.882   2.661
 6354SOL    HW219962   5.713   4.755   2.754
 6355SOL     OW19963   4.848   6.400   6.555
 6355SOL    HW119964   4.867   6.337   6.630
 6355SOL    HW219965   4.842   6.349   6.469
 6356SOL     OW19966   0.631   6.631   6.174
 6356SOL    HW119967   0.679   6.631   6.086
 6356SOL    HW219968   0.662   6.708   6.229
 6357SOL     OW19969   4.958   1.542   3.045
 6357SOL    HW119970   4.924   1.603   2.974
 6357SOL    HW219971   5.032   1.485   3.009
 6358SOL     OW19972   1.424   1.298   4.767
 6358SOL    HW119973   1.460   1.209   4.739
 6358SOL    HW219974   1.484   1.339   4.836
 6359SOL     OW19975   6.750   4.300   0.787
 6359SOL    HW119976   6.657   4.299   0.824
 6359SOL    HW219977   6.756   4.363   0.711
 6360SOL     OW19978   2.766   3.143   0.821
 6360SOL    HW119979   2.679   3.146   0.870
 6360SOL    HW219980   2.821   3.067   0.857
 6361SOL     OW19981   0.019   2.128   2.953
 6361SOL    HW119982   0.117   2.138   2.972
 6361SOL    HW219983   6.996   2.219   2.937
 6362SOL     OW19984   1.968   5.573   0.272
 6362SOL    HW119985   1.913   5.594   0.353
 6362SOL    HW219986   1.909   5.563   0.192
 6363SOL     OW19987   0.489   2.273   1.278
 6363SOL    HW119988   0.551   2.317   1.343
 6363SOL    HW219989   0.541   2.241   1.199
 6364SOL     OW19990   2.807   1.903   3.904
 6364SOL    HW119991   2.835   1.812   3.936
 6364SOL    HW219992   2.885   1.965   3.908
 6365SOL     OW19993   6.313   6.529   1.856
 6365SOL    HW119994   6.403   6.571   1.863
 6365SOL    HW219995   6.312   6.466   1.778
 6366SOL     OW19996   6.095   1.397   5.262
 6366SOL    HW119997   6.047   1.348   5.335
 6366SOL    HW219998   6.162   1.335   5.221
 6367SOL     OW19999   1.858   3.322   4.642
 6367SOL    HW120000   1.853   3.419   4.667
 6367SOL    HW220001   1.836   3.311   4.545
 6368SOL     OW20002   5.415   3.359   5.087
 6368SOL    HW120003   5.401   3.306   5.004
 6368SOL    HW220004   5.455   3.448   5.063
 6369SOL     OW20005   3.337   4.660   0.694
 6369SOL    HW120006   3.341   4.724   0.771
 6369SOL    HW220007   3.426   4.656   0.650
 6370SOL     OW20008   6.440   3.458   4.857
 6370SOL    HW120009   6.367   3.397   4.824
 6370SOL    HW220010   6.487   3.499   4.779
 6371SOL     OW20011   5.742   4.510   1.241
 6371SOL    HW120012   5.769   4.560   1.323
 6371SOL    HW220013   5.644   4.490   1.243
 6372SOL     OW20014   5.896   1.286   1.491
 6372SOL    HW120015   5.864   1.342   1.415
 6372SOL    HW220016   5.963   1.337   1.544
 6373SOL     OW20017   5.542   1.485   1.026
 6373SOL    HW120018   5.547   1.548   1.103
 6373SOL    HW220019   5.463   1.424   1.039
 6374SOL     OW20020   3.441   3.208   6.129
 6374SOL    HW120021   3.476   3.126   6.175
 6374SOL    HW220022   3.503   3.285   6.147
 6375SOL     OW20023   5.594   0.865   1.645
 6375SOL    HW120024   5.600   0.951   1.593
 6375SOL    HW220025   5.639   0.877   1.733
 6376SOL     OW20026   2.988   6.911   0.024
 6376SOL    HW120027   3.075   6.867   0.000
 6376SOL    HW220028   2.997   6.955   0.113
 6377SOL     OW20029   0.001   1.069   0.115
 6377SOL    HW120030   6.976   1.018   0.039
 6377SOL    HW220031   0.099   1.081   0.097
 6378SOL     OW20032   6.115   3.666   2.579
 6378SOL    HW120033   6.026   3.627   2.604
 6378SOL    HW220034   6.188   3.606   2.610
 6379SOL     OW20035   2.375   4.694   6.761
 6379SOL    HW120036   2.369   4.630   6.685
 6379SOL    HW220037   2.334   4.782   6.736
 6380SOL     OW20038   1.800   2.562   4.491
 6380SOL    HW120039   1.839   2.650   4.465
 6380SOL    HW220040   1.869   2.507   4.536
 6381SOL     OW20041   3.339   4.842   0.960
 6381SOL    HW120042   3.417   4.867   0.902
 6381SOL    HW220043   3.324   4.913   1.028
 6382SOL     OW20044   1.921   1.082   1.241
 6382SOL    HW120045   1.838   1.112   1.288
 6382SOL    HW220046   1.930   0.983   1.250
 6383SOL     OW20047   3.103   1.818   2.376
 6383SOL    HW120048   3.199   1.800   2.402
 6383SOL    HW220049   3.082   1.915   2.389
 6384SOL     OW20050   0.301   1.771   2.478
 6384SOL    HW120051   0.284   1.869   2.483
 6384SOL    HW220052   0.283   1.730   2.568
 6385SOL     OW20053   0.250   3.960   1.661
 6385SOL    HW120054   0.337   4.001   1.690
 6385SOL    HW220055   0.264   3.864   1.640
 6386SOL     OW20056   3.011   4.384   0.551
 6386SOL    HW120057   3.008   4.286   0.530
 6386SOL    HW220058   2.962   4.401   0.636
 6387SOL     OW20059   6.211   1.213   5.525
 6387SOL    HW120060   6.279   1.282   5.546
 6387SOL    HW220061   6.243   1.155   5.450
 6388SOL     OW20062   6.360   5.156   2.203
 6388SOL    HW120063   6.454   5.125   2.214
 6388SOL    HW220064   6.350   5.204   2.116
 6389SOL     OW20065   6.673   6.723   0.728
 6389SOL    HW120066   6.658   6.630   0.695
 6389SOL    HW220067   6.737   6.721   0.805
 6390SOL     OW20068   4.517   6.031   0.306
 6390SOL    HW120069   4.532   6.119   0.351
 6390SOL    HW220070   4.484   5.964   0.373
 6391SOL     OW20071   1.168   1.901   4.783
 6391SOL    HW120072   1.084   1.931   4.737
 6391SOL    HW220073   1.168   1.935   4.877
 6392SOL     OW20074   4.692   6.101   3.171
 6392SOL    HW120075   4.646   6.013   3.160
 6392SOL    HW220076   4.758   6.096   3.246
 6393SOL     OW20077   2.474   4.670   0.389
 6393SOL    HW120078   2.568   4.702   0.377
 6393SOL    HW220079   2.415   4.714   0.321
 6394SOL     OW20080   1.590   5.300   2.124
 6394SOL    HW120081   1.611   5.378   2.184
 6394SOL    HW220082   1.637   5.219   2.158
 6395SOL     OW20083   1.088   4.014   5.365
 6395SOL    HW120084   1.157   3.998   5.295
 6395SOL    HW220085   1.028   3.933   5.371
 6396SOL     OW20086   0.892   3.840   4.184
 6396SOL    HW120087   0.922   3.836   4.089
 6396SOL    HW220088   0.927   3.923   4.227
 6397SOL     OW20089   0.662   3.470   4.474
 6397SOL    HW120090   0.562   3.462   4.467
 6397SOL    HW220091   0.689   3.462   4.570
 6398SOL     OW20092   0.493   7.010   2.597
 6398SOL    HW120093   0.470   0.090   2.586
 6398SOL    HW220094   0.482   6.963   2.509
 6399SOL     OW20095   2.481   0.115   6.704
 6399SOL    HW120096   2.569   0.160   6.687
 6399SOL    HW220097   2.434   0.101   6.617
 6400SOL     OW20098   0.936   6.053   3.027
 6400SOL    HW120099   1.033   6.057   3.049
 6400SOL    HW220100   0.900   6.146   3.015
 6401SOL     OW20101   4.019   4.877   1.649
 6401SOL    HW120102   3.940   4.924   1.610
 6401SOL    HW220103   4.043   4.798   1.592
 6402SOL     OW20104   3.204   3.272   5.990
 6402SOL    HW120105   3.205   3.196   5.925
 6402SOL    HW220106   3.288   3.269   6.045
 6403SOL     OW20107   3.424   5.153   5.702
 6403SOL    HW120108   3.482   5.160   5.783
 6403SOL    HW220109   3.410   5.244   5.664
 6404SOL     OW20110   5.133   5.911   6.201
 6404SOL    HW120111   5.101   5.854   6.125
 6404SOL    HW220112   5.200   5.859   6.254
 6405SOL     OW20113   4.487   0.975   3.315
 6405SOL    HW120114   4.462   1.053   3.257
 6405SOL    HW220115   4.512   1.009   3.406
 6406SOL     OW20116   0.517   3.323   2.517
 6406SOL    HW120117   0.501   3.417   2.485
 6406SOL    HW220118   0.430   3.275   2.522
 6407SOL     OW20119   0.257   0.198   2.763
 6407SOL    HW120120   0.303   0.122   2.808
 6407SOL    HW220121   0.310   0.226   2.683
 6408SOL     OW20122   6.992   1.511   1.833
 6408SOL    HW120123   7.016   1.505   1.930
 6408SOL    HW220124   6.921   1.442   1.813
 6409SOL     OW20125   6.481   4.152   4.033
 6409SOL    HW120126   6.524   4.070   4.069
 6409SOL    HW220127   6.475   4.146   3.933
 6410SOL     OW20128   1.596   0.584   7.005
 6410SOL    HW120129   1.615   0.532   0.071
 6410SOL    HW220130   1.497   0.592   6.992
 6411SOL     OW20131   1.273   2.466   4.339
 6411SOL    HW120132   1.195   2.420   4.297
 6411SOL    HW220133   1.315   2.406   4.408
 6412SOL     OW20134   4.101   0.252   0.180
 6412SOL    HW120135   4.163   0.283   0.107
 6412SOL    HW220136   4.019   0.213   0.139
 6413SOL     OW20137   4.645   5.519   3.254
 6413SOL    HW120138   4.608   5.531   3.161
 6413SOL    HW220139   4.656   5.609   3.297
 6414SOL     OW20140   3.529   0.332   0.177
 6414SOL    HW120141   3.481   0.249   0.150
 6414SOL    HW220142   3.627   0.315   0.181
 6415SOL     OW20143   0.281   2.289   3.302
 6415SOL    HW120144   0.276   2.213   3.367
 6415SOL    HW220145   0.353   2.353   3.331
 6416SOL     OW20146   2.995   4.121   0.488
 6416SOL    HW120147   3.024   4.063   0.565
 6416SOL    HW220148   2.940   4.066   0.425
 6417SOL     OW20149   4.796   3.587   5.933
 6417SOL    HW120150   4.759   3.650   5.865
 6417SOL    HW220151   4.750   3.499   5.926
 6418SOL     OW20152   5.065   5.293   0.356
 6418SOL    HW120153   5.042   5.210   0.408
 6418SOL    HW220154   5.048   5.277   0.259
 6419SOL     OW20155   1.463   6.989   6.448
 6419SOL    HW120156   1.559   7.017   6.457
 6419SOL    HW220157   1.454   6.922   6.375
 6420SOL     OW20158   1.984   5.018   3.353
 6420SOL    HW120159   1.979   5.031   3.452
 6420SOL    HW220160   2.037   4.936   3.333
 6421SOL     OW20161   4.930   6.660   1.583
 6421SOL    HW120162   4.958   6.604   1.662
 6421SOL    HW220163   4.927   6.756   1.610
 6422SOL     OW20164   1.065   0.772   5.454
 6422SOL    HW120165   1.128   0.695   5.461
 6422SOL    HW220166   1.048   0.793   5.358
 6423SOL     OW20167   1.092   3.879   4.480
 6423SOL    HW120168   1.174   3.823   4.474
 6423SOL    HW220169   1.024   3.844   4.415
 6424SOL     OW20170   6.452   4.214   5.519
 6424SOL    HW120171   6.514   4.291   5.527
 6424SOL    HW220172   6.425   4.182   5.610
 6425SOL     OW20173   0.860   0.149   5.020
 6425SOL    HW120174   0.761   0.144   5.017
 6425SOL    HW220175   0.896   0.072   5.072
 6426SOL     OW20176   3.096   5.221   3.987
 6426SOL    HW120177   3.033   5.152   4.024
 6426SOL    HW220178   3.135   5.187   3.901
 6427SOL     OW20179   3.403   3.597   3.141
 6427SOL    HW120180   3.392   3.547   3.054
 6427SOL    HW220181   3.313   3.613   3.181
 6428SOL     OW20182   6.354   3.046   6.635
 6428SOL    HW120183   6.273   3.080   6.683
 6428SOL    HW220184   6.360   3.091   6.545
 6429SOL     OW20185   2.621   1.667   4.424
 6429SOL    HW120186   2.527   1.679   4.457
 6429SOL    HW220187   2.618   1.644   4.327
 6430SOL     OW20188   6.429   1.413   4.065
 6430SOL    HW120189   6.467   1.455   4.148
 6430SOL    HW220190   6.338   1.377   4.085
 6431SOL     OW20191   3.488   4.936   3.477
 6431SOL    HW120192   3.473   4.908   3.572
 6431SOL    HW220193   3.410   4.908   3.421
 6432SOL     OW20194   4.446   3.638   6.956
 6432SOL    HW120195   4.384   3.676   6.887
 6432SOL    HW220196   4.531   3.691   6.957
 6433SOL     OW20197   4.043   5.463   6.174
 6433SOL    HW120198   4.127   5.431   6.130
 6433SOL    HW220199   4.010   5.393   6.237
 6434SOL     OW20200   6.452   4.776   6.468
 6434SOL    HW120201   6.497   4.749   6.383
 6434SOL    HW220202   6.463   4.875   6.481
 6435SOL     OW20203   4.410   0.969   0.794
 6435SOL    HW120204   4.487   1.000   0.740
 6435SOL    HW220205   4.325   1.002   0.753
 6436SOL     OW20206   1.009   1.780   3.947
 6436SOL    HW120207   1.035   1.854   3.885
 6436SOL    HW220208   0.933   1.728   3.908
 6437SOL     OW20209   1.254   3.037   6.565
 6437SOL    HW120210   1.208   2.956   6.601
 6437SOL    HW220211   1.189   3.094   6.516
 6438SOL     OW20212   0.682   5.720   1.414
 6438SOL    HW120213   0.700   5.637   1.466
 6438SOL    HW220214   0.676   5.698   1.316
 6439SOL     OW20215   4.599   6.234   2.926
 6439SOL    HW120216   4.612   6.182   2.841
 6439SOL    HW220217   4.640   6.183   3.002
 6440SOL     OW20218   2.262   2.140   5.692
 6440SOL    HW120219   2.233   2.110   5.783
 6440SOL    HW220220   2.275   2.061   5.633
 6441SOL     OW20221   1.110   1.458   1.469
 6441SOL    HW120222   1.120   1.412   1.381
 6441SOL    HW220223   1.188   1.435   1.527
 6442SOL     OW20224   3.048   1.885   4.182
 6442SOL    HW120225   3.067   1.982   4.198
 6442SOL    HW220226   3.108   1.829   4.238
 6443SOL     OW20227   2.330   2.302   6.143
 6443SOL    HW120228   2.287   2.218   6.175
 6443SOL    HW220229   2.418   2.280   6.101
 6444SOL     OW20230   0.003   4.053   5.673
 6444SOL    HW120231   0.008   3.961   5.635
 6444SOL    HW220232   0.095   4.091   5.681
 6445SOL     OW20233   3.185   3.076   3.517
 6445SOL    HW120234   3.240   2.993   3.526
 6445SOL    HW220235   3.199   3.115   3.426
 6446SOL     OW20236   1.007   0.196   2.112
 6446SOL    HW120237   0.937   0.130   2.140
 6446SOL    HW220238   0.982   0.235   2.023
 6447SOL     OW20239   0.243   3.676   1.572
 6447SOL    HW120240   0.331   3.676   1.524
 6447SOL    HW220241   0.251   3.619   1.654
 6448SOL     OW20242   4.052   4.185   1.645
 6448SOL    HW120243   4.050   4.115   1.716
 6448SOL    HW220244   3.962   4.228   1.638
 6449SOL     OW20245   4.534   5.987   7.000
 6449SOL    HW120246   4.532   6.073   6.948
 6449SOL    HW220247   4.521   6.007   0.080
 6450SOL     OW20248   4.420   3.444   1.080
 6450SOL    HW120249   4.395   3.358   1.036
 6450SOL    HW220250   4.372   3.452   1.167
 6451SOL     OW20251   4.156   3.415   1.539
 6451SOL    HW120252   4.057   3.422   1.527
 6451SOL    HW220253   4.180   3.430   1.634
 6452SOL     OW20254   4.288   1.796   4.225
 6452SOL    HW120255   4.291   1.896   4.213
 6452SOL    HW220256   4.364   1.769   4.285
 6453SOL     OW20257   3.400   0.971   2.791
 6453SOL    HW120258   3.367   1.012   2.876
 6453SOL    HW220259   3.493   0.937   2.804
 6454SOL     OW20260   4.918   3.428   5.493
 6454SOL    HW120261   4.883   3.521   5.479
 6454SOL    HW220262   4.876   3.366   5.427
 6455SOL     OW20263   0.236   3.135   5.764
 6455SOL    HW120264   0.159   3.199   5.771
 6455SOL    HW220265   0.220   3.073   5.687
 6456SOL     OW20266   6.247   2.001   3.042
 6456SOL    HW120267   6.303   1.980   3.122
 6456SOL    HW220268   6.157   2.031   3.072
 6457SOL     OW20269   1.232   6.577   3.303
 6457SOL    HW120270   1.299   6.641   3.342
 6457SOL    HW220271   1.255   6.484   3.330
 6458SOL     OW20272   1.008   0.321   4.870
 6458SOL    HW120273   0.987   0.262   4.948
 6458SOL    HW220274   0.941   0.305   4.797
 6459SOL     OW20275   0.255   3.301   3.154
 6459SOL    HW120276   0.297   3.211   3.141
 6459SOL    HW220277   0.269   3.330   3.248
 6460SOL     OW20278   1.615   5.185   5.660
 6460SOL    HW120279   1.713   5.187   5.677
 6460SOL    HW220280   1.572   5.116   5.719
 6461SOL     OW20281   0.117   6.631   2.202
 6461SOL    HW120282   0.146   6.569   2.275
 6461SOL    HW220283   0.072   6.710   2.242
 6462SOL     OW20284   2.682   4.123   5.545
 6462SOL    HW120285   2.631   4.129   5.459
 6462SOL    HW220286   2.630   4.067   5.610
 6463SOL     OW20287   4.882   3.170   1.849
 6463SOL    HW120288   4.834   3.097   1.898
 6463SOL    HW220289   4.820   3.211   1.781
 6464SOL     OW20290   0.908   3.297   3.276
 6464SOL    HW120291   0.901   3.391   3.311
 6464SOL    HW220292   0.818   3.265   3.248
 6465SOL     OW20293   2.248   1.240   2.596
 6465SOL    HW120294   2.295   1.288   2.670
 6465SOL    HW220295   2.284   1.146   2.590
 6466SOL     OW20296   6.608   5.377   6.652
 6466SOL    HW120297   6.665   5.456   6.675
 6466SOL    HW220298   6.643   5.296   6.699
 6467SOL     OW20299   2.815   3.308   5.878
 6467SOL    HW120300   2.863   3.350   5.955
 6467SOL    HW220301   2.879   3.295   5.802
 6468SOL     OW20302   1.029   1.001   0.289
 6468SOL    HW120303   1.124   1.014   0.260
 6468SOL    HW220304   0.972   1.071   0.245
 6469SOL     OW20305   2.980   0.857   0.921
 6469SOL    HW120306   2.960   0.772   0.872
 6469SOL    HW220307   2.900   0.917   0.919
 6470SOL     OW20308   6.242   0.586   6.368
 6470SOL    HW120309   6.267   0.496   6.405
 6470SOL    HW220310   6.167   0.624   6.422
 6471SOL     OW20311   1.021   6.660   5.514
 6471SOL    HW120312   0.928   6.696   5.523
 6471SOL    HW220313   1.082   6.707   5.578
 6472SOL     OW20314   0.902   6.471   1.481
 6472SOL    HW120315   0.920   6.551   1.538
 6472SOL    HW220316   0.927   6.491   1.386
 6473SOL     OW20317   2.832   1.420   3.967
 6473SOL    HW120318   2.864   1.502   4.015
 6473SOL    HW220319   2.863   1.422   3.872
 6474SOL     OW20320   4.060   0.419   4.385
 6474SOL    HW120321   3.995   0.492   4.405
 6474SOL    HW220322   4.050   0.390   4.290
 6475SOL     OW20323   5.270   6.001   3.777
 6475SOL    HW120324   5.361   6.026   3.810
 6475SOL    HW220325   5.202   6.023   3.847
 6476SOL     OW20326   5.206   3.879   4.744
 6476SOL    HW120327   5.279   3.941   4.716
 6476SOL    HW220328   5.186   3.891   4.841
 6477SOL     OW20329   1.390   6.716   0.733
 6477SOL    HW120330   1.309   6.746   0.682
 6477SOL    HW220331   1.371   6.627   0.775
 6478SOL     OW20332   2.104   6.210   6.798
 6478SOL    HW120333   2.151   6.123   6.815
 6478SOL    HW220334   2.030   6.196   6.733
 6479SOL     OW20335   4.595   5.418   4.641
 6479SOL    HW120336   4.675   5.373   4.682
 6479SOL    HW220337   4.528   5.439   4.712
 6480SOL     OW20338   2.837   0.701   5.425
 6480SOL    HW120339   2.877   0.793   5.427
 6480SOL    HW220340   2.766   0.694   5.494
 6481SOL     OW20341   4.140   3.960   1.805
 6481SOL    HW120342   4.077   3.888   1.774
 6481SOL    HW220343   4.160   3.946   1.902
 6482SOL     OW20344   5.319   3.232   3.867
 6482SOL    HW120345   5.255   3.242   3.943
 6482SOL    HW220346   5.268   3.224   3.781
 6483SOL     OW20347   1.960   6.458   5.306
 6483SOL    HW120348   2.035   6.504   5.352
 6483SOL    HW220349   1.873   6.484   5.349
 6484SOL     OW20350   3.853   0.398   3.174
 6484SOL    HW120351   3.949   0.422   3.189
 6484SOL    HW220352   3.812   0.367   3.260
 6485SOL     OW20353   2.157   4.595   5.113
 6485SOL    HW120354   2.082   4.557   5.168
 6485SOL    HW220355   2.123   4.674   5.061
 6486SOL     OW20356   6.979   4.147   2.343
 6486SOL    HW120357   0.014   4.184   2.266
 6486SOL    HW220358   7.003   4.196   2.426
 6487SOL     OW20359   5.905   5.733   4.486
 6487SOL    HW120360   5.910   5.733   4.386
 6487SOL    HW220361   5.844   5.660   4.516
 6488SOL     OW20362   3.257   4.912   3.307
 6488SOL    HW120363   3.304   4.884   3.224
 6488SOL    HW220364   3.194   4.987   3.285
 6489SOL     OW20365   6.082   3.587   5.659
 6489SOL    HW120366   6.034   3.673   5.639
 6489SOL    HW220367   6.148   3.568   5.586
 6490SOL     OW20368   1.677   3.667   6.535
 6490SOL    HW120369   1.660   3.638   6.441
 6490SOL    HW220370   1.590   3.667   6.586
 6491SOL     OW20371   1.117   0.149   2.491
 6491SOL    HW120372   1.194   0.210   2.472
 6491SOL    HW220373   1.151   0.058   2.514
 6492SOL     OW20374   3.940   3.085   2.906
 6492SOL    HW120375   3.922   3.061   3.002
 6492SOL    HW220376   3.981   3.176   2.902
 6493SOL     OW20377   1.413   4.776   4.190
 6493SOL    HW120378   1.382   4.844   4.124
 6493SOL    HW220379   1.424   4.818   4.280
 6494SOL     OW20380   6.878   0.823   1.743
 6494SOL    HW120381   6.876   0.920   1.723
 6494SOL    HW220382   6.830   0.805   1.829
 6495SOL     OW20383   6.184   6.288   2.555
 6495SOL    HW120384   6.126   6.230   2.611
 6495SOL    HW220385   6.129   6.328   2.481
 6496SOL     OW20386   2.644   2.944   1.393
 6496SOL    HW120387   2.575   2.959   1.323
 6496SOL    HW220388   2.632   3.009   1.467
 6497SOL     OW20389   6.879   2.528   0.739
 6497SOL    HW120390   6.962   2.563   0.694
 6497SOL    HW220391   6.805   2.526   0.672
 6498SOL     OW20392   2.520   4.974   4.661
 6498SOL    HW120393   2.505   4.881   4.692
 6498SOL    HW220394   2.444   5.032   4.692
 6499SOL     OW20395   5.642   2.397   2.578
 6499SOL    HW120396   5.690   2.315   2.545
 6499SOL    HW220397   5.567   2.418   2.516
 6500SOL     OW20398   1.806   3.719   2.662
 6500SOL    HW120399   1.809   3.741   2.759
 6500SOL    HW220400   1.715   3.686   2.638
 6501SOL     OW20401   6.379   1.490   2.564
 6501SOL    HW120402   6.470   1.529   2.554
 6501SOL    HW220403   6.369   1.411   2.504
 6502SOL     OW20404   0.962   2.731   2.682
 6502SOL    HW120405   0.976   2.639   2.716
 6502SOL    HW220406   0.867   2.743   2.655
 6503SOL     OW20407   0.343   2.622   5.655
 6503SOL    HW120408   0.359   2.547   5.719
 6503SOL    HW220409   0.430   2.656   5.621
 6504SOL     OW20410   4.073   6.077   6.206
 6504SOL    HW120411   4.103   5.982   6.212
 6504SOL    HW220412   3.995   6.082   6.143
 6505SOL     OW20413   0.709   6.905   0.051
 6505SOL    HW120414   0.762   6.987   0.071
 6505SOL    HW220415   0.642   6.925   6.997
 6506SOL     OW20416   0.611   4.569   2.109
 6506SOL    HW120417   0.628   4.640   2.040
 6506SOL    HW220418   0.607   4.480   2.065
 6507SOL     OW20419   5.445   5.336   0.978
 6507SOL    HW120420   5.366   5.364   0.922
 6507SOL    HW220421   5.437   5.239   1.000
 6508SOL     OW20422   6.954   0.899   4.542
 6508SOL    HW120423   6.868   0.945   4.520
 6508SOL    HW220424   0.011   0.937   4.487
 6509SOL     OW20425   2.090   1.541   6.793
 6509SOL    HW120426   2.054   1.447   6.792
 6509SOL    HW220427   2.148   1.553   6.873
 6510SOL     OW20428   3.843   4.918   4.180
 6510SOL    HW120429   3.929   4.906   4.229
 6510SOL    HW220430   3.766   4.901   4.241
 6511SOL     OW20431   3.588   3.245   6.818
 6511SOL    HW120432   3.492   3.269   6.831
 6511SOL    HW220433   3.644   3.328   6.816
 6512SOL     OW20434   5.124   1.734   1.931
 6512SOL    HW120435   5.058   1.799   1.968
 6512SOL    HW220436   5.113   1.646   1.976
 6513SOL     OW20437   3.540   5.030   2.076
 6513SOL    HW120438   3.540   4.935   2.045
 6513SOL    HW220439   3.508   5.089   2.001
 6514SOL     OW20440   4.974   5.703   5.556
 6514SOL    HW120441   5.059   5.677   5.602
 6514SOL    HW220442   4.924   5.769   5.613
 6515SOL     OW20443   0.934   5.220   2.510
 6515SOL    HW120444   0.987   5.165   2.575
 6515SOL    HW220445   0.926   5.170   2.423
 6516SOL     OW20446   5.608   1.519   3.499
 6516SOL    HW120447   5.693   1.477   3.531
 6516SOL    HW220448   5.539   1.513   3.572
 6517SOL     OW20449   6.746   4.136   0.490
 6517SOL    HW120450   6.709   4.226   0.513
 6517SOL    HW220451   6.696   4.066   0.542
 6518SOL     OW20452   0.834   2.014   2.052
 6518SOL    HW120453   0.811   2.038   1.958
 6518SOL    HW220454   0.894   2.085   2.090
 6519SOL     OW20455   1.568   2.281   3.722
 6519SOL    HW120456   1.484   2.280   3.776
 6519SOL    HW220457   1.643   2.318   3.777
 6520SOL     OW20458   6.132   6.470   6.627
 6520SOL    HW120459   6.153   6.520   6.543
 6520SOL    HW220460   6.038   6.491   6.656
 6521SOL     OW20461   1.546   4.549   4.639
 6521SOL    HW120462   1.585   4.641   4.642
 6521SOL    HW220463   1.602   4.488   4.696
 6522SOL     OW20464   2.119   2.977   5.159
 6522SOL    HW120465   2.094   3.073   5.176
 6522SOL    HW220466   2.204   2.973   5.108
 6523SOL     OW20467   4.920   6.552   0.461
 6523SOL    HW120468   4.967   6.562   0.373
 6523SOL    HW220469   4.976   6.592   0.534
 6524SOL     OW20470   3.639   2.047   0.811
 6524SOL    HW120471   3.733   2.082   0.818
 6524SOL    HW220472   3.580   2.099   0.872
 6525SOL     OW20473   2.941   4.838   3.520
 6525SOL    HW120474   3.036   4.816   3.499
 6525SOL    HW220475   2.885   4.823   3.439
 6526SOL     OW20476   6.221   6.503   0.756
 6526SOL    HW120477   6.240   6.405   0.767
 6526SOL    HW220478   6.267   6.554   0.828
 6527SOL     OW20479   5.525   2.505   0.473
 6527SOL    HW120480   5.451   2.530   0.535
 6527SOL    HW220481   5.488   2.451   0.397
 6528SOL     OW20482   4.427   6.885   0.527
 6528SOL    HW120483   4.482   6.828   0.465
 6528SOL    HW220484   4.436   6.981   0.501
 6529SOL     OW20485   3.831   6.399   1.457
 6529SOL    HW120486   3.855   6.303   1.472
 6529SOL    HW220487   3.905   6.457   1.492
 6530SOL     OW20488   0.046   2.718   4.188
 6530SOL    HW120489   0.048   2.796   4.250
 6530SOL    HW220490   0.135   2.709   4.143
 6531SOL     OW20491   2.911   3.767   3.871
 6531SOL    HW120492   2.931   3.721   3.958
 6531SOL    HW220493   2.815   3.754   3.848
 6532SOL     OW20494   1.131   6.092   6.911
 6532SOL    HW120495   1.111   6.189   6.898
 6532SOL    HW220496   1.212   6.067   6.859
 6533SOL     OW20497   5.172   4.511   1.201
 6533SOL    HW120498   5.118   4.581   1.247
 6533SOL    HW220499   5.133   4.421   1.220
 6534SOL     OW20500   6.483   3.236   4.591
 6534SOL    HW120501   6.458   3.306   4.658
 6534SOL    HW220502   6.440   3.257   4.503
 6535SOL     OW20503   5.547   3.534   6.971
 6535SOL    HW120504   5.557   3.450   6.917
 6535SOL    HW220505   5.498   3.602   6.917
 6536SOL     OW20506   6.843   5.530   5.282
 6536SOL    HW120507   6.914   5.481   5.230
 6536SOL    HW220508   6.830   5.621   5.244
 6537SOL     OW20509   6.443   5.348   4.287
 6537SOL    HW120510   6.460   5.348   4.188
 6537SOL    HW220511   6.523   5.312   4.334
 6538SOL     OW20512   1.134   3.986   3.535
 6538SOL    HW120513   1.074   3.998   3.456
 6538SOL    HW220514   1.080   3.970   3.617
 6539SOL     OW20515   5.587   6.407   5.253
 6539SOL    HW120516   5.570   6.467   5.174
 6539SOL    HW220517   5.620   6.319   5.221
 6540SOL     OW20518   1.108   2.409   5.395
 6540SOL    HW120519   1.094   2.465   5.477
 6540SOL    HW220520   1.091   2.313   5.418
 6541SOL     OW20521   3.683   1.421   5.390
 6541SOL    HW120522   3.669   1.334   5.343
 6541SOL    HW220523   3.775   1.423   5.429
 6542SOL     OW20524   1.736   4.632   2.097
 6542SOL    HW120525   1.778   4.649   2.008
 6542SOL    HW220526   1.793   4.672   2.168
 6543SOL     OW20527   3.745   1.672   4.471
 6543SOL    HW120528   3.702   1.753   4.431
 6543SOL    HW220529   3.715   1.591   4.421
 6544SOL     OW20530   1.178   0.594   1.549
 6544SOL    HW120531   1.187   0.604   1.648
 6544SOL    HW220532   1.085   0.567   1.526
 6545SOL     OW20533   6.212   4.696   0.735
 6545SOL    HW120534   6.279   4.739   0.795
 6545SOL    HW220535   6.160   4.628   0.788
 6546SOL     OW20536   3.952   5.203   4.052
 6546SOL    HW120537   3.943   5.165   3.960
 6546SOL    HW220538   4.008   5.141   4.108
 6547SOL     OW20539   0.653   6.592   5.177
 6547SOL    HW120540   0.723   6.523   5.197
 6547SOL    HW220541   0.695   6.670   5.130
 6548SOL     OW20542   1.260   1.547   5.240
 6548SOL    HW120543   1.234   1.592   5.155
 6548SOL    HW220544   1.184   1.551   5.305
 6549SOL     OW20545   2.715   1.506   2.678
 6549SOL    HW120546   2.779   1.432   2.700
 6549SOL    HW220547   2.746   1.553   2.595
 6550SOL     OW20548   5.737   6.789   1.797
 6550SOL    HW120549   5.742   6.851   1.719
 6550SOL    HW220550   5.712   6.697   1.766
 6551SOL     OW20551   2.301   5.376   1.146
 6551SOL    HW120552   2.221   5.332   1.188
 6551SOL    HW220553   2.320   5.462   1.193
 6552SOL     OW20554   2.663   3.513   6.803
 6552SOL    HW120555   2.755   3.493   6.769
 6552SOL    HW220556   2.655   3.611   6.820
 6553SOL     OW20557   0.302   1.956   3.338
 6553SOL    HW120558   0.350   1.884   3.288
 6553SOL    HW220559   0.341   1.964   3.430
 6554SOL     OW20560   2.125   1.976   4.144
 6554SOL    HW120561   2.129   2.075   4.141
 6554SOL    HW220562   2.058   1.943   4.078
 6555SOL     OW20563   2.108   3.747   2.042
 6555SOL    HW120564   2.141   3.824   1.986
 6555SOL    HW220565   2.154   3.663   2.013
 6556SOL     OW20566   4.916   3.143   3.452
 6556SOL    HW120567   4.931   3.240   3.432
 6556SOL    HW220568   4.974   3.116   3.530
 6557SOL     OW20569   1.885   6.677   2.166
 6557SOL    HW120570   1.959   6.683   2.099
 6557SOL    HW220571   1.924   6.675   2.258
 6558SOL     OW20572   5.011   5.329   0.967
 6558SOL    HW120573   4.924   5.279   0.959
 6558SOL    HW220574   5.034   5.339   1.064
 6559SOL     OW20575   0.217   1.694   6.137
 6559SOL    HW120576   0.309   1.734   6.148
 6559SOL    HW220577   0.205   1.619   6.202
 6560SOL     OW20578   6.589   4.714   6.251
 6560SOL    HW120579   6.520   4.709   6.179
 6560SOL    HW220580   6.676   4.744   6.213
 6561SOL     OW20581   2.610   5.105   0.151
 6561SOL    HW120582   2.636   5.098   0.054
 6561SOL    HW220583   2.690   5.129   0.205
 6562SOL     OW20584   4.572   2.716   1.194
 6562SOL    HW120585   4.532   2.768   1.269
 6562SOL    HW220586   4.546   2.620   1.201
 6563SOL     OW20587   6.145   4.671   5.491
 6563SOL    HW120588   6.134   4.762   5.452
 6563SOL    HW220589   6.055   4.628   5.502
 6564SOL     OW20590   6.232   3.885   1.698
 6564SOL    HW120591   6.295   3.817   1.736
 6564SOL    HW220592   6.161   3.838   1.646
 6565SOL     OW20593   5.221   5.356   1.597
 6565SOL    HW120594   5.213   5.276   1.538
 6565SOL    HW220595   5.135   5.372   1.645
 6566SOL     OW20596   5.501   5.347   3.976
 6566SOL    HW120597   5.427   5.331   4.041
 6566SOL    HW220598   5.463   5.355   3.884
 6567SOL     OW20599   2.900   0.875   2.459
 6567SOL    HW120600   2.960   0.854   2.537
 6567SOL    HW220601   2.885   0.974   2.455
 6568SOL     OW20602   5.233   1.684   0.104
 6568SOL    HW120603   5.151   1.628   0.115
 6568SOL    HW220604   5.310   1.625   0.079
 6569SOL     OW20605   1.778   4.292   3.338
 6569SOL    HW120606   1.872   4.278   3.306
 6569SOL    HW220607   1.714   4.254   3.271
 6570SOL     OW20608   4.368   0.153   2.675
 6570SOL    HW120609   4.324   0.163   2.764
 6570SOL    HW220610   4.402   0.060   2.665
 6571SOL     OW20611   2.603   6.882   2.837
 6571SOL    HW120612   2.606   6.793   2.791
 6571SOL    HW220613   2.520   6.931   2.809
 6572SOL     OW20614   1.171   6.520   3.599
 6572SOL    HW120615   1.086   6.548   3.555
 6572SOL    HW220616   1.166   6.540   3.697
 6573SOL     OW20617   1.138   2.681   3.893
 6573SOL    HW120618   1.072   2.715   3.827
 6573SOL    HW220619   1.230   2.685   3.853
 6574SOL     OW20620   0.974   4.844   1.687
 6574SOL    HW120621   1.038   4.774   1.657
 6574SOL    HW220622   0.895   4.846   1.625
 6575SOL     OW20623   6.603   1.044   4.091
 6575SOL    HW120624   6.572   1.086   4.006
 6575SOL    HW220625   6.697   1.072   4.110
 6576SOL     OW20626   4.153   0.507   2.298
 6576SOL    HW120627   4.166   0.487   2.201
 6576SOL    HW220628   4.055   0.505   2.319
 6577SOL     OW20629   3.102   1.091   5.552
 6577SOL    HW120630   3.108   1.174   5.606
 6577SOL    HW220631   3.177   1.029   5.575
 6578SOL     OW20632   1.024   5.940   0.236
 6578SOL    HW120633   0.938   5.987   0.256
 6578SOL    HW220634   1.098   5.984   0.286
 6579SOL     OW20635   1.929   1.822   2.790
 6579SOL    HW120636   1.952   1.743   2.734
 6579SOL    HW220637   2.005   1.842   2.852
 6580SOL     OW20638   3.443   2.348   6.729
 6580SOL    HW120639   3.364   2.404   6.703
 6580SOL    HW220640   3.485   2.310   6.647
 6581SOL     OW20641   0.747   2.377   1.699
 6581SOL    HW120642   0.703   2.465   1.712
 6581SOL    HW220643   0.707   2.310   1.761
 6582SOL     OW20644   3.917   6.514   3.220
 6582SOL    HW120645   3.859   6.446   3.266
 6582SOL    HW220646   3.940   6.587   3.284
 6583SOL     OW20647   2.721   4.431   1.187
 6583SOL    HW120648   2.662   4.470   1.117
 6583SOL    HW220649   2.719   4.331   1.181
 6584SOL     OW20650   4.259   3.547   5.649
 6584SOL    HW120651   4.266   3.624   5.586
 6584SOL    HW220652   4.180   3.490   5.623
 6585SOL     OW20653   4.948   6.933   1.686
 6585SOL    HW120654   4.914   0.006   1.658
 6585SOL    HW220655   4.934   6.923   1.785
 6586SOL     OW20656   6.802   1.579   6.634
 6586SOL    HW120657   6.722   1.553   6.688
 6586SOL    HW220658   6.777   1.583   6.537
 6587SOL     OW20659   2.434   4.490   5.553
 6587SOL    HW120660   2.446   4.520   5.458
 6587SOL    HW220661   2.520   4.453   5.587
 6588SOL     OW20662   1.085   2.315   0.856
 6588SOL    HW120663   1.068   2.401   0.808
 6588SOL    HW220664   1.162   2.326   0.919
 6589SOL     OW20665   5.786   0.184   0.941
 6589SOL    HW120666   5.824   0.204   0.851
 6589SOL    HW220667   5.715   0.114   0.932
 6590SOL     OW20668   1.081   6.085   4.221
 6590SOL    HW120669   1.057   6.067   4.316
 6590SOL    HW220670   1.016   6.151   4.182
 6591SOL     OW20671   6.584   3.260   3.449
 6591SOL    HW120672   6.607   3.207   3.368
 6591SOL    HW220673   6.505   3.318   3.431
 6592SOL     OW20674   0.053   0.560   4.455
 6592SOL    HW120675   0.104   0.566   4.541
 6592SOL    HW220676   6.978   0.598   4.468
 6593SOL     OW20677   1.023   0.664   3.048
 6593SOL    HW120678   1.058   0.675   3.141
 6593SOL    HW220679   0.928   0.635   3.050
 6594SOL     OW20680   5.479   0.085   6.582
 6594SOL    HW120681   5.391   0.132   6.579
 6594SOL    HW220682   5.464   7.004   6.564
 6595SOL     OW20683   0.745   0.291   5.296
 6595SOL    HW120684   0.730   0.245   5.384
 6595SOL    HW220685   0.834   0.262   5.259
 6596SOL     OW20686   4.984   0.705   3.144
 6596SOL    HW120687   4.949   0.797   3.165
 6596SOL    HW220688   4.979   0.689   3.046
 6597SOL     OW20689   1.201   5.442   1.570
 6597SOL    HW120690   1.167   5.399   1.654
 6597SOL    HW220691   1.130   5.443   1.501
 6598SOL     OW20692   1.532   5.418   1.703
 6598SOL    HW120693   1.507   5.377   1.790
 6598SOL    HW220694   1.581   5.504   1.720
 6599SOL     OW20695   0.688   6.242   6.554
 6599SOL    HW120696   0.647   6.155   6.529
 6599SOL    HW220697   0.724   6.236   6.647
 6600SOL     OW20698   4.937   0.184   4.710
 6600SOL    HW120699   4.862   0.246   4.687
 6600SOL    HW220700   5.024   0.230   4.693
 6601SOL     OW20701   0.609   2.803   3.458
 6601SOL    HW120702   0.586   2.856   3.539
 6601SOL    HW220703   0.680   2.737   3.480
 6602SOL     OW20704   6.238   5.961   0.854
 6602SOL    HW120705   6.159   5.905   0.880
 6602SOL    HW220706   6.263   5.942   0.759
 6603SOL     OW20707   6.843   4.635   2.397
 6603SOL    HW120708   6.941   4.613   2.393
 6603SOL    HW220709   6.814   4.640   2.492
 6604SOL     OW20710   2.216   5.097   2.392
 6604SOL    HW120711   2.285   5.042   2.345
 6604SOL    HW220712   2.220   5.191   2.360
 6605SOL     OW20713   0.008   5.749   1.163
 6605SOL    HW120714   0.004   5.699   1.076
 6605SOL    HW220715   0.095   5.798   1.169
 6606SOL     OW20716   1.325   5.091   3.169
 6606SOL    HW120717   1.236   5.049   3.149
 6606SOL    HW220718   1.332   5.107   3.268
 6607SOL     OW20719   6.552   3.001   4.405
 6607SOL    HW120720   6.520   3.084   4.452
 6607SOL    HW220721   6.624   2.958   4.460
 6608SOL     OW20722   1.773   0.785   5.396
 6608SOL    HW120723   1.764   0.742   5.306
 6608SOL    HW220724   1.840   0.734   5.450
 6609SOL     OW20725   2.420   1.588   0.115
 6609SOL    HW120726   2.381   1.650   0.183
 6609SOL    HW220727   2.519   1.582   0.129
 6610SOL     OW20728   3.174   5.697   0.954
 6610SOL    HW120729   3.208   5.609   0.920
 6610SOL    HW220730   3.180   5.765   0.882
 6611SOL     OW20731   2.989   1.374   5.086
 6611SOL    HW120732   2.974   1.447   5.154
 6611SOL    HW220733   2.905   1.360   5.034
 6612SOL     OW20734   6.277   0.450   0.003
 6612SOL    HW120735   6.336   0.443   6.940
 6612SOL    HW220736   6.208   0.377   7.017
 6613SOL     OW20737   4.951   7.016   0.825
 6613SOL    HW120738   4.876   6.968   0.778
 6613SOL    HW220739   5.026   6.952   0.841
 6614SOL     OW20740   4.426   5.013   0.910
 6614SOL    HW120741   4.398   4.931   0.961
 6614SOL    HW220742   4.441   5.088   0.975
 6615SOL     OW20743   3.639   5.594   6.088
 6615SOL    HW120744   3.586   5.527   6.036
 6615SOL    HW220745   3.716   5.625   6.033
 6616SOL     OW20746   3.970   2.323   6.437
 6616SOL    HW120747   3.946   2.236   6.393
 6616SOL    HW220748   3.915   2.397   6.397
 6617SOL     OW20749   3.610   1.475   4.354
 6617SOL    HW120750   3.592   1.380   4.381
 6617SOL    HW220751   3.597   1.486   4.256
 6618SOL     OW20752   6.266   2.760   3.724
 6618SOL    HW120753   6.347   2.817   3.735
 6618SOL    HW220754   6.290   2.678   3.673
 6619SOL     OW20755   4.381   4.606   3.871
 6619SOL    HW120756   4.372   4.662   3.789
 6619SOL    HW220757   4.309   4.629   3.936
 6620SOL     OW20758   0.970   3.083   3.585
 6620SOL    HW120759   1.039   3.151   3.607
 6620SOL    HW220760   0.956   3.022   3.663
 6621SOL     OW20761   3.782   3.379   3.364
 6621SOL    HW120762   3.770   3.412   3.271
 6621SOL    HW220763   3.880   3.373   3.385
 6622SOL     OW20764   6.849   4.922   1.759
 6622SOL    HW120765   6.896   5.005   1.789
 6622SOL    HW220766   6.761   4.947   1.719
 6623SOL     OW20767   3.356   2.988   4.382
 6623SOL    HW120768   3.445   2.979   4.339
 6623SOL    HW220769   3.287   3.004   4.312
 6624SOL     OW20770   2.391   2.461   2.621
 6624SOL    HW120771   2.321   2.478   2.553
 6624SOL    HW220772   2.471   2.418   2.578
 6625SOL     OW20773   0.773   4.866   5.634
 6625SOL    HW120774   0.724   4.944   5.596
 6625SOL    HW220775   0.750   4.856   5.731
 6626SOL     OW20776   3.420   5.831   5.908
 6626SOL    HW120777   3.420   5.930   5.922
 6626SOL    HW220778   3.514   5.800   5.894
 6627SOL     OW20779   2.622   0.151   4.669
 6627SOL    HW120780   2.671   0.237   4.656
 6627SOL    HW220781   2.524   0.165   4.653
 6628SOL     OW20782   3.730   6.048   3.667
 6628SOL    HW120783   3.764   6.039   3.760
 6628SOL    HW220784   3.790   5.999   3.604
 6629SOL     OW20785   5.091   5.945   5.255
 6629SOL    HW120786   5.017   5.882   5.277
 6629SOL    HW220787   5.057   6.018   5.196
 6630SOL     OW20788   1.970   0.123   0.591
 6630SOL    HW120789   1.913   0.111   0.672
 6630SOL    HW220790   2.057   0.075   0.604
 6631SOL     OW20791   1.687   1.580   6.070
 6631SOL    HW120792   1.686   1.489   6.029
 6631SOL    HW220793   1.615   1.586   6.138
 6632SOL     OW20794   1.220   0.713   5.909
 6632SOL    HW120795   1.282   0.786   5.880
 6632SOL    HW220796   1.243   0.629   5.860
 6633SOL     OW20797   4.865   6.920   5.727
 6633SOL    HW120798   4.778   6.874   5.749
 6633SOL    HW220799   4.917   6.932   5.811
 6634SOL     OW20800   3.019   2.233   4.169
 6634SOL    HW120801   2.998   2.224   4.072
 6634SOL    HW220802   3.117   2.248   4.181
 6635SOL     OW20803   4.736   5.317   6.180
 6635SOL    HW120804   4.806   5.385   6.202
 6635SOL    HW220805   4.696   5.282   6.265
 6636SOL     OW20806   4.552   1.430   1.160
 6636SOL    HW120807   4.503   1.347   1.134
 6636SOL    HW220808   4.550   1.495   1.085
 6637SOL     OW20809   0.324   3.369   6.867
 6637SOL    HW120810   0.289   3.289   6.915
 6637SOL    HW220811   0.251   3.436   6.856
 6638SOL     OW20812   2.913   3.717   4.367
 6638SOL    HW120813   2.830   3.739   4.419
 6638SOL    HW220814   2.991   3.713   4.429
 6639SOL     OW20815   5.248   3.148   1.757
 6639SOL    HW120816   5.302   3.145   1.674
 6639SOL    HW220817   5.168   3.089   1.747
 6640SOL     OW20818   0.424   3.607   4.118
 6640SOL    HW120819   0.514   3.617   4.161
 6640SOL    HW220820   0.358   3.573   4.185
 6641SOL     OW20821   5.114   2.452   0.253
 6641SOL    HW120822   5.062   2.391   0.313
 6641SOL    HW220823   5.108   2.419   0.159
 6642SOL     OW20824   0.787   5.114   6.081
 6642SOL    HW120825   0.887   5.107   6.090
 6642SOL    HW220826   0.757   5.205   6.111
 6643SOL     OW20827   5.098   5.574   5.798
 6643SOL    HW120828   5.114   5.642   5.869
 6643SOL    HW220829   5.002   5.547   5.799
 6644SOL     OW20830   1.755   6.371   3.323
 6644SOL    HW120831   1.743   6.362   3.422
 6644SOL    HW220832   1.666   6.385   3.280
 6645SOL     OW20833   5.027   2.828   5.254
 6645SOL    HW120834   4.959   2.870   5.194
 6645SOL    HW220835   4.987   2.812   5.345
 6646SOL     OW20836   4.596   0.322   6.262
 6646SOL    HW120837   4.636   0.233   6.242
 6646SOL    HW220838   4.516   0.310   6.321
 6647SOL     OW20839   3.370   4.985   0.718
 6647SOL    HW120840   3.270   4.998   0.717
 6647SOL    HW220841   3.394   4.911   0.655
 6648SOL     OW20842   3.484   5.816   5.371
 6648SOL    HW120843   3.392   5.840   5.339
 6648SOL    HW220844   3.538   5.899   5.385
 6649SOL     OW20845   5.849   2.928   5.108
 6649SOL    HW120846   5.801   3.015   5.124
 6649SOL    HW220847   5.794   2.870   5.048
 6650SOL     OW20848   2.532   0.735   5.165
 6650SOL    HW120849   2.456   0.788   5.204
 6650SOL    HW220850   2.618   0.785   5.180
 6651SOL     OW20851   6.462   0.973   3.440
 6651SOL    HW120852   6.507   1.023   3.514
 6651SOL    HW220853   6.377   0.933   3.474
 6652SOL     OW20854   6.960   5.318   6.450
 6652SOL    HW120855   6.871   5.349   6.419
 6652SOL    HW220856   0.009   5.324   6.374
 6653SOL     OW20857   5.765   3.822   0.079
 6653SOL    HW120858   5.702   3.839   0.004
 6653SOL    HW220859   5.725   3.852   0.165
 6654SOL     OW20860   0.041   1.925   3.376
 6654SOL    HW120861   0.137   1.953   3.365
 6654SOL    HW220862   0.011   1.950   3.468
 6655SOL     OW20863   0.114   5.715   1.645
 6655SOL    HW120864   0.103   5.814   1.657
 6655SOL    HW220865   0.086   5.690   1.552
 6656SOL     OW20866   5.162   1.539   2.148
 6656SOL    HW120867   5.165   1.458   2.090
 6656SOL    HW220868   5.078   1.538   2.202
 6657SOL     OW20869   4.628   1.910   4.126
 6657SOL    HW120870   4.612   1.982   4.194
 6657SOL    HW220871   4.687   1.840   4.166
 6658SOL     OW20872   6.414   6.052   4.328
 6658SOL    HW120873   6.334   6.088   4.376
 6658SOL    HW220874   6.401   5.954   4.309
 6659SOL     OW20875   0.962   6.516   1.215
 6659SOL    HW120876   0.919   6.588   1.161
 6659SOL    HW220877   0.986   6.439   1.155
 6660SOL     OW20878   1.358   0.803   3.794
 6660SOL    HW120879   1.348   0.832   3.698
 6660SOL    HW220880   1.274   0.825   3.844
 6661SOL     OW20881   3.759   6.459   3.998
 6661SOL    HW120882   3.749   6.360   3.988
 6661SOL    HW220883   3.670   6.500   4.016
 6662SOL     OW20884   3.908   6.633   1.672
 6662SOL    HW120885   3.915   6.725   1.710
 6662SOL    HW220886   3.999   6.598   1.650
 6663SOL     OW20887   1.518   4.027   5.021
 6663SOL    HW120888   1.587   4.041   4.949
 6663SOL    HW220889   1.535   4.092   5.095
 6664SOL     OW20890   3.184   6.954   1.643
 6664SOL    HW120891   3.124   6.892   1.592
 6664SOL    HW220892   3.249   6.996   1.579
 6665SOL     OW20893   2.651   0.311   6.645
 6665SOL    HW120894   2.659   0.372   6.567
 6665SOL    HW220895   2.713   0.341   6.718
 6666SOL     OW20896   2.479   6.670   5.809
 6666SOL    HW120897   2.553   6.683   5.743
 6666SOL    HW220898   2.468   6.754   5.863
 6667SOL     OW20899   1.943   5.893   0.199
 6667SOL    HW120900   1.921   5.852   0.287
 6667SOL    HW220901   1.861   5.896   0.142
 6668SOL     OW20902   0.241   3.696   5.766
 6668SOL    HW120903   0.281   3.658   5.850
 6668SOL    HW220904   0.156   3.743   5.788
 6669SOL     OW20905   0.516   3.398   3.936
 6669SOL    HW120906   0.458   3.457   3.993
 6669SOL    HW220907   0.599   3.448   3.911
 6670SOL     OW20908   2.600   4.099   0.687
 6670SOL    HW120909   2.502   4.114   0.699
 6670SOL    HW220910   2.651   4.173   0.731
 6671SOL     OW20911   5.094   5.109   0.634
 6671SOL    HW120912   5.003   5.151   0.636
 6671SOL    HW220913   5.085   5.013   0.608
 6672SOL     OW20914   2.142   2.405   0.905
 6672SOL    HW120915   2.106   2.322   0.861
 6672SOL    HW220916   2.176   2.381   0.996
 6673SOL     OW20917   5.550   3.662   4.580
 6673SOL    HW120918   5.624   3.598   4.600
 6673SOL    HW220919   5.475   3.647   4.645
 6674SOL     OW20920   6.436   1.168   6.905
 6674SOL    HW120921   6.371   1.209   6.840
 6674SOL    HW220922   6.424   1.209   6.995
 6675SOL     OW20923   4.907   1.197   0.432
 6675SOL    HW120924   4.874   1.127   0.496
 6675SOL    HW220925   4.846   1.276   0.434
 6676SOL     OW20926   1.031   3.033   5.499
 6676SOL    HW120927   1.069   2.985   5.578
 6676SOL    HW220928   1.003   3.125   5.525
 6677SOL     OW20929   0.471   2.129   0.012
 6677SOL    HW120930   0.502   2.035   0.017
 6677SOL    HW220931   0.489   2.167   6.939
 6678SOL     OW20932   3.384   4.081   6.630
 6678SOL    HW120933   3.423   4.115   6.544
 6678SOL    HW220934   3.409   3.985   6.642
 6679SOL     OW20935   1.711   0.439   3.708
 6679SOL    HW120936   1.761   0.511   3.660
 6679SOL    HW220937   1.766   0.356   3.710
 6680SOL     OW20938   6.530   5.791   1.890
 6680SOL    HW120939   6.468   5.785   1.811
 6680SOL    HW220940   6.522   5.708   1.945
 6681SOL     OW20941   3.343   5.868   1.115
 6681SOL    HW120942   3.281   5.815   1.057
 6681SOL    HW220943   3.310   5.868   1.209
 6682SOL     OW20944   2.529   4.744   6.385
 6682SOL    HW120945   2.447   4.801   6.394
 6682SOL    HW220946   2.503   4.654   6.350
 6683SOL     OW20947   6.992   6.255   6.615
 6683SOL    HW120948   6.988   6.164   6.573
 6683SOL    HW220949   6.978   6.325   6.544
 6684SOL     OW20950   2.879   0.048   6.037
 6684SOL    HW120951   2.834   7.001   5.975
 6684SOL    HW220952   2.968   0.072   6.001
 6685SOL     OW20953   3.788   3.070   0.852
 6685SOL    HW120954   3.720   3.060   0.925
 6685SOL    HW220955   3.745   3.113   0.772
 6686SOL     OW20956   4.817   4.288   5.322
 6686SOL    HW120957   4.722   4.276   5.351
 6686SOL    HW220958   4.837   4.385   5.316
 6687SOL     OW20959   6.881   2.220   0.865
 6687SOL    HW120960   6.908   2.300   0.812
 6687SOL    HW220961   6.781   2.211   0.864
 6688SOL     OW20962   5.710   5.848   0.625
 6688SOL    HW120963   5.794   5.904   0.625
 6688SOL    HW220964   5.679   5.836   0.531
 6689SOL     OW20965   3.367   4.565   5.912
 6689SOL    HW120966   3.394   4.662   5.919
 6689SOL    HW220967   3.353   4.528   6.003
 6690SOL     OW20968   1.292   0.175   0.048
 6690SOL    HW120969   1.227   0.102   0.068
 6690SOL    HW220970   1.381   0.135   0.025
 6691SOL     OW20971   2.429   1.843   2.144
 6691SOL    HW120972   2.419   1.894   2.230
 6691SOL    HW220973   2.495   1.889   2.085
 6692SOL     OW20974   3.889   6.320   1.974
 6692SOL    HW120975   3.876   6.222   1.990
 6692SOL    HW220976   3.800   6.365   1.971
 6693SOL     OW20977   2.569   1.057   6.163
 6693SOL    HW120978   2.640   1.095   6.103
 6693SOL    HW220979   2.479   1.082   6.128
 6694SOL     OW20980   4.565   4.116   1.593
 6694SOL    HW120981   4.515   4.161   1.667
 6694SOL    HW220982   4.634   4.179   1.557
 6695SOL     OW20983   3.107   2.463   0.088
 6695SOL    HW120984   3.041   2.418   0.148
 6695SOL    HW220985   3.130   2.402   0.013
 6696SOL     OW20986   3.454   3.051   5.051
 6696SOL    HW120987   3.502   3.114   5.111
 6696SOL    HW220988   3.424   2.971   5.103
 6697SOL     OW20989   4.894   1.009   2.681
 6697SOL    HW120990   4.971   0.996   2.744
 6697SOL    HW220991   4.880   1.107   2.665
 6698SOL     OW20992   2.978   3.793   1.361
 6698SOL    HW120993   3.069   3.782   1.321
 6698SOL    HW220994   2.987   3.806   1.460
 6699SOL     OW20995   1.362   3.670   6.502
 6699SOL    HW120996   1.389   3.635   6.413
 6699SOL    HW220997   1.330   3.594   6.559
 6700SOL     OW20998   5.131   0.359   1.309
 6700SOL    HW120999   5.192   0.415   1.365
 6700SOL    HW221000   5.108   0.408   1.225
 6701SOL     OW21001   6.511   6.642   1.444
 6701SOL    HW121002   6.515   6.545   1.420
 6701SOL    HW221003   6.519   6.653   1.543
 6702SOL     OW21004   4.966   2.506   1.106
 6702SOL    HW121005   4.884   2.545   1.064
 6702SOL    HW221006   5.047   2.554   1.072
 6703SOL     OW21007   0.126   1.163   0.794
 6703SOL    HW121008   0.189   1.086   0.801
 6703SOL    HW221009   0.168   1.244   0.834
 6704SOL     OW21010   2.584   6.144   6.544
 6704SOL    HW121011   2.599   6.054   6.503
 6704SOL    HW221012   2.577   6.213   6.472
 6705SOL     OW21013   1.211   4.238   2.630
 6705SOL    HW121014   1.220   4.334   2.659
 6705SOL    HW221015   1.204   4.234   2.531
 6706SOL     OW21016   0.436   5.815   1.154
 6706SOL    HW121017   0.427   5.825   1.055
 6706SOL    HW221018   0.411   5.900   1.199
 6707SOL     OW21019   5.047   0.670   2.874
 6707SOL    HW121020   5.112   0.745   2.864
 6707SOL    HW221021   5.045   0.616   2.789
 6708SOL     OW21022   0.782   3.275   0.690
 6708SOL    HW121023   0.778   3.271   0.590
 6708SOL    HW221024   0.705   3.329   0.724
 6709SOL     OW21025   2.010   4.463   1.723
 6709SOL    HW121026   1.964   4.428   1.804
 6709SOL    HW221027   2.073   4.394   1.687
 6710SOL     OW21028   4.565   2.186   2.016
 6710SOL    HW121029   4.507   2.120   1.970
 6710SOL    HW221030   4.600   2.253   1.950
 6711SOL     OW21031   4.583   5.518   6.325
 6711SOL    HW121032   4.531   5.590   6.278
 6711SOL    HW221033   4.546   5.506   6.417
 6712SOL     OW21034   5.488   3.791   0.980
 6712SOL    HW121035   5.567   3.851   0.994
 6712SOL    HW221036   5.470   3.781   0.882
 6713SOL     OW21037   2.174   4.579   4.340
 6713SOL    HW121038   2.171   4.534   4.430
 6713SOL    HW221039   2.209   4.514   4.272
 6714SOL     OW21040   6.191   1.166   2.448
 6714SOL    HW121041   6.109   1.223   2.459
 6714SOL    HW221042   6.169   1.072   2.474
 6715SOL     OW21043   1.147   0.025   5.752
 6715SOL    HW121044   1.064   0.077   5.732
 6715SOL    HW221045   1.187   0.056   5.838
 6716SOL     OW21046   1.429   4.377   1.783
 6716SOL    HW121047   1.496   4.421   1.723
 6716SOL    HW221048   1.357   4.443   1.805
 6717SOL     OW21049   6.232   2.268   5.266
 6717SOL    HW121050   6.326   2.289   5.241
 6717SOL    HW221051   6.174   2.271   5.184
 6718SOL     OW21052   4.467   2.246   0.983
 6718SOL    HW121053   4.370   2.271   0.992
 6718SOL    HW221054   4.516   2.272   1.066
 6719SOL     OW21055   1.660   0.661   0.370
 6719SOL    HW121056   1.734   0.718   0.334
 6719SOL    HW221057   1.665   0.659   0.470
 6720SOL     OW21058   1.606   1.569   4.147
 6720SOL    HW121059   1.605   1.600   4.242
 6720SOL    HW221060   1.588   1.471   4.144
 6721SOL     OW21061   6.137   6.492   0.359
 6721SOL    HW121062   6.138   6.554   0.437
 6721SOL    HW221063   6.166   6.401   0.389
 6722SOL     OW21064   6.635   3.944   1.470
 6722SOL    HW121065   6.613   3.995   1.554
 6722SOL    HW221066   6.587   3.856   1.471
 6723SOL     OW21067   2.199   3.227   4.249
 6723SOL    HW121068   2.203   3.259   4.344
 6723SOL    HW221069   2.183   3.128   4.248
 6724SOL     OW21070   1.933   3.249   5.434
 6724SOL    HW121071   1.905   3.345   5.435
 6724SOL    HW221072   1.992   3.233   5.355
 6725SOL     OW21073   4.739   2.674   3.408
 6725SOL    HW121074   4.741   2.765   3.368
 6725SOL    HW221075   4.830   2.633   3.404
 6726SOL     OW21076   6.953   1.412   0.157
 6726SOL    HW121077   6.915   1.320   0.144
 6726SOL    HW221078   0.032   1.404   0.184
 6727SOL     OW21079   0.934   5.525   5.526
 6727SOL    HW121080   0.937   5.601   5.591
 6727SOL    HW221081   1.001   5.455   5.553
 6728SOL     OW21082   3.584   1.568   5.130
 6728SOL    HW121083   3.651   1.542   5.199
 6728SOL    HW221084   3.623   1.557   5.039
 6729SOL     OW21085   4.123   1.406   2.601
 6729SOL    HW121086   4.025   1.415   2.581
 6729SOL    HW221087   4.144   1.310   2.622
 6730SOL     OW21088   0.418   1.796   1.393
 6730SOL    HW121089   0.447   1.700   1.394
 6730SOL    HW221090   0.318   1.800   1.400
 6731SOL     OW21091   3.914   0.295   6.062
 6731SOL    HW121092   3.999   0.248   6.038
 6731SOL    HW221093   3.904   0.298   6.161
 6732SOL     OW21094   6.054   5.001   5.822
 6732SOL    HW121095   6.101   5.085   5.846
 6732SOL    HW221096   5.972   5.022   5.768
 6733SOL     OW21097   5.372   4.677   5.662
 6733SOL    HW121098   5.445   4.743   5.641
 6733SOL    HW221099   5.330   4.645   5.577
 6734SOL     OW21100   5.486   2.124   5.494
 6734SOL    HW121101   5.492   2.097   5.397
 6734SOL    HW221102   5.579   2.140   5.529
 6735SOL     OW21103   5.829   2.920   4.695
 6735SOL    HW121104   5.741   2.922   4.647
 6735SOL    HW221105   5.819   2.872   4.782
 6736SOL     OW21106   3.903   3.528   0.627
 6736SOL    HW121107   3.810   3.521   0.663
 6736SOL    HW221108   3.944   3.614   0.656
 6737SOL     OW21109   6.145   3.147   1.182
 6737SOL    HW121110   6.175   3.060   1.220
 6737SOL    HW221111   6.213   3.217   1.201
 6738SOL     OW21112   2.037   7.010   3.602
 6738SOL    HW121113   2.113   6.965   3.648
 6738SOL    HW221114   1.954   6.957   3.615
 6739SOL     OW21115   0.528   0.170   5.701
 6739SOL    HW121116   0.491   0.092   5.651
 6739SOL    HW221117   0.543   0.145   5.797
 6740SOL     OW21118   0.792   6.944   2.009
 6740SOL    HW121119   0.716   6.959   1.945
 6740SOL    HW221120   0.765   6.974   2.100
 6741SOL     OW21121   2.937   2.093   0.165
 6741SOL    HW121122   2.871   2.079   0.239
 6741SOL    HW221123   2.892   2.137   0.087
 6742SOL     OW21124   6.660   5.092   2.276
 6742SOL    HW121125   6.703   5.043   2.200
 6742SOL    HW221126   6.728   5.109   2.348
 6743SOL     OW21127   3.652   4.276   6.782
 6743SOL    HW121128   3.694   4.280   6.692
 6743SOL    HW221129   3.723   4.265   6.852
 6744SOL     OW21130   6.600   6.192   5.794
 6744SOL    HW121131   6.525   6.238   5.745
 6744SOL    HW221132   6.687   6.227   5.763
 6745SOL     OW21133   5.458   3.147   5.251
 6745SOL    HW121134   5.479   3.136   5.348
 6745SOL    HW221135   5.455   3.245   5.228
 6746SOL     OW21136   1.530   2.396   3.015
 6746SOL    HW121137   1.500   2.441   3.099
 6746SOL    HW221138   1.512   2.297   3.022
 6747SOL     OW21139   1.086   6.080   5.349
 6747SOL    HW121140   0.989   6.084   5.325
 6747SOL    HW221141   1.141   6.108   5.270
 6748SOL     OW21142   1.632   2.317   4.266
 6748SOL    HW121143   1.634   2.251   4.341
 6748SOL    HW221144   1.657   2.408   4.300
 6749SOL     OW21145   3.788   4.906   2.600
 6749SOL    HW121146   3.816   4.895   2.504
 6749SOL    HW221147   3.692   4.935   2.603
 6750SOL     OW21148   4.250   0.353   5.870
 6750SOL    HW121149   4.218   0.417   5.800
 6750SOL    HW221150   4.257   0.400   5.958
 6751SOL     OW21151   3.981   0.956   4.242
 6751SOL    HW121152   3.927   0.954   4.326
 6751SOL    HW221153   4.037   1.039   4.241
 6752SOL     OW21154   2.367   5.150   3.094
 6752SOL    HW121155   2.440   5.097   3.136
 6752SOL    HW221156   2.302   5.180   3.164
 6753SOL     OW21157   3.267   4.603   6.915
 6753SOL    HW121158   3.311   4.685   6.879
 6753SOL    HW221159   3.236   4.546   6.840
 6754SOL     OW21160   6.073   0.513   0.402
 6754SOL    HW121161   5.992   0.463   0.436
 6754SOL    HW221162   6.063   0.529   0.304
 6755SOL     OW21163   3.486   5.545   5.481
 6755SOL    HW121164   3.504   5.641   5.459
 6755SOL    HW221165   3.393   5.521   5.452
 6756SOL     OW21166   4.214   3.283   5.345
 6756SOL    HW121167   4.311   3.257   5.337
 6756SOL    HW221168   4.205   3.381   5.330
 6757SOL     OW21169   3.957   6.913   1.738
 6757SOL    HW121170   4.048   6.950   1.757
 6757SOL    HW221171   3.896   6.986   1.706
 6758SOL     OW21172   5.185   2.501   2.967
 6758SOL    HW121173   5.164   2.569   2.897
 6758SOL    HW221174   5.146   2.413   2.941
 6759SOL     OW21175   1.322   2.625   2.182
 6759SOL    HW121176   1.242   2.585   2.227
 6759SOL    HW221177   1.318   2.724   2.190
 6760SOL     OW21178   4.717   1.663   5.868
 6760SOL    HW121179   4.774   1.707   5.937
 6760SOL    HW221180   4.644   1.726   5.840
 6761SOL     OW21181   2.517   0.493   5.029
 6761SOL    HW121182   2.536   0.579   5.077
 6761SOL    HW221183   2.599   0.463   4.981
 6762SOL     OW21184   5.474   5.112   4.497
 6762SOL    HW121185   5.414   5.177   4.543
 6762SOL    HW221186   5.429   5.076   4.416
 6763SOL     OW21187   5.668   5.794   3.607
 6763SOL    HW121188   5.626   5.720   3.554
 6763SOL    HW221189   5.768   5.784   3.605
 6764SOL     OW21190   0.905   4.674   1.942
 6764SOL    HW121191   0.997   4.657   1.906
 6764SOL    HW221192   0.906   4.671   2.042
 6765SOL     OW21193   6.820   4.559   3.377
 6765SOL    HW121194   6.769   4.610   3.307
 6765SOL    HW221195   6.883   4.496   3.332
 6766SOL     OW21196   6.142   0.068   1.146
 6766SOL    HW121197   6.167   7.004   1.094
 6766SOL    HW221198   6.219   0.097   1.203
 6767SOL     OW21199   3.380   0.242   1.265
 6767SOL    HW121200   3.433   0.211   1.344
 6767SOL    HW221201   3.434   0.307   1.212
 6768SOL     OW21202   1.722   0.046   6.519
 6768SOL    HW121203   1.709   0.137   6.480
 6768SOL    HW221204   1.761   7.003   6.450
 6769SOL     OW21205   5.383   3.044   1.193
 6769SOL    HW121206   5.476   3.078   1.178
 6769SOL    HW221207   5.366   3.036   1.291
 6770SOL     OW21208   0.235   1.769   1.718
 6770SOL    HW121209   0.316   1.817   1.751
 6770SOL    HW221210   0.204   1.812   1.633
 6771SOL     OW21211   4.872   1.305   3.494
 6771SOL    HW121212   4.788   1.282   3.543
 6771SOL    HW221213   4.893   1.401   3.507
 6772SOL     OW21214   3.389   1.071   5.086
 6772SOL    HW121215   3.383   1.081   5.185
 6772SOL    HW221216   3.330   0.996   5.056
 6773SOL     OW21217   6.996   3.821   2.043
 6773SOL    HW121218   0.067   3.866   2.032
 6773SOL    HW221219   6.987   3.748   1.975
 6774SOL     OW21220   1.449   2.005   5.972
 6774SOL    HW121221   1.469   1.931   6.036
 6774SOL    HW221222   1.421   1.966   5.884
 6775SOL     OW21223   0.351   3.348   0.555
 6775SOL    HW121224   0.356   3.395   0.643
 6775SOL    HW221225   0.416   3.272   0.554
 6776SOL     OW21226   5.851   5.875   6.818
 6776SOL    HW121227   5.911   5.832   6.886
 6776SOL    HW221228   5.853   5.821   6.734
 6777SOL     OW21229   4.395   4.645   0.060
 6777SOL    HW121230   4.317   4.670   0.001
 6777SOL    HW221231   4.475   4.698   0.033
 6778SOL     OW21232   6.408   5.394   2.879
 6778SOL    HW121233   6.425   5.297   2.859
 6778SOL    HW221234   6.323   5.403   2.930
 6779SOL     OW21235   5.430   3.090   6.482
 6779SOL    HW121236   5.472   3.174   6.449
 6779SOL    HW221237   5.477   3.011   6.442
 6780SOL     OW21238   1.170   3.176   1.577
 6780SOL    HW121239   1.080   3.155   1.538
 6780SOL    HW221240   1.228   3.218   1.507
 6781SOL     OW21241   5.216   4.298   5.607
 6781SOL    HW121242   5.300   4.298   5.661
 6781SOL    HW221243   5.156   4.224   5.638
 6782SOL     OW21244   6.316   1.681   3.795
 6782SOL    HW121245   6.409   1.646   3.781
 6782SOL    HW221246   6.312   1.778   3.772
 6783SOL     OW21247   1.279   5.554   6.543
 6783SOL    HW121248   1.247   5.642   6.579
 6783SOL    HW221249   1.246   5.543   6.449
 6784SOL     OW21250   4.480   3.654   0.394
 6784SOL    HW121251   4.483   3.683   0.490
 6784SOL    HW221252   4.477   3.735   0.335
 6785SOL     OW21253   5.431   5.540   1.691
 6785SOL    HW121254   5.358   5.475   1.673
 6785SOL    HW221255   5.425   5.571   1.786
 6786SOL     OW21256   1.621   3.430   5.330
 6786SOL    HW121257   1.700   3.427   5.390
 6786SOL    HW221258   1.643   3.482   5.248
 6787SOL     OW21259   0.926   4.204   1.754
 6787SOL    HW121260   1.017   4.246   1.748
 6787SOL    HW221261   0.926   4.135   1.826
 6788SOL     OW21262   2.549   3.873   1.100
 6788SOL    HW121263   2.607   3.821   1.164
 6788SOL    HW221264   2.598   3.887   1.014
 6789SOL     OW21265   2.022   4.518   3.109
 6789SOL    HW121266   1.927   4.528   3.081
 6789SOL    HW221267   2.045   4.420   3.113
 6790SOL     OW21268   1.116   3.210   0.523
 6790SOL    HW121269   1.036   3.172   0.478
 6790SOL    HW221270   1.193   3.211   0.459
 6791SOL     OW21271   3.835   4.080   5.732
 6791SOL    HW121272   3.865   4.141   5.806
 6791SOL    HW221273   3.901   4.005   5.723
 6792SOL     OW21274   0.582   5.195   0.462
 6792SOL    HW121275   0.673   5.156   0.455
 6792SOL    HW221276   0.518   5.141   0.406
 6793SOL     OW21277   5.561   1.204   0.890
 6793SOL    HW121278   5.590   1.300   0.896
 6793SOL    HW221279   5.550   1.167   0.982
 6794SOL     OW21280   3.153   1.508   4.898
 6794SOL    HW121281   3.206   1.565   4.961
 6794SOL    HW221282   3.089   1.452   4.950
 6795SOL     OW21283   3.692   5.802   6.990
 6795SOL    HW121284   3.689   5.735   6.916
 6795SOL    HW221285   3.677   5.894   6.953
 6796SOL     OW21286   4.423   1.951   2.322
 6796SOL    HW121287   4.398   1.909   2.235
 6796SOL    HW221288   4.371   1.908   2.396
 6797SOL     OW21289   6.639   2.536   2.709
 6797SOL    HW121290   6.624   2.561   2.614
 6797SOL    HW221291   6.658   2.438   2.716
 6798SOL     OW21292   6.296   6.918   2.303
 6798SOL    HW121293   6.269   6.856   2.378
 6798SOL    HW221294   6.250   6.889   2.219
 6799SOL     OW21295   5.115   6.161   2.203
 6799SOL    HW121296   5.070   6.074   2.226
 6799SOL    HW221297   5.103   6.226   2.277
 6800SOL     OW21298   3.623   3.779   6.474
 6800SOL    HW121299   3.598   3.784   6.571
 6800SOL    HW221300   3.574   3.703   6.431
 6801SOL     OW21301   0.635   3.266   3.171
 6801SOL    HW121302   0.579   3.282   3.090
 6801SOL    HW221303   0.624   3.171   3.200
 6802SOL     OW21304   3.187   4.953   2.569
 6802SOL    HW121305   3.100   4.933   2.614
 6802SOL    HW221306   3.178   4.939   2.471
 6803SOL     OW21307   4.065   2.415   0.515
 6803SOL    HW121308   4.105   2.331   0.481
 6803SOL    HW221309   4.137   2.478   0.544
 6804SOL     OW21310   1.520   6.043   3.800
 6804SOL    HW121311   1.480   6.103   3.869
 6804SOL    HW221312   1.447   6.004   3.744
 6805SOL     OW21313   5.823   1.516   5.690
 6805SOL    HW121314   5.878   1.547   5.612
 6805SOL    HW221315   5.779   1.429   5.667
 6806SOL     OW21316   4.643   6.012   5.237
 6806SOL    HW121317   4.630   6.111   5.233
 6806SOL    HW221318   4.710   5.990   5.308
 6807SOL     OW21319   3.970   3.578   6.878
 6807SOL    HW121320   3.918   3.547   6.798
 6807SOL    HW221321   3.915   3.643   6.931
 6808SOL     OW21322   2.367   4.313   4.310
 6808SOL    HW121323   2.330   4.252   4.380
 6808SOL    HW221324   2.303   4.319   4.234
 6809SOL     OW21325   1.430   3.513   0.030
 6809SOL    HW121326   1.351   3.535   6.990
 6809SOL    HW221327   1.430   3.571   0.111
 6810SOL     OW21328   5.852   1.095   3.736
 6810SOL    HW121329   5.876   1.142   3.821
 6810SOL    HW221330   5.894   1.141   3.659
 6811SOL     OW21331   5.311   6.208   1.997
 6811SOL    HW121332   5.406   6.183   2.016
 6811SOL    HW221333   5.254   6.184   2.076
 6812SOL     OW21334   3.479   2.908   2.658
 6812SOL    HW121335   3.577   2.893   2.655
 6812SOL    HW221336   3.445   2.893   2.751
 6813SOL     OW21337   5.121   3.844   1.117
 6813SOL    HW121338   5.087   3.838   1.212
 6813SOL    HW221339   5.113   3.939   1.085
 6814SOL     OW21340   2.274   2.767   0.613
 6814SOL    HW121341   2.323   2.686   0.582
 6814SOL    HW221342   2.320   2.806   0.692
 6815SOL     OW21343   1.674   0.158   0.404
 6815SOL    HW121344   1.686   0.124   0.497
 6815SOL    HW221345   1.674   0.258   0.405
 6816SOL     OW21346   5.145   4.848   1.526
 6816SOL    HW121347   5.211   4.801   1.586
 6816SOL    HW221348   5.063   4.871   1.579
 6817SOL     OW21349   1.382   2.605   6.109
 6817SOL    HW121350   1.368   2.677   6.177
 6817SOL    HW221351   1.337   2.521   6.139
 6818SOL     OW21352   4.018   5.164   1.519
 6818SOL    HW121353   3.950   5.091   1.509
 6818SOL    HW221354   4.099   5.129   1.565
 6819SOL     OW21355   2.468   1.637   3.781
 6819SOL    HW121356   2.529   1.579   3.727
 6819SOL    HW221357   2.447   1.720   3.730
 6820SOL     OW21358   1.859   5.030   4.868
 6820SOL    HW121359   1.829   5.030   4.773
 6820SOL    HW221360   1.932   5.097   4.880
 6821SOL     OW21361   2.209   2.972   3.911
 6821SOL    HW121362   2.273   2.924   3.971
 6821SOL    HW221363   2.124   2.989   3.960
 6822SOL     OW21364   5.204   1.401   5.546
 6822SOL    HW121365   5.204   1.492   5.588
 6822SOL    HW221366   5.176   1.409   5.450
 6823SOL     OW21367   4.130   3.451   2.029
 6823SOL    HW121368   4.161   3.400   1.949
 6823SOL    HW221369   4.104   3.544   2.003
 6824SOL     OW21370   0.448   5.388   5.121
 6824SOL    HW121371   0.377   5.458   5.124
 6824SOL    HW221372   0.421   5.316   5.057
 6825SOL     OW21373   5.340   0.487   4.671
 6825SOL    HW121374   5.331   0.413   4.738
 6825SOL    HW221375   5.384   0.452   4.588
 6826SOL     OW21376   1.015   3.016   3.280
 6826SOL    HW121377   1.011   2.959   3.362
 6826SOL    HW221378   0.970   3.104   3.299
 6827SOL     OW21379   4.232   5.520   5.297
 6827SOL    HW121380   4.257   5.495   5.204
 6827SOL    HW221381   4.280   5.462   5.362
 6828SOL     OW21382   2.318   1.986   1.202
 6828SOL    HW121383   2.246   2.021   1.262
 6828SOL    HW221384   2.329   1.888   1.217
 6829SOL     OW21385   5.655   5.037   3.952
 6829SOL    HW121386   5.692   5.085   4.032
 6829SOL    HW221387   5.721   5.040   3.877
 6830SOL     OW21388   5.245   1.532   3.642
 6830SOL    HW121389   5.206   1.536   3.734
 6830SOL    HW221390   5.327   1.477   3.642
 6831SOL     OW21391   0.543   1.788   5.905
 6831SOL    HW121392   0.546   1.888   5.904
 6831SOL    HW221393   0.471   1.757   5.843
 6832SOL     OW21394   2.728   4.970   1.120
 6832SOL    HW121395   2.810   5.017   1.153
 6832SOL    HW221396   2.725   4.878   1.158
 6833SOL     OW21397   4.111   6.051   0.304
 6833SOL    HW121398   4.111   5.971   0.244
 6833SOL    HW221399   4.017   6.076   0.326
 6834SOL     OW21400   2.502   4.863   2.565
 6834SOL    HW121401   2.404   4.864   2.586
 6834SOL    HW221402   2.528   4.771   2.534
 6835SOL     OW21403   3.625   7.003   4.795
 6835SOL    HW121404   3.683   0.052   4.748
 6835SOL    HW221405   3.619   6.919   4.740
 6836SOL     OW21406   3.805   5.634   0.174
 6836SOL    HW121407   3.784   5.682   0.259
 6836SOL    HW221408   3.760   5.680   0.098
 6837SOL     OW21409   0.544   3.305   2.907
 6837SOL    HW121410   0.580   3.377   2.847
 6837SOL    HW221411   0.476   3.252   2.858
 6838SOL     OW21412   2.746   1.828   1.007
 6838SOL    HW121413   2.710   1.896   1.071
 6838SOL    HW221414   2.671   1.793   0.950
 6839SOL     OW21415   3.599   1.083   2.019
 6839SOL    HW121416   3.652   1.002   1.994
 6839SOL    HW221417   3.502   1.068   1.999
 6840SOL     OW21418   1.034   0.875   6.014
 6840SOL    HW121419   1.114   0.913   6.059
 6840SOL    HW221420   1.063   0.812   5.941
 6841SOL     OW21421   0.056   3.332   6.012
 6841SOL    HW121422   0.140   3.355   5.964
 6841SOL    HW221423   0.079   3.283   6.096
 6842SOL     OW21424   2.668   4.669   2.526
 6842SOL    HW121425   2.760   4.693   2.557
 6842SOL    HW221426   2.667   4.663   2.426
 6843SOL     OW21427   4.529   0.057   1.339
 6843SOL    HW121428   4.433   0.085   1.345
 6843SOL    HW221429   4.577   0.119   1.277
 6844SOL     OW21430   5.486   0.432   5.700
 6844SOL    HW121431   5.574   0.419   5.653
 6844SOL    HW221432   5.494   0.506   5.766
 6845SOL     OW21433   5.314   2.050   2.645
 6845SOL    HW121434   5.358   2.122   2.699
 6845SOL    HW221435   5.336   2.062   2.549
 6846SOL     OW21436   2.178   3.544   0.109
 6846SOL    HW121437   2.217   3.564   0.199
 6846SOL    HW221438   2.117   3.465   0.117
 6847SOL     OW21439   6.955   2.511   3.421
 6847SOL    HW121440   6.870   2.483   3.465
 6847SOL    HW221441   6.969   2.457   3.338
 6848SOL     OW21442   6.724   4.974   4.278
 6848SOL    HW121443   6.678   5.041   4.220
 6848SOL    HW221444   6.682   4.884   4.264
 6849SOL     OW21445   2.952   3.951   5.481
 6849SOL    HW121446   2.889   3.930   5.555
 6849SOL    HW221447   2.902   3.993   5.405
 6850SOL     OW21448   5.112   0.334   4.548
 6850SOL    HW121449   5.144   0.420   4.586
 6850SOL    HW221450   5.188   0.286   4.504
 6851SOL     OW21451   1.968   4.236   3.185
 6851SOL    HW121452   1.935   4.172   3.116
 6851SOL    HW221453   2.058   4.208   3.216
 6852SOL     OW21454   4.462   3.347   0.701
 6852SOL    HW121455   4.391   3.349   0.771
 6852SOL    HW221456   4.421   3.369   0.612
 6853SOL     OW21457   4.217   4.945   5.809
 6853SOL    HW121458   4.174   5.011   5.871
 6853SOL    HW221459   4.149   4.910   5.745
 6854SOL     OW21460   4.923   6.423   5.128
 6854SOL    HW121461   4.931   6.487   5.052
 6854SOL    HW221462   5.014   6.397   5.160
 6855SOL     OW21463   3.711   5.482   2.771
 6855SOL    HW121464   3.764   5.415   2.825
 6855SOL    HW221465   3.684   5.558   2.830
 6856SOL     OW21466   6.484   2.502   0.707
 6856SOL    HW121467   6.563   2.503   0.646
 6856SOL    HW221468   6.409   2.451   0.664
 6857SOL     OW21469   1.767   4.784   5.928
 6857SOL    HW121470   1.772   4.713   5.999
 6857SOL    HW221471   1.857   4.797   5.887
 6858SOL     OW21472   1.019   3.751   1.756
 6858SOL    HW121473   1.015   3.834   1.812
 6858SOL    HW221474   1.091   3.692   1.790
 6859SOL     OW21475   2.429   2.207   1.070
 6859SOL    HW121476   2.399   2.112   1.081
 6859SOL    HW221477   2.348   2.267   1.071
 6860SOL     OW21478   0.130   0.108   0.154
 6860SOL    HW121479   0.202   0.113   0.224
 6860SOL    HW221480   0.166   0.064   0.072
 6861SOL     OW21481   6.544   3.326   6.935
 6861SOL    HW121482   6.565   3.281   6.848
 6861SOL    HW221483   6.520   3.421   6.918
 6862SOL     OW21484   0.442   4.537   3.476
 6862SOL    HW121485   0.467   4.613   3.416
 6862SOL    HW221486   0.391   4.468   3.424
 6863SOL     OW21487   5.082   1.182   5.682
 6863SOL    HW121488   5.119   1.274   5.683
 6863SOL    HW221489   5.077   1.147   5.776
 6864SOL     OW21490   1.993   3.500   6.549
 6864SOL    HW121491   1.977   3.517   6.646
 6864SOL    HW221492   1.997   3.401   6.533
 6865SOL     OW21493   1.687   0.619   3.326
 6865SOL    HW121494   1.605   0.574   3.292
 6865SOL    HW221495   1.695   0.603   3.425
 6866SOL     OW21496   2.080   4.815   0.049
 6866SOL    HW121497   2.046   4.909   0.044
 6866SOL    HW221498   2.006   4.751   0.026
 6867SOL     OW21499   2.209   2.936   6.185
 6867SOL    HW121500   2.166   2.987   6.110
 6867SOL    HW221501   2.176   2.842   6.185
 6868SOL     OW21502   3.940   4.954   3.089
 6868SOL    HW121503   3.891   4.921   3.170
 6868SOL    HW221504   3.875   4.966   3.014
 6869SOL     OW21505   1.531   0.595   5.406
 6869SOL    HW121506   1.573   0.577   5.317
 6869SOL    HW221507   1.544   0.690   5.430
 6870SOL     OW21508   5.448   2.695   6.724
 6870SOL    HW121509   5.525   2.634   6.706
 6870SOL    HW221510   5.439   2.761   6.649
 6871SOL     OW21511   6.083   2.259   2.937
 6871SOL    HW121512   6.072   2.210   3.023
 6871SOL    HW221513   6.177   2.289   2.927
 6872SOL     OW21514   1.645   5.004   0.913
 6872SOL    HW121515   1.636   4.975   0.818
 6872SOL    HW221516   1.623   4.927   0.974
 6873SOL     OW21517   0.765   3.989   2.403
 6873SOL    HW121518   0.755   3.909   2.463
 6873SOL    HW221519   0.683   4.045   2.408
 6874SOL     OW21520   4.020   5.825   1.578
 6874SOL    HW121521   4.025   5.869   1.488
 6874SOL    HW221522   3.926   5.827   1.612
 6875SOL     OW21523   2.664   1.216   6.552
 6875SOL    HW121524   2.666   1.117   6.536
 6875SOL    HW221525   2.598   1.237   6.624
 6876SOL     OW21526   5.774   5.445   3.679
 6876SOL    HW121527   5.730   5.532   3.658
 6876SOL    HW221528   5.803   5.400   3.594
 6877SOL     OW21529   0.710   4.427   1.461
 6877SOL    HW121530   0.771   4.492   1.507
 6877SOL    HW221531   0.759   4.382   1.387
 6878SOL     OW21532   2.047   0.929   3.877
 6878SOL    HW121533   2.016   0.839   3.846
 6878SOL    HW221534   2.005   0.950   3.965
 6879SOL     OW21535   0.937   1.709   1.475
 6879SOL    HW121536   1.010   1.642   1.468
 6879SOL    HW221537   0.849   1.662   1.486
 6880SOL     OW21538   1.877   6.398   0.244
 6880SOL    HW121539   1.853   6.304   0.219
 6880SOL    HW221540   1.963   6.397   0.296
 6881SOL     OW21541   6.852   3.537   0.764
 6881SOL    HW121542   6.830   3.460   0.824
 6881SOL    HW221543   6.944   3.571   0.784
 6882SOL     OW21544   2.826   6.544   0.232
 6882SOL    HW121545   2.744   6.488   0.240
 6882SOL    HW221546   2.883   6.531   0.313
 6883SOL     OW21547   4.703   6.809   0.979
 6883SOL    HW121548   4.746   6.723   1.009
 6883SOL    HW221549   4.747   6.886   1.026
 6884SOL     OW21550   1.087   4.962   3.221
 6884SOL    HW121551   0.991   4.935   3.235
 6884SOL    HW221552   1.140   4.943   3.303
 6885SOL     OW21553   6.113   4.659   4.473
 6885SOL    HW121554   6.063   4.573   4.461
 6885SOL    HW221555   6.212   4.639   4.473
 6886SOL     OW21556   5.432   3.778   0.703
 6886SOL    HW121557   5.368   3.855   0.699
 6886SOL    HW221558   5.472   3.763   0.612
 6887SOL     OW21559   5.067   6.615   5.434
 6887SOL    HW121560   4.975   6.582   5.410
 6887SOL    HW221561   5.062   6.712   5.458
 6888SOL     OW21562   6.485   4.348   0.903
 6888SOL    HW121563   6.436   4.274   0.856
 6888SOL    HW221564   6.525   4.313   0.987
 6889SOL     OW21565   0.233   2.587   5.396
 6889SOL    HW121566   0.249   2.618   5.489
 6889SOL    HW221567   0.166   2.646   5.352
 6890SOL     OW21568   4.900   4.473   4.140
 6890SOL    HW121569   4.920   4.503   4.046
 6890SOL    HW221570   4.813   4.426   4.141
 6891SOL     OW21571   1.423   1.392   1.180
 6891SOL    HW121572   1.343   1.434   1.138
 6891SOL    HW221573   1.469   1.333   1.113
 6892SOL     OW21574   1.490   0.860   5.092
 6892SOL    HW121575   1.464   0.879   5.186
 6892SOL    HW221576   1.446   0.926   5.031
 6893SOL     OW21577   5.851   3.208   0.524
 6893SOL    HW121578   5.854   3.273   0.448
 6893SOL    HW221579   5.756   3.177   0.538
 6894SOL     OW21580   5.601   5.311   6.833
 6894SOL    HW121581   5.673   5.244   6.852
 6894SOL    HW221582   5.556   5.336   6.918
 6895SOL     OW21583   1.444   5.466   2.355
 6895SOL    HW121584   1.392   5.380   2.348
 6895SOL    HW221585   1.471   5.481   2.450
 6896SOL     OW21586   5.383   0.713   6.585
 6896SOL    HW121587   5.355   0.809   6.590
 6896SOL    HW221588   5.399   0.688   6.490
 6897SOL     OW21589   4.380   2.374   4.787
 6897SOL    HW121590   4.315   2.383   4.862
 6897SOL    HW221591   4.440   2.454   4.786
 6898SOL     OW21592   1.901   6.956   1.584
 6898SOL    HW121593   1.901   0.038   1.598
 6898SOL    HW221594   1.911   6.911   1.673
 6899SOL     OW21595   5.086   5.201   2.428
 6899SOL    HW121596   5.070   5.144   2.508
 6899SOL    HW221597   5.185   5.207   2.410
 6900SOL     OW21598   6.802   4.701   4.756
 6900SOL    HW121599   6.720   4.709   4.700
 6900SOL    HW221600   6.852   4.618   4.731
 6901SOL     OW21601   5.444   4.170   6.573
 6901SOL    HW121602   5.345   4.166   6.586
 6901SOL    HW221603   5.484   4.234   6.638
 6902SOL     OW21604   0.111   5.604   5.776
 6902SOL    HW121605   0.124   5.699   5.805
 6902SOL    HW221606   0.148   5.591   5.684
 6903SOL     OW21607   1.145   6.457   5.142
 6903SOL    HW121608   1.172   6.514   5.065
 6903SOL    HW221609   1.159   6.361   5.119
 6904SOL     OW21610   0.456   0.309   6.381
 6904SOL    HW121611   0.408   0.336   6.298
 6904SOL    HW221612   0.531   0.372   6.398
 6905SOL     OW21613   4.601   5.871   5.522
 6905SOL    HW121614   4.544   5.840   5.598
 6905SOL    HW221615   4.544   5.916   5.454
 6906SOL     OW21616   3.341   1.556   3.105
 6906SOL    HW121617   3.421   1.597   3.149
 6906SOL    HW221618   3.358   1.459   3.088
 6907SOL     OW21619   5.844   3.007   0.128
 6907SOL    HW121620   5.855   3.105   0.114
 6907SOL    HW221621   5.866   2.983   0.223
 6908SOL     OW21622   3.820   6.099   0.496
 6908SOL    HW121623   3.820   6.046   0.580
 6908SOL    HW221624   3.728   6.099   0.456
 6909SOL     OW21625   5.634   4.310   2.788
 6909SOL    HW121626   5.694   4.376   2.742
 6909SOL    HW221627   5.688   4.232   2.819
 6910SOL     OW21628   1.716   2.754   1.885
 6910SOL    HW121629   1.795   2.701   1.854
 6910SOL    HW221630   1.705   2.741   1.984
 6911SOL     OW21631   2.474   6.755   4.846
 6911SOL    HW121632   2.397   6.692   4.857
 6911SOL    HW221633   2.461   6.834   4.906
 6912SOL     OW21634   2.421   4.265   6.392
 6912SOL    HW121635   2.505   4.247   6.444
 6912SOL    HW221636   2.419   4.205   6.312
 6913SOL     OW21637   4.270   5.674   6.012
 6913SOL    HW121638   4.306   5.581   6.010
 6913SOL    HW221639   4.320   5.730   5.946
 6914SOL     OW21640   0.674   2.306   2.423
 6914SOL    HW121641   0.639   2.214   2.442
 6914SOL    HW221642   0.768   2.313   2.454
 6915SOL     OW21643   6.746   3.274   4.468
 6915SOL    HW121644   6.651   3.246   4.481
 6915SOL    HW221645   6.791   3.283   4.557
 6916SOL     OW21646   4.609   6.029   5.808
 6916SOL    HW121647   4.537   6.094   5.781
 6916SOL    HW221648   4.697   6.061   5.774
 6917SOL     OW21649   3.988   5.862   2.342
 6917SOL    HW121650   3.896   5.859   2.382
 6917SOL    HW221651   4.002   5.781   2.285
 6918SOL     OW21652   2.247   3.797   7.005
 6918SOL    HW121653   2.239   3.735   0.066
 6918SOL    HW221654   2.343   3.824   6.994
 6919SOL     OW21655   6.469   5.680   3.236
 6919SOL    HW121656   6.462   5.721   3.145
 6919SOL    HW221657   6.417   5.734   3.302
 6920SOL     OW21658   0.376   2.976   5.507
 6920SOL    HW121659   0.436   2.941   5.578
 6920SOL    HW221660   0.423   3.047   5.455
 6921SOL     OW21661   3.185   0.636   5.094
 6921SOL    HW121662   3.266   0.633   5.153
 6921SOL    HW221663   3.129   0.555   5.109
 6922SOL     OW21664   3.212   4.459   6.689
 6922SOL    HW121665   3.196   4.386   6.756
 6922SOL    HW221666   3.201   4.422   6.597
 6923SOL     OW21667   5.151   6.868   3.027
 6923SOL    HW121668   5.227   6.930   3.047
 6923SOL    HW221669   5.070   6.895   3.079
 6924SOL     OW21670   2.961   5.102   1.807
 6924SOL    HW121671   3.048   5.115   1.854
 6924SOL    HW221672   2.947   5.005   1.790
 6925SOL     OW21673   6.443   6.559   4.681
 6925SOL    HW121674   6.521   6.497   4.676
 6925SOL    HW221675   6.475   6.652   4.699
 6926SOL     OW21676   2.957   2.755   0.327
 6926SOL    HW121677   2.911   2.760   0.416
 6926SOL    HW221678   3.035   2.818   0.327
 6927SOL     OW21679   3.193   6.691   5.631
 6927SOL    HW121680   3.262   6.638   5.580
 6927SOL    HW221681   3.222   6.701   5.726
 6928SOL     OW21682   4.320   6.157   0.547
 6928SOL    HW121683   4.276   6.182   0.461
 6928SOL    HW221684   4.311   6.059   0.562
 6929SOL     OW21685   4.725   5.317   2.965
 6929SOL    HW121686   4.706   5.415   2.969
 6929SOL    HW221687   4.647   5.270   2.924
 6930SOL     OW21688   0.984   6.137   1.914
 6930SOL    HW121689   0.890   6.133   1.946
 6930SOL    HW221690   0.996   6.217   1.854
 6931SOL     OW21691   3.634   3.214   0.342
 6931SOL    HW121692   3.668   3.140   0.283
 6931SOL    HW221693   3.534   3.212   0.343
 6932SOL     OW21694   3.784   1.016   6.931
 6932SOL    HW121695   3.782   0.957   6.850
 6932SOL    HW221696   3.697   1.009   6.979
 6933SOL     OW21697   3.837   6.225   5.905
 6933SOL    HW121698   3.828   6.324   5.900
 6933SOL    HW221699   3.801   6.192   5.992
 6934SOL     OW21700   4.705   5.337   0.419
 6934SOL    HW121701   4.770   5.316   0.492
 6934SOL    HW221702   4.652   5.256   0.396
 6935SOL     OW21703   4.189   5.490   2.937
 6935SOL    HW121704   4.164   5.402   2.897
 6935SOL    HW221705   4.195   5.482   3.036
 6936SOL     OW21706   0.884   1.763   6.782
 6936SOL    HW121707   0.832   1.830   6.835
 6936SOL    HW221708   0.938   1.810   6.713
 6937SOL     OW21709   6.012   4.416   0.594
 6937SOL    HW121710   6.039   4.376   0.682
 6937SOL    HW221711   5.965   4.502   0.610
 6938SOL     OW21712   3.008   6.897   5.228
 6938SOL    HW121713   2.934   6.885   5.162
 6938SOL    HW221714   2.989   6.977   5.285
 6939SOL     OW21715   5.673   3.255   3.276
 6939SOL    HW121716   5.676   3.156   3.266
 6939SOL    HW221717   5.579   3.285   3.291
 6940SOL     OW21718   1.452   6.507   1.689
 6940SOL    HW121719   1.383   6.568   1.650
 6940SOL    HW221720   1.459   6.524   1.787
 6941SOL     OW21721   3.452   2.844   2.390
 6941SOL    HW121722   3.459   2.866   2.487
 6941SOL    HW221723   3.542   2.814   2.356
 6942SOL     OW21724   7.009   5.004   2.820
 6942SOL    HW121725   6.931   5.052   2.861
 6942SOL    HW221726   0.015   4.925   2.877
 6943SOL     OW21727   3.217   5.728   5.340
 6943SOL    HW121728   3.155   5.664   5.293
 6943SOL    HW221729   3.165   5.781   5.407
 6944SOL     OW21730   0.691   4.645   5.276
 6944SOL    HW121731   0.596   4.658   5.304
 6944SOL    HW221732   0.696   4.572   5.208
 6945SOL     OW21733   4.312   1.793   0.967
 6945SOL    HW121734   4.228   1.844   0.987
 6945SOL    HW221735   4.291   1.716   0.907
 6946SOL     OW21736   5.421   5.353   3.676
 6946SOL    HW121737   5.451   5.319   3.587
 6946SOL    HW221738   5.464   5.442   3.693
 6947SOL     OW21739   6.346   3.866   5.565
 6947SOL    HW121740   6.365   3.770   5.586
 6947SOL    HW221741   6.352   3.879   5.466
 6948SOL     OW21742   0.054   5.079   6.259
 6948SOL    HW121743   0.135   5.106   6.312
 6948SOL    HW221744   0.080   5.062   6.164
 6949SOL     OW21745   2.387   1.298   3.195
 6949SOL    HW121746   2.487   1.297   3.200
 6949SOL    HW221747   2.353   1.388   3.221
 6950SOL     OW21748   1.907   1.503   4.218
 6950SOL    HW121749   1.841   1.540   4.283
 6950SOL    HW221750   1.950   1.577   4.167
 6951SOL     OW21751   1.404   3.962   0.272
 6951SOL    HW121752   1.406   3.971   0.372
 6951SOL    HW221753   1.310   3.971   0.239
 6952SOL     OW21754   4.165   4.778   3.501
 6952SOL    HW121755   4.128   4.866   3.470
 6952SOL    HW221756   4.252   4.793   3.548
 6953SOL     OW21757   0.857   0.799   2.047
 6953SOL    HW121758   0.788   0.818   1.977
 6953SOL    HW221759   0.812   0.785   2.135
 6954SOL     OW21760   6.515   5.186   5.983
 6954SOL    HW121761   6.487   5.119   5.914
 6954SOL    HW221762   6.557   5.138   6.060
 6955SOL     OW21763   4.194   5.509   2.587
 6955SOL    HW121764   4.248   5.523   2.504
 6955SOL    HW221765   4.144   5.423   2.580
 6956SOL     OW21766   5.969   5.163   2.485
 6956SOL    HW121767   5.976   5.143   2.583
 6956SOL    HW221768   6.035   5.234   2.461
 6957SOL     OW21769   6.077   3.981   5.311
 6957SOL    HW121770   6.026   4.033   5.379
 6957SOL    HW221771   6.168   4.022   5.299
 6958SOL     OW21772   3.496   3.849   1.605
 6958SOL    HW121773   3.433   3.774   1.624
 6958SOL    HW221774   3.452   3.915   1.544
 6959SOL     OW21775   0.737   3.444   2.746
 6959SOL    HW121776   0.676   3.412   2.674
 6959SOL    HW221777   0.787   3.367   2.785
 6960SOL     OW21778   5.611   4.614   1.757
 6960SOL    HW121779   5.592   4.528   1.709
 6960SOL    HW221780   5.558   4.617   1.843
 6961SOL     OW21781   5.199   2.386   4.664
 6961SOL    HW121782   5.231   2.417   4.574
 6961SOL    HW221783   5.101   2.366   4.659
 6962SOL     OW21784   2.357   6.814   0.925
 6962SOL    HW121785   2.327   6.783   1.015
 6962SOL    HW221786   2.403   6.903   0.934
 6963SOL     OW21787   0.874   6.777   6.831
 6963SOL    HW121788   0.837   6.813   6.745
 6963SOL    HW221789   0.833   6.827   6.908
 6964SOL     OW21790   2.298   1.298   5.335
 6964SOL    HW121791   2.327   1.393   5.346
 6964SOL    HW221792   2.319   1.267   5.242
 6965SOL     OW21793   1.796   1.227   6.996
 6965SOL    HW121794   1.848   1.181   0.051
 6965SOL    HW221795   1.746   1.159   6.942
 6966SOL     OW21796   1.561   6.841   0.895
 6966SOL    HW121797   1.497   6.791   0.836
 6966SOL    HW221798   1.510   6.885   0.969
 6967SOL     OW21799   3.940   6.848   6.627
 6967SOL    HW121800   3.857   6.904   6.628
 6967SOL    HW221801   4.015   6.900   6.586
 6968SOL     OW21802   4.152   0.472   2.029
 6968SOL    HW121803   4.066   0.420   2.031
 6968SOL    HW221804   4.167   0.509   1.938
 6969SOL     OW21805   1.499   3.504   2.997
 6969SOL    HW121806   1.547   3.420   3.024
 6969SOL    HW221807   1.423   3.520   3.060
 6970SOL     OW21808   3.601   5.857   6.199
 6970SOL    HW121809   3.525   5.910   6.161
 6970SOL    HW221810   3.609   5.770   6.151
 6971SOL     OW21811   6.945   3.774   0.146
 6971SOL    HW121812   6.862   3.805   0.191
 6971SOL    HW221813   6.964   3.679   0.170
 6972SOL     OW21814   5.753   3.777   1.790
 6972SOL    HW121815   5.743   3.691   1.739
 6972SOL    HW221816   5.741   3.854   1.728
 6973SOL     OW21817   0.965   1.367   2.933
 6973SOL    HW121818   1.022   1.449   2.940
 6973SOL    HW221819   1.013   1.290   2.974
 6974SOL     OW21820   3.980   3.374   2.921
 6974SOL    HW121821   3.886   3.392   2.895
 6974SOL    HW221822   3.982   3.335   3.013
 6975SOL     OW21823   3.149   5.248   4.823
 6975SOL    HW121824   3.206   5.204   4.753
 6975SOL    HW221825   3.173   5.345   4.829
 6976SOL     OW21826   4.979   5.035   5.888
 6976SOL    HW121827   5.059   4.995   5.934
 6976SOL    HW221828   4.963   4.987   5.802
 6977SOL     OW21829   3.950   4.794   2.343
 6977SOL    HW121830   4.004   4.873   2.312
 6977SOL    HW221831   3.858   4.799   2.305
 6978SOL     OW21832   1.105   3.419   1.167
 6978SOL    HW121833   1.136   3.387   1.077
 6978SOL    HW221834   1.021   3.473   1.155
 6979SOL     OW21835   1.053   3.865   2.812
 6979SOL    HW121836   1.066   3.805   2.890
 6979SOL    HW221837   1.021   3.954   2.843
 6980SOL     OW21838   2.493   4.461   3.352
 6980SOL    HW121839   2.456   4.388   3.409
 6980SOL    HW221840   2.587   4.481   3.380
 6981SOL     OW21841   3.975   2.789   6.855
 6981SOL    HW121842   4.024   2.764   6.938
 6981SOL    HW221843   4.035   2.780   6.776
 6982SOL     OW21844   6.632   6.943   1.925
 6982SOL    HW121845   6.561   6.874   1.934
 6982SOL    HW221846   6.711   6.916   1.979
 6983SOL     OW21847   6.757   0.553   4.024
 6983SOL    HW121848   6.693   0.485   4.060
 6983SOL    HW221849   6.750   0.555   3.924
 6984SOL     OW21850   1.658   4.445   3.670
 6984SOL    HW121851   1.677   4.347   3.670
 6984SOL    HW221852   1.675   4.482   3.578
 6985SOL     OW21853   5.230   3.537   1.011
 6985SOL    HW121854   5.225   3.451   1.061
 6985SOL    HW221855   5.251   3.519   0.915
 6986SOL     OW21856   3.748   5.844   5.153
 6986SOL    HW121857   3.718   5.750   5.171
 6986SOL    HW221858   3.848   5.846   5.148
 6987SOL     OW21859   0.338   1.287   6.822
 6987SOL    HW121860   0.260   1.229   6.797
 6987SOL    HW221861   0.358   1.350   6.746
 6988SOL     OW21862   1.491   0.183   5.943
 6988SOL    HW121863   1.518   0.241   5.866
 6988SOL    HW221864   1.548   0.205   6.023
 6989SOL     OW21865   0.679   3.497   2.146
 6989SOL    HW121866   0.696   3.564   2.074
 6989SOL    HW221867   0.745   3.422   2.137
 6990SOL     OW21868   3.893   5.046   6.567
 6990SOL    HW121869   3.833   5.123   6.590
 6990SOL    HW221870   3.853   4.961   6.600
 6991SOL     OW21871   5.253   4.076   3.437
 6991SOL    HW121872   5.176   4.014   3.427
 6991SOL    HW221873   5.228   4.151   3.498
 6992SOL     OW21874   2.089   5.496   6.153
 6992SOL    HW121875   2.041   5.513   6.066
 6992SOL    HW221876   2.160   5.427   6.138
 6993SOL     OW21877   4.231   2.205   1.333
 6993SOL    HW121878   4.305   2.146   1.301
 6993SOL    HW221879   4.172   2.154   1.395
 6994SOL     OW21880   2.803   0.971   3.117
 6994SOL    HW121881   2.707   0.947   3.133
 6994SOL    HW221882   2.825   1.056   3.165
 6995SOL     OW21883   0.089   5.235   0.671
 6995SOL    HW121884   0.175   5.260   0.715
 6995SOL    HW221885   0.067   5.140   0.691
 6996SOL     OW21886   1.170   1.386   6.325
 6996SOL    HW121887   1.193   1.431   6.239
 6996SOL    HW221888   1.137   1.294   6.308
 6997SOL     OW21889   5.753   6.152   5.814
 6997SOL    HW121890   5.738   6.176   5.910
 6997SOL    HW221891   5.786   6.232   5.765
 6998SOL     OW21892   0.511   1.166   0.008
 6998SOL    HW121893   0.556   1.228   0.073
 6998SOL    HW221894   0.485   1.216   6.943
 6999SOL     OW21895   0.408   2.669   0.264
 6999SOL    HW121896   0.311   2.694   0.258
 6999SOL    HW221897   0.458   2.741   0.312
 7000SOL     OW21898   0.823   4.854   3.277
 7000SOL    HW121899   0.749   4.849   3.345
 7000SOL    HW221900   0.841   4.763   3.241
 7001SOL     OW21901   1.260   0.885   4.416
 7001SOL    HW121902   1.263   0.982   4.393
 7001SOL    HW221903   1.166   0.852   4.410
 7002SOL     OW21904   1.387   4.354   3.115
 7002SOL    HW121905   1.414   4.342   3.020
 7002SOL    HW221906   1.469   4.367   3.172
 7003SOL     OW21907   0.474   5.193   6.487
 7003SOL    HW121908   0.568   5.221   6.469
 7003SOL    HW221909   0.429   5.262   6.543
 7004SOL     OW21910   1.194   1.048   6.730
 7004SOL    HW121911   1.270   1.111   6.719
 7004SOL    HW221912   1.185   1.022   6.826
 7005SOL     OW21913   1.599   5.306   6.979
 7005SOL    HW121914   1.573   5.210   6.966
 7005SOL    HW221915   1.670   5.330   6.914
 7006SOL     OW21916   0.479   0.465   3.532
 7006SOL    HW121917   0.419   0.400   3.486
 7006SOL    HW221918   0.430   0.505   3.610
 7007SOL     OW21919   2.133   6.842   6.486
 7007SOL    HW121920   2.175   6.896   6.559
 7007SOL    HW221921   2.101   6.755   6.523
 7008SOL     OW21922   5.835   3.083   2.372
 7008SOL    HW121923   5.838   3.007   2.437
 7008SOL    HW221924   5.813   3.168   2.420
 7009SOL     OW21925   5.413   5.918   2.494
 7009SOL    HW121926   5.357   5.836   2.482
 7009SOL    HW221927   5.395   5.982   2.420
 7010SOL     OW21928   5.252   2.736   3.098
 7010SOL    HW121929   5.250   2.638   3.078
 7010SOL    HW221930   5.253   2.750   3.197
 7011SOL     OW21931   2.385   5.912   6.281
 7011SOL    HW121932   2.308   5.975   6.275
 7011SOL    HW221933   2.419   5.891   6.189
 7012SOL     OW21934   0.256   3.987   0.502
 7012SOL    HW121935   0.178   4.045   0.476
 7012SOL    HW221936   0.296   3.947   0.419
 7013SOL     OW21937   2.737   2.536   7.005
 7013SOL    HW121938   2.762   2.595   6.929
 7013SOL    HW221939   2.643   2.506   6.996
 7014SOL     OW21940   6.670   3.351   0.954
 7014SOL    HW121941   6.681   3.256   0.925
 7014SOL    HW221942   6.606   3.397   0.893
 7015SOL     OW21943   5.984   5.990   1.788
 7015SOL    HW121944   5.916   6.024   1.722
 7015SOL    HW221945   6.058   5.944   1.739
 7016SOL     OW21946   3.232   5.228   0.850
 7016SOL    HW121947   3.190   5.291   0.915
 7016SOL    HW221948   3.326   5.208   0.879
 7017SOL     OW21949   6.113   4.387   6.662
 7017SOL    HW121950   6.109   4.371   6.761
 7017SOL    HW221951   6.207   4.408   6.635
 7018SOL     OW21952   5.919   2.787   4.455
 7018SOL    HW121953   5.870   2.835   4.528
 7018SOL    HW221954   6.006   2.752   4.491
 7019SOL     OW21955   3.346   6.009   2.810
 7019SOL    HW121956   3.368   6.090   2.756
 7019SOL    HW221957   3.252   5.981   2.790
 7020SOL     OW21958   6.751   1.578   0.839
 7020SOL    HW121959   6.809   1.512   0.792
 7020SOL    HW221960   6.686   1.530   0.898
 7021SOL     OW21961   0.682   2.222   4.787
 7021SOL    HW121962   0.751   2.294   4.791
 7021SOL    HW221963   0.647   2.214   4.693
 7022SOL     OW21964   1.756   4.380   1.102
 7022SOL    HW121965   1.783   4.408   1.010
 7022SOL    HW221966   1.823   4.316   1.139
 7023SOL     OW21967   6.833   1.884   1.245
 7023SOL    HW121968   6.806   1.939   1.323
 7023SOL    HW221969   6.796   1.924   1.161
 7024SOL     OW21970   3.647   4.059   5.559
 7024SOL    HW121971   3.722   4.080   5.621
 7024SOL    HW221972   3.593   3.983   5.596
 7025SOL     OW21973   3.201   0.996   0.884
 7025SOL    HW121974   3.117   0.948   0.909
 7025SOL    HW221975   3.262   0.933   0.837
 7026SOL     OW21976   2.625   2.395   1.479
 7026SOL    HW121977   2.693   2.366   1.546
 7026SOL    HW221978   2.669   2.408   1.390
 7027SOL     OW21979   2.658   4.335   0.810
 7027SOL    HW121980   2.744   4.382   0.787
 7027SOL    HW221981   2.614   4.383   0.886
 7028SOL     OW21982   3.326   0.466   2.822
 7028SOL    HW121983   3.398   0.536   2.824
 7028SOL    HW221984   3.364   0.379   2.853
 7029SOL     OW21985   3.411   3.830   3.585
 7029SOL    HW121986   3.503   3.809   3.551
 7029SOL    HW221987   3.346   3.763   3.550
 7030SOL     OW21988   5.935   6.917   5.072
 7030SOL    HW121989   6.032   6.912   5.094
 7030SOL    HW221990   5.889   6.833   5.104
 7031SOL     OW21991   5.909   5.234   0.530
 7031SOL    HW121992   5.873   5.303   0.592
 7031SOL    HW221993   5.954   5.162   0.582
 7032SOL     OW21994   3.606   4.954   3.949
 7032SOL    HW121995   3.702   4.942   3.975
 7032SOL    HW221996   3.552   4.972   4.030
 7033SOL     OW21997   1.910   2.033   5.457
 7033SOL    HW121998   1.840   2.034   5.528
 7033SOL    HW221999   2.000   2.050   5.498
 7034SOL     OW22000   6.457   2.322   2.090
 7034SOL    HW122001   6.551   2.337   2.059
 7034SOL    HW222002   6.402   2.403   2.068
 7035SOL     OW22003   3.371   2.696   1.162
 7035SOL    HW122004   3.387   2.794   1.167
 7035SOL    HW222005   3.414   2.651   1.241
 7036SOL     OW22006   6.590   1.627   1.641
 7036SOL    HW122007   6.629   1.673   1.561
 7036SOL    HW222008   6.644   1.649   1.722
 7037SOL     OW22009   0.484   1.104   6.114
 7037SOL    HW122010   0.389   1.105   6.083
 7037SOL    HW222011   0.488   1.067   6.207
 7038SOL     OW22012   0.659   4.389   0.220
 7038SOL    HW122013   0.629   4.477   0.183
 7038SOL    HW222014   0.737   4.404   0.281
 7039SOL     OW22015   6.740   0.391   1.211
 7039SOL    HW122016   6.801   0.453   1.258
 7039SOL    HW222017   6.684   0.443   1.146
 7040SOL     OW22018   4.916   3.047   4.593
 7040SOL    HW122019   4.866   3.022   4.675
 7040SOL    HW222020   4.891   2.985   4.518
 7041SOL     OW22021   0.992   0.140   3.195
 7041SOL    HW122022   1.074   0.190   3.167
 7041SOL    HW222023   1.018   0.051   3.233
 7042SOL     OW22024   5.405   5.426   5.181
 7042SOL    HW122025   5.476   5.358   5.160
 7042SOL    HW222026   5.434   5.516   5.147
 7043SOL     OW22027   2.000   6.038   0.489
 7043SOL    HW122028   2.074   6.031   0.556
 7043SOL    HW222029   2.016   6.118   0.431
 7044SOL     OW22030   4.381   6.232   4.641
 7044SOL    HW122031   4.380   6.205   4.737
 7044SOL    HW222032   4.474   6.256   4.613
 7045SOL     OW22033   5.317   6.721   1.605
 7045SOL    HW122034   5.280   6.707   1.697
 7045SOL    HW222035   5.276   6.802   1.564
 7046SOL     OW22036   2.958   1.116   2.745
 7046SOL    HW122037   3.028   1.050   2.717
 7046SOL    HW222038   2.877   1.067   2.778
 7047SOL     OW22039   1.743   0.298   0.999
 7047SOL    HW122040   1.781   0.275   1.088
 7047SOL    HW222041   1.741   0.216   0.941
 7048SOL     OW22042   0.553   5.520   4.383
 7048SOL    HW122043   0.464   5.479   4.404
 7048SOL    HW222044   0.539   5.612   4.346
 7049SOL     OW22045   2.807   1.331   4.818
 7049SOL    HW122046   2.854   1.356   4.732
 7049SOL    HW222047   2.782   1.415   4.867
 7050SOL     OW22048   4.185   4.480   0.614
 7050SOL    HW122049   4.268   4.458   0.563
 7050SOL    HW222050   4.198   4.456   0.710
 7051SOL     OW22051   2.207   0.744   2.198
 7051SOL    HW122052   2.126   0.794   2.169
 7051SOL    HW222053   2.285   0.771   2.141
 7052SOL     OW22054   5.058   2.247   3.005
 7052SOL    HW122055   4.980   2.210   3.056
 7052SOL    HW222056   5.080   2.186   2.929
 7053SOL     OW22057   0.653   4.526   3.950
 7053SOL    HW122058   0.618   4.601   4.006
 7053SOL    HW222059   0.591   4.447   3.957
 7054SOL     OW22060   5.663   6.709   0.347
 7054SOL    HW122061   5.565   6.721   0.359
 7054SOL    HW222062   5.689   6.728   0.252
 7055SOL     OW22063   1.956   0.281   7.010
 7055SOL    HW122064   1.935   0.276   6.912
 7055SOL    HW222065   2.055   0.272   0.006
 7056SOL     OW22066   6.953   5.392   1.117
 7056SOL    HW122067   6.992   5.455   1.184
 7056SOL    HW222068   6.975   5.425   1.025
 7057SOL     OW22069   2.900   5.555   4.822
 7057SOL    HW122070   2.914   5.493   4.900
 7057SOL    HW222071   2.945   5.642   4.840
 7058SOL     OW22072   5.800   2.779   5.780
 7058SOL    HW122073   5.728   2.845   5.800
 7058SOL    HW222074   5.856   2.813   5.704
 7059SOL     OW22075   1.550   0.951   4.513
 7059SOL    HW122076   1.490   0.937   4.435
 7059SOL    HW222077   1.622   0.882   4.512
 7060SOL     OW22078   2.729   2.071   1.429
 7060SOL    HW122079   2.735   2.171   1.435
 7060SOL    HW222080   2.683   2.036   1.510
 7061SOL     OW22081   1.823   0.549   1.255
 7061SOL    HW122082   1.830   0.614   1.330
 7061SOL    HW222083   1.742   0.491   1.268
 7062SOL     OW22084   3.816   1.068   5.170
 7062SOL    HW122085   3.811   1.014   5.086
 7062SOL    HW222086   3.730   1.117   5.184
 7063SOL     OW22087   0.008   1.215   1.490
 7063SOL    HW122088   0.087   1.168   1.452
 7063SOL    HW222089   6.966   1.247   1.415
 7064SOL     OW22090   2.912   1.516   5.329
 7064SOL    HW122091   2.933   1.608   5.296
 7064SOL    HW222092   2.914   1.515   5.429
 7065SOL     OW22093   3.239   6.986   4.129
 7065SOL    HW122094   3.240   6.891   4.160
 7065SOL    HW222095   3.193   0.025   4.197
 7066SOL     OW22096   3.729   0.824   1.197
 7066SOL    HW122097   3.691   0.911   1.168
 7066SOL    HW222098   3.719   0.815   1.296
 7067SOL     OW22099   2.823   4.230   5.889
 7067SOL    HW122100   2.912   4.245   5.931
 7067SOL    HW222101   2.820   4.275   5.799
 7068SOL     OW22102   4.604   4.881   2.673
 7068SOL    HW122103   4.657   4.796   2.672
 7068SOL    HW222104   4.545   4.882   2.754
 7069SOL     OW22105   3.780   1.086   4.827
 7069SOL    HW122106   3.697   1.141   4.834
 7069SOL    HW222107   3.860   1.145   4.836
 7070SOL     OW22108   6.676   1.357   5.523
 7070SOL    HW122109   6.627   1.340   5.438
 7070SOL    HW222110   6.767   1.314   5.519
 7071SOL     OW22111   4.510   5.728   6.983
 7071SOL    HW122112   4.580   5.680   6.930
 7071SOL    HW222113   4.537   5.823   6.997
 7072SOL     OW22114   1.125   3.646   6.237
 7072SOL    HW122115   1.210   3.602   6.266
 7072SOL    HW222116   1.113   3.732   6.287
 7073SOL     OW22117   4.104   1.212   4.229
 7073SOL    HW122118   4.060   1.231   4.141
 7073SOL    HW222119   4.196   1.177   4.213
 7074SOL     OW22120   6.040   3.266   2.149
 7074SOL    HW122121   5.953   3.305   2.118
 7074SOL    HW222122   6.046   3.276   2.249
 7075SOL     OW22123   1.938   4.753   2.608
 7075SOL    HW122124   1.952   4.660   2.574
 7075SOL    HW222125   1.902   4.811   2.534
 7076SOL     OW22126   6.168   2.687   0.669
 7076SOL    HW122127   6.136   2.594   0.652
 7076SOL    HW222128   6.222   2.688   0.754
 7077SOL     OW22129   3.127   5.801   1.853
 7077SOL    HW122130   3.108   5.703   1.864
 7077SOL    HW222131   3.040   5.851   1.847
 7078SOL     OW22132   0.044   1.817   6.954
 7078SOL    HW122133   0.125   1.853   6.999
 7078SOL    HW222134   0.004   1.743   7.009
 7079SOL     OW22135   2.477   5.311   5.638
 7079SOL    HW122136   2.437   5.244   5.575
 7079SOL    HW222137   2.563   5.345   5.599
 7080SOL     OW22138   3.828   1.892   6.418
 7080SOL    HW122139   3.744   1.945   6.411
 7080SOL    HW222140   3.901   1.938   6.368
 7081SOL     OW22141   3.039   6.617   6.791
 7081SOL    HW122142   3.000   6.684   6.728
 7081SOL    HW222143   2.968   6.583   6.852
 7082SOL     OW22144   1.640   4.937   2.134
 7082SOL    HW122145   1.571   4.955   2.203
 7082SOL    HW222146   1.729   4.922   2.178
 7083SOL     OW22147   6.009   2.996   2.704
 7083SOL    HW122148   5.981   3.028   2.794
 7083SOL    HW222149   5.930   2.956   2.657
 7084SOL     OW22150   1.228   5.338   0.033
 7084SOL    HW122151   1.245   5.240   0.028
 7084SOL    HW222152   1.250   5.381   6.962
 7085SOL     OW22153   0.265   3.446   2.080
 7085SOL    HW122154   0.236   3.361   2.123
 7085SOL    HW222155   0.348   3.480   2.125
 7086SOL     OW22156   4.366   0.986   3.625
 7086SOL    HW122157   4.308   0.923   3.677
 7086SOL    HW222158   4.451   1.001   3.675
 7087SOL     OW22159   6.016   2.670   3.625
 7087SOL    HW122160   6.092   2.703   3.681
 7087SOL    HW222161   5.954   2.615   3.682
 7088SOL     OW22162   5.888   1.986   5.237
 7088SOL    HW122163   5.865   2.078   5.269
 7088SOL    HW222164   5.807   1.928   5.244
 7089SOL     OW22165   3.472   6.131   1.577
 7089SOL    HW122166   3.411   6.053   1.590
 7089SOL    HW222167   3.418   6.214   1.562
 7090SOL     OW22168   5.226   3.458   1.526
 7090SOL    HW122169   5.190   3.418   1.442
 7090SOL    HW222170   5.152   3.470   1.592
 7091SOL     OW22171   5.778   0.252   6.774
 7091SOL    HW122172   5.703   0.306   6.812
 7091SOL    HW222173   5.860   0.266   6.828
 7092SOL     OW22174   4.241   6.786   6.333
 7092SOL    HW122175   4.225   6.717   6.405
 7092SOL    HW222176   4.171   6.776   6.262
 7093SOL     OW22177   4.022   3.308   0.380
 7093SOL    HW122178   3.925   3.323   0.365
 7093SOL    HW222179   4.037   3.270   0.472
 7094SOL     OW22180   4.371   0.781   5.043
 7094SOL    HW122181   4.404   0.774   4.949
 7094SOL    HW222182   4.416   0.859   5.088
 7095SOL     OW22183   2.368   4.816   3.612
 7095SOL    HW122184   2.344   4.908   3.643
 7095SOL    HW222185   2.312   4.748   3.659
 7096SOL     OW22186   0.262   5.532   0.449
 7096SOL    HW122187   0.362   5.527   0.455
 7096SOL    HW222188   0.232   5.500   0.359
 7097SOL     OW22189   4.647   2.017   2.889
 7097SOL    HW122190   4.660   1.942   2.955
 7097SOL    HW222191   4.600   1.982   2.808
 7098SOL     OW22192   0.783   1.231   2.395
 7098SOL    HW122193   0.810   1.194   2.483
 7098SOL    HW222194   0.802   1.164   2.323
 7099SOL     OW22195   3.188   1.761   4.754
 7099SOL    HW122196   3.284   1.734   4.745
 7099SOL    HW222197   3.135   1.684   4.790
 7100SOL     OW22198   0.433   4.467   1.419
 7100SOL    HW122199   0.531   4.451   1.426
 7100SOL    HW222200   0.384   4.392   1.463
 7101SOL     OW22201   3.154   6.004   4.521
 7101SOL    HW122202   3.247   5.972   4.537
 7101SOL    HW222203   3.092   5.959   4.585
 7102SOL     OW22204   5.288   1.850   2.285
 7102SOL    HW122205   5.284   1.750   2.280
 7102SOL    HW222206   5.293   1.888   2.193
 7103SOL     OW22207   6.731   3.668   4.657
 7103SOL    HW122208   6.679   3.751   4.674
 7103SOL    HW222209   6.682   3.589   4.696
 7104SOL     OW22210   4.282   2.412   4.225
 7104SOL    HW122211   4.281   2.389   4.322
 7104SOL    HW222212   4.216   2.356   4.176
 7105SOL     OW22213   3.064   3.715   2.023
 7105SOL    HW122214   3.161   3.741   2.021
 7105SOL    HW222215   3.008   3.798   2.026
 7106SOL     OW22216   2.347   2.036   2.653
 7106SOL    HW122217   2.305   2.119   2.689
 7106SOL    HW222218   2.373   2.050   2.558
 7107SOL     OW22219   4.049   0.463   0.331
 7107SOL    HW122220   4.065   0.388   0.267
 7107SOL    HW222221   3.996   0.429   0.410
 7108SOL     OW22222   3.362   6.946   1.980
 7108SOL    HW122223   3.291   6.876   1.968
 7108SOL    HW222224   3.338   7.005   2.057
 7109SOL     OW22225   2.616   4.831   5.877
 7109SOL    HW122226   2.604   4.861   5.782
 7109SOL    HW222227   2.637   4.910   5.934
 7110SOL     OW22228   2.738   5.615   5.578
 7110SOL    HW122229   2.830   5.654   5.579
 7110SOL    HW222230   2.680   5.667   5.515
 7111SOL     OW22231   6.175   1.720   4.638
 7111SOL    HW122232   6.152   1.639   4.691
 7111SOL    HW222233   6.094   1.752   4.589
 7112SOL     OW22234   6.331   4.929   4.436
 7112SOL    HW122235   6.415   4.929   4.490
 7112SOL    HW222236   6.336   4.857   4.367
 7113SOL     OW22237   2.844   6.907   4.989
 7113SOL    HW122238   2.846   7.006   4.976
 7113SOL    HW222239   2.809   6.863   4.907
 7114SOL     OW22240   5.700   4.057   0.319
 7114SOL    HW122241   5.648   4.093   0.397
 7114SOL    HW222242   5.636   4.026   0.249
 7115SOL     OW22243   5.042   2.702   6.042
 7115SOL    HW122244   4.942   2.699   6.034
 7115SOL    HW222245   5.081   2.738   5.957
 7116SOL     OW22246   5.817   5.479   4.494
 7116SOL    HW122247   5.862   5.446   4.412
 7116SOL    HW222248   5.822   5.409   4.566
 7117SOL     OW22249   3.606   0.338   2.817
 7117SOL    HW122250   3.559   0.250   2.816
 7117SOL    HW222251   3.700   0.325   2.850
 7118SOL     OW22252   4.870   4.274   5.690
 7118SOL    HW122253   4.940   4.208   5.662
 7118SOL    HW222254   4.782   4.228   5.698
 7119SOL     OW22255   2.525   6.611   4.400
 7119SOL    HW122256   2.569   6.700   4.391
 7119SOL    HW222257   2.430   6.623   4.429
 7120SOL     OW22258   4.496   1.668   2.106
 7120SOL    HW122259   4.582   1.718   2.119
 7120SOL    HW222260   4.420   1.733   2.098
 7121SOL     OW22261   1.664   5.929   2.297
 7121SOL    HW122262   1.579   5.912   2.347
 7121SOL    HW222263   1.648   6.000   2.228
 7122SOL     OW22264   3.068   2.444   6.564
 7122SOL    HW122265   3.132   2.503   6.613
 7122SOL    HW222266   3.075   2.351   6.600
 7123SOL     OW22267   5.365   4.208   7.000
 7123SOL    HW122268   5.360   4.308   6.998
 7123SOL    HW222269   5.305   4.171   6.929
 7124SOL     OW22270   2.914   2.788   6.411
 7124SOL    HW122271   3.012   2.772   6.401
 7124SOL    HW222272   2.883   2.754   6.500
 7125SOL     OW22273   1.075   6.053   1.499
 7125SOL    HW122274   0.994   5.994   1.500
 7125SOL    HW222275   1.081   6.103   1.586
 7126SOL     OW22276   3.867   4.680   0.891
 7126SOL    HW122277   3.937   4.609   0.893
 7126SOL    HW222278   3.815   4.677   0.976
 7127SOL     OW22279   2.584   0.065   4.942
 7127SOL    HW122280   2.668   0.086   4.991
 7127SOL    HW222281   2.591   0.098   4.848
 7128SOL     OW22282   4.241   4.000   0.140
 7128SOL    HW122283   4.225   3.905   0.113
 7128SOL    HW222284   4.181   4.023   0.217
 7129SOL     OW22285   0.079   1.611   0.341
 7129SOL    HW122286   0.016   1.688   0.347
 7129SOL    HW222287   0.057   1.545   0.413
 7130SOL     OW22288   3.668   6.971   4.005
 7130SOL    HW122289   3.763   6.981   4.034
 7130SOL    HW222290   3.609   0.007   4.066
 7131SOL     OW22291   2.190   2.344   3.067
 7131SOL    HW122292   2.113   2.295   3.025
 7131SOL    HW222293   2.171   2.358   3.164
 7132SOL     OW22294   5.469   4.959   2.309
 7132SOL    HW122295   5.440   4.954   2.213
 7132SOL    HW222296   5.562   4.997   2.314
 7133SOL     OW22297   3.216   6.161   2.440
 7133SOL    HW122298   3.264   6.230   2.386
 7133SOL    HW222299   3.215   6.074   2.390
 7134SOL     OW22300   5.638   4.966   6.405
 7134SOL    HW122301   5.671   5.024   6.479
 7134SOL    HW222302   5.616   5.022   6.326
 7135SOL     OW22303   2.265   5.061   1.051
 7135SOL    HW122304   2.240   4.993   1.121
 7135SOL    HW222305   2.352   5.104   1.076
 7136SOL     OW22306   1.315   3.097   2.693
 7136SOL    HW122307   1.275   3.009   2.670
 7136SOL    HW222308   1.388   3.084   2.760
 7137SOL     OW22309   1.772   6.920   2.129
 7137SOL    HW122310   1.680   6.937   2.165
 7137SOL    HW222311   1.801   6.828   2.153
 7138SOL     OW22312   6.506   4.044   0.294
 7138SOL    HW122313   6.411   4.051   0.264
 7138SOL    HW222314   6.547   4.135   0.298
 7139SOL     OW22315   5.659   6.028   1.067
 7139SOL    HW122316   5.624   5.943   1.026
 7139SOL    HW222317   5.724   6.071   1.004
 7140SOL     OW22318   0.049   4.315   7.015
 7140SOL    HW122319   0.133   4.277   0.038
 7140SOL    HW222320   0.061   4.413   6.999
 7141SOL     OW22321   2.751   2.001   0.355
 7141SOL    HW122322   2.689   1.970   0.282
 7141SOL    HW222323   2.698   2.019   0.438
 7142SOL     OW22324   4.301   6.884   5.847
 7142SOL    HW122325   4.378   6.922   5.899
 7142SOL    HW222326   4.281   6.942   5.769
 7143SOL     OW22327   3.342   2.817   5.730
 7143SOL    HW122328   3.436   2.820   5.697
 7143SOL    HW222329   3.280   2.813   5.651
 7144SOL     OW22330   6.236   1.691   6.009
 7144SOL    HW122331   6.190   1.728   5.928
 7144SOL    HW222332   6.202   1.599   6.028
 7145SOL     OW22333   0.168   2.723   0.512
 7145SOL    HW122334   0.189   2.798   0.449
 7145SOL    HW222335   0.088   2.673   0.480
 7146SOL     OW22336   0.047   1.481   4.400
 7146SOL    HW122337   0.005   1.500   4.311
 7146SOL    HW222338   0.104   1.558   4.427
 7147SOL     OW22339   6.866   0.151   0.129
 7147SOL    HW122340   6.825   0.232   0.171
 7147SOL    HW222341   6.957   0.136   0.167
 7148SOL     OW22342   5.569   6.348   0.977
 7148SOL    HW122343   5.617   6.324   0.892
 7148SOL    HW222344   5.633   6.350   1.053
 7149SOL     OW22345   6.730   3.657   6.957
 7149SOL    HW122346   6.720   3.626   0.034
 7149SOL    HW222347   6.780   3.589   6.904
 7150SOL     OW22348   2.593   1.940   0.112
 7150SOL    HW122349   2.516   2.001   0.092
 7150SOL    HW222350   2.647   1.926   0.030
 7151SOL     OW22351   5.408   2.339   6.912
 7151SOL    HW122352   5.436   2.407   6.981
 7151SOL    HW222353   5.453   2.359   6.825
 7152SOL     OW22354   5.514   0.646   4.811
 7152SOL    HW122355   5.562   0.581   4.870
 7152SOL    HW222356   5.458   0.595   4.745
 7153SOL     OW22357   5.496   5.620   0.501
 7153SOL    HW122358   5.414   5.629   0.445
 7153SOL    HW222359   5.496   5.531   0.546
 7154SOL     OW22360   4.705   0.327   1.922
 7154SOL    HW122361   4.722   0.241   1.874
 7154SOL    HW222362   4.630   0.376   1.878
 7155SOL     OW22363   1.918   0.217   1.638
 7155SOL    HW122364   1.948   0.244   1.730
 7155SOL    HW222365   1.977   0.260   1.570
 7156SOL     OW22366   6.465   2.950   5.656
 7156SOL    HW122367   6.522   3.012   5.709
 7156SOL    HW222368   6.395   2.910   5.716
 7157SOL     OW22369   6.834   3.537   5.575
 7157SOL    HW122370   6.740   3.504   5.566
 7157SOL    HW222371   6.833   3.634   5.602
 7158SOL     OW22372   5.150   6.793   3.838
 7158SOL    HW122373   5.232   6.837   3.875
 7158SOL    HW222374   5.069   6.828   3.885
 7159SOL     OW22375   0.730   0.009   3.484
 7159SOL    HW122376   0.800   6.972   3.437
 7159SOL    HW222377   0.727   0.100   3.444
 7160SOL     OW22378   5.688   6.306   2.391
 7160SOL    HW122379   5.743   6.365   2.450
 7160SOL    HW222380   5.675   6.350   2.303
 7161SOL     OW22381   3.992   3.075   1.872
 7161SOL    HW122382   3.895   3.051   1.863
 7161SOL    HW222383   4.006   3.123   1.958
 7162SOL     OW22384   0.922   6.066   0.531
 7162SOL    HW122385   1.003   6.032   0.580
 7162SOL    HW222386   0.933   6.164   0.514
 7163SOL     OW22387   6.985   6.267   0.128
 7163SOL    HW122388   0.035   6.336   0.156
 7163SOL    HW222389   0.016   6.193   0.081
 7164SOL     OW22390   0.797   6.157   6.800
 7164SOL    HW122391   0.889   6.120   6.814
 7164SOL    HW222392   0.729   6.095   6.839
 7165SOL     OW22393   4.165   2.330   6.151
 7165SOL    HW122394   4.224   2.408   6.168
 7165SOL    HW222395   4.189   2.255   6.213
 7166SOL     OW22396   0.210   6.443   5.151
 7166SOL    HW122397   0.283   6.446   5.083
 7166SOL    HW222398   0.145   6.371   5.127
 7167SOL     OW22399   0.654   3.433   5.461
 7167SOL    HW122400   0.646   3.424   5.362
 7167SOL    HW222401   0.637   3.528   5.487
 7168SOL     OW22402   0.695   6.538   2.602
 7168SOL    HW122403   0.761   6.549   2.676
 7168SOL    HW222404   0.738   6.564   2.515
 7169SOL     OW22405   1.924   5.055   5.658
 7169SOL    HW122406   1.882   5.119   5.724
 7169SOL    HW222407   1.957   4.975   5.707
 7170SOL     OW22408   4.330   2.056   1.894
 7170SOL    HW122409   4.268   2.131   1.915
 7170SOL    HW222410   4.287   1.993   1.829
 7171SOL     OW22411   0.929   5.633   1.900
 7171SOL    HW122412   1.022   5.649   1.933
 7171SOL    HW222413   0.917   5.675   1.810
 7172SOL     OW22414   1.351   2.700   3.711
 7172SOL    HW122415   1.429   2.744   3.666
 7172SOL    HW222416   1.272   2.701   3.649
 7173SOL     OW22417   3.387   5.496   4.499
 7173SOL    HW122418   3.361   5.402   4.476
 7173SOL    HW222419   3.449   5.531   4.429
 7174SOL     OW22420   6.846   3.657   2.413
 7174SOL    HW122421   6.801   3.682   2.499
 7174SOL    HW222422   6.882   3.739   2.370
 7175SOL     OW22423   6.081   2.948   5.945
 7175SOL    HW122424   6.090   2.955   6.044
 7175SOL    HW222425   6.005   2.886   5.923
 7176SOL     OW22426   6.278   2.040   6.344
 7176SOL    HW122427   6.307   1.993   6.261
 7176SOL    HW222428   6.299   1.983   6.423
 7177SOL     OW22429   1.408   5.669   3.950
 7177SOL    HW122430   1.349   5.720   4.012
 7177SOL    HW222431   1.494   5.718   3.937
 7178SOL     OW22432   1.162   6.221   5.556
 7178SOL    HW122433   1.191   6.313   5.527
 7178SOL    HW222434   1.112   6.178   5.481
 7179SOL     OW22435   5.211   4.550   5.412
 7179SOL    HW122436   5.166   4.527   5.325
 7179SOL    HW222437   5.255   4.468   5.449
 7180SOL     OW22438   0.123   2.682   2.082
 7180SOL    HW122439   0.197   2.722   2.029
 7180SOL    HW222440   0.088   2.601   2.034
 7181SOL     OW22441   3.152   0.230   0.136
 7181SOL    HW122442   3.167   0.312   0.082
 7181SOL    HW222443   3.231   0.169   0.128
 7182SOL     OW22444   1.931   0.996   2.482
 7182SOL    HW122445   1.962   1.057   2.555
 7182SOL    HW222446   1.976   1.022   2.396
 7183SOL     OW22447   1.811   0.242   1.282
 7183SOL    HW122448   1.722   0.285   1.293
 7183SOL    HW222449   1.883   0.305   1.314
 7184SOL     OW22450   6.978   1.718   3.216
 7184SOL    HW122451   0.000   1.786   3.278
 7184SOL    HW222452   6.883   1.700   3.242
 7185SOL     OW22453   3.996   0.157   3.498
 7185SOL    HW122454   4.015   0.090   3.569
 7185SOL    HW222455   4.065   0.150   3.426
 7186SOL     OW22456   6.141   2.466   6.598
 7186SOL    HW122457   6.062   2.514   6.559
 7186SOL    HW222458   6.202   2.436   6.525
 7187SOL     OW22459   3.302   3.880   4.137
 7187SOL    HW122460   3.319   3.849   4.043
 7187SOL    HW222461   3.359   3.829   4.200
 7188SOL     OW22462   4.849   4.885   0.031
 7188SOL    HW122463   4.923   4.917   6.989
 7188SOL    HW222464   4.761   4.916   7.011
 7189SOL     OW22465   6.955   2.230   5.910
 7189SOL    HW122466   6.929   2.267   5.821
 7189SOL    HW222467   6.977   2.133   5.902
 7190SOL     OW22468   5.771   5.663   0.832
 7190SOL    HW122469   5.771   5.708   0.742
 7190SOL    HW222470   5.703   5.705   0.891
 7191SOL     OW22471   0.209   4.961   2.645
 7191SOL    HW122472   0.120   4.973   2.689
 7191SOL    HW222473   0.258   4.886   2.688
 7192SOL     OW22474   3.733   3.678   5.805
 7192SOL    HW122475   3.791   3.662   5.885
 7192SOL    HW222476   3.789   3.678   5.722
 7193SOL     OW22477   3.592   1.008   4.056
 7193SOL    HW122478   3.573   0.955   4.139
 7193SOL    HW222479   3.659   0.959   4.000
 7194SOL     OW22480   3.547   2.437   5.358
 7194SOL    HW122481   3.590   2.352   5.390
 7194SOL    HW222482   3.449   2.422   5.346
 7195SOL     OW22483   6.858   4.186   5.420
 7195SOL    HW122484   6.889   4.136   5.500
 7195SOL    HW222485   6.823   4.276   5.447
 7196SOL     OW22486   2.965   4.312   1.675
 7196SOL    HW122487   3.027   4.369   1.621
 7196SOL    HW222488   2.943   4.358   1.761
 7197SOL     OW22489   3.453   4.349   6.394
 7197SOL    HW122490   3.514   4.380   6.467
 7197SOL    HW222491   3.498   4.277   6.341
 7198SOL     OW22492   1.201   6.872   2.384
 7198SOL    HW122493   1.160   6.798   2.332
 7198SOL    HW222494   1.294   6.889   2.350
 7199SOL     OW22495   6.048   1.112   3.529
 7199SOL    HW122496   6.076   1.208   3.520
 7199SOL    HW222497   6.020   1.077   3.440
 7200SOL     OW22498   1.231   4.084   6.437
 7200SOL    HW122499   1.293   4.034   6.498
 7200SOL    HW222500   1.203   4.024   6.361
 7201SOL     OW22501   5.712   6.043   4.802
 7201SOL    HW122502   5.646   5.974   4.773
 7201SOL    HW222503   5.704   6.058   4.900
 7202SOL     OW22504   4.708   0.341   5.467
 7202SOL    HW122505   4.741   0.308   5.555
 7202SOL    HW222506   4.609   0.351   5.470
 7203SOL     OW22507   1.217   1.544   0.701
 7203SOL    HW122508   1.181   1.455   0.674
 7203SOL    HW222509   1.145   1.613   0.693
 7204SOL     OW22510   5.357   0.947   2.703
 7204SOL    HW122511   5.431   1.010   2.728
 7204SOL    HW222512   5.306   0.922   2.785
 7205SOL     OW22513   2.625   1.163   4.141
 7205SOL    HW122514   2.588   1.253   4.118
 7205SOL    HW222515   2.623   1.150   4.240
 7206SOL     OW22516   2.317   2.753   6.618
 7206SOL    HW122517   2.229   2.780   6.578
 7206SOL    HW222518   2.377   2.833   6.624
 7207SOL     OW22519   1.808   2.473   2.970
 7207SOL    HW122520   1.839   2.554   3.020
 7207SOL    HW222521   1.710   2.480   2.953
 7208SOL     OW22522   3.125   0.182   3.680
 7208SOL    HW122523   3.121   0.269   3.632
 7208SOL    HW222524   3.194   0.186   3.752
 7209SOL     OW22525   4.462   0.848   1.898
 7209SOL    HW122526   4.459   0.750   1.917
 7209SOL    HW222527   4.378   0.875   1.850
 7210SOL     OW22528   2.987   1.108   5.181
 7210SOL    HW122529   3.004   1.071   5.090
 7210SOL    HW222530   3.011   1.205   5.183
 7211SOL     OW22531   4.810   5.705   6.306
 7211SOL    HW122532   4.830   5.796   6.269
 7211SOL    HW222533   4.716   5.681   6.283
 7212SOL     OW22534   0.106   6.092   4.078
 7212SOL    HW122535   0.166   6.020   4.043
 7212SOL    HW222536   0.129   6.111   4.174
 7213SOL     OW22537   4.715   2.927   0.034
 7213SOL    HW122538   4.775   3.001   0.066
 7213SOL    HW222539   4.643   2.911   0.101
 7214SOL     OW22540   6.826   1.609   5.907
 7214SOL    HW122541   6.772   1.691   5.890
 7214SOL    HW222542   6.770   1.541   5.954
 7215SOL     OW22543   6.372   1.328   2.342
 7215SOL    HW122544   6.315   1.255   2.380
 7215SOL    HW222545   6.416   1.296   2.258
 7216SOL     OW22546   5.591   6.642   4.181
 7216SOL    HW122547   5.559   6.667   4.090
 7216SOL    HW222548   5.688   6.616   4.177
 7217SOL     OW22549   0.867   3.586   3.364
 7217SOL    HW122550   0.900   3.650   3.295
 7217SOL    HW222551   0.774   3.609   3.390
 7218SOL     OW22552   6.498   2.868   5.400
 7218SOL    HW122553   6.527   2.909   5.487
 7218SOL    HW222554   6.564   2.798   5.372
 7219SOL     OW22555   3.508   5.373   1.003
 7219SOL    HW122556   3.437   5.442   0.987
 7219SOL    HW222557   3.510   5.309   0.926
 7220SOL     OW22558   0.134   3.229   3.769
 7220SOL    HW122559   0.133   3.192   3.862
 7220SOL    HW222560   0.041   3.255   3.743
 7221SOL     OW22561   4.861   4.612   3.885
 7221SOL    HW122562   4.924   4.678   3.845
 7221SOL    HW222563   4.768   4.648   3.883
 7222SOL     OW22564   6.485   5.926   3.787
 7222SOL    HW122565   6.423   5.849   3.772
 7222SOL    HW222566   6.433   6.006   3.818
 7223SOL     OW22567   6.405   5.726   1.641
 7223SOL    HW122568   6.388   5.647   1.583
 7223SOL    HW222569   6.395   5.810   1.588
 7224SOL     OW22570   5.573   2.756   2.362
 7224SOL    HW122571   5.490   2.765   2.417
 7224SOL    HW222572   5.550   2.762   2.265
 7225SOL     OW22573   1.094   5.279   0.372
 7225SOL    HW122574   1.013   5.233   0.334
 7225SOL    HW222575   1.166   5.213   0.389
 7226SOL     OW22576   6.433   6.274   0.553
 7226SOL    HW122577   6.387   6.238   0.634
 7226SOL    HW222578   6.519   6.225   0.539
 7227SOL     OW22579   2.375   0.867   2.034
 7227SOL    HW122580   2.471   0.855   2.057
 7227SOL    HW222581   2.361   0.954   1.988
 7228SOL     OW22582   6.396   3.436   3.184
 7228SOL    HW122583   6.367   3.404   3.274
 7228SOL    HW222584   6.485   3.397   3.161
 7229SOL     OW22585   6.206   6.917   5.134
 7229SOL    HW122586   6.288   6.919   5.193
 7229SOL    HW222587   6.229   6.874   5.047
 7230SOL     OW22588   2.278   4.933   5.243
 7230SOL    HW122589   2.306   4.839   5.223
 7230SOL    HW222590   2.271   4.985   5.158
 7231SOL     OW22591   3.420   3.589   6.430
 7231SOL    HW122592   3.374   3.502   6.447
 7231SOL    HW222593   3.351   3.661   6.417
 7232SOL     OW22594   4.576   5.787   3.336
 7232SOL    HW122595   4.524   5.836   3.266
 7232SOL    HW222596   4.541   5.811   3.427
 7233SOL     OW22597   0.368   1.832   6.511
 7233SOL    HW122598   0.434   1.833   6.437
 7233SOL    HW222599   0.389   1.904   6.577
 7234SOL     OW22600   5.505   4.490   2.992
 7234SOL    HW122601   5.542   4.423   2.927
 7234SOL    HW222602   5.410   4.467   3.012
 7235SOL     OW22603   6.800   0.292   0.870
 7235SOL    HW122604   6.733   0.241   0.923
 7235SOL    HW222605   6.773   0.388   0.866
 7236SOL     OW22606   0.619   3.773   2.604
 7236SOL    HW122607   0.565   3.772   2.519
 7236SOL    HW222608   0.563   3.738   2.679
 7237SOL     OW22609   4.998   1.139   0.176
 7237SOL    HW122610   4.956   1.159   0.264
 7237SOL    HW222611   5.098   1.138   0.185
 7238SOL     OW22612   4.696   3.330   0.218
 7238SOL    HW122613   4.610   3.377   0.201
 7238SOL    HW222614   4.695   3.240   0.174
 7239SOL     OW22615   5.813   2.951   1.958
 7239SOL    HW122616   5.849   2.942   1.865
 7239SOL    HW222617   5.880   2.916   2.024
 7240SOL     OW22618   0.657   1.876   0.468
 7240SOL    HW122619   0.685   1.871   0.564
 7240SOL    HW222620   0.563   1.910   0.463
 7241SOL     OW22621   2.025   0.490   2.950
 7241SOL    HW122622   2.092   0.438   3.003
 7241SOL    HW222623   1.951   0.429   2.921
 7242SOL     OW22624   6.226   3.653   6.061
 7242SOL    HW122625   6.232   3.613   6.152
 7242SOL    HW222626   6.197   3.748   6.069
 7243SOL     OW22627   6.053   4.706   6.262
 7243SOL    HW122628   6.093   4.796   6.244
 7243SOL    HW222629   5.961   4.716   6.298
 7244SOL     OW22630   6.727   6.159   0.089
 7244SOL    HW122631   6.763   6.102   0.014
 7244SOL    HW222632   6.802   6.213   0.128
 7245SOL     OW22633   2.012   2.675   0.066
 7245SOL    HW122634   1.959   2.653   7.001
 7245SOL    HW222635   1.965   2.639   0.146
 7246SOL     OW22636   4.895   6.978   4.532
 7246SOL    HW122637   4.979   6.923   4.528
 7246SOL    HW222638   4.903   0.029   4.605
 7247SOL     OW22639   3.267   4.141   4.680
 7247SOL    HW122640   3.344   4.095   4.636
 7247SOL    HW222641   3.184   4.127   4.625
 7248SOL     OW22642   2.019   1.776   5.012
 7248SOL    HW122643   2.111   1.744   4.987
 7248SOL    HW222644   1.958   1.765   4.934
 7249SOL     OW22645   3.331   5.469   2.813
 7249SOL    HW122646   3.392   5.487   2.891
 7249SOL    HW222647   3.362   5.522   2.734
 7250SOL     OW22648   5.154   5.954   5.533
 7250SOL    HW122649   5.111   6.043   5.550
 7250SOL    HW222650   5.167   5.941   5.435
 7251SOL     OW22651   0.515   5.719   4.193
 7251SOL    HW122652   0.562   5.632   4.181
 7251SOL    HW222653   0.531   5.777   4.112
 7252SOL     OW22654   3.816   3.762   1.884
 7252SOL    HW122655   3.753   3.693   1.921
 7252SOL    HW222656   3.846   3.823   1.958
 7253SOL     OW22657   1.329   5.213   5.603
 7253SOL    HW122658   1.291   5.299   5.570
 7253SOL    HW222659   1.424   5.227   5.632
 7254SOL     OW22660   0.105   3.509   3.829
 7254SOL    HW122661   0.137   3.417   3.852
 7254SOL    HW222662   0.179   3.574   3.847
 7255SOL     OW22663   4.797   3.743   0.530
 7255SOL    HW122664   4.730   3.748   0.456
 7255SOL    HW222665   4.792   3.653   0.574
 7256SOL     OW22666   3.010   6.899   4.479
 7256SOL    HW122667   3.000   6.831   4.552
 7256SOL    HW222668   3.024   6.853   4.392
 7257SOL     OW22669   0.623   1.422   5.354
 7257SOL    HW122670   0.604   1.520   5.354
 7257SOL    HW222671   0.691   1.400   5.424
 7258SOL     OW22672   6.352   2.288   2.903
 7258SOL    HW122673   6.375   2.234   2.984
 7258SOL    HW222674   6.392   2.380   2.912
 7259SOL     OW22675   1.194   4.041   2.280
 7259SOL    HW122676   1.186   4.141   2.285
 7259SOL    HW222677   1.213   4.005   2.371
 7260SOL     OW22678   6.044   3.038   0.869
 7260SOL    HW122679   6.028   3.105   0.941
 7260SOL    HW222680   6.128   2.987   0.888
 7261SOL     OW22681   0.294   4.121   0.122
 7261SOL    HW122682   0.220   4.065   0.159
 7261SOL    HW222683   0.375   4.065   0.108
 7262SOL     OW22684   3.290   0.174   5.210
 7262SOL    HW122685   3.383   0.207   5.194
 7262SOL    HW222686   3.249   0.223   5.287
 7263SOL     OW22687   6.090   5.834   5.315
 7263SOL    HW122688   6.024   5.822   5.241
 7263SOL    HW222689   6.091   5.752   5.373
 7264SOL     OW22690   5.320   1.305   1.089
 7264SOL    HW122691   5.292   1.294   0.993
 7264SOL    HW222692   5.353   1.217   1.124
 7265SOL     OW22693   3.552   0.263   5.762
 7265SOL    HW122694   3.484   0.336   5.769
 7265SOL    HW222695   3.642   0.298   5.787
 7266SOL     OW22696   6.710   0.674   3.215
 7266SOL    HW122697   6.798   0.632   3.237
 7266SOL    HW222698   6.693   0.749   3.279
 7267SOL     OW22699   0.072   3.881   5.471
 7267SOL    HW122700   0.133   3.937   5.415
 7267SOL    HW222701   0.093   3.784   5.455
 7268SOL     OW22702   5.525   6.056   3.887
 7268SOL    HW122703   5.555   5.961   3.883
 7268SOL    HW222704   5.527   6.088   3.981
 7269SOL     OW22705   3.010   5.520   4.255
 7269SOL    HW122706   2.938   5.452   4.243
 7269SOL    HW222707   3.097   5.482   4.225
 7270SOL     OW22708   0.438   1.065   4.495
 7270SOL    HW122709   0.452   1.160   4.466
 7270SOL    HW222710   0.522   1.031   4.538
 7271SOL     OW22711   0.695   4.662   2.942
 7271SOL    HW122712   0.703   4.747   2.994
 7271SOL    HW222713   0.667   4.682   2.848
 7272SOL     OW22714   6.392   4.105   1.662
 7272SOL    HW122715   6.332   4.151   1.728
 7272SOL    HW222716   6.358   4.012   1.646
 7273SOL     OW22717   6.721   1.084   4.785
 7273SOL    HW122718   6.748   1.064   4.691
 7273SOL    HW222719   6.798   1.127   4.833
 7274SOL     OW22720   0.495   5.451   6.302
 7274SOL    HW122721   0.479   5.457   6.401
 7274SOL    HW222722   0.450   5.369   6.266
 7275SOL     OW22723   0.706   4.903   3.040
 7275SOL    HW122724   0.741   4.898   3.134
 7275SOL    HW222725   0.744   4.982   2.994
 7276SOL     OW22726   5.112   6.488   3.271
 7276SOL    HW122727   5.149   6.405   3.228
 7276SOL    HW222728   5.176   6.520   3.342
 7277SOL     OW22729   4.888   0.800   0.454
 7277SOL    HW122730   4.859   0.814   0.360
 7277SOL    HW222731   4.944   0.717   0.459
 7278SOL     OW22732   3.747   2.912   2.551
 7278SOL    HW122733   3.826   2.972   2.537
 7278SOL    HW222734   3.706   2.889   2.463
 7279SOL     OW22735   3.585   6.287   6.215
 7279SOL    HW122736   3.671   6.333   6.241
 7279SOL    HW222737   3.566   6.214   6.280
 7280SOL     OW22738   4.548   0.513   6.072
 7280SOL    HW122739   4.579   0.481   5.983
 7280SOL    HW222740   4.554   0.438   6.138
 7281SOL     OW22741   5.746   0.911   6.253
 7281SOL    HW122742   5.804   0.836   6.220
 7281SOL    HW222743   5.657   0.905   6.208
 7282SOL     OW22744   6.102   5.807   2.910
 7282SOL    HW122745   6.042   5.759   2.847
 7282SOL    HW222746   6.047   5.854   2.979
 7283SOL     OW22747   2.217   1.611   3.585
 7283SOL    HW122748   2.170   1.669   3.519
 7283SOL    HW222749   2.278   1.666   3.641
 7284SOL     OW22750   1.444   1.527   4.550
 7284SOL    HW122751   1.471   1.466   4.625
 7284SOL    HW222752   1.358   1.495   4.510
 7285SOL     OW22753   5.889   5.435   1.903
 7285SOL    HW122754   5.923   5.412   1.812
 7285SOL    HW222755   5.884   5.352   1.958
 7286SOL     OW22756   1.605   4.397   0.544
 7286SOL    HW122757   1.531   4.460   0.567
 7286SOL    HW222758   1.655   4.373   0.627
 7287SOL     OW22759   6.354   1.931   6.089
 7287SOL    HW122760   6.313   1.842   6.071
 7287SOL    HW222761   6.344   1.990   6.009
 7288SOL     OW22762   2.743   0.333   6.953
 7288SOL    HW122763   2.699   0.246   6.930
 7288SOL    HW222764   2.768   0.333   0.033
 7289SOL     OW22765   4.545   2.096   3.534
 7289SOL    HW122766   4.486   2.173   3.508
 7289SOL    HW222767   4.616   2.128   3.597
 7290SOL     OW22768   2.879   5.762   4.143
 7290SOL    HW122769   2.947   5.833   4.153
 7290SOL    HW222770   2.913   5.677   4.183
 7291SOL     OW22771   3.500   5.185   1.199
 7291SOL    HW122772   3.504   5.273   1.151
 7291SOL    HW222773   3.592   5.143   1.199
 7292SOL     OW22774   3.534   0.443   4.628
 7292SOL    HW122775   3.556   0.448   4.531
 7292SOL    HW222776   3.558   0.529   4.673
 7293SOL     OW22777   2.265   1.142   6.286
 7293SOL    HW122778   2.168   1.154   6.309
 7293SOL    HW222779   2.320   1.163   6.366
 7294SOL     OW22780   5.825   5.275   6.470
 7294SOL    HW122781   5.879   5.196   6.498
 7294SOL    HW222782   5.868   5.319   6.391
 7295SOL     OW22783   4.692   6.975   1.550
 7295SOL    HW122784   4.667   0.001   1.463
 7295SOL    HW222785   4.770   6.915   1.536
 7296SOL     OW22786   4.076   4.945   0.889
 7296SOL    HW122787   4.046   4.934   0.984
 7296SOL    HW222788   4.134   4.868   0.863
 7297SOL     OW22789   4.837   6.622   2.349
 7297SOL    HW122790   4.761   6.667   2.396
 7297SOL    HW222791   4.839   6.526   2.374
 7298SOL     OW22792   6.266   3.111   4.047
 7298SOL    HW122793   6.236   3.201   4.080
 7298SOL    HW222794   6.342   3.079   4.104
 7299SOL     OW22795   5.624   3.341   6.765
 7299SOL    HW122796   5.712   3.312   6.802
 7299SOL    HW222797   5.581   3.264   6.718
 7300SOL     OW22798   4.671   5.331   1.296
 7300SOL    HW122799   4.748   5.269   1.312
 7300SOL    HW222800   4.658   5.388   1.377
 7301SOL     OW22801   6.868   1.068   6.513
 7301SOL    HW122802   6.879   1.155   6.467
 7301SOL    HW222803   6.771   1.042   6.513
 7302SOL     OW22804   6.486   0.780   6.135
 7302SOL    HW122805   6.523   0.719   6.205
 7302SOL    HW222806   6.390   0.801   6.157
 7303SOL     OW22807   4.352   0.560   0.888
 7303SOL    HW122808   4.342   0.651   0.927
 7303SOL    HW222809   4.438   0.519   0.919
 7304SOL     OW22810   3.786   3.150   4.863
 7304SOL    HW122811   3.711   3.201   4.906
 7304SOL    HW222812   3.778   3.054   4.887
 7305SOL     OW22813   5.777   2.468   6.984
 7305SOL    HW122814   5.777   2.369   6.996
 7305SOL    HW222815   5.732   2.492   6.898
 7306SOL     OW22816   5.138   5.065   1.781
 7306SOL    HW122817   5.056   5.012   1.761
 7306SOL    HW222818   5.136   5.094   1.877
 7307SOL     OW22819   4.089   6.364   2.175
 7307SOL    HW122820   4.060   6.430   2.244
 7307SOL    HW222821   4.023   6.364   2.100
 7308SOL     OW22822   5.823   0.645   4.255
 7308SOL    HW122823   5.833   0.737   4.292
 7308SOL    HW222824   5.746   0.642   4.192
 7309SOL     OW22825   4.356   4.755   1.062
 7309SOL    HW122826   4.276   4.711   1.103
 7309SOL    HW222827   4.377   4.712   0.974
 7310SOL     OW22828   2.340   5.906   1.856
 7310SOL    HW122829   2.425   5.959   1.857
 7310SOL    HW222830   2.350   5.828   1.918
 7311SOL     OW22831   3.028   2.100   2.046
 7311SOL    HW122832   2.976   2.016   2.038
 7311SOL    HW222833   2.985   2.172   1.991
 7312SOL     OW22834   0.156   2.504   6.371
 7312SOL    HW122835   0.059   2.491   6.391
 7312SOL    HW222836   0.209   2.431   6.414
 7313SOL     OW22837   3.394   2.271   6.184
 7313SOL    HW122838   3.453   2.347   6.156
 7313SOL    HW222839   3.325   2.305   6.249
 7314SOL     OW22840   0.873   1.884   4.622
 7314SOL    HW122841   0.784   1.906   4.583
 7314SOL    HW222842   0.868   1.797   4.671
 7315SOL     OW22843   0.195   1.027   6.059
 7315SOL    HW122844   0.155   0.996   5.973
 7315SOL    HW222845   0.238   0.950   6.106
 7316SOL     OW22846   4.079   3.451   4.063
 7316SOL    HW122847   4.075   3.456   4.163
 7316SOL    HW222848   4.078   3.356   4.035
 7317SOL     OW22849   2.877   0.666   4.031
 7317SOL    HW122850   2.779   0.656   4.051
 7317SOL    HW222851   2.929   0.651   4.115
 7318SOL     OW22852   1.261   1.143   1.399
 7318SOL    HW122853   1.222   1.131   1.490
 7318SOL    HW222854   1.355   1.177   1.406
 7319SOL     OW22855   6.998   4.352   6.060
 7319SOL    HW122856   0.025   4.270   6.025
 7319SOL    HW222857   0.000   4.361   6.158
 7320SOL     OW22858   0.710   1.649   2.272
 7320SOL    HW122859   0.717   1.696   2.359
 7320SOL    HW222860   0.622   1.669   2.229
 7321SOL     OW22861   3.012   1.151   4.284
 7321SOL    HW122862   3.002   1.056   4.253
 7321SOL    HW222863   3.078   1.198   4.227
 7322SOL     OW22864   1.164   3.481   1.525
 7322SOL    HW122865   1.217   3.408   1.482
 7322SOL    HW222866   1.215   3.566   1.522
 7323SOL     OW22867   2.304   4.245   3.086
 7323SOL    HW122868   2.343   4.183   3.154
 7323SOL    HW222869   2.330   4.339   3.107
 7324SOL     OW22870   5.030   5.032   3.767
 7324SOL    HW122871   4.940   5.074   3.777
 7324SOL    HW222872   5.079   5.075   3.691
 7325SOL     OW22873   2.900   6.190   0.873
 7325SOL    HW122874   2.892   6.253   0.951
 7325SOL    HW222875   2.905   6.096   0.907
 7326SOL     OW22876   2.575   0.845   4.102
 7326SOL    HW122877   2.603   0.750   4.118
 7326SOL    HW222878   2.493   0.865   4.155
 7327SOL     OW22879   1.120   3.232   5.779
 7327SOL    HW122880   1.159   3.194   5.695
 7327SOL    HW222881   1.190   3.239   5.849
 7328SOL     OW22882   2.335   6.971   0.001
 7328SOL    HW122883   2.342   6.914   0.082
 7328SOL    HW222884   2.393   6.934   6.945
 7329SOL     OW22885   4.598   3.704   1.693
 7329SOL    HW122886   4.514   3.756   1.674
 7329SOL    HW222887   4.587   3.610   1.660
 7330SOL     OW22888   3.881   2.152   0.878
 7330SOL    HW122889   3.896   2.186   0.971
 7330SOL    HW222890   3.908   2.223   0.812
 7331SOL     OW22891   5.462   1.784   1.558
 7331SOL    HW122892   5.435   1.690   1.538
 7331SOL    HW222893   5.396   1.847   1.517
 7332SOL     OW22894   3.830   6.620   0.394
 7332SOL    HW122895   3.838   6.536   0.446
 7332SOL    HW222896   3.824   6.698   0.456
 7333SOL     OW22897   0.404   4.666   2.244
 7333SOL    HW122898   0.429   4.761   2.225
 7333SOL    HW222899   0.471   4.605   2.201
 7334SOL     OW22900   2.907   0.368   4.579
 7334SOL    HW122901   2.996   0.398   4.544
 7334SOL    HW222902   2.902   0.268   4.577
 7335SOL     OW22903   1.784   3.184   2.957
 7335SOL    HW122904   1.734   3.250   2.900
 7335SOL    HW222905   1.842   3.127   2.898
 7336SOL     OW22906   1.539   6.524   4.238
 7336SOL    HW122907   1.478   6.563   4.170
 7336SOL    HW222908   1.596   6.597   4.276
 7337SOL     OW22909   5.154   2.573   1.368
 7337SOL    HW122910   5.213   2.633   1.314
 7337SOL    HW222911   5.083   2.533   1.310
 7338SOL     OW22912   6.980   3.515   0.246
 7338SOL    HW122913   0.006   3.502   0.335
 7338SOL    HW222914   0.032   3.517   0.175
 7339SOL     OW22915   1.597   5.972   4.862
 7339SOL    HW122916   1.630   5.937   4.774
 7339SOL    HW222917   1.672   6.018   4.909
 7340SOL     OW22918   2.734   6.874   6.606
 7340SOL    HW122919   2.813   6.836   6.558
 7340SOL    HW222920   2.684   6.935   6.544
 7341SOL     OW22921   6.086   2.036   0.569
 7341SOL    HW122922   5.987   2.030   0.583
 7341SOL    HW222923   6.111   1.984   0.487
 7342SOL     OW22924   0.272   6.384   2.021
 7342SOL    HW122925   0.212   6.307   2.046
 7342SOL    HW222926   0.217   6.467   2.013
 7343SOL     OW22927   6.310   2.697   0.403
 7343SOL    HW122928   6.285   2.744   0.488
 7343SOL    HW222929   6.235   2.636   0.376
 7344SOL     OW22930   2.492   6.937   5.944
 7344SOL    HW122931   2.422   6.982   5.999
 7344SOL    HW222932   2.566   6.906   6.004
 7345SOL     OW22933   3.856   5.674   6.297
 7345SOL    HW122934   3.890   5.589   6.259
 7345SOL    HW222935   3.929   5.742   6.300
 7346SOL     OW22936   4.091   4.978   2.204
 7346SOL    HW122937   4.137   5.053   2.251
 7346SOL    HW222938   4.026   5.016   2.138
 7347SOL     OW22939   5.458   1.021   6.845
 7347SOL    HW122940   5.399   0.986   6.918
 7347SOL    HW222941   5.551   0.986   6.858
 7348SOL     OW22942   0.617   5.686   0.281
 7348SOL    HW122943   0.714   5.703   0.292
 7348SOL    HW222944   0.590   5.606   0.336
 7349SOL     OW22945   4.207   1.299   1.430
 7349SOL    HW122946   4.232   1.216   1.381
 7349SOL    HW222947   4.261   1.376   1.398
 7350SOL     OW22948   4.014   0.811   4.651
 7350SOL    HW122949   3.956   0.850   4.579
 7350SOL    HW222950   4.040   0.884   4.715
 7351SOL     OW22951   2.151   4.472   4.597
 7351SOL    HW122952   2.222   4.406   4.621
 7351SOL    HW222953   2.077   4.466   4.664
 7352SOL     OW22954   5.844   3.227   4.356
 7352SOL    HW122955   5.900   3.156   4.313
 7352SOL    HW222956   5.879   3.246   4.447
 7353SOL     OW22957   6.546   1.663   5.355
 7353SOL    HW122958   6.573   1.760   5.353
 7353SOL    HW222959   6.449   1.656   5.380
 7354SOL     OW22960   1.058   1.787   2.590
 7354SOL    HW122961   1.098   1.847   2.660
 7354SOL    HW222962   1.106   1.699   2.592
 7355SOL     OW22963   3.217   1.891   0.453
 7355SOL    HW122964   3.124   1.916   0.481
 7355SOL    HW222965   3.231   1.793   0.470
 7356SOL     OW22966   3.980   4.426   5.991
 7356SOL    HW122967   3.928   4.342   6.004
 7356SOL    HW222968   3.941   4.478   5.915
 7357SOL     OW22969   4.205   6.381   1.813
 7357SOL    HW122970   4.138   6.329   1.760
 7357SOL    HW222971   4.217   6.338   1.902
 7358SOL     OW22972   4.562   6.782   3.134
 7358SOL    HW122973   4.562   6.686   3.161
 7358SOL    HW222974   4.580   6.839   3.215
 7359SOL     OW22975   3.840   0.377   2.086
 7359SOL    HW122976   3.861   0.432   2.167
 7359SOL    HW222977   3.781   0.301   2.111
 7360SOL     OW22978   2.728   3.649   6.097
 7360SOL    HW122979   2.724   3.698   6.011
 7360SOL    HW222980   2.792   3.572   6.089
 7361SOL     OW22981   6.246   0.724   3.213
 7361SOL    HW122982   6.327   0.769   3.176
 7361SOL    HW222983   6.169   0.739   3.152
 7362SOL     OW22984   3.486   5.888   0.358
 7362SOL    HW122985   3.463   5.901   0.454
 7362SOL    HW222986   3.461   5.795   0.330
 7363SOL     OW22987   4.614   0.537   1.039
 7363SOL    HW122988   4.685   0.467   1.035
 7363SOL    HW222989   4.648   0.622   0.998
 7364SOL     OW22990   5.729   6.345   1.959
 7364SOL    HW122991   5.820   6.303   1.960
 7364SOL    HW222992   5.725   6.418   2.028
 7365SOL     OW22993   4.860   2.977   2.469
 7365SOL    HW122994   4.842   2.927   2.384
 7365SOL    HW222995   4.840   2.918   2.547
 7366SOL     OW22996   2.490   0.004   3.390
 7366SOL    HW122997   2.424   6.949   3.410
 7366SOL    HW222998   2.577   6.980   3.361
 7367SOL     OW22999   4.480   1.211   6.871
 7367SOL    HW123000   4.395   1.258   6.848
 7367SOL    HW223001   4.558   1.268   6.843
 7368SOL     OW23002   3.137   4.044   3.032
 7368SOL    HW123003   3.161   4.138   3.010
 7368SOL    HW223004   3.210   4.003   3.087
 7369SOL     OW23005   5.760   3.542   0.107
 7369SOL    HW123006   5.781   3.638   0.125
 7369SOL    HW223007   5.678   3.535   0.050
 7370SOL     OW23008   1.899   0.920   4.093
 7370SOL    HW123009   1.925   0.879   4.180
 7370SOL    HW223010   1.843   1.002   4.109
 7371SOL     OW23011   3.785   0.616   3.484
 7371SOL    HW123012   3.697   0.588   3.445
 7371SOL    HW223013   3.820   0.696   3.436
 7372SOL     OW23014   4.583   1.246   5.440
 7372SOL    HW123015   4.671   1.214   5.477
 7372SOL    HW223016   4.534   1.297   5.510
 7373SOL     OW23017   6.451   2.968   3.852
 7373SOL    HW123018   6.397   3.022   3.787
 7373SOL    HW223019   6.480   3.027   3.927
 7374SOL     OW23020   0.364   2.904   6.542
 7374SOL    HW123021   0.447   2.905   6.485
 7374SOL    HW223022   0.388   2.877   6.635
 7375SOL     OW23023   2.306   2.871   0.881
 7375SOL    HW123024   2.218   2.827   0.869
 7375SOL    HW223025   2.303   2.930   0.962
 7376SOL     OW23026   6.770   5.332   0.592
 7376SOL    HW123027   6.867   5.343   0.572
 7376SOL    HW223028   6.742   5.238   0.574
 7377SOL     OW23029   2.479   5.823   1.263
 7377SOL    HW123030   2.379   5.822   1.263
 7377SOL    HW223031   2.512   5.900   1.210
 7378SOL     OW23032   2.089   5.109   5.916
 7378SOL    HW123033   2.078   5.175   5.841
 7378SOL    HW223034   2.145   5.033   5.885
 7379SOL     OW23035   5.395   2.579   2.189
 7379SOL    HW123036   5.440   2.508   2.135
 7379SOL    HW223037   5.399   2.666   2.141
 7380SOL     OW23038   5.046   3.549   1.748
 7380SOL    HW123039   5.074   3.478   1.814
 7380SOL    HW223040   4.950   3.572   1.763
 7381SOL     OW23041   3.643   6.775   1.840
 7381SOL    HW123042   3.742   6.778   1.826
 7381SOL    HW223043   3.606   6.868   1.833
 7382SOL     OW23044   0.330   2.463   6.770
 7382SOL    HW123045   0.287   2.424   6.688
 7382SOL    HW223046   0.421   2.424   6.781
 7383SOL     OW23047   2.321   6.742   1.209
 7383SOL    HW123048   2.336   6.643   1.210
 7383SOL    HW223049   2.328   6.778   1.302
 7384SOL     OW23050   6.721   7.016   6.971
 7384SOL    HW123051   6.713   6.924   7.009
 7384SOL    HW223052   6.769   0.058   0.019
 7385SOL     OW23053   6.399   4.548   3.072
 7385SOL    HW123054   6.353   4.557   3.160
 7385SOL    HW223055   6.368   4.463   3.028
 7386SOL     OW23056   6.145   4.576   0.270
 7386SOL    HW123057   6.227   4.622   0.234
 7386SOL    HW223058   6.166   4.481   0.290
 7387SOL     OW23059   6.812   5.802   4.222
 7387SOL    HW123060   6.880   5.738   4.186
 7387SOL    HW223061   6.843   5.837   4.311
 7388SOL     OW23062   2.309   4.234   2.403
 7388SOL    HW123063   2.317   4.167   2.330
 7388SOL    HW223064   2.364   4.315   2.381
 7389SOL     OW23065   6.521   2.790   0.768
 7389SOL    HW123066   6.544   2.786   0.865
 7389SOL    HW223067   6.528   2.699   0.728
 7390SOL     OW23068   3.836   2.163   4.055
 7390SOL    HW123069   3.741   2.137   4.077
 7390SOL    HW223070   3.898   2.090   4.085
 7391SOL     OW23071   3.710   3.880   3.107
 7391SOL    HW123072   3.787   3.825   3.073
 7391SOL    HW223073   3.745   3.966   3.145
 7392SOL     OW23074   3.238   5.943   0.820
 7392SOL    HW123075   3.314   6.003   0.795
 7392SOL    HW223076   3.156   5.998   0.835
 7393SOL     OW23077   5.021   5.128   3.325
 7393SOL    HW123078   4.944   5.192   3.317
 7393SOL    HW223079   4.988   5.041   3.363
 7394SOL     OW23080   1.814   2.217   6.191
 7394SOL    HW123081   1.823   2.200   6.093
 7394SOL    HW223082   1.722   2.191   6.220
 7395SOL     OW23083   2.766   6.065   1.257
 7395SOL    HW123084   2.743   6.024   1.345
 7395SOL    HW223085   2.860   6.100   1.261
 7396SOL     OW23086   1.270   5.276   2.274
 7396SOL    HW123087   1.222   5.348   2.225
 7396SOL    HW223088   1.255   5.188   2.229
 7397SOL     OW23089   5.984   4.837   4.030
 7397SOL    HW123090   6.076   4.831   4.068
 7397SOL    HW223091   5.917   4.807   4.098
 7398SOL     OW23092   3.336   5.096   2.262
 7398SOL    HW123093   3.274   5.019   2.280
 7398SOL    HW223094   3.400   5.071   2.189
 7399SOL     OW23095   6.159   1.909   5.252
 7399SOL    HW123096   6.069   1.952   5.260
 7399SOL    HW223097   6.219   1.943   5.323
 7400SOL     OW23098   3.787   3.393   5.289
 7400SOL    HW123099   3.749   3.467   5.344
 7400SOL    HW223100   3.870   3.424   5.242
 7401SOL     OW23101   1.658   2.587   3.548
 7401SOL    HW123102   1.594   2.528   3.598
 7401SOL    HW223103   1.629   2.683   3.559
 7402SOL     OW23104   3.526   5.286   4.159
 7402SOL    HW123105   3.609   5.237   4.135
 7402SOL    HW223106   3.547   5.356   4.227
 7403SOL     OW23107   1.760   4.767   4.331
 7403SOL    HW123108   1.786   4.717   4.248
 7403SOL    HW223109   1.678   4.727   4.370
 7404SOL     OW23110   1.921   3.471   0.919
 7404SOL    HW123111   1.842   3.482   0.858
 7404SOL    HW223112   1.892   3.429   1.005
 7405SOL     OW23113   3.502   6.494   6.022
 7405SOL    HW123114   3.518   6.471   5.926
 7405SOL    HW223115   3.535   6.419   6.080
 7406SOL     OW23116   0.410   2.596   4.450
 7406SOL    HW123117   0.453   2.564   4.534
 7406SOL    HW223118   0.480   2.623   4.384
 7407SOL     OW23119   1.235   6.395   4.416
 7407SOL    HW123120   1.234   6.333   4.494
 7407SOL    HW223121   1.317   6.380   4.362
 7408SOL     OW23122   4.115   5.307   5.696
 7408SOL    HW123123   4.040   5.341   5.640
 7408SOL    HW223124   4.086   5.301   5.791
 7409SOL     OW23125   6.482   5.253   1.676
 7409SOL    HW123126   6.535   5.324   1.721
 7409SOL    HW223127   6.409   5.294   1.622
 7410SOL     OW23128   6.140   0.979   0.905
 7410SOL    HW123129   6.166   0.902   0.847
 7410SOL    HW223130   6.223   1.027   0.936
 7411SOL     OW23131   3.962   1.860   5.145
 7411SOL    HW123132   3.954   1.831   5.050
 7411SOL    HW223133   3.885   1.919   5.169
 7412SOL     OW23134   4.265   6.636   6.818
 7412SOL    HW123135   4.317   6.561   6.859
 7412SOL    HW223136   4.185   6.655   6.874
 7413SOL     OW23137   5.270   0.846   3.638
 7413SOL    HW123138   5.175   0.827   3.614
 7413SOL    HW223139   5.331   0.793   3.579
 7414SOL     OW23140   2.741   0.898   4.347
 7414SOL    HW123141   2.678   0.905   4.270
 7414SOL    HW223142   2.690   0.884   4.432
 7415SOL     OW23143   4.233   0.928   6.243
 7415SOL    HW123144   4.289   1.010   6.257
 7415SOL    HW223145   4.136   0.955   6.242
 7416SOL     OW23146   0.879   0.271   1.875
 7416SOL    HW123147   0.918   0.337   1.811
 7416SOL    HW223148   0.892   0.178   1.839
 7417SOL     OW23149   0.676   0.388   2.269
 7417SOL    HW123150   0.775   0.396   2.259
 7417SOL    HW223151   0.635   0.372   2.179
 7418SOL     OW23152   1.616   3.649   6.268
 7418SOL    HW123153   1.711   3.647   6.235
 7418SOL    HW223154   1.554   3.650   6.190
 7419SOL     OW23155   6.589   2.745   4.592
 7419SOL    HW123156   6.566   2.698   4.506
 7419SOL    HW223157   6.640   2.682   4.651
 7420SOL     OW23158   0.104   6.791   0.804
 7420SOL    HW123159   0.024   6.804   0.862
 7420SOL    HW223160   0.172   6.861   0.824
 7421SOL     OW23161   6.300   3.682   1.259
 7421SOL    HW123162   6.384   3.710   1.305
 7421SOL    HW223163   6.309   3.699   1.160
 7422SOL     OW23164   5.747   3.561   1.633
 7422SOL    HW123165   5.656   3.575   1.595
 7422SOL    HW223166   5.763   3.464   1.647
 7423SOL     OW23167   4.210   2.532   5.570
 7423SOL    HW123168   4.288   2.530   5.633
 7423SOL    HW223169   4.126   2.547   5.622
 7424SOL     OW23170   0.481   1.756   3.810
 7424SOL    HW123171   0.562   1.812   3.825
 7424SOL    HW223172   0.456   1.710   3.895
 7425SOL     OW23173   5.674   0.229   1.199
 7425SOL    HW123174   5.744   0.198   1.136
 7425SOL    HW223175   5.625   0.307   1.160
 7426SOL     OW23176   3.515   3.407   5.420
 7426SOL    HW123177   3.459   3.444   5.346
 7426SOL    HW223178   3.525   3.308   5.409
 7427SOL     OW23179   3.042   0.754   1.991
 7427SOL    HW123180   3.004   0.839   2.027
 7427SOL    HW223181   3.048   0.686   2.065
 7428SOL     OW23182   1.862   6.915   5.136
 7428SOL    HW123183   1.846   6.907   5.037
 7428SOL    HW223184   1.868   7.012   5.160
 7429SOL     OW23185   0.888   1.002   2.235
 7429SOL    HW123186   0.919   0.943   2.160
 7429SOL    HW223187   0.788   0.999   2.240
 7430SOL     OW23188   6.632   4.444   2.796
 7430SOL    HW123189   6.678   4.527   2.765
 7430SOL    HW223190   6.553   4.425   2.737
 7431SOL     OW23191   0.980   2.201   4.468
 7431SOL    HW123192   1.052   2.134   4.486
 7431SOL    HW223193   0.891   2.156   4.471
 7432SOL     OW23194   1.831   1.092   3.132
 7432SOL    HW123195   1.740   1.123   3.160
 7432SOL    HW223196   1.900   1.152   3.171
 7433SOL     OW23197   3.588   0.142   6.597
 7433SOL    HW123198   3.530   0.196   6.659
 7433SOL    HW223199   3.682   0.140   6.633
 7434SOL     OW23200   4.169   0.249   3.805
 7434SOL    HW123201   4.167   0.348   3.797
 7434SOL    HW223202   4.196   0.224   3.898
 7435SOL     OW23203   5.077   4.523   3.107
 7435SOL    HW123204   5.081   4.612   3.061
 7435SOL    HW223205   5.021   4.460   3.054
 7436SOL     OW23206   4.380   2.744   5.906
 7436SOL    HW123207   4.450   2.803   5.865
 7436SOL    HW223208   4.297   2.796   5.924
 7437SOL     OW23209   3.599   0.451   1.350
 7437SOL    HW123210   3.635   0.477   1.440
 7437SOL    HW223211   3.506   0.485   1.340
 7438SOL     OW23212   1.776   0.555   6.773
 7438SOL    HW123213   1.869   0.584   6.797
 7438SOL    HW223214   1.722   0.543   6.856
 7439SOL     OW23215   1.675   4.500   6.298
 7439SOL    HW123216   1.648   4.568   6.366
 7439SOL    HW223217   1.640   4.527   6.208
 7440SOL     OW23218   5.542   2.854   4.110
 7440SOL    HW123219   5.587   2.910   4.040
 7440SOL    HW223220   5.499   2.914   4.177
 7441SOL     OW23221   4.085   6.594   0.562
 7441SOL    HW123222   4.033   6.672   0.526
 7441SOL    HW223223   4.181   6.621   0.573
 7442SOL     OW23224   6.283   1.155   6.044
 7442SOL    HW123225   6.236   1.176   6.129
 7442SOL    HW223226   6.255   1.219   5.973
 7443SOL     OW23227   0.532   6.652   1.041
 7443SOL    HW123228   0.513   6.555   1.032
 7443SOL    HW223229   0.464   6.694   1.101
 7444SOL     OW23230   1.499   5.556   6.716
 7444SOL    HW123231   1.423   5.542   6.653
 7444SOL    HW223232   1.585   5.552   6.665
 7445SOL     OW23233   3.135   5.765   2.489
 7445SOL    HW123234   3.161   5.850   2.443
 7445SOL    HW223235   3.210   5.733   2.546
 7446SOL     OW23236   6.547   5.081   0.582
 7446SOL    HW123237   6.520   5.172   0.551
 7446SOL    HW223238   6.474   5.016   0.562
 7447SOL     OW23239   1.055   5.549   0.461
 7447SOL    HW123240   1.141   5.601   0.465
 7447SOL    HW223241   1.072   5.460   0.418
 7448SOL     OW23242   4.590   4.924   6.893
 7448SOL    HW123243   4.662   4.948   6.828
 7448SOL    HW223244   4.527   4.859   6.850
 7449SOL     OW23245   6.704   4.135   6.690
 7449SOL    HW123246   6.639   4.070   6.729
 7449SOL    HW223247   6.796   4.114   6.725
 7450SOL     OW23248   5.590   3.070   0.542
 7450SOL    HW123249   5.623   2.991   0.594
 7450SOL    HW223250   5.495   3.056   0.515
 7451SOL     OW23251   4.681   4.710   2.991
 7451SOL    HW123252   4.687   4.681   2.896
 7451SOL    HW223253   4.596   4.677   3.031
 7452SOL     OW23254   6.663   5.823   6.595
 7452SOL    HW123255   6.563   5.833   6.597
 7452SOL    HW223256   6.696   5.834   6.502
 7453SOL     OW23257   4.434   5.280   6.155
 7453SOL    HW123258   4.354   5.273   6.216
 7453SOL    HW223259   4.507   5.330   6.202
 7454SOL     OW23260   3.943   1.878   0.963
 7454SOL    HW123261   3.948   1.886   1.062
 7454SOL    HW223262   3.939   1.969   0.922
 7455SOL     OW23263   6.481   0.129   3.159
 7455SOL    HW123264   6.527   0.192   3.221
 7455SOL    HW223265   6.498   0.035   3.189
 7456SOL     OW23266   3.001   1.474   5.595
 7456SOL    HW123267   3.025   1.401   5.659
 7456SOL    HW223268   2.968   1.554   5.645
 7457SOL     OW23269   1.274   1.565   2.374
 7457SOL    HW123270   1.313   1.479   2.343
 7457SOL    HW223271   1.229   1.552   2.462
 7458SOL     OW23272   0.246   5.823   5.162
 7458SOL    HW123273   0.147   5.836   5.155
 7458SOL    HW223274   0.273   5.742   5.110
 7459SOL     OW23275   5.675   6.879   3.323
 7459SOL    HW123276   5.697   6.789   3.360
 7459SOL    HW223277   5.710   6.888   3.230
 7460SOL     OW23278   0.572   0.206   0.912
 7460SOL    HW123279   0.668   0.211   0.941
 7460SOL    HW223280   0.527   0.131   0.960
 7461SOL     OW23281   1.725   4.069   4.853
 7461SOL    HW123282   1.800   4.082   4.919
 7461SOL    HW223283   1.745   3.989   4.796
 7462SOL     OW23284   1.929   4.891   6.736
 7462SOL    HW123285   1.963   4.801   6.708
 7462SOL    HW223286   1.902   4.889   6.832
 7463SOL     OW23287   4.865   5.139   1.255
 7463SOL    HW123288   4.874   5.040   1.250
 7463SOL    HW223289   4.832   5.174   1.167
 7464SOL     OW23290   5.397   4.816   5.175
 7464SOL    HW123291   5.419   4.718   5.180
 7464SOL    HW223292   5.418   4.859   5.263
 7465SOL     OW23293   1.340   3.965   6.916
 7465SOL    HW123294   1.318   4.054   6.875
 7465SOL    HW223295   1.430   3.935   6.884
 7466SOL     OW23296   0.382   0.169   5.372
 7466SOL    HW123297   0.424   0.084   5.404
 7466SOL    HW223298   0.367   0.230   5.449
 7467SOL     OW23299   0.678   3.546   4.207
 7467SOL    HW123300   0.693   3.525   4.303
 7467SOL    HW223301   0.759   3.522   4.154
 7468SOL     OW23302   5.737   2.560   4.593
 7468SOL    HW123303   5.743   2.631   4.523
 7468SOL    HW223304   5.813   2.569   4.657
 7469SOL     OW23305   0.248   2.193   0.410
 7469SOL    HW123306   0.220   2.193   0.506
 7469SOL    HW223307   0.218   2.277   0.366
 7470SOL     OW23308   5.010   2.910   3.625
 7470SOL    HW123309   4.960   2.873   3.547
 7470SOL    HW223310   5.073   2.841   3.660
 7471SOL     OW23311   3.264   6.506   6.187
 7471SOL    HW123312   3.288   6.565   6.265
 7471SOL    HW223313   3.348   6.480   6.139
 7472SOL     OW23314   0.006   0.149   5.493
 7472SOL    HW123315   0.030   0.239   5.530
 7472SOL    HW223316   0.013   0.152   5.393
 7473SOL     OW23317   4.030   5.952   3.554
 7473SOL    HW123318   4.000   6.029   3.498
 7473SOL    HW223319   4.126   5.966   3.581
 7474SOL     OW23320   6.300   2.363   0.571
 7474SOL    HW123321   6.301   2.286   0.635
 7474SOL    HW223322   6.210   2.406   0.573
 7475SOL     OW23323   5.024   2.411   0.766
 7475SOL    HW123324   4.987   2.328   0.808
 7475SOL    HW223325   4.971   2.490   0.796
 7476SOL     OW23326   2.463   1.405   2.736
 7476SOL    HW123327   2.481   1.341   2.810
 7476SOL    HW223328   2.535   1.475   2.735
 7477SOL     OW23329   2.464   3.536   5.839
 7477SOL    HW123330   2.452   3.563   5.743
 7477SOL    HW223331   2.551   3.488   5.849
 7478SOL     OW23332   0.588   2.672   6.322
 7478SOL    HW123333   0.556   2.646   6.231
 7478SOL    HW223334   0.567   2.598   6.387
 7479SOL     OW23335   5.330   3.018   1.473
 7479SOL    HW123336   5.238   2.983   1.493
 7479SOL    HW223337   5.398   2.950   1.500
 7480SOL     OW23338   3.579   6.016   2.456
 7480SOL    HW123339   3.607   6.037   2.362
 7480SOL    HW223340   3.645   6.056   2.520
 7481SOL     OW23341   0.054   3.825   6.911
 7481SOL    HW123342   0.152   3.840   6.918
 7481SOL    HW223343   0.020   3.785   6.996
 7482SOL     OW23344   4.547   2.004   4.550
 7482SOL    HW123345   4.571   2.059   4.630
 7482SOL    HW223346   4.543   2.063   4.469
 7483SOL     OW23347   5.434   1.338   5.769
 7483SOL    HW123348   5.414   1.346   5.671
 7483SOL    HW223349   5.510   1.399   5.792
 7484SOL     OW23350   2.263   0.776   4.643
 7484SOL    HW123351   2.170   0.812   4.631
 7484SOL    HW223352   2.312   0.782   4.556
 7485SOL     OW23353   4.169   0.106   6.566
 7485SOL    HW123354   4.237   0.049   6.612
 7485SOL    HW223355   4.147   0.185   6.623
 7486SOL     OW23356   4.109   6.455   1.477
 7486SOL    HW123357   4.158   6.368   1.483
 7486SOL    HW223358   4.086   6.474   1.382
 7487SOL     OW23359   3.210   6.165   4.307
 7487SOL    HW123360   3.272   6.242   4.318
 7487SOL    HW223361   3.194   6.122   4.396
 7488SOL     OW23362   1.469   6.192   4.028
 7488SOL    HW123363   1.504   6.212   4.119
 7488SOL    HW223364   1.384   6.140   4.035
 7489SOL     OW23365   4.803   3.088   6.131
 7489SOL    HW123366   4.850   3.012   6.175
 7489SOL    HW223367   4.859   3.125   6.057
 7490SOL     OW23368   1.934   2.387   1.626
 7490SOL    HW123369   2.027   2.420   1.608
 7490SOL    HW223370   1.917   2.305   1.572
 7491SOL     OW23371   4.625   4.053   6.495
 7491SOL    HW123372   4.559   3.983   6.522
 7491SOL    HW223373   4.577   4.137   6.468
 7492SOL     OW23374   1.633   0.695   3.592
 7492SOL    HW123375   1.702   0.766   3.601
 7492SOL    HW223376   1.542   0.734   3.610
 7493SOL     OW23377   6.053   4.926   4.443
 7493SOL    HW123378   6.059   4.827   4.449
 7493SOL    HW223379   6.140   4.962   4.411
 7494SOL     OW23380   6.215   1.153   2.166
 7494SOL    HW123381   6.192   1.169   2.262
 7494SOL    HW223382   6.224   1.055   2.150
 7495SOL     OW23383   1.347   3.449   4.367
 7495SOL    HW123384   1.408   3.446   4.446
 7495SOL    HW223385   1.392   3.407   4.288
 7496SOL     OW23386   6.182   2.838   3.393
 7496SOL    HW123387   6.113   2.775   3.426
 7496SOL    HW223388   6.205   2.816   3.298
 7497SOL     OW23389   6.435   0.262   1.570
 7497SOL    HW123390   6.511   0.220   1.619
 7497SOL    HW223391   6.353   0.257   1.627
 7498SOL     OW23392   2.160   6.462   3.292
 7498SOL    HW123393   2.107   6.547   3.292
 7498SOL    HW223394   2.105   6.389   3.333
 7499SOL     OW23395   3.020   1.511   3.586
 7499SOL    HW123396   3.112   1.551   3.576
 7499SOL    HW223397   2.994   1.468   3.500
 7500SOL     OW23398   3.552   1.287   4.649
 7500SOL    HW123399   3.478   1.253   4.707
 7500SOL    HW223400   3.530   1.270   4.553
 7501SOL     OW23401   6.056   2.013   3.605
 7501SOL    HW123402   6.048   2.113   3.606
 7501SOL    HW223403   6.002   1.975   3.680
 7502SOL     OW23404   3.733   1.012   3.607
 7502SOL    HW123405   3.742   0.960   3.521
 7502SOL    HW223406   3.638   1.008   3.638
 7503SOL     OW23407   1.423   5.880   0.922
 7503SOL    HW123408   1.430   5.795   0.869
 7503SOL    HW223409   1.343   5.876   0.982
 7504SOL     OW23410   5.609   5.944   4.350
 7504SOL    HW123411   5.550   5.955   4.270
 7504SOL    HW223412   5.595   6.020   4.413
 7505SOL     OW23413   0.704   6.389   5.894
 7505SOL    HW123414   0.638   6.319   5.920
 7505SOL    HW223415   0.657   6.474   5.872
 7506SOL     OW23416   3.710   1.917   4.383
 7506SOL    HW123417   3.660   1.950   4.464
 7506SOL    HW223418   3.782   1.982   4.359
 7507SOL     OW23419   6.905   3.734   6.405
 7507SOL    HW123420   6.834   3.768   6.343
 7507SOL    HW223421   6.954   3.811   6.446
 7508SOL     OW23422   3.460   6.457   0.319
 7508SOL    HW123423   3.362   6.454   0.337
 7508SOL    HW223424   3.501   6.369   0.341
 7509SOL     OW23425   5.784   4.105   2.916
 7509SOL    HW123426   5.755   4.035   2.982
 7509SOL    HW223427   5.841   4.063   2.845
 7510SOL     OW23428   3.486   4.602   1.046
 7510SOL    HW123429   3.426   4.676   1.018
 7510SOL    HW223430   3.474   4.585   1.144
 7511SOL     OW23431   4.706   5.953   3.634
 7511SOL    HW123432   4.763   5.978   3.556
 7511SOL    HW223433   4.610   5.967   3.611
 7512SOL     OW23434   4.106   6.488   1.186
 7512SOL    HW123435   4.187   6.493   1.128
 7512SOL    HW223436   4.049   6.411   1.156
 7513SOL     OW23437   0.681   0.299   2.531
 7513SOL    HW123438   0.752   0.230   2.545
 7513SOL    HW223439   0.663   0.309   2.433
 7514SOL     OW23440   0.157   0.274   0.729
 7514SOL    HW123441   0.205   0.200   0.775
 7514SOL    HW223442   0.150   0.254   0.631
 7515SOL     OW23443   6.917   4.905   4.859
 7515SOL    HW123444   6.873   4.820   4.829
 7515SOL    HW223445   6.848   4.972   4.883
 7516SOL     OW23446   2.173   5.978   5.034
 7516SOL    HW123447   2.161   5.933   4.946
 7516SOL    HW223448   2.092   5.963   5.091
 7517SOL     OW23449   0.470   2.415   0.370
 7517SOL    HW123450   0.438   2.487   0.309
 7517SOL    HW223451   0.467   2.327   0.322
 7518SOL     OW23452   4.133   2.171   4.428
 7518SOL    HW123453   4.213   2.229   4.442
 7518SOL    HW223454   4.076   2.172   4.510
 7519SOL     OW23455   3.445   6.634   5.101
 7519SOL    HW123456   3.414   6.727   5.082
 7519SOL    HW223457   3.438   6.616   5.200
 7520SOL     OW23458   2.026   0.812   1.161
 7520SOL    HW123459   1.997   0.825   1.067
 7520SOL    HW223460   2.009   0.717   1.189
 7521SOL     OW23461   4.148   1.718   5.593
 7521SOL    HW123462   4.218   1.649   5.573
 7521SOL    HW223463   4.181   1.807   5.562
 7522SOL     OW23464   1.919   6.761   4.122
 7522SOL    HW123465   1.987   6.695   4.155
 7522SOL    HW223466   1.869   6.721   4.045
 7523SOL     OW23467   5.628   1.697   6.914
 7523SOL    HW123468   5.578   1.783   6.906
 7523SOL    HW223469   5.726   1.714   6.906
 7524SOL     OW23470   0.499   3.763   5.001
 7524SOL    HW123471   0.469   3.852   4.968
 7524SOL    HW223472   0.585   3.737   4.956
 7525SOL     OW23473   1.908   4.704   5.489
 7525SOL    HW123474   1.896   4.622   5.432
 7525SOL    HW223475   2.006   4.715   5.509
 7526SOL     OW23476   1.382   4.519   0.614
 7526SOL    HW123477   1.285   4.518   0.589
 7526SOL    HW223478   1.392   4.557   0.706
 7527SOL     OW23479   2.788   5.443   2.199
 7527SOL    HW123480   2.887   5.439   2.185
 7527SOL    HW223481   2.768   5.450   2.296
 7528SOL     OW23482   6.343   2.557   6.787
 7528SOL    HW123483   6.268   2.516   6.734
 7528SOL    HW223484   6.307   2.632   6.842
 7529SOL     OW23485   5.886   3.207   4.626
 7529SOL    HW123486   5.916   3.113   4.612
 7529SOL    HW223487   5.817   3.210   4.699
 7530SOL     OW23488   1.260   2.432   3.186
 7530SOL    HW123489   1.341   2.486   3.162
 7530SOL    HW223490   1.253   2.425   3.286
 7531SOL     OW23491   4.091   1.967   3.908
 7531SOL    HW123492   4.008   1.947   3.960
 7531SOL    HW223493   4.078   1.941   3.812
 7532SOL     OW23494   4.626   4.960   6.438
 7532SOL    HW123495   4.568   4.933   6.361
 7532SOL    HW223496   4.717   4.922   6.426
 7533SOL     OW23497   4.482   4.930   1.553
 7533SOL    HW123498   4.477   4.921   1.454
 7533SOL    HW223499   4.473   4.840   1.595
 7534SOL     OW23500   4.523   6.291   5.288
 7534SOL    HW123501   4.499   6.350   5.366
 7534SOL    HW223502   4.442   6.238   5.261
 7535SOL     OW23503   0.459   6.937   4.407
 7535SOL    HW123504   0.385   6.980   4.459
 7535SOL    HW223505   0.449   6.838   4.409
 7536SOL     OW23506   6.116   6.895   2.755
 7536SOL    HW123507   6.170   6.940   2.827
 7536SOL    HW223508   6.083   6.807   2.789
 7537SOL     OW23509   2.201   0.378   2.438
 7537SOL    HW123510   2.118   0.342   2.481
 7537SOL    HW223511   2.256   0.303   2.403
 7538SOL     OW23512   0.168   4.943   6.956
 7538SOL    HW123513   0.185   4.866   6.894
 7538SOL    HW223514   0.133   4.909   0.026
 7539SOL     OW23515   6.336   0.400   4.894
 7539SOL    HW123516   6.409   0.373   4.831
 7539SOL    HW223517   6.281   0.472   4.852
 7540SOL     OW23518   4.995   3.807   3.538
 7540SOL    HW123519   4.909   3.819   3.587
 7540SOL    HW223520   5.040   3.723   3.570
 7541SOL     OW23521   2.281   4.215   0.177
 7541SOL    HW123522   2.273   4.297   0.233
 7541SOL    HW223523   2.352   4.228   0.108
 7542SOL     OW23524   6.176   5.949   4.778
 7542SOL    HW123525   6.192   5.857   4.812
 7542SOL    HW223526   6.084   5.955   4.739
 7543SOL     OW23527   2.054   1.261   1.067
 7543SOL    HW123528   2.014   1.207   1.142
 7543SOL    HW223529   2.141   1.299   1.097
 7544SOL     OW23530   5.651   1.193   5.023
 7544SOL    HW123531   5.732   1.253   5.016
 7544SOL    HW223532   5.677   1.099   5.000
 7545SOL     OW23533   1.433   5.241   5.186
 7545SOL    HW123534   1.388   5.327   5.163
 7545SOL    HW223535   1.368   5.166   5.174
 7546SOL     OW23536   2.716   2.556   1.728
 7546SOL    HW123537   2.791   2.497   1.758
 7546SOL    HW223538   2.629   2.511   1.749
 7547SOL     OW23539   4.361   0.048   2.382
 7547SOL    HW123540   4.398   0.116   2.445
 7547SOL    HW223541   4.262   0.047   2.389
 7548SOL     OW23542   2.535   2.023   6.352
 7548SOL    HW123543   2.522   2.122   6.356
 7548SOL    HW223544   2.471   1.978   6.414
 7549SOL     OW23545   5.247   0.654   4.233
 7549SOL    HW123546   5.330   0.635   4.285
 7549SOL    HW223547   5.178   0.585   4.253
 7550SOL     OW23548   2.061   5.803   4.821
 7550SOL    HW123549   2.078   5.705   4.823
 7550SOL    HW223550   1.965   5.820   4.798
 7551SOL     OW23551   6.446   3.157   6.377
 7551SOL    HW123552   6.534   3.112   6.390
 7551SOL    HW223553   6.455   3.255   6.393
 7552SOL     OW23554   2.636   6.548   4.759
 7552SOL    HW123555   2.569   6.614   4.793
 7552SOL    HW223556   2.721   6.558   4.812
 7553SOL     OW23557   6.410   6.907   5.775
 7553SOL    HW123558   6.477   6.899   5.702
 7553SOL    HW223559   6.443   6.975   5.842
 7554SOL     OW23560   5.401   1.526   1.492
 7554SOL    HW123561   5.444   1.439   1.468
 7554SOL    HW223562   5.303   1.521   1.472
 7555SOL     OW23563   4.509   5.290   4.410
 7555SOL    HW123564   4.597   5.255   4.377
 7555SOL    HW223565   4.523   5.346   4.491
 7556SOL     OW23566   1.151   6.158   0.681
 7556SOL    HW123567   1.140   6.102   0.763
 7556SOL    HW223568   1.202   6.106   0.612
 7557SOL     OW23569   4.427   6.353   0.971
 7557SOL    HW123570   4.376   6.267   0.975
 7557SOL    HW223571   4.491   6.357   1.048
 7558SOL     OW23572   0.804   1.710   3.567
 7558SOL    HW123573   0.723   1.755   3.528
 7558SOL    HW223574   0.878   1.777   3.575
 7559SOL     OW23575   2.189   0.124   5.147
 7559SOL    HW123576   2.200   0.208   5.094
 7559SOL    HW223577   2.091   0.109   5.164
 7560SOL     OW23578   0.810   0.768   5.804
 7560SOL    HW123579   0.821   0.832   5.728
 7560SOL    HW223580   0.822   0.817   5.890
 7561SOL     OW23581   5.130   1.220   5.199
 7561SOL    HW123582   5.081   1.178   5.275
 7561SOL    HW223583   5.152   1.315   5.220
 7562SOL     OW23584   1.805   5.534   3.592
 7562SOL    HW123585   1.866   5.608   3.622
 7562SOL    HW223586   1.854   5.447   3.593
 7563SOL     OW23587   2.807   6.367   3.220
 7563SOL    HW123588   2.751   6.414   3.152
 7563SOL    HW223589   2.897   6.348   3.181
 7564SOL     OW23590   4.585   2.891   5.796
 7564SOL    HW123591   4.669   2.838   5.786
 7564SOL    HW223592   4.606   2.980   5.835
 7565SOL     OW23593   6.585   3.445   5.491
 7565SOL    HW123594   6.524   3.366   5.501
 7565SOL    HW223595   6.618   3.450   5.397
 7566SOL     OW23596   4.853   4.247   1.706
 7566SOL    HW123597   4.838   4.329   1.649
 7566SOL    HW223598   4.918   4.187   1.660
 7567SOL     OW23599   1.484   0.448   3.250
 7567SOL    HW123600   1.426   0.493   3.182
 7567SOL    HW223601   1.516   0.361   3.214
 7568SOL     OW23602   6.931   4.011   0.718
 7568SOL    HW123603   6.841   3.981   0.687
 7568SOL    HW223604   6.922   4.101   0.761
 7569SOL     OW23605   4.412   3.736   1.382
 7569SOL    HW123606   4.346   3.762   1.311
 7569SOL    HW223607   4.398   3.792   1.463
 7570SOL     OW23608   1.143   2.874   1.873
 7570SOL    HW123609   1.110   2.801   1.813
 7570SOL    HW223610   1.093   2.872   1.959
 7571SOL     OW23611   4.749   1.443   3.183
 7571SOL    HW123612   4.840   1.483   3.167
 7571SOL    HW223613   4.698   1.502   3.245
 7572SOL     OW23614   4.554   6.304   3.338
 7572SOL    HW123615   4.622   6.269   3.274
 7572SOL    HW223616   4.477   6.343   3.287
 7573SOL     OW23617   3.701   6.910   6.514
 7573SOL    HW123618   3.637   6.978   6.548
 7573SOL    HW223619   3.652   6.827   6.488
 7574SOL     OW23620   0.846   3.339   3.862
 7574SOL    HW123621   0.831   3.293   3.774
 7574SOL    HW223622   0.844   3.438   3.848
 7575SOL     OW23623   0.354   6.857   0.574
 7575SOL    HW123624   0.437   6.891   0.617
 7575SOL    HW223625   0.326   6.918   0.500
 7576SOL     OW23626   4.534   2.935   0.250
 7576SOL    HW123627   4.588   2.987   0.316
 7576SOL    HW223628   4.438   2.963   0.255
 7577SOL     OW23629   0.127   0.489   6.527
 7577SOL    HW123630   0.166   0.397   6.529
 7577SOL    HW223631   0.064   0.500   6.604
 7578SOL     OW23632   5.800   5.494   3.047
 7578SOL    HW123633   5.714   5.449   3.071
 7578SOL    HW223634   5.824   5.471   2.953
 7579SOL     OW23635   1.422   1.722   6.629
 7579SOL    HW123636   1.371   1.649   6.584
 7579SOL    HW223637   1.466   1.685   6.711
 7580SOL     OW23638   1.905   4.813   2.867
 7580SOL    HW123639   1.924   4.786   2.773
 7580SOL    HW223640   1.990   4.807   2.921
 7581SOL     OW23641   0.588   0.003   0.677
 7581SOL    HW123642   0.568   0.080   0.737
 7581SOL    HW223643   0.612   6.940   0.732
 7582SOL     OW23644   2.009   1.247   6.331
 7582SOL    HW123645   1.985   1.302   6.410
 7582SOL    HW223646   2.017   1.306   6.250
 7583SOL     OW23647   5.555   3.331   2.442
 7583SOL    HW123648   5.471   3.286   2.470
 7583SOL    HW223649   5.533   3.416   2.394
 7584SOL     OW23650   0.099   1.019   3.351
 7584SOL    HW123651   0.183   0.999   3.301
 7584SOL    HW223652   0.025   1.036   3.286
 7585SOL     OW23653   1.017   1.254   5.739
 7585SOL    HW123654   0.992   1.192   5.813
 7585SOL    HW223655   1.021   1.347   5.773
 7586SOL     OW23656   1.755   6.881   3.668
 7586SOL    HW123657   1.683   6.951   3.671
 7586SOL    HW223658   1.728   6.809   3.604
 7587SOL     OW23659   5.373   6.782   2.174
 7587SOL    HW123660   5.383   6.695   2.221
 7587SOL    HW223661   5.438   6.787   2.098
 7588SOL     OW23662   2.102   3.358   4.807
 7588SOL    HW123663   2.033   3.306   4.756
 7588SOL    HW223664   2.132   3.436   4.753
 7589SOL     OW23665   6.543   6.918   2.448
 7589SOL    HW123666   6.456   6.908   2.401
 7589SOL    HW223667   6.530   6.973   2.531
 7590SOL     OW23668   5.715   0.880   0.340
 7590SOL    HW123669   5.701   0.791   0.296
 7590SOL    HW223670   5.805   0.881   0.384
 7591SOL     OW23671   3.275   4.032   4.941
 7591SOL    HW123672   3.246   4.095   4.870
 7591SOL    HW223673   3.239   4.062   5.030
 7592SOL     OW23674   0.602   6.340   3.588
 7592SOL    HW123675   0.553   6.331   3.501
 7592SOL    HW223676   0.547   6.301   3.662
 7593SOL     OW23677   6.592   1.425   6.174
 7593SOL    HW123678   6.656   1.362   6.131
 7593SOL    HW223679   6.522   1.452   6.108
 7594SOL     OW23680   6.707   3.932   6.267
 7594SOL    HW123681   6.716   4.028   6.239
 7594SOL    HW223682   6.717   3.873   6.187
 7595SOL     OW23683   0.236   3.135   6.994
 7595SOL    HW123684   0.191   3.073   6.930
 7595SOL    HW223685   0.330   3.104   7.011
 7596SOL     OW23686   3.087   1.627   6.879
 7596SOL    HW123687   3.054   1.598   6.789
 7596SOL    HW223688   3.156   1.699   6.867
 7597SOL     OW23689   2.321   4.600   0.782
 7597SOL    HW123690   2.276   4.672   0.835
 7597SOL    HW223691   2.395   4.640   0.728
 7598SOL     OW23692   5.120   0.448   1.803
 7598SOL    HW123693   5.187   0.518   1.829
 7598SOL    HW223694   5.080   0.408   1.885
 7599SOL     OW23695   3.297   3.259   6.980
 7599SOL    HW123696   3.315   3.346   6.933
 7599SOL    HW223697   3.213   3.219   6.944
 7600SOL     OW23698   0.837   0.084   3.834
 7600SOL    HW123699   0.826   0.180   3.859
 7600SOL    HW223700   0.768   0.060   3.765
 7601SOL     OW23701   3.173   6.371   1.438
 7601SOL    HW123702   3.124   6.458   1.446
 7601SOL    HW223703   3.239   6.363   1.513
 7602SOL     OW23704   0.466   1.359   1.163
 7602SOL    HW123705   0.390   1.405   1.208
 7602SOL    HW223706   0.534   1.427   1.137
 7603SOL     OW23707   4.406   1.036   6.492
 7603SOL    HW123708   4.362   1.122   6.521
 7603SOL    HW223709   4.340   0.961   6.501
 7604SOL     OW23710   2.597   2.436   5.109
 7604SOL    HW123711   2.574   2.371   5.037
 7604SOL    HW223712   2.527   2.434   5.181
 7605SOL     OW23713   2.957   5.581   0.301
 7605SOL    HW123714   2.936   5.486   0.325
 7605SOL    HW223715   3.016   5.583   0.221
 7606SOL     OW23716   6.321   0.360   3.118
 7606SOL    HW123717   6.334   0.261   3.127
 7606SOL    HW223718   6.406   0.406   3.145
 7607SOL     OW23719   2.306   5.963   5.725
 7607SOL    HW123720   2.214   5.991   5.755
 7607SOL    HW223721   2.361   5.940   5.806
 7608SOL     OW23722   0.243   2.600   6.150
 7608SOL    HW123723   0.199   2.685   6.122
 7608SOL    HW223724   0.220   2.579   6.245
 7609SOL     OW23725   3.137   0.064   5.000
 7609SOL    HW123726   3.171   0.107   4.917
 7609SOL    HW223727   3.180   0.106   5.080
 7610SOL     OW23728   4.050   4.842   4.407
 7610SOL    HW123729   4.100   4.791   4.477
 7610SOL    HW223730   4.090   4.933   4.397
 7611SOL     OW23731   4.204   2.206   0.426
 7611SOL    HW123732   4.265   2.220   0.504
 7611SOL    HW223733   4.182   2.108   0.419
 7612SOL     OW23734   4.814   2.151   2.128
 7612SOL    HW123735   4.858   2.238   2.149
 7612SOL    HW223736   4.721   2.168   2.093
 7613SOL     OW23737   0.031   0.712   0.095
 7613SOL    HW123738   0.126   0.713   0.127
 7613SOL    HW223739   0.014   0.625   0.047
 7614SOL     OW23740   6.027   5.046   6.453
 7614SOL    HW123741   6.030   5.048   6.353
 7614SOL    HW223742   6.047   4.953   6.485
 7615SOL     OW23743   4.664   2.699   6.321
 7615SOL    HW123744   4.742   2.739   6.371
 7615SOL    HW223745   4.617   2.634   6.380
 7616SOL     OW23746   6.445   6.743   1.972
 7616SOL    HW123747   6.510   6.740   2.048
 7616SOL    HW223748   6.355   6.770   2.007
 7617SOL     OW23749   5.974   4.304   3.318
 7617SOL    HW123750   6.018   4.393   3.301
 7617SOL    HW223751   5.879   4.308   3.287
 7618SOL     OW23752   2.731   2.006   6.909
 7618SOL    HW123753   2.811   1.965   6.866
 7618SOL    HW223754   2.745   2.105   6.917
 7619SOL     OW23755   0.511   0.433   5.257
 7619SOL    HW123756   0.594   0.385   5.284
 7619SOL    HW223757   0.518   0.460   5.161
 7620SOL     OW23758   3.617   4.201   0.155
 7620SOL    HW123759   3.580   4.173   0.066
 7620SOL    HW223760   3.624   4.121   0.214
 7621SOL     OW23761   6.127   5.098   0.780
 7621SOL    HW123762   6.192   5.172   0.760
 7621SOL    HW223763   6.178   5.016   0.808
 7622SOL     OW23764   2.962   4.211   1.025
 7622SOL    HW123765   2.883   4.271   1.010
 7622SOL    HW223766   2.934   4.133   1.080
 7623SOL     OW23767   5.145   4.491   2.553
 7623SOL    HW123768   5.198   4.475   2.470
 7623SOL    HW223769   5.207   4.514   2.629
 7624SOL     OW23770   0.077   3.062   2.852
 7624SOL    HW123771   0.107   2.971   2.824
 7624SOL    HW223772   7.004   3.057   2.894
 7625SOL     OW23773   5.178   0.185   1.732
 7625SOL    HW123774   5.109   0.169   1.662
 7625SOL    HW223775   5.180   0.283   1.755
 7626SOL     OW23776   4.552   6.252   6.930
 7626SOL    HW123777   4.505   6.336   6.905
 7626SOL    HW223778   4.616   6.270   7.005
 7627SOL     OW23779   4.329   2.479   5.835
 7627SOL    HW123780   4.332   2.577   5.857
 7627SOL    HW223781   4.423   2.445   5.821
 7628SOL     OW23782   3.461   2.756   0.792
 7628SOL    HW123783   3.414   2.793   0.712
 7628SOL    HW223784   3.554   2.730   0.767
 7629SOL     OW23785   5.653   2.788   3.411
 7629SOL    HW123786   5.561   2.760   3.439
 7629SOL    HW223787   5.689   2.855   3.476
 7630SOL     OW23788   1.359   6.312   3.649
 7630SOL    HW123789   1.386   6.248   3.578
 7630SOL    HW223790   1.314   6.391   3.608
 7631SOL     OW23791   1.319   1.513   6.062
 7631SOL    HW123792   1.386   1.482   5.994
 7631SOL    HW223793   1.361   1.582   6.121
 7632SOL     OW23794   4.169   5.745   1.132
 7632SOL    HW123795   4.122   5.659   1.146
 7632SOL    HW223796   4.260   5.728   1.093
 7633SOL     OW23797   5.224   0.776   1.595
 7633SOL    HW123798   5.292   0.785   1.522
 7633SOL    HW223799   5.132   0.791   1.557
 7634SOL     OW23800   0.421   2.175   6.740
 7634SOL    HW123801   0.395   2.085   6.775
 7634SOL    HW223802   0.519   2.178   6.724
 7635SOL     OW23803   1.297   3.192   5.582
 7635SOL    HW123804   1.347   3.129   5.523
 7635SOL    HW223805   1.338   3.283   5.577
 7636SOL     OW23806   6.662   2.837   3.434
 7636SOL    HW123807   6.583   2.889   3.404
 7636SOL    HW223808   6.633   2.765   3.498
 7637SOL     OW23809   1.303   3.665   5.408
 7637SOL    HW123810   1.373   3.731   5.433
 7637SOL    HW223811   1.255   3.695   5.326
 7638SOL     OW23812   0.572   6.554   1.423
 7638SOL    HW123813   0.561   6.620   1.498
 7638SOL    HW223814   0.666   6.521   1.422
 7639SOL     OW23815   2.472   6.493   0.519
 7639SOL    HW123816   2.422   6.410   0.497
 7639SOL    HW223817   2.451   6.563   0.451
 7640SOL     OW23818   2.941   0.600   0.833
 7640SOL    HW123819   2.853   0.553   0.825
 7640SOL    HW223820   3.007   0.537   0.874
 7641SOL     OW23821   6.551   4.991   4.586
 7641SOL    HW123822   6.601   5.073   4.613
 7641SOL    HW223823   6.487   4.965   4.658
 7642SOL     OW23824   5.746   0.830   3.928
 7642SOL    HW123825   5.750   0.766   3.852
 7642SOL    HW223826   5.650   0.847   3.953
 7643SOL     OW23827   5.100   2.353   4.141
 7643SOL    HW123828   5.199   2.353   4.154
 7643SOL    HW223829   5.073   2.271   4.092
 7644SOL     OW23830   5.357   3.968   0.322
 7644SOL    HW123831   5.338   4.036   0.393
 7644SOL    HW223832   5.419   4.007   0.254
 7645SOL     OW23833   4.890   4.931   6.470
 7645SOL    HW123834   4.904   4.882   6.383
 7645SOL    HW223835   4.934   5.020   6.465
 7646SOL     OW23836   6.678   2.159   1.917
 7646SOL    HW123837   6.720   2.079   1.959
 7646SOL    HW223838   6.585   2.137   1.888
 7647SOL     OW23839   6.970   1.818   4.009
 7647SOL    HW123840   0.033   1.803   4.068
 7647SOL    HW223841   7.000   1.827   3.914
 7648SOL     OW23842   1.825   2.632   0.683
 7648SOL    HW123843   1.850   2.683   0.601
 7648SOL    HW223844   1.733   2.659   0.713
 7649SOL     OW23845   3.980   0.657   0.152
 7649SOL    HW123846   3.999   0.592   0.225
 7649SOL    HW223847   4.045   0.643   0.077
 7650SOL     OW23848   3.478   2.477   0.509
 7650SOL    HW123849   3.572   2.511   0.504
 7650SOL    HW223850   3.419   2.532   0.449
 7651SOL     OW23851   3.668   5.495   6.407
 7651SOL    HW123852   3.713   5.567   6.354
 7651SOL    HW223853   3.582   5.469   6.362
 7652SOL     OW23854   0.167   0.771   5.355
 7652SOL    HW123855   0.210   0.821   5.280
 7652SOL    HW223856   0.233   0.707   5.395
 7653SOL     OW23857   1.827   6.572   6.651
 7653SOL    HW123858   1.786   6.560   6.560
 7653SOL    HW223859   1.923   6.599   6.640
 7654SOL     OW23860   6.520   2.638   5.720
 7654SOL    HW123861   6.508   2.737   5.709
 7654SOL    HW223862   6.606   2.620   5.767
 7655SOL     OW23863   2.873   1.773   5.187
 7655SOL    HW123864   2.904   1.847   5.247
 7655SOL    HW223865   2.907   1.787   5.095
 7656SOL     OW23866   6.186   3.655   6.954
 7656SOL    HW123867   6.139   3.705   0.010
 7656SOL    HW223868   6.130   3.657   6.871
 7657SOL     OW23869   1.220   3.558   4.682
 7657SOL    HW123870   1.285   3.489   4.652
 7657SOL    HW223871   1.156   3.578   4.607
 7658SOL     OW23872   3.074   0.428   1.119
 7658SOL    HW123873   3.093   0.332   1.136
 7658SOL    HW223874   3.084   0.480   1.204
 7659SOL     OW23875   5.621   3.834   5.029
 7659SOL    HW123876   5.548   3.871   5.086
 7659SOL    HW223877   5.695   3.901   5.023
 7660SOL     OW23878   0.455   6.261   4.774
 7660SOL    HW123879   0.483   6.288   4.866
 7660SOL    HW223880   0.424   6.166   4.775
 7661SOL     OW23881   2.102   0.612   5.064
 7661SOL    HW123882   2.016   0.616   5.012
 7661SOL    HW223883   2.168   0.674   5.023
 7662SOL     OW23884   0.090   6.592   1.468
 7662SOL    HW123885   0.162   6.527   1.444
 7662SOL    HW223886   0.130   6.682   1.482
 7663SOL     OW23887   1.391   5.956   4.332
 7663SOL    HW123888   1.335   6.021   4.281
 7663SOL    HW223889   1.345   5.933   4.418
 7664SOL     OW23890   5.785   2.195   2.904
 7664SOL    HW123891   5.704   2.173   2.959
 7664SOL    HW223892   5.866   2.197   2.964
 7665SOL     OW23893   2.540   0.223   5.276
 7665SOL    HW123894   2.626   0.184   5.308
 7665SOL    HW223895   2.488   0.154   5.226
 7666SOL     OW23896   6.007   5.129   4.153
 7666SOL    HW123897   5.980   5.207   4.209
 7666SOL    HW223898   5.927   5.072   4.133
 7667SOL     OW23899   4.247   5.357   1.294
 7667SOL    HW123900   4.292   5.370   1.383
 7667SOL    HW223901   4.191   5.437   1.273
 7668SOL     OW23902   1.683   5.685   0.274
 7668SOL    HW123903   1.738   5.703   0.356
 7668SOL    HW223904   1.592   5.723   0.286
 7669SOL     OW23905   3.111   2.127   6.559
 7669SOL    HW123906   3.037   2.082   6.509
 7669SOL    HW223907   3.198   2.084   6.535
 7670SOL     OW23908   1.045   0.097   0.637
 7670SOL    HW123909   1.052   0.054   0.727
 7670SOL    HW223910   0.953   0.081   0.600
 7671SOL     OW23911   3.790   0.490   1.689
 7671SOL    HW123912   3.809   0.548   1.768
 7671SOL    HW223913   3.696   0.506   1.658
 7672SOL     OW23914   5.656   3.065   2.165
 7672SOL    HW123915   5.686   3.045   2.072
 7672SOL    HW223916   5.735   3.077   2.225
 7673SOL     OW23917   2.178   6.624   5.390
 7673SOL    HW123918   2.164   6.672   5.304
 7673SOL    HW223919   2.158   6.686   5.466
 7674SOL     OW23920   3.206   5.745   3.830
 7674SOL    HW123921   3.229   5.703   3.742
 7674SOL    HW223922   3.115   5.787   3.824
 7675SOL     OW23923   3.928   6.127   3.374
 7675SOL    HW123924   3.883   6.065   3.310
 7675SOL    HW223925   3.859   6.189   3.413
 7676SOL     OW23926   2.951   3.472   4.663
 7676SOL    HW123927   2.977   3.424   4.579
 7676SOL    HW223928   2.990   3.424   4.742
 7677SOL     OW23929   0.584   6.524   0.118
 7677SOL    HW123930   0.528   6.599   0.155
 7677SOL    HW223931   0.525   6.446   0.097
 7678SOL     OW23932   3.543   1.170   5.304
 7678SOL    HW123933   3.572   1.091   5.358
 7678SOL    HW223934   3.444   1.180   5.309
 7679SOL     OW23935   3.009   5.145   4.306
 7679SOL    HW123936   2.974   5.173   4.395
 7679SOL    HW223937   3.060   5.060   4.315
 7680SOL     OW23938   1.538   6.607   3.758
 7680SOL    HW123939   1.601   6.656   3.818
 7680SOL    HW223940   1.460   6.573   3.812
 7681SOL     OW23941   1.709   2.115   5.635
 7681SOL    HW123942   1.629   2.069   5.597
 7681SOL    HW223943   1.686   2.156   5.723
 7682SOL     OW23944   3.363   0.603   1.846
 7682SOL    HW123945   3.440   0.577   1.904
 7682SOL    HW223946   3.345   0.701   1.857
 7683SOL     OW23947   1.029   4.428   4.747
 7683SOL    HW123948   1.087   4.507   4.724
 7683SOL    HW223949   1.042   4.405   4.844
 7684SOL     OW23950   4.792   3.540   1.802
 7684SOL    HW123951   4.709   3.594   1.782
 7684SOL    HW223952   4.792   3.457   1.747
 7685SOL     OW23953   2.561   0.114   0.320
 7685SOL    HW123954   2.566   0.180   0.245
 7685SOL    HW223955   2.465   0.100   0.346
 7686SOL     OW23956   5.758   0.529   4.484
 7686SOL    HW123957   5.701   0.448   4.491
 7686SOL    HW223958   5.775   0.551   4.388
 7687SOL     OW23959   5.443   3.285   5.938
 7687SOL    HW123960   5.440   3.219   5.863
 7687SOL    HW223961   5.495   3.365   5.910
 7688SOL     OW23962   6.569   2.943   0.320
 7688SOL    HW123963   6.507   2.932   0.399
 7688SOL    HW223964   6.592   2.853   0.284
 7689SOL     OW23965   5.501   0.024   2.821
 7689SOL    HW123966   5.594   7.005   2.814
 7689SOL    HW223967   5.440   6.984   2.765
 7690SOL     OW23968   6.018   4.533   2.445
 7690SOL    HW123969   6.067   4.586   2.375
 7690SOL    HW223970   6.036   4.436   2.433
 7691SOL     OW23971   5.195   2.750   4.010
 7691SOL    HW123972   5.255   2.830   4.020
 7691SOL    HW223973   5.103   2.772   4.043
 7692SOL     OW23974   2.320   6.589   2.069
 7692SOL    HW123975   2.348   6.647   2.145
 7692SOL    HW223976   2.389   6.594   1.996
 7693SOL     OW23977   2.648   2.010   1.183
 7693SOL    HW123978   2.549   2.020   1.193
 7693SOL    HW223979   2.692   2.024   1.272
 7694SOL     OW23980   4.461   2.478   1.167
 7694SOL    HW123981   4.399   2.470   1.089
 7694SOL    HW223982   4.408   2.482   1.252
 7695SOL     OW23983   5.157   6.667   4.185
 7695SOL    HW123984   5.074   6.642   4.136
 7695SOL    HW223985   5.162   6.615   4.271
 7696SOL     OW23986   2.714   1.430   5.718
 7696SOL    HW123987   2.733   1.449   5.621
 7696SOL    HW223988   2.693   1.515   5.765
 7697SOL     OW23989   5.733   6.861   3.016
 7697SOL    HW123990   5.709   6.814   2.931
 7697SOL    HW223991   5.825   6.833   3.045
 7698SOL     OW23992   5.902   2.580   1.437
 7698SOL    HW123993   5.842   2.577   1.517
 7698SOL    HW223994   5.852   2.549   1.356
 7699SOL     OW23995   3.797   6.063   6.142
 7699SOL    HW123996   3.722   5.999   6.158
 7699SOL    HW223997   3.835   6.092   6.230
 7700SOL     OW23998   6.637   5.490   1.711
 7700SOL    HW123999   6.619   5.499   1.613
 7700SOL    HW224000   6.734   5.505   1.728
 7701SOL     OW24001   3.255   1.481   6.588
 7701SOL    HW124002   3.242   1.579   6.605
 7701SOL    HW224003   3.257   1.465   6.489
 7702SOL     OW24004   6.236   6.272   5.814
 7702SOL    HW124005   6.308   6.307   5.873
 7702SOL    HW224006   6.223   6.175   5.831
 7703SOL     OW24007   0.473   6.320   6.377
 7703SOL    HW124008   0.504   6.268   6.456
 7703SOL    HW224009   0.492   6.417   6.392
 7704SOL     OW24010   1.713   2.262   4.753
 7704SOL    HW124011   1.755   2.344   4.791
 7704SOL    HW224012   1.646   2.225   4.817
 7705SOL     OW24013   0.993   4.668   0.204
 7705SOL    HW124014   0.918   4.709   0.153
 7705SOL    HW224015   0.959   4.633   0.291
 7706SOL     OW24016   3.036   3.987   2.110
 7706SOL    HW124017   2.969   4.002   2.183
 7706SOL    HW224018   3.125   3.967   2.150
 7707SOL     OW24019   0.265   5.218   5.792
 7707SOL    HW124020   0.187   5.254   5.843
 7707SOL    HW224021   0.339   5.285   5.794
 7708SOL     OW24022   0.131   0.282   4.359
 7708SOL    HW124023   0.058   0.349   4.346
 7708SOL    HW224024   0.217   0.331   4.375
 7709SOL     OW24025   6.288   4.930   0.990
 7709SOL    HW124026   6.372   4.898   0.946
 7709SOL    HW224027   6.291   5.029   0.999
 7710SOL     OW24028   6.438   3.240   2.532
 7710SOL    HW124029   6.444   3.315   2.465
 7710SOL    HW224030   6.467   3.155   2.489
 7711SOL     OW24031   0.934   4.297   3.308
 7711SOL    HW124032   0.886   4.331   3.389
 7711SOL    HW224033   1.031   4.283   3.330
 7712SOL     OW24034   1.027   4.512   4.425
 7712SOL    HW124035   1.085   4.592   4.439
 7712SOL    HW224036   1.073   4.431   4.461
 7713SOL     OW24037   1.265   5.987   0.505
 7713SOL    HW124038   1.295   6.032   0.420
 7713SOL    HW224039   1.341   5.935   0.544
 7714SOL     OW24040   5.702   1.563   5.168
 7714SOL    HW124041   5.797   1.548   5.141
 7714SOL    HW224042   5.644   1.569   5.087
 7715SOL     OW24043   3.881   3.645   6.307
 7715SOL    HW124044   3.877   3.744   6.299
 7715SOL    HW224045   3.973   3.613   6.284
 7716SOL     OW24046   1.385   1.237   6.789
 7716SOL    HW124047   1.436   1.289   6.721
 7716SOL    HW224048   1.362   1.296   6.866
 7717SOL     OW24049   0.788   1.618   5.934
 7717SOL    HW124050   0.708   1.585   5.883
 7717SOL    HW224051   0.763   1.703   5.982
 7718SOL     OW24052   0.279   3.857   3.389
 7718SOL    HW124053   0.219   3.900   3.322
 7718SOL    HW224054   0.363   3.911   3.399
 7719SOL     OW24055   2.172   6.245   4.975
 7719SOL    HW124056   2.179   6.147   4.993
 7719SOL    HW224057   2.263   6.286   4.975
 7720SOL     OW24058   4.584   1.509   6.519
 7720SOL    HW124059   4.670   1.543   6.480
 7720SOL    HW224060   4.603   1.449   6.597
 7721SOL     OW24061   5.927   5.459   2.801
 7721SOL    HW124062   6.016   5.445   2.757
 7721SOL    HW224063   5.860   5.396   2.762
 7722SOL     OW24064   0.036   6.088   4.608
 7722SOL    HW124065   7.009   6.172   4.639
 7722SOL    HW224066   0.068   6.035   4.687
 7723SOL     OW24067   4.179   4.684   6.922
 7723SOL    HW124068   4.138   4.764   6.966
 7723SOL    HW224069   4.117   4.606   6.932
 7724SOL     OW24070   1.554   4.786   0.411
 7724SOL    HW124071   1.547   4.816   0.506
 7724SOL    HW224072   1.601   4.698   0.407
 7725SOL     OW24073   5.676   3.193   4.864
 7725SOL    HW124074   5.635   3.284   4.876
 7725SOL    HW224075   5.624   3.126   4.917
 7726SOL     OW24076   2.006   3.295   0.558
 7726SOL    HW124077   2.069   3.309   0.634
 7726SOL    HW224078   1.913   3.283   0.593
 7727SOL     OW24079   5.258   0.471   3.419
 7727SOL    HW124080   5.257   0.567   3.446
 7727SOL    HW224081   5.335   0.455   3.358
 7728SOL     OW24082   2.121   3.113   5.576
 7728SOL    HW124083   2.194   3.113   5.508
 7728SOL    HW224084   2.071   3.200   5.573
 7729SOL     OW24085   6.854   1.147   2.685
 7729SOL    HW124086   6.924   1.213   2.658
 7729SOL    HW224087   6.898   1.069   2.731
 7730SOL     OW24088   6.227   3.438   6.289
 7730SOL    HW124089   6.180   3.367   6.236
 7730SOL    HW224090   6.323   3.412   6.302
 7731SOL     OW24091   6.897   0.581   6.099
 7731SOL    HW124092   6.901   0.536   6.189
 7731SOL    HW224093   6.918   0.678   6.109
 7732SOL     OW24094   4.233   1.326   0.103
 7732SOL    HW124095   4.184   1.411   0.122
 7732SOL    HW224096   4.328   1.335   0.134
 7733SOL     OW24097   5.857   6.237   1.410
 7733SOL    HW124098   5.846   6.160   1.472
 7733SOL    HW224099   5.926   6.299   1.445
 7734SOL     OW24100   4.043   3.375   3.389
 7734SOL    HW124101   4.029   3.327   3.476
 7734SOL    HW224102   4.103   3.454   3.403
 7735SOL     OW24103   1.100   5.977   0.889
 7735SOL    HW124104   1.008   5.951   0.919
 7735SOL    HW224105   1.166   5.910   0.924
 7736SOL     OW24106   1.825   1.411   1.034
 7736SOL    HW124107   1.910   1.361   1.049
 7736SOL    HW224108   1.747   1.349   1.048
 7737SOL     OW24109   4.389   4.687   6.460
 7737SOL    HW124110   4.361   4.592   6.471
 7737SOL    HW224111   4.420   4.723   6.548
 7738SOL     OW24112   1.165   1.016   5.181
 7738SOL    HW124113   1.203   1.100   5.219
 7738SOL    HW224114   1.221   0.938   5.208
 7739SOL     OW24115   0.910   3.267   6.556
 7739SOL    HW124116   0.829   3.209   6.566
 7739SOL    HW224117   0.975   3.223   6.494
 7740SOL     OW24118   2.293   0.809   4.225
 7740SOL    HW124119   2.262   0.796   4.131
 7740SOL    HW224120   2.239   0.883   4.267
 7741SOL     OW24121   6.700   4.434   6.341
 7741SOL    HW124122   6.790   4.452   6.381
 7741SOL    HW224123   6.656   4.520   6.316
 7742SOL     OW24124   4.864   2.544   3.812
 7742SOL    HW124125   4.808   2.623   3.790
 7742SOL    HW224126   4.814   2.460   3.790
 7743SOL     OW24127   3.488   0.971   6.190
 7743SOL    HW124128   3.433   1.025   6.127
 7743SOL    HW224129   3.546   0.908   6.138
 7744SOL     OW24130   0.285   6.271   4.498
 7744SOL    HW124131   0.226   6.201   4.459
 7744SOL    HW224132   0.263   6.283   4.595
 7745SOL     OW24133   2.841   0.153   0.420
 7745SOL    HW124134   2.744   0.169   0.399
 7745SOL    HW224135   2.849   0.096   0.501
 7746SOL     OW24136   0.017   6.111   0.739
 7746SOL    HW124137   0.023   6.066   0.650
 7746SOL    HW224138   0.009   6.210   0.726
 7747SOL     OW24139   6.957   6.054   1.399
 7747SOL    HW124140   7.003   6.057   1.310
 7747SOL    HW224141   6.937   6.147   1.429
 7748SOL     OW24142   4.515   0.771   6.305
 7748SOL    HW124143   4.484   0.753   6.212
 7748SOL    HW224144   4.491   0.864   6.332
 7749SOL     OW24145   3.033   3.987   2.495
 7749SOL    HW124146   3.065   4.005   2.588
 7749SOL    HW224147   2.988   3.898   2.491
 7750SOL     OW24148   5.454   4.307   6.289
 7750SOL    HW124149   5.374   4.367   6.286
 7750SOL    HW224150   5.470   4.278   6.383
 7751SOL     OW24151   0.515   1.431   5.080
 7751SOL    HW124152   0.416   1.416   5.076
 7751SOL    HW224153   0.545   1.423   5.175
 7752SOL     OW24154   5.863   4.198   6.016
 7752SOL    HW124155   5.853   4.133   6.091
 7752SOL    HW224156   5.774   4.241   5.998
 7753SOL     OW24157   2.745   0.895   5.193
 7753SOL    HW124158   2.758   0.986   5.154
 7753SOL    HW224159   2.822   0.873   5.253
 7754SOL     OW24160   6.328   1.106   1.039
 7754SOL    HW124161   6.267   1.099   1.118
 7754SOL    HW224162   6.421   1.083   1.067
 7755SOL     OW24163   1.805   6.191   5.291
 7755SOL    HW124164   1.718   6.215   5.249
 7755SOL    HW224165   1.858   6.274   5.308
 7756SOL     OW24166   4.069   6.441   3.018
 7756SOL    HW124167   4.037   6.501   2.944
 7756SOL    HW224168   4.006   6.449   3.096
 7757SOL     OW24169   3.340   0.977   5.640
 7757SOL    HW124170   3.348   0.880   5.618
 7757SOL    HW224171   3.403   1.001   5.714
 7758SOL     OW24172   2.320   1.927   6.493
 7758SOL    HW124173   2.277   1.878   6.569
 7758SOL    HW224174   2.254   1.991   6.453
 7759SOL     OW24175   2.286   0.764   4.908
 7759SOL    HW124176   2.314   0.856   4.936
 7759SOL    HW224177   2.296   0.755   4.809
 7760SOL     OW24178   5.273   1.846   2.935
 7760SOL    HW124179   5.284   1.854   3.034
 7760SOL    HW224180   5.226   1.928   2.900
 7761SOL     OW24181   4.585   1.129   0.099
 7761SOL    HW124182   4.558   1.131   0.002
 7761SOL    HW224183   4.629   1.042   0.120
 7762SOL     OW24184   1.368   2.394   0.772
 7762SOL    HW124185   1.313   2.451   0.710
 7762SOL    HW224186   1.372   2.437   0.862
 7763SOL     OW24187   2.509   2.618   0.658
 7763SOL    HW124188   2.467   2.547   0.715
 7763SOL    HW224189   2.585   2.578   0.606
 7764SOL     OW24190   3.430   3.067   2.005
 7764SOL    HW124191   3.382   3.153   1.991
 7764SOL    HW224192   3.365   2.995   2.030
 7765SOL     OW24193   6.814   1.645   2.110
 7765SOL    HW124194   6.762   1.585   2.171
 7765SOL    HW224195   6.896   1.678   2.158
 7766SOL     OW24196   7.005   2.619   6.699
 7766SOL    HW124197   6.907   2.625   6.679
 7766SOL    HW224198   0.039   2.676   6.634
 7767SOL     OW24199   5.848   3.945   5.175
 7767SOL    HW124200   5.920   3.933   5.243
 7767SOL    HW224201   5.871   4.023   5.117
 7768SOL     OW24202   3.381   5.386   1.595
 7768SOL    HW124203   3.467   5.425   1.563
 7768SOL    HW224204   3.334   5.451   1.654
 7769SOL     OW24205   4.902   2.039   3.155
 7769SOL    HW124206   4.988   1.995   3.129
 7769SOL    HW224207   4.826   1.993   3.108
 7770SOL     OW24208   3.436   6.572   1.343
 7770SOL    HW124209   3.397   6.601   1.431
 7770SOL    HW224210   3.382   6.610   1.269
 7771SOL     OW24211   2.132   1.028   4.278
 7771SOL    HW124212   2.158   1.021   4.374
 7771SOL    HW224213   2.043   1.073   4.271
 7772SOL     OW24214   5.461   0.506   5.374
 7772SOL    HW124215   5.393   0.458   5.429
 7772SOL    HW224216   5.548   0.510   5.424
 7773SOL     OW24217   4.140   4.628   5.769
 7773SOL    HW124218   4.106   4.710   5.723
 7773SOL    HW224219   4.126   4.549   5.709
 7774SOL     OW24220   4.864   1.772   0.037
 7774SOL    HW124221   4.919   1.853   0.016
 7774SOL    HW224222   4.829   1.779   0.131
 7775SOL     OW24223   1.600   6.662   2.210
 7775SOL    HW124224   1.564   6.580   2.254
 7775SOL    HW224225   1.700   6.655   2.201
 7776SOL     OW24226   3.115   4.807   0.565
 7776SOL    HW124227   3.110   4.873   0.639
 7776SOL    HW224228   3.160   4.723   0.597
 7777SOL     OW24229   0.471   0.440   6.692
 7777SOL    HW124230   0.401   0.404   6.630
 7777SOL    HW224231   0.444   0.530   6.726
 7778SOL     OW24232   4.960   2.380   2.106
 7778SOL    HW124233   4.940   2.438   2.027
 7778SOL    HW224234   4.953   2.433   2.190
 7779SOL     OW24235   4.363   3.089   0.385
 7779SOL    HW124236   4.328   3.179   0.409
 7779SOL    HW224237   4.425   3.057   0.457
 7780SOL     OW24238   1.274   0.502   3.991
 7780SOL    HW124239   1.350   0.532   3.933
 7780SOL    HW224240   1.202   0.463   3.934
 7781SOL     OW24241   1.907   4.053   5.739
 7781SOL    HW124242   1.964   4.093   5.811
 7781SOL    HW224243   1.946   4.074   5.650
 7782SOL     OW24244   4.701   4.907   0.487
 7782SOL    HW124245   4.663   4.983   0.434
 7782SOL    HW224246   4.778   4.867   0.438
 7783SOL     OW24247   3.526   6.055   6.721
 7783SOL    HW124248   3.592   5.980   6.708
 7783SOL    HW224249   3.524   6.081   6.817
 7784SOL     OW24250   6.224   3.617   0.330
 7784SOL    HW124251   6.267   3.615   0.239
 7784SOL    HW224252   6.221   3.711   0.363
 7785SOL     OW24253   1.322   6.497   6.273
 7785SOL    HW124254   1.387   6.426   6.300
 7785SOL    HW224255   1.372   6.582   6.253
 7786SOL     OW24256   3.821   4.358   5.305
 7786SOL    HW124257   3.916   4.326   5.309
 7786SOL    HW224258   3.775   4.313   5.228
 7787SOL     OW24259   3.291   2.162   5.492
 7787SOL    HW124260   3.265   2.130   5.401
 7787SOL    HW224261   3.366   2.228   5.484
 7788SOL     OW24262   6.820   2.352   1.135
 7788SOL    HW124263   6.835   2.431   1.075
 7788SOL    HW224264   6.815   2.269   1.080
 7789SOL     OW24265   1.206   0.218   1.758
 7789SOL    HW124266   1.203   0.119   1.769
 7789SOL    HW224267   1.226   0.261   1.846
 7790SOL     OW24268   0.137   3.721   2.469
 7790SOL    HW124269   0.096   3.678   2.550
 7790SOL    HW224270   0.066   3.740   2.401
 7791SOL     OW24271   6.516   5.634   5.515
 7791SOL    HW124272   6.490   5.664   5.423
 7791SOL    HW224273   6.576   5.554   5.508
 7792SOL     OW24274   2.100   5.786   5.904
 7792SOL    HW124275   2.059   5.698   5.882
 7792SOL    HW224276   2.036   5.860   5.882
 7793SOL     OW24277   2.286   0.849   6.907
 7793SOL    HW124278   2.191   0.823   6.891
 7793SOL    HW224279   2.317   0.909   6.833
 7794SOL     OW24280   5.355   4.731   2.389
 7794SOL    HW124281   5.402   4.818   2.372
 7794SOL    HW224282   5.423   4.659   2.406
 7795SOL     OW24283   1.481   4.407   6.516
 7795SOL    HW124284   1.545   4.331   6.502
 7795SOL    HW224285   1.406   4.400   6.451
 7796SOL     OW24286   3.993   3.296   4.753
 7796SOL    HW124287   3.944   3.383   4.751
 7796SOL    HW224288   3.937   3.227   4.799
 7797SOL     OW24289   1.161   6.199   3.813
 7797SOL    HW124290   1.110   6.273   3.857
 7797SOL    HW224291   1.211   6.235   3.734
 7798SOL     OW24292   4.229   5.343   5.982
 7798SOL    HW124293   4.296   5.361   5.910
 7798SOL    HW224294   4.268   5.283   6.051
 7799SOL     OW24295   6.070   5.748   2.018
 7799SOL    HW124296   6.097   5.743   1.922
 7799SOL    HW224297   6.112   5.828   2.061
 7800SOL     OW24298   0.730   6.087   2.036
 7800SOL    HW124299   0.702   5.991   2.036
 7800SOL    HW224300   0.653   6.144   2.066
 7801SOL     OW24301   4.501   2.205   5.332
 7801SOL    HW124302   4.499   2.239   5.425
 7801SOL    HW224303   4.573   2.136   5.323
 7802SOL     OW24304   5.467   2.383   6.635
 7802SOL    HW124305   5.367   2.392   6.637
 7802SOL    HW224306   5.495   2.352   6.544
 7803SOL     OW24307   3.267   3.502   5.860
 7803SOL    HW124308   3.215   3.508   5.775
 7803SOL    HW224309   3.232   3.425   5.914
 7804SOL     OW24310   5.267   1.255   5.962
 7804SOL    HW124311   5.333   1.309   5.911
 7804SOL    HW224312   5.182   1.307   5.972
 7805SOL     OW24313   5.648   3.163   1.332
 7805SOL    HW124314   5.722   3.124   1.278
 7805SOL    HW224315   5.650   3.123   1.424
 7806SOL     OW24316   5.065   2.663   0.402
 7806SOL    HW124317   5.119   2.742   0.372
 7806SOL    HW224318   5.088   2.584   0.346
 7807SOL     OW24319   0.513   3.982   0.095
 7807SOL    HW124320   0.577   3.912   0.126
 7807SOL    HW224321   0.537   4.010   0.002
 7808SOL     OW24322   0.204   1.486   4.990
 7808SOL    HW124323   0.244   1.534   5.068
 7808SOL    HW224324   0.125   1.433   5.020
 7809SOL     OW24325   1.285   5.645   5.790
 7809SOL    HW124326   1.197   5.692   5.780
 7809SOL    HW224327   1.288   5.598   5.878
 7810SOL     OW24328   3.051   1.129   6.589
 7810SOL    HW124329   2.990   1.079   6.650
 7810SOL    HW224330   3.000   1.157   6.507
 7811SOL     OW24331   6.250   4.930   5.143
 7811SOL    HW124332   6.339   4.976   5.150
 7811SOL    HW224333   6.262   4.843   5.095
 7812SOL     OW24334   0.752   2.164   3.763
 7812SOL    HW124335   0.673   2.112   3.794
 7812SOL    HW224336   0.795   2.210   3.841
 7813SOL     OW24337   5.973   1.501   0.909
 7813SOL    HW124338   5.884   1.520   0.867
 7813SOL    HW224339   6.000   1.579   0.965
 7814SOL     OW24340   1.897   2.999   4.256
 7814SOL    HW124341   1.980   2.954   4.289
 7814SOL    HW224342   1.818   2.940   4.270
 7815SOL     OW24343   6.803   2.118   5.328
 7815SOL    HW124344   6.832   2.128   5.423
 7815SOL    HW224345   6.860   2.050   5.283
 7816SOL     OW24346   0.211   4.603   5.009
 7816SOL    HW124347   0.113   4.585   4.994
 7816SOL    HW224348   0.221   4.679   5.074
 7817SOL     OW24349   5.673   3.094   5.564
 7817SOL    HW124350   5.693   3.024   5.496
 7817SOL    HW224351   5.743   3.094   5.635
 7818SOL     OW24352   5.862   3.097   3.845
 7818SOL    HW124353   5.766   3.108   3.819
 7818SOL    HW224354   5.912   3.052   3.771
 7819SOL     OW24355   1.139   0.955   0.976
 7819SOL    HW124356   1.151   0.908   1.063
 7819SOL    HW224357   1.042   0.970   0.959
 7820SOL     OW24358   2.827   6.799   5.937
 7820SOL    HW124359   2.768   6.824   6.014
 7820SOL    HW224360   2.900   6.739   5.969
 7821SOL     OW24361   3.239   6.428   1.112
 7821SOL    HW124362   3.243   6.393   1.206
 7821SOL    HW224363   3.156   6.394   1.068
 7822SOL     OW24364   1.242   6.593   4.912
 7822SOL    HW124365   1.331   6.586   4.866
 7822SOL    HW224366   1.225   6.688   4.939
 7823SOL     OW24367   1.869   3.509   5.436
 7823SOL    HW124368   1.933   3.585   5.425
 7823SOL    HW224369   1.815   3.524   5.519
 7824SOL     OW24370   0.864   3.128   5.742
 7824SOL    HW124371   0.879   3.167   5.652
 7824SOL    HW224372   0.946   3.140   5.798
 7825SOL     OW24373   2.383   0.838   0.323
 7825SOL    HW124374   2.477   0.840   0.288
 7825SOL    HW224375   2.383   0.858   0.421
 7826SOL     OW24376   1.011   3.910   5.988
 7826SOL    HW124377   0.953   3.828   5.981
 7826SOL    HW224378   1.063   3.921   5.903
 7827SOL     OW24379   6.185   5.002   3.755
 7827SOL    HW124380   6.114   5.061   3.794
 7827SOL    HW224381   6.161   4.978   3.661
 7828SOL     OW24382   0.921   6.209   5.920
 7828SOL    HW124383   0.951   6.188   6.013
 7828SOL    HW224384   0.850   6.280   5.922
 7829SOL     OW24385   4.642   5.130   0.714
 7829SOL    HW124386   4.546   5.110   0.731
 7829SOL    HW224387   4.677   5.071   0.641
 7830SOL     OW24388   1.737   5.132   4.621
 7830SOL    HW124389   1.642   5.143   4.593
 7830SOL    HW224390   1.789   5.214   4.599
 7831SOL     OW24391   1.901   0.464   6.400
 7831SOL    HW124392   1.820   0.507   6.440
 7831SOL    HW224393   1.970   0.452   6.470
 7832SOL     OW24394   6.880   1.292   5.221
 7832SOL    HW124395   6.865   1.294   5.122
 7832SOL    HW224396   6.834   1.212   5.260
 7833SOL     OW24397   0.603   0.135   3.062
 7833SOL    HW124398   0.663   0.187   3.122
 7833SOL    HW224399   0.523   0.190   3.037
 7834SOL     OW24400   0.239   3.324   5.301
 7834SOL    HW124401   0.305   3.260   5.263
 7834SOL    HW224402   0.191   3.371   5.227
 7835SOL     OW24403   3.188   2.436   5.705
 7835SOL    HW124404   3.281   2.436   5.742
 7835SOL    HW224405   3.129   2.379   5.763
 7836SOL     OW24406   2.881   3.669   4.950
 7836SOL    HW124407   2.792   3.708   4.973
 7836SOL    HW224408   2.888   3.660   4.851
 7837SOL     OW24409   0.990   5.725   6.827
 7837SOL    HW124410   0.980   5.634   6.868
 7837SOL    HW224411   0.955   5.794   6.891
 7838SOL     OW24412   4.262   5.099   1.634
 7838SOL    HW124413   4.223   5.031   1.696
 7838SOL    HW224414   4.338   5.059   1.584
 7839SOL     OW24415   6.234   3.475   5.187
 7839SOL    HW124416   6.222   3.461   5.089
 7839SOL    HW224417   6.189   3.400   5.237
 7840SOL     OW24418   2.467   2.464   3.502
 7840SOL    HW124419   2.372   2.436   3.519
 7840SOL    HW224420   2.467   2.552   3.453
 7841SOL     OW24421   4.732   1.790   5.455
 7841SOL    HW124422   4.644   1.782   5.408
 7841SOL    HW224423   4.730   1.868   5.516
 7842SOL     OW24424   0.840   0.241   0.990
 7842SOL    HW124425   0.921   0.298   0.996
 7842SOL    HW224426   0.861   0.159   0.936
 7843SOL     OW24427   6.560   6.256   1.856
 7843SOL    HW124428   6.590   6.161   1.848
 7843SOL    HW224429   6.475   6.268   1.805
 7844SOL     OW24430   3.978   0.076   2.323
 7844SOL    HW124431   4.019   7.003   2.306
 7844SOL    HW224432   3.907   0.093   2.255
 7845SOL     OW24433   6.685   3.327   1.673
 7845SOL    HW124434   6.675   3.266   1.595
 7845SOL    HW224435   6.708   3.419   1.640
 7846SOL     OW24436   0.737   1.792   0.212
 7846SOL    HW124437   0.828   1.749   0.210
 7846SOL    HW224438   0.719   1.827   0.304
 7847SOL     OW24439   5.563   3.983   6.018
 7847SOL    HW124440   5.628   3.921   6.063
 7847SOL    HW224441   5.473   3.974   6.061
 7848SOL     OW24442   4.319   5.064   0.644
 7848SOL    HW124443   4.263   5.147   0.639
 7848SOL    HW224444   4.330   5.038   0.740
 7849SOL     OW24445   4.597   5.122   0.079
 7849SOL    HW124446   4.585   5.047   0.015
 7849SOL    HW224447   4.616   5.207   0.029
 7850SOL     OW24448   6.720   0.911   3.419
 7850SOL    HW124449   6.766   0.932   3.506
 7850SOL    HW224450   6.622   0.902   3.435
 7851SOL     OW24451   0.555   4.715   0.445
 7851SOL    HW124452   0.551   4.648   0.520
 7851SOL    HW224453   0.522   4.803   0.478
 7852SOL     OW24454   1.247   3.511   5.818
 7852SOL    HW124455   1.292   3.503   5.728
 7852SOL    HW224456   1.173   3.444   5.825
 7853SOL     OW24457   4.410   2.887   1.698
 7853SOL    HW124458   4.468   2.951   1.749
 7853SOL    HW224459   4.315   2.916   1.705
 7854SOL     OW24460   4.212   1.258   1.081
 7854SOL    HW124461   4.274   1.196   1.128
 7854SOL    HW224462   4.238   1.265   0.985
 7855SOL     OW24463   5.035   6.374   3.765
 7855SOL    HW124464   5.066   6.295   3.711
 7855SOL    HW224465   4.971   6.344   3.835
 7856SOL     OW24466   2.226   6.372   6.546
 7856SOL    HW124467   2.188   6.336   6.631
 7856SOL    HW224468   2.220   6.303   6.475
 7857SOL     OW24469   7.013   5.243   0.422
 7857SOL    HW124470   0.054   5.221   0.501
 7857SOL    HW224471   6.977   5.158   0.383
 7858SOL     OW24472   0.524   4.129   6.292
 7858SOL    HW124473   0.531   4.084   6.203
 7858SOL    HW224474   0.432   4.165   6.304
 7859SOL     OW24475   5.024   2.132   1.428
 7859SOL    HW124476   5.069   2.214   1.463
 7859SOL    HW224477   4.936   2.120   1.475
 7860SOL     OW24478   3.004   1.675   3.105
 7860SOL    HW124479   2.951   1.745   3.059
 7860SOL    HW224480   3.070   1.718   3.168
 7861SOL     OW24481   1.967   5.701   0.713
 7861SOL    HW124482   1.949   5.800   0.714
 7861SOL    HW224483   1.916   5.658   0.787
 7862SOL     OW24484   1.228   6.510   6.720
 7862SOL    HW124485   1.153   6.483   6.660
 7862SOL    HW224486   1.258   6.431   6.774
 7863SOL     OW24487   0.403   4.213   3.678
 7863SOL    HW124488   0.502   4.220   3.683
 7863SOL    HW224489   0.363   4.236   3.767
 7864SOL     OW24490   3.303   5.478   5.084
 7864SOL    HW124491   3.345   5.482   4.993
 7864SOL    HW224492   3.345   5.403   5.136
 7865SOL     OW24493   6.320   5.428   3.553
 7865SOL    HW124494   6.404   5.406   3.602
 7865SOL    HW224495   6.341   5.438   3.455
 7866SOL     OW24496   0.671   1.133   5.484
 7866SOL    HW124497   0.723   1.118   5.399
 7866SOL    HW224498   0.576   1.106   5.470
 7867SOL     OW24499   4.449   5.449   2.784
 7867SOL    HW124500   4.507   5.370   2.765
 7867SOL    HW224501   4.354   5.426   2.763
 7868SOL     OW24502   4.259   6.241   1.404
 7868SOL    HW124503   4.218   6.177   1.339
 7868SOL    HW224504   4.353   6.261   1.377
 7869SOL     OW24505   5.768   5.128   6.923
 7869SOL    HW124506   5.769   5.078   7.009
 7869SOL    HW224507   5.849   5.187   6.918
 7870SOL     OW24508   6.480   0.166   3.602
 7870SOL    HW124509   6.535   0.092   3.641
 7870SOL    HW224510   6.429   0.212   3.674
 7871SOL     OW24511   4.523   0.920   0.471
 7871SOL    HW124512   4.445   0.899   0.412
 7871SOL    HW224513   4.545   0.840   0.526
 7872SOL     OW24514   6.705   4.676   4.118
 7872SOL    HW124515   6.679   4.591   4.072
 7872SOL    HW224516   6.742   4.655   4.208
 7873SOL     OW24517   4.928   2.326   6.836
 7873SOL    HW124518   4.854   2.391   6.854
 7873SOL    HW224519   4.989   2.323   6.916
 7874SOL     OW24520   6.567   2.355   0.162
 7874SOL    HW124521   6.530   2.443   0.193
 7874SOL    HW224522   6.507   2.281   0.192
 7875SOL     OW24523   6.933   5.047   6.726
 7875SOL    HW124524   7.000   5.034   6.799
 7875SOL    HW224525   6.962   4.996   6.644
 7876SOL     OW24526   1.197   6.709   2.827
 7876SOL    HW124527   1.234   6.720   2.919
 7876SOL    HW224528   1.122   6.643   2.828
 7877SOL     OW24529   1.026   3.130   1.797
 7877SOL    HW124530   1.064   3.057   1.854
 7877SOL    HW224531   1.074   3.133   1.710
 7878SOL     OW24532   3.893   0.501   2.352
 7878SOL    HW124533   3.846   0.589   2.348
 7878SOL    HW224534   3.847   0.442   2.418
 7879SOL     OW24535   2.525   5.528   1.721
 7879SOL    HW124536   2.489   5.566   1.636
 7879SOL    HW224537   2.612   5.482   1.703
 7880SOL     OW24538   1.267   4.669   2.247
 7880SOL    HW124539   1.283   4.761   2.284
 7880SOL    HW224540   1.283   4.669   2.149
 7881SOL     OW24541   4.975   2.812   3.096
 7881SOL    HW124542   5.071   2.800   3.121
 7881SOL    HW224543   4.938   2.724   3.065
 7882SOL     OW24544   0.022   2.167   6.872
 7882SOL    HW124545   6.974   2.109   6.921
 7882SOL    HW224546   0.107   2.118   6.858
 7883SOL     OW24547   0.555   6.805   4.645
 7883SOL    HW124548   0.547   6.749   4.562
 7883SOL    HW224549   0.469   6.853   4.661
 7884SOL     OW24550   1.564   2.928   4.165
 7884SOL    HW124551   1.544   2.971   4.252
 7884SOL    HW224552   1.526   2.983   4.090
 7885SOL     OW24553   6.757   5.991   6.807
 7885SOL    HW124554   6.700   6.063   6.767
 7885SOL    HW224555   6.773   5.920   6.738
 7886SOL     OW24556   5.043   4.467   0.276
 7886SOL    HW124557   5.081   4.390   0.224
 7886SOL    HW224558   5.109   4.498   0.344
 7887SOL     OW24559   4.270   1.989   6.615
 7887SOL    HW124560   4.293   1.892   6.612
 7887SOL    HW224561   4.269   2.020   6.710
 7888SOL     OW24562   4.200   5.554   4.134
 7888SOL    HW124563   4.209   5.503   4.220
 7888SOL    HW224564   4.287   5.553   4.085
 7889SOL     OW24565   6.328   4.433   3.853
 7889SOL    HW124566   6.318   4.393   3.944
 7889SOL    HW224567   6.287   4.524   3.852
 7890SOL     OW24568   2.098   3.758   2.851
 7890SOL    HW124569   2.160   3.831   2.879
 7890SOL    HW224570   2.105   3.743   2.752
 7891SOL     OW24571   0.202   4.350   2.741
 7891SOL    HW124572   0.124   4.295   2.770
 7891SOL    HW224573   0.257   4.298   2.675
 7892SOL     OW24574   2.368   2.338   4.763
 7892SOL    HW124575   2.394   2.433   4.746
 7892SOL    HW224576   2.380   2.284   4.680
 7893SOL     OW24577   5.149   6.479   1.158
 7893SOL    HW124578   5.123   6.384   1.173
 7893SOL    HW224579   5.245   6.492   1.186
 7894SOL     OW24580   2.851   0.193   1.237
 7894SOL    HW124581   2.934   0.169   1.287
 7894SOL    HW224582   2.871   0.202   1.140
 7895SOL     OW24583   0.930   1.560   4.149
 7895SOL    HW124584   1.024   1.591   4.134
 7895SOL    HW224585   0.873   1.589   4.072
 7896SOL     OW24586   3.799   2.569   6.316
 7896SOL    HW124587   3.715   2.621   6.301
 7896SOL    HW224588   3.876   2.615   6.270
 7897SOL     OW24589   2.827   3.539   0.542
 7897SOL    HW124590   2.772   3.457   0.560
 7897SOL    HW224591   2.893   3.520   0.470
 7898SOL     OW24592   5.207   1.096   4.268
 7898SOL    HW124593   5.151   1.078   4.187
 7898SOL    HW224594   5.150   1.142   4.337
 7899SOL     OW24595   4.699   0.880   1.351
 7899SOL    HW124596   4.624   0.830   1.307
 7899SOL    HW224597   4.688   0.978   1.334
 7900SOL     OW24598   0.408   6.074   1.283
 7900SOL    HW124599   0.394   6.065   1.381
 7900SOL    HW224600   0.471   6.150   1.266
 7901SOL     OW24601   6.032   4.907   1.149
 7901SOL    HW124602   6.111   4.947   1.103
 7901SOL    HW224603   6.020   4.812   1.120
 7902SOL     OW24604   4.782   4.992   6.085
 7902SOL    HW124605   4.686   4.998   6.059
 7902SOL    HW224606   4.839   5.028   6.010
 7903SOL     OW24607   0.368   2.756   1.856
 7903SOL    HW124608   0.377   2.657   1.850
 7903SOL    HW224609   0.380   2.796   1.765
 7904SOL     OW24610   5.522   2.274   3.022
 7904SOL    HW124611   5.545   2.363   3.062
 7904SOL    HW224612   5.523   2.204   3.093
 7905SOL     OW24613   2.301   1.624   1.878
 7905SOL    HW124614   2.352   1.682   1.941
 7905SOL    HW224615   2.208   1.661   1.867
 7906SOL     OW24616   1.475   4.598   6.933
 7906SOL    HW124617   1.530   4.546   6.867
 7906SOL    HW224618   1.386   4.618   6.892
 7907SOL     OW24619   0.705   2.708   2.575
 7907SOL    HW124620   0.682   2.800   2.544
 7907SOL    HW224621   0.622   2.653   2.583
 7908SOL     OW24622   0.554   1.680   3.010
 7908SOL    HW124623   0.631   1.741   2.994
 7908SOL    HW224624   0.582   1.585   2.992
 7909SOL     OW24625   4.292   6.420   4.993
 7909SOL    HW124626   4.264   6.478   5.070
 7909SOL    HW224627   4.373   6.458   4.950
 7910SOL     OW24628   6.344   3.069   6.130
 7910SOL    HW124629   6.264   3.022   6.166
 7910SOL    HW224630   6.406   3.090   6.205
 7911SOL     OW24631   6.956   5.931   6.058
 7911SOL    HW124632   6.887   5.871   6.098
 7911SOL    HW224633   6.916   5.983   5.982
 7912SOL     OW24634   0.176   5.690   4.854
 7912SOL    HW124635   0.257   5.659   4.804
 7912SOL    HW224636   0.099   5.631   4.830
 7913SOL     OW24637   1.918   6.163   6.563
 7913SOL    HW124638   1.903   6.070   6.529
 7913SOL    HW224639   1.900   6.229   6.489
 7914SOL     OW24640   5.894   4.663   0.670
 7914SOL    HW124641   5.915   4.704   0.759
 7914SOL    HW224642   5.945   4.710   0.599
 7915SOL     OW24643   3.153   1.308   3.024
 7915SOL    HW124644   3.119   1.392   2.981
 7915SOL    HW224645   3.084   1.236   3.014
 7916SOL     OW24646   4.241   3.531   5.188
 7916SOL    HW124647   4.312   3.523   5.259
 7916SOL    HW224648   4.230   3.627   5.162
 7917SOL     OW24649   3.647   3.944   3.738
 7917SOL    HW124650   3.697   3.978   3.818
 7917SOL    HW224651   3.563   3.998   3.726
 7918SOL     OW24652   5.991   2.354   2.059
 7918SOL    HW124653   6.030   2.276   2.108
 7918SOL    HW224654   5.919   2.322   1.997
 7919SOL     OW24655   5.389   3.892   2.482
 7919SOL    HW124656   5.412   3.891   2.579
 7919SOL    HW224657   5.468   3.923   2.429
 7920SOL     OW24658   6.788   6.363   0.901
 7920SOL    HW124659   6.866   6.338   0.844
 7920SOL    HW224660   6.807   6.341   0.996
 7921SOL     OW24661   3.572   5.110   2.460
 7921SOL    HW124662   3.517   5.036   2.499
 7921SOL    HW224663   3.518   5.194   2.459
 7922SOL     OW24664   1.149   4.011   4.702
 7922SOL    HW124665   1.182   4.101   4.675
 7922SOL    HW224666   1.109   3.965   4.623
 7923SOL     OW24667   1.458   2.622   3.244
 7923SOL    HW124668   1.532   2.689   3.242
 7923SOL    HW224669   1.485   2.543   3.298
 7924SOL     OW24670   2.621   1.537   3.467
 7924SOL    HW124671   2.622   1.452   3.521
 7924SOL    HW224672   2.532   1.580   3.475
 7925SOL     OW24673   1.433   1.205   0.366
 7925SOL    HW124674   1.490   1.211   0.448
 7925SOL    HW224675   1.393   1.295   0.347
 7926SOL     OW24676   3.423   0.759   1.470
 7926SOL    HW124677   3.343   0.737   1.413
 7926SOL    HW224678   3.393   0.810   1.551
 7927SOL     OW24679   4.477   5.514   4.860
 7927SOL    HW124680   4.387   5.485   4.892
 7927SOL    HW224681   4.541   5.513   4.937
 7928SOL     OW24682   0.378   3.763   0.307
 7928SOL    HW124683   0.386   3.664   0.313
 7928SOL    HW224684   0.283   3.788   0.286
 7929SOL     OW24685   3.629   4.248   5.105
 7929SOL    HW124686   3.578   4.216   5.185
 7929SOL    HW224687   3.595   4.201   5.023
 7930SOL     OW24688   3.708   0.093   2.158
 7930SOL    HW124689   3.674   0.076   2.066
 7930SOL    HW224690   3.640   0.144   2.210
 7931SOL     OW24691   2.976   3.248   5.670
 7931SOL    HW124692   3.060   3.302   5.663
 7931SOL    HW224693   3.000   3.151   5.677
 7932SOL     OW24694   3.177   1.146   0.660
 7932SOL    HW124695   3.161   1.091   0.742
 7932SOL    HW224696   3.145   1.239   0.675
 7933SOL     OW24697   2.198   1.634   6.074
 7933SOL    HW124698   2.248   1.600   5.994
 7933SOL    HW224699   2.144   1.560   6.114
 7934SOL     OW24700   4.346   2.163   5.943
 7934SOL    HW124701   4.436   2.142   5.980
 7934SOL    HW224702   4.313   2.250   5.981
 7935SOL     OW24703   4.622   5.634   2.173
 7935SOL    HW124704   4.653   5.558   2.115
 7935SOL    HW224705   4.539   5.673   2.133
 7936SOL     OW24706   4.250   5.952   1.949
 7936SOL    HW124707   4.244   6.045   1.987
 7936SOL    HW224708   4.161   5.908   1.954
 7937SOL     OW24709   5.670   1.824   6.346
 7937SOL    HW124710   5.651   1.833   6.248
 7937SOL    HW224711   5.765   1.847   6.364
 7938SOL     OW24712   6.383   4.756   4.208
 7938SOL    HW124713   6.326   4.828   4.168
 7938SOL    HW224714   6.440   4.714   4.136
 7939SOL     OW24715   6.616   6.214   3.698
 7939SOL    HW124716   6.700   6.201   3.645
 7939SOL    HW224717   6.553   6.139   3.679
 7940SOL     OW24718   1.815   6.116   0.661
 7940SOL    HW124719   1.888   6.086   0.600
 7940SOL    HW224720   1.854   6.171   0.735
 7941SOL     OW24721   1.059   0.514   0.662
 7941SOL    HW124722   1.150   0.555   0.671
 7941SOL    HW224723   0.990   0.586   0.651
 7942SOL     OW24724   0.939   0.006   1.566
 7942SOL    HW124725   0.914   0.084   1.509
 7942SOL    HW224726   0.963   0.038   1.658
 7943SOL     OW24727   6.037   1.661   6.398
 7943SOL    HW124728   5.938   1.642   6.395
 7943SOL    HW224729   6.051   1.759   6.410
 7944SOL     OW24730   6.935   4.359   1.981
 7944SOL    HW124731   6.901   4.429   1.919
 7944SOL    HW224732   6.862   4.329   2.042
 7945SOL     OW24733   5.557   6.649   0.663
 7945SOL    HW124734   5.603   6.574   0.614
 7945SOL    HW224735   5.458   6.635   0.659
 7946SOL     OW24736   1.993   1.719   5.464
 7946SOL    HW124737   2.035   1.701   5.375
 7946SOL    HW224738   1.924   1.791   5.454
 7947SOL     OW24739   4.387   5.610   6.514
 7947SOL    HW124740   4.323   5.675   6.473
 7947SOL    HW224741   4.337   5.527   6.541
 7948SOL     OW24742   1.069   5.262   5.037
 7948SOL    HW124743   1.133   5.211   5.095
 7948SOL    HW224744   1.103   5.355   5.024
 7949SOL     OW24745   6.863   3.097   4.269
 7949SOL    HW124746   6.848   3.176   4.328
 7949SOL    HW224747   6.826   3.015   4.312
 7950SOL     OW24748   2.516   5.786   3.548
 7950SOL    HW124749   2.507   5.876   3.507
 7950SOL    HW224750   2.607   5.776   3.587
 7951SOL     OW24751   2.451   3.456   0.633
 7951SOL    HW124752   2.418   3.487   0.543
 7951SOL    HW224753   2.472   3.535   0.690
 7952SOL     OW24754   5.958   4.084   0.693
 7952SOL    HW124755   5.967   4.009   0.759
 7952SOL    HW224756   5.935   4.047   0.603
 7953SOL     OW24757   1.987   4.118   1.270
 7953SOL    HW124758   1.990   4.102   1.369
 7953SOL    HW224759   2.080   4.126   1.235
 7954SOL     OW24760   6.037   5.327   3.880
 7954SOL    HW124761   5.937   5.337   3.882
 7954SOL    HW224762   6.070   5.299   3.970
 7955SOL     OW24763   1.661   6.575   6.415
 7955SOL    HW124764   1.631   6.629   6.337
 7955SOL    HW224765   1.586   6.565   6.480
 7956SOL     OW24766   5.424   5.770   3.074
 7956SOL    HW124767   5.414   5.770   3.173
 7956SOL    HW224768   5.342   5.808   3.032
 7957SOL     OW24769   1.814   2.950   0.701
 7957SOL    HW124770   1.876   2.872   0.696
 7957SOL    HW224771   1.791   2.981   0.608
 7958SOL     OW24772   1.929   5.428   3.306
 7958SOL    HW124773   1.901   5.465   3.218
 7958SOL    HW224774   1.908   5.494   3.378
 7959SOL     OW24775   4.726   5.315   1.724
 7959SOL    HW124776   4.675   5.367   1.655
 7959SOL    HW224777   4.672   5.235   1.752
 7960SOL     OW24778   1.818   2.330   1.295
 7960SOL    HW124779   1.814   2.323   1.195
 7960SOL    HW224780   1.833   2.425   1.322
 7961SOL     OW24781   1.590   6.230   0.314
 7961SOL    HW124782   1.582   6.318   0.269
 7961SOL    HW224783   1.665   6.178   0.273
 7962SOL     OW24784   1.982   6.628   2.762
 7962SOL    HW124785   1.895   6.614   2.810
 7962SOL    HW224786   2.007   6.544   2.714
 7963SOL     OW24787   0.076   6.067   6.296
 7963SOL    HW124788   0.035   6.011   6.224
 7963SOL    HW224789   0.158   6.113   6.260
 7964SOL     OW24790   5.939   5.523   3.301
 7964SOL    HW124791   5.926   5.526   3.202
 7964SOL    HW224792   5.924   5.430   3.334
 7965SOL     OW24793   3.987   1.609   0.965
 7965SOL    HW124794   4.004   1.708   0.966
 7965SOL    HW224795   3.935   1.585   0.884
 7966SOL     OW24796   0.066   1.278   4.591
 7966SOL    HW124797   0.086   1.180   4.582
 7966SOL    HW224798   0.039   1.315   4.502
 7967SOL     OW24799   2.386   0.512   3.990
 7967SOL    HW124800   2.345   0.602   3.975
 7967SOL    HW224801   2.316   0.442   3.978
 7968SOL     OW24802   2.023   0.983   0.768
 7968SOL    HW124803   2.015   0.961   0.671
 7968SOL    HW224804   2.014   0.899   0.822
 7969SOL     OW24805   3.893   2.025   3.297
 7969SOL    HW124806   3.936   1.936   3.309
 7969SOL    HW224807   3.876   2.066   3.387
 7970SOL     OW24808   0.366   4.712   3.233
 7970SOL    HW124809   0.268   4.727   3.236
 7970SOL    HW224810   0.392   4.683   3.141
 7971SOL     OW24811   3.323   2.126   2.396
 7971SOL    HW124812   3.387   2.083   2.332
 7971SOL    HW224813   3.360   2.122   2.488
 7972SOL     OW24814   5.537   5.863   1.451
 7972SOL    HW124815   5.529   5.940   1.389
 7972SOL    HW224816   5.489   5.883   1.536
 7973SOL     OW24817   5.555   1.760   2.891
 7973SOL    HW124818   5.459   1.788   2.885
 7973SOL    HW224819   5.594   1.753   2.800
 7974SOL     OW24820   4.525   5.973   4.714
 7974SOL    HW124821   4.594   6.038   4.682
 7974SOL    HW224822   4.454   6.021   4.765
 7975SOL     OW24823   1.861   1.396   2.161
 7975SOL    HW124824   1.912   1.482   2.164
 7975SOL    HW224825   1.871   1.348   2.248
 7976SOL     OW24826   0.650   0.080   6.409
 7976SOL    HW124827   0.704   0.084   6.326
 7976SOL    HW224828   0.581   0.152   6.408
 7977SOL     OW24829   4.995   5.992   0.851
 7977SOL    HW124830   4.980   6.074   0.907
 7977SOL    HW224831   4.991   6.018   0.754
 7978SOL     OW24832   3.074   1.696   6.015
 7978SOL    HW124833   3.170   1.719   5.998
 7978SOL    HW224834   3.069   1.620   6.080
 7979SOL     OW24835   4.988   5.584   4.481
 7979SOL    HW124836   4.960   5.564   4.575
 7979SOL    HW224837   4.908   5.604   4.425
 7980SOL     OW24838   3.025   1.076   1.852
 7980SOL    HW124839   3.006   1.013   1.928
 7980SOL    HW224840   3.116   1.116   1.864
 7981SOL     OW24841   0.310   6.442   2.419
 7981SOL    HW124842   0.359   6.511   2.473
 7981SOL    HW224843   0.323   6.352   2.462
 7982SOL     OW24844   0.555   3.229   1.165
 7982SOL    HW124845   0.542   3.134   1.193
 7982SOL    HW224846   0.640   3.265   1.205
 7983SOL     OW24847   5.504   2.153   0.627
 7983SOL    HW124848   5.540   2.242   0.655
 7983SOL    HW224849   5.485   2.098   0.709
 7984SOL     OW24850   6.227   0.781   0.716
 7984SOL    HW124851   6.299   0.738   0.769
 7984SOL    HW224852   6.235   0.754   0.620
 7985SOL     OW24853   1.129   1.268   0.657
 7985SOL    HW124854   1.183   1.228   0.731
 7985SOL    HW224855   1.102   1.196   0.593
 7986SOL     OW24856   5.076   3.808   0.585
 7986SOL    HW124857   5.126   3.761   0.513
 7986SOL    HW224858   4.977   3.796   0.570
 7987SOL     OW24859   0.915   3.367   5.112
 7987SOL    HW124860   0.838   3.373   5.176
 7987SOL    HW224861   0.986   3.309   5.151
 7988SOL     OW24862   2.571   1.022   5.638
 7988SOL    HW124863   2.651   1.064   5.680
 7988SOL    HW224864   2.592   0.928   5.614
 7989SOL     OW24865   3.580   3.815   0.074
 7989SOL    HW124866   3.560   3.718   0.089
 7989SOL    HW224867   3.507   3.871   0.114
 7990SOL     OW24868   2.341   2.743   4.522
 7990SOL    HW124869   2.326   2.680   4.445
 7990SOL    HW224870   2.427   2.720   4.567
 7991SOL     OW24871   2.442   3.156   5.965
 7991SOL    HW124872   2.419   3.060   5.951
 7991SOL    HW224873   2.483   3.193   5.881
 7992SOL     OW24874   2.920   1.464   0.204
 7992SOL    HW124875   2.934   1.562   0.217
 7992SOL    HW224876   2.984   1.413   0.262
 7993SOL     OW24877   2.669   5.425   6.336
 7993SOL    HW124878   2.651   5.341   6.284
 7993SOL    HW224879   2.582   5.472   6.353
 7994SOL     OW24880   5.516   0.027   4.931
 7994SOL    HW124881   5.537   0.089   4.854
 7994SOL    HW224882   5.549   6.952   4.909
 7995SOL     OW24883   4.566   5.086   2.439
 7995SOL    HW124884   4.583   5.101   2.342
 7995SOL    HW224885   4.579   4.989   2.460
 7996SOL     OW24886   4.417   1.562   5.582
 7996SOL    HW124887   4.468   1.610   5.511
 7996SOL    HW224888   4.373   1.481   5.542
 7997SOL     OW24889   5.291   3.223   0.770
 7997SOL    HW124890   5.340   3.311   0.770
 7997SOL    HW224891   5.208   3.231   0.825
 7998SOL     OW24892   6.718   5.366   6.329
 7998SOL    HW124893   6.701   5.360   6.231
 7998SOL    HW224894   6.690   5.456   6.362
 7999SOL     OW24895   3.070   2.620   5.544
 7999SOL    HW124896   3.141   2.559   5.580
 7999SOL    HW224897   2.991   2.620   5.605
 8000SOL     OW24898   5.046   0.350   5.847
 8000SOL    HW124899   5.145   0.338   5.840
 8000SOL    HW224900   5.024   0.447   5.843
 8001SOL     OW24901   2.198   4.852   0.852
 8001SOL    HW124902   2.216   4.876   0.756
 8001SOL    HW224903   2.231   4.925   0.911
 8002SOL     OW24904   4.409   2.031   5.709
 8002SOL    HW124905   4.419   2.073   5.799
 8002SOL    HW224906   4.430   1.933   5.716
 8003SOL     OW24907   4.594   5.129   3.300
 8003SOL    HW124908   4.664   5.194   3.329
 8003SOL    HW224909   4.635   5.062   3.238
 8004SOL     OW24910   1.230   4.600   3.266
 8004SOL    HW124911   1.212   4.676   3.328
 8004SOL    HW224912   1.310   4.621   3.210
 8005SOL     OW24913   1.974   1.202   2.666
 8005SOL    HW124914   1.962   1.146   2.749
 8005SOL    HW224915   2.071   1.222   2.653
 8006SOL     OW24916   4.289   5.546   2.041
 8006SOL    HW124917   4.344   5.480   1.989
 8006SOL    HW224918   4.342   5.630   2.053
 8007SOL     OW24919   0.395   1.046   3.945
 8007SOL    HW124920   0.408   0.976   3.875
 8007SOL    HW224921   0.354   1.127   3.904
 8008SOL     OW24922   5.941   5.080   1.675
 8008SOL    HW124923   5.843   5.069   1.690
 8008SOL    HW224924   5.989   5.075   1.763
 8009SOL     OW24925   6.831   6.322   2.994
 8009SOL    HW124926   6.870   6.292   2.907
 8009SOL    HW224927   6.816   6.421   2.991
 8010SOL     OW24928   2.138   2.063   6.890
 8010SOL    HW124929   2.193   1.992   6.847
 8010SOL    HW224930   2.079   2.106   6.821
 8011SOL     OW24931   2.467   3.002   0.094
 8011SOL    HW124932   2.508   2.948   0.020
 8011SOL    HW224933   2.492   2.962   0.182
 8012SOL     OW24934   2.271   6.301   3.075
 8012SOL    HW124935   2.213   6.335   3.149
 8012SOL    HW224936   2.273   6.201   3.076
 8013SOL     OW24937   6.277   5.154   4.581
 8013SOL    HW124938   6.296   5.083   4.514
 8013SOL    HW224939   6.186   5.140   4.620
 8014SOL     OW24940   2.623   0.543   6.382
 8014SOL    HW124941   2.680   0.624   6.371
 8014SOL    HW224942   2.625   0.489   6.298
 8015SOL     OW24943   1.610   1.921   0.363
 8015SOL    HW124944   1.610   1.858   0.441
 8015SOL    HW224945   1.644   1.872   0.282
 8016SOL     OW24946   4.031   5.794   1.915
 8016SOL    HW124947   3.998   5.734   1.841
 8016SOL    HW224948   4.033   5.742   2.001
 8017SOL     OW24949   6.323   3.555   5.515
 8017SOL    HW124950   6.315   3.594   5.423
 8017SOL    HW224951   6.419   3.558   5.544
 8018SOL     OW24952   4.863   3.065   3.949
 8018SOL    HW124953   4.818   3.006   3.883
 8018SOL    HW224954   4.874   3.157   3.910
 8019SOL     OW24955   3.128   5.362   1.055
 8019SOL    HW124956   3.194   5.408   1.115
 8019SOL    HW224957   3.036   5.397   1.073
 8020SOL     OW24958   5.676   6.779   6.359
 8020SOL    HW124959   5.729   6.785   6.444
 8020SOL    HW224960   5.707   6.699   6.307
 8021SOL     OW24961   6.580   1.051   1.461
 8021SOL    HW124962   6.484   1.075   1.475
 8021SOL    HW224963   6.591   0.952   1.474
 8022SOL     OW24964   5.187   5.006   3.995
 8022SOL    HW124965   5.276   5.043   3.969
 8022SOL    HW224966   5.122   5.019   3.920
 8023SOL     OW24967   6.961   5.501   3.767
 8023SOL    HW124968   0.029   5.457   3.794
 8023SOL    HW224969   6.978   5.598   3.747
 8024SOL     OW24970   4.420   5.493   3.928
 8024SOL    HW124971   4.518   5.505   3.941
 8024SOL    HW224972   4.401   5.400   3.899
 8025SOL     OW24973   2.912   5.914   0.629
 8025SOL    HW124974   2.955   5.835   0.584
 8025SOL    HW224975   2.956   5.998   0.599
 8026SOL     OW24976   2.499   2.116   6.733
 8026SOL    HW124977   2.457   2.029   6.706
 8026SOL    HW224978   2.575   2.136   6.672
 8027SOL     OW24979   4.610   3.182   5.615
 8027SOL    HW124980   4.623   3.275   5.647
 8027SOL    HW224981   4.620   3.118   5.692
 8028SOL     OW24982   6.409   5.546   0.958
 8028SOL    HW124983   6.484   5.526   1.020
 8028SOL    HW224984   6.325   5.503   0.991
 8029SOL     OW24985   3.500   4.193   5.835
 8029SOL    HW124986   3.562   4.271   5.840
 8029SOL    HW224987   3.553   4.109   5.823
 8030SOL     OW24988   7.012   3.603   1.458
 8030SOL    HW124989   0.023   3.543   1.382
 8030SOL    HW224990   0.077   3.630   1.509
 8031SOL     OW24991   3.973   6.388   0.704
 8031SOL    HW124992   3.972   6.378   0.804
 8031SOL    HW224993   4.028   6.468   0.679
 8032SOL     OW24994   4.712   3.713   5.696
 8032SOL    HW124995   4.716   3.810   5.672
 8032SOL    HW224996   4.736   3.658   5.616
 8033SOL     OW24997   6.736   0.760   1.975
 8033SOL    HW124998   6.648   0.744   1.930
 8033SOL    HW224999   6.735   0.718   2.066
 8034SOL     OW25000   6.585   2.149   5.751
 8034SOL    HW125001   6.504   2.194   5.713
 8034SOL    HW225002   6.621   2.202   5.827
 8035SOL     OW25003   5.343   6.115   5.749
 8035SOL    HW125004   5.258   6.065   5.769
 8035SOL    HW225005   5.351   6.193   5.811
 8036SOL     OW25006   1.183   4.114   1.472
 8036SOL    HW125007   1.207   4.018   1.462
 8036SOL    HW225008   1.198   4.162   1.386
 8037SOL     OW25009   2.324   3.049   1.589
 8037SOL    HW125010   2.325   2.989   1.670
 8037SOL    HW225011   2.298   3.141   1.617
 8038SOL     OW25012   5.681   1.200   4.402
 8038SOL    HW125013   5.681   1.152   4.314
 8038SOL    HW225014   5.646   1.139   4.473
 8039SOL     OW25015   2.435   5.602   3.361
 8039SOL    HW125016   2.483   5.680   3.402
 8039SOL    HW225017   2.410   5.537   3.433
 8040SOL     OW25018   5.915   6.118   6.626
 8040SOL    HW125019   5.845   6.051   6.604
 8040SOL    HW225020   5.967   6.088   6.705
 8041SOL     OW25021   3.336   2.912   1.006
 8041SOL    HW125022   3.331   2.835   0.944
 8041SOL    HW225023   3.432   2.937   1.020
 8042SOL     OW25024   1.684   4.999   6.637
 8042SOL    HW125025   1.595   5.021   6.675
 8042SOL    HW225026   1.741   4.956   6.707
 8043SOL     OW25027   3.411   0.648   0.906
 8043SOL    HW125028   3.505   0.678   0.923
 8043SOL    HW225029   3.398   0.556   0.943
 8044SOL     OW25030   3.093   2.926   1.836
 8044SOL    HW125031   3.046   2.839   1.821
 8044SOL    HW225032   3.052   2.997   1.780
 8045SOL     OW25033   5.737   2.820   3.800
 8045SOL    HW125034   5.778   2.837   3.890
 8045SOL    HW225035   5.766   2.730   3.766
 8046SOL     OW25036   6.426   5.392   5.156
 8046SOL    HW125037   6.336   5.412   5.194
 8046SOL    HW225038   6.481   5.343   5.223
 8047SOL     OW25039   2.413   0.250   4.364
 8047SOL    HW125040   2.359   0.223   4.444
 8047SOL    HW225041   2.453   0.340   4.380
 8048SOL     OW25042   5.249   0.413   5.540
 8048SOL    HW125043   5.155   0.436   5.567
 8048SOL    HW225044   5.312   0.443   5.612
 8049SOL     OW25045   2.249   0.207   6.994
 8049SOL    HW125046   2.290   0.116   7.006
 8049SOL    HW225047   2.202   0.211   6.906
 8050SOL     OW25048   0.566   3.206   1.913
 8050SOL    HW125049   0.536   3.225   2.006
 8050SOL    HW225050   0.622   3.282   1.880
 8051SOL     OW25051   2.531   2.113   4.173
 8051SOL    HW125052   2.582   2.067   4.245
 8051SOL    HW225053   2.484   2.045   4.116
 8052SOL     OW25054   4.167   1.626   2.766
 8052SOL    HW125055   4.131   1.545   2.719
 8052SOL    HW225056   4.261   1.608   2.797
 8053SOL     OW25057   4.490   3.460   1.649
 8053SOL    HW125058   4.488   3.361   1.659
 8053SOL    HW225059   4.405   3.499   1.683
 8054SOL     OW25060   4.615   5.942   4.455
 8054SOL    HW125061   4.569   5.934   4.544
 8054SOL    HW225062   4.548   5.931   4.382
 8055SOL     OW25063   1.594   0.108   5.283
 8055SOL    HW125064   1.542   0.189   5.254
 8055SOL    HW225065   1.685   0.110   5.240
 8056SOL     OW25066   4.467   1.181   2.673
 8056SOL    HW125067   4.537   1.196   2.604
 8056SOL    HW225068   4.493   1.104   2.731
 8057SOL     OW25069   3.633   6.738   3.872
 8057SOL    HW125070   3.612   6.777   3.782
 8057SOL    HW225071   3.663   6.810   3.934
 8058SOL     OW25072   1.838   0.170   2.876
 8058SOL    HW125073   1.778   0.101   2.917
 8058SOL    HW225074   1.933   0.141   2.885
 8059SOL     OW25075   1.601   1.294   4.043
 8059SOL    HW125076   1.685   1.314   3.993
 8059SOL    HW225077   1.529   1.270   3.979
 8060SOL     OW25078   0.543   2.633   5.253
 8060SOL    HW125079   0.559   2.731   5.259
 8060SOL    HW225080   0.478   2.606   5.324
 8061SOL     OW25081   5.718   6.602   3.421
 8061SOL    HW125082   5.772   6.556   3.492
 8061SOL    HW225083   5.686   6.535   3.355
 8062SOL     OW25084   1.885   2.160   1.494
 8062SOL    HW125085   1.843   2.206   1.416
 8062SOL    HW225086   1.858   2.063   1.494
 8063SOL     OW25087   2.407   2.899   5.842
 8063SOL    HW125088   2.369   2.889   5.750
 8063SOL    HW225089   2.376   2.823   5.899
 8064SOL     OW25090   5.826   2.240   5.338
 8064SOL    HW125091   5.734   2.278   5.345
 8064SOL    HW225092   5.890   2.299   5.388
 8065SOL     OW25093   4.338   0.258   6.391
 8065SOL    HW125094   4.308   0.352   6.406
 8065SOL    HW225095   4.301   0.200   6.463
 8066SOL     OW25096   1.677   0.331   1.571
 8066SOL    HW125097   1.594   0.322   1.626
 8066SOL    HW225098   1.754   0.289   1.620
 8067SOL     OW25099   4.555   1.927   2.646
 8067SOL    HW125100   4.568   1.870   2.565
 8067SOL    HW225101   4.473   1.983   2.635
 8068SOL     OW25102   6.962   4.207   4.311
 8068SOL    HW125103   6.981   4.146   4.388
 8068SOL    HW225104   6.999   4.298   4.332
 8069SOL     OW25105   0.415   6.058   2.289
 8069SOL    HW125106   0.468   6.131   2.244
 8069SOL    HW225107   0.388   6.089   2.381
 8070SOL     OW25108   3.810   0.364   2.578
 8070SOL    HW125109   3.839   0.345   2.671
 8070SOL    HW225110   3.711   0.381   2.576
 8071SOL     OW25111   5.487   4.849   0.095
 8071SOL    HW125112   5.490   4.875   7.015
 8071SOL    HW225113   5.553   4.905   0.146
 8072SOL     OW25114   3.845   0.399   3.649
 8072SOL    HW125115   3.900   0.322   3.617
 8072SOL    HW225116   3.825   0.460   3.571
 8073SOL     OW25117   4.949   6.988   6.278
 8073SOL    HW125118   5.037   6.945   6.296
 8073SOL    HW225119   4.900   6.937   6.207
 8074SOL     OW25120   3.075   4.071   0.108
 8074SOL    HW125121   2.988   4.049   0.153
 8074SOL    HW225122   3.121   4.145   0.158
 8075SOL     OW25123   6.471   1.574   4.306
 8075SOL    HW125124   6.398   1.611   4.249
 8075SOL    HW225125   6.520   1.649   4.351
 8076SOL     OW25126   4.799   3.230   6.354
 8076SOL    HW125127   4.790   3.171   6.434
 8076SOL    HW225128   4.819   3.174   6.273
 8077SOL     OW25129   1.254   0.921   6.964
 8077SOL    HW125130   1.302   0.985   0.007
 8077SOL    HW225131   1.267   0.828   6.997
 8078SOL     OW25132   5.815   3.790   1.180
 8078SOL    HW125133   5.818   3.890   1.180
 8078SOL    HW225134   5.722   3.759   1.163
 8079SOL     OW25135   1.601   2.786   0.504
 8079SOL    HW125136   1.625   2.871   0.456
 8079SOL    HW225137   1.588   2.712   0.437
 8080SOL     OW25138   3.879   4.946   0.287
 8080SOL    HW125139   3.819   5.021   0.313
 8080SOL    HW225140   3.963   4.983   0.246
 8081SOL     OW25141   5.621   2.544   4.023
 8081SOL    HW125142   5.532   2.512   3.990
 8081SOL    HW225143   5.608   2.628   4.076
 8082SOL     OW25144   6.859   3.302   4.714
 8082SOL    HW125145   6.931   3.243   4.751
 8082SOL    HW225146   6.789   3.315   4.784
 8083SOL     OW25147   5.939   1.851   4.993
 8083SOL    HW125148   6.026   1.824   4.951
 8083SOL    HW225149   5.953   1.870   5.090
 8084SOL     OW25150   6.010   0.057   0.013
 8084SOL    HW125151   5.996   0.138   0.069
 8084SOL    HW225152   5.979   6.993   0.064
 8085SOL     OW25153   4.880   2.050   1.152
 8085SOL    HW125154   4.847   1.959   1.127
 8085SOL    HW225155   4.939   2.043   1.232
 8086SOL     OW25156   2.946   5.029   6.243
 8086SOL    HW125157   3.007   5.013   6.321
 8086SOL    HW225158   2.852   5.039   6.277
 8087SOL     OW25159   2.215   3.861   0.674
 8087SOL    HW125160   2.123   3.828   0.697
 8087SOL    HW225161   2.211   3.915   0.591
 8088SOL     OW25162   4.612   0.616   3.098
 8088SOL    HW125163   4.523   0.577   3.076
 8088SOL    HW225164   4.669   0.547   3.143
 8089SOL     OW25165   6.725   2.657   0.291
 8089SOL    HW125166   6.648   2.636   0.230
 8089SOL    HW225167   6.809   2.659   0.237
 8090SOL     OW25168   4.533   1.492   5.310
 8090SOL    HW125169   4.567   1.407   5.351
 8090SOL    HW225170   4.437   1.479   5.284
 8091SOL     OW25171   1.960   3.766   5.358
 8091SOL    HW125172   1.890   3.796   5.423
 8091SOL    HW225173   1.936   3.798   5.266
 8092SOL     OW25174   6.441   1.895   4.098
 8092SOL    HW125175   6.391   1.810   4.081
 8092SOL    HW225176   6.539   1.878   4.095
 8093SOL     OW25177   6.156   5.437   0.988
 8093SOL    HW125178   6.140   5.471   0.895
 8093SOL    HW225179   6.069   5.429   1.036
 8094SOL     OW25180   0.529   3.174   4.126
 8094SOL    HW125181   0.480   3.233   4.191
 8094SOL    HW225182   0.579   3.231   4.061
 8095SOL     OW25183   6.681   3.398   5.212
 8095SOL    HW125184   6.769   3.425   5.173
 8095SOL    HW225185   6.677   3.298   5.219
 8096SOL     OW25186   4.468   0.460   0.268
 8096SOL    HW125187   4.476   0.376   0.214
 8096SOL    HW225188   4.392   0.451   0.333
 8097SOL     OW25189   4.618   2.171   3.935
 8097SOL    HW125190   4.524   2.156   3.902
 8097SOL    HW225191   4.659   2.084   3.959
 8098SOL     OW25192   2.107   2.225   4.047
 8098SOL    HW125193   2.034   2.263   4.104
 8098SOL    HW225194   2.191   2.276   4.062
 8099SOL     OW25195   3.711   6.744   4.255
 8099SOL    HW125196   3.743   6.666   4.309
 8099SOL    HW225197   3.776   6.763   4.181
 8100SOL     OW25198   6.686   6.418   1.660
 8100SOL    HW125199   6.648   6.510   1.671
 8100SOL    HW225200   6.656   6.361   1.736
 8101SOL     OW25201   0.654   4.814   1.955
 8101SOL    HW125202   0.642   4.900   1.904
 8101SOL    HW225203   0.751   4.789   1.954
 8102SOL     OW25204   6.700   6.962   5.150
 8102SOL    HW125205   6.722   0.026   5.205
 8102SOL    HW225206   6.771   6.951   5.079
 8103SOL     OW25207   2.638   2.332   2.529
 8103SOL    HW125208   2.693   2.363   2.451
 8103SOL    HW225209   2.694   2.278   2.591
 8104SOL     OW25210   2.371   6.926   5.690
 8104SOL    HW125211   2.423   6.950   5.772
 8104SOL    HW225212   2.431   6.882   5.624
 8105SOL     OW25213   2.282   2.275   2.779
 8105SOL    HW125214   2.191   2.315   2.792
 8105SOL    HW225215   2.340   2.340   2.731
 8106SOL     OW25216   0.418   3.842   5.619
 8106SOL    HW125217   0.490   3.823   5.685
 8106SOL    HW225218   0.331   3.805   5.651
 8107SOL     OW25219   1.301   5.080   0.128
 8107SOL    HW125220   1.306   5.129   0.215
 8107SOL    HW225221   1.242   5.000   0.138
 8108SOL     OW25222   2.263   2.593   6.226
 8108SOL    HW125223   2.288   2.496   6.224
 8108SOL    HW225224   2.187   2.607   6.289
 8109SOL     OW25225   0.576   5.692   5.349
 8109SOL    HW125226   0.622   5.633   5.282
 8109SOL    HW225227   0.643   5.730   5.412
 8110SOL     OW25228   1.302   5.098   0.428
 8110SOL    HW125229   1.240   5.021   0.417
 8110SOL    HW225230   1.396   5.069   0.408
 8111SOL     OW25231   3.399   6.363   4.036
 8111SOL    HW125232   3.423   6.459   4.023
 8111SOL    HW225233   3.371   6.348   4.131
 8112SOL     OW25234   4.101   1.453   4.357
 8112SOL    HW125235   4.183   1.481   4.307
 8112SOL    HW225236   4.082   1.357   4.337
 8113SOL     OW25237   2.754   2.410   5.815
 8113SOL    HW125238   2.723   2.348   5.744
 8113SOL    HW225239   2.850   2.394   5.835
 8114SOL     OW25240   3.260   3.897   1.028
 8114SOL    HW125241   3.164   3.885   1.004
 8114SOL    HW225242   3.281   3.842   1.110
 8115SOL     OW25243   3.980   2.910   1.273
 8115SOL    HW125244   3.947   3.003   1.291
 8115SOL    HW225245   4.078   2.913   1.256
 8116SOL     OW25246   5.655   1.711   5.625
 8116SOL    HW125247   5.617   1.667   5.543
 8116SOL    HW225248   5.726   1.652   5.664
 8117SOL     OW25249   2.905   2.864   5.374
 8117SOL    HW125250   2.917   2.767   5.393
 8117SOL    HW225251   2.809   2.889   5.386
 8118SOL     OW25252   1.183   1.697   4.152
 8118SOL    HW125253   1.172   1.716   4.249
 8118SOL    HW225254   1.141   1.770   4.098
 8119SOL     OW25255   1.597   0.066   2.488
 8119SOL    HW125256   1.586   0.000   2.562
 8119SOL    HW225257   1.553   0.031   2.405
 8120SOL     OW25258   4.802   3.948   2.379
 8120SOL    HW125259   4.778   3.998   2.462
 8120SOL    HW225260   4.762   3.857   2.383
 8121SOL     OW25261   0.033   5.865   3.521
 8121SOL    HW125262   0.015   5.951   3.472
 8121SOL    HW225263   0.131   5.857   3.538
 8122SOL     OW25264   0.257   5.090   1.873
 8122SOL    HW125265   0.292   5.154   1.942
 8122SOL    HW225266   0.325   5.078   1.801
 8123SOL     OW25267   1.470   5.360   6.143
 8123SOL    HW125268   1.555   5.401   6.175
 8123SOL    HW225269   1.434   5.297   6.212
 8124SOL     OW25270   1.896   5.828   2.446
 8124SOL    HW125271   1.897   5.915   2.495
 8124SOL    HW225272   1.812   5.821   2.392
 8125SOL     OW25273   5.279   5.077   3.585
 8125SOL    HW125274   5.244   4.984   3.573
 8125SOL    HW225275   5.324   5.085   3.675
 8126SOL     OW25276   0.389   4.701   1.712
 8126SOL    HW125277   0.322   4.627   1.719
 8126SOL    HW225278   0.348   4.779   1.664
 8127SOL     OW25279   4.150   5.225   0.939
 8127SOL    HW125280   4.154   5.134   0.896
 8127SOL    HW225281   4.080   5.279   0.894
 8128SOL     OW25282   3.896   2.150   5.089
 8128SOL    HW125283   3.882   2.237   5.135
 8128SOL    HW225284   3.833   2.082   5.126
 8129SOL     OW25285   4.581   5.736   6.658
 8129SOL    HW125286   4.663   5.780   6.622
 8129SOL    HW225287   4.532   5.692   6.583
 8130SOL     OW25288   0.464   0.437   6.142
 8130SOL    HW125289   0.548   0.489   6.127
 8130SOL    HW225290   0.386   0.487   6.106
 8131SOL     OW25291   2.366   1.696   1.585
 8131SOL    HW125292   2.364   1.700   1.685
 8131SOL    HW225293   2.317   1.615   1.554
 8132SOL     OW25294   5.665   4.404   3.533
 8132SOL    HW125295   5.734   4.455   3.585
 8132SOL    HW225296   5.602   4.468   3.489
 8133SOL     OW25297   0.409   5.499   2.601
 8133SOL    HW125298   0.474   5.554   2.549
 8133SOL    HW225299   0.459   5.440   2.665
 8134SOL     OW25300   3.252   3.477   1.444
 8134SOL    HW125301   3.196   3.398   1.468
 8134SOL    HW225302   3.327   3.486   1.509
 8135SOL     OW25303   4.053   6.243   2.466
 8135SOL    HW125304   4.111   6.257   2.385
 8135SOL    HW225305   4.073   6.154   2.506
 8136SOL     OW25306   2.736   5.662   1.832
 8136SOL    HW125307   2.652   5.649   1.780
 8136SOL    HW225308   2.718   5.718   1.913
 8137SOL     OW25309   3.337   4.417   5.486
 8137SOL    HW125310   3.306   4.508   5.513
 8137SOL    HW225311   3.259   4.365   5.450
 8138SOL     OW25312   3.874   0.839   3.372
 8138SOL    HW125313   3.861   0.887   3.286
 8138SOL    HW225314   3.962   0.864   3.412
 8139SOL     OW25315   1.865   3.127   5.741
 8139SOL    HW125316   1.792   3.153   5.678
 8139SOL    HW225317   1.914   3.048   5.705
 8140SOL     OW25318   5.556   1.646   1.254
 8140SOL    HW125319   5.503   1.595   1.321
 8140SOL    HW225320   5.551   1.744   1.274
 8141SOL     OW25321   5.981   1.679   5.518
 8141SOL    HW125322   6.031   1.640   5.441
 8141SOL    HW225323   5.958   1.775   5.498
 8142SOL     OW25324   3.735   5.898   0.640
 8142SOL    HW125325   3.705   5.813   0.684
 8142SOL    HW225326   3.766   5.877   0.547
 8143SOL     OW25327   6.011   5.231   0.034
 8143SOL    HW125328   5.950   5.246   0.112
 8143SOL    HW225329   5.989   5.296   6.978
 8144SOL     OW25330   2.049   5.733   6.298
 8144SOL    HW125331   2.126   5.751   6.359
 8144SOL    HW225332   2.067   5.651   6.245
 8145SOL     OW25333   5.172   5.537   5.354
 8145SOL    HW125334   5.247   5.547   5.289
 8145SOL    HW225335   5.132   5.626   5.373
 8146SOL     OW25336   6.686   6.335   4.892
 8146SOL    HW125337   6.640   6.270   4.953
 8146SOL    HW225338   6.745   6.395   4.946
 8147SOL     OW25339   2.242   6.938   4.601
 8147SOL    HW125340   2.155   6.937   4.553
 8147SOL    HW225341   2.240   6.871   4.676
 8148SOL     OW25342   5.632   4.751   0.770
 8148SOL    HW125343   5.677   4.690   0.705
 8148SOL    HW225344   5.693   4.826   0.793
 8149SOL     OW25345   1.511   6.508   4.846
 8149SOL    HW125346   1.605   6.501   4.813
 8149SOL    HW225347   1.511   6.522   4.945
 8150SOL     OW25348   0.177   4.329   0.543
 8150SOL    HW125349   0.150   4.382   0.624
 8150SOL    HW225350   0.276   4.318   0.542
 8151SOL     OW25351   6.215   4.050   2.087
 8151SOL    HW125352   6.223   3.950   2.087
 8151SOL    HW225353   6.275   4.087   2.158
 8152SOL     OW25354   5.031   2.047   4.157
 8152SOL    HW125355   5.068   1.990   4.231
 8152SOL    HW225356   5.025   1.992   4.074
 8153SOL     OW25357   0.259   1.959   0.780
 8153SOL    HW125358   0.324   1.895   0.821
 8153SOL    HW225359   0.206   2.003   0.852
 8154SOL     OW25360   0.016   0.316   4.095
 8154SOL    HW125361   0.035   0.408   4.129
 8154SOL    HW225362   0.099   0.279   4.053
 8155SOL     OW25363   1.106   4.862   4.664
 8155SOL    HW125364   1.039   4.927   4.628
 8155SOL    HW225365   1.198   4.901   4.657
 8156SOL     OW25366   1.289   3.765   0.483
 8156SOL    HW125367   1.298   3.857   0.521
 8156SOL    HW225368   1.201   3.755   0.438
 8157SOL     OW25369   6.310   4.457   5.308
 8157SOL    HW125370   6.294   4.503   5.395
 8157SOL    HW225371   6.406   4.430   5.302
 8158SOL     OW25372   6.205   5.202   5.993
 8158SOL    HW125373   6.301   5.206   5.963
 8158SOL    HW225374   6.154   5.278   5.953
 8159SOL     OW25375   1.989   6.427   5.035
 8159SOL    HW125376   2.071   6.374   5.011
 8159SOL    HW225377   1.969   6.415   5.132
 8160SOL     OW25378   5.416   2.905   2.906
 8160SOL    HW125379   5.398   2.833   2.972
 8160SOL    HW225380   5.510   2.896   2.872
 8161SOL     OW25381   0.285   2.461   1.152
 8161SOL    HW125382   0.266   2.372   1.193
 8161SOL    HW225383   0.376   2.492   1.179
 8162SOL     OW25384   0.111   6.151   5.107
 8162SOL    HW125385   0.146   6.058   5.117
 8162SOL    HW225386   0.151   6.194   5.026
 8163SOL     OW25387   3.544   5.029   5.469
 8163SOL    HW125388   3.643   5.028   5.484
 8163SOL    HW225389   3.498   5.047   5.556
 8164SOL     OW25390   5.682   2.178   6.992
 8164SOL    HW125391   5.589   2.212   7.002
 8164SOL    HW225392   5.716   2.148   0.065
 8165SOL     OW25393   0.863   2.896   6.028
 8165SOL    HW125394   0.866   2.815   6.086
 8165SOL    HW225395   0.874   2.869   5.932
 8166SOL     OW25396   3.317   2.032   4.364
 8166SOL    HW125397   3.235   2.070   4.408
 8166SOL    HW225398   3.294   1.944   4.321
 8167SOL     OW25399   1.582   2.570   2.478
 8167SOL    HW125400   1.595   2.539   2.384
 8167SOL    HW225401   1.580   2.491   2.539
 8168SOL     OW25402   1.196   6.084   3.094
 8168SOL    HW125403   1.234   6.042   3.176
 8168SOL    HW225404   1.239   6.173   3.078
 8169SOL     OW25405   5.381   4.706   6.814
 8169SOL    HW125406   5.342   4.668   6.731
 8169SOL    HW225407   5.478   4.724   6.800
 8170SOL     OW25408   6.850   4.739   3.571
 8170SOL    HW125409   6.851   4.684   3.488
 8170SOL    HW225410   6.757   4.767   3.592
 8171SOL     OW25411   1.923   1.602   1.827
 8171SOL    HW125412   1.828   1.629   1.847
 8171SOL    HW225413   1.976   1.606   1.912
 8172SOL     OW25414   1.596   5.272   0.428
 8172SOL    HW125415   1.530   5.305   0.495
 8172SOL    HW225416   1.554   5.199   0.374
 8173SOL     OW25417   5.826   0.265   1.434
 8173SOL    HW125418   5.862   0.173   1.445
 8173SOL    HW225419   5.755   0.265   1.363
 8174SOL     OW25420   2.460   6.679   4.116
 8174SOL    HW125421   2.523   6.608   4.147
 8174SOL    HW225422   2.507   6.768   4.118
 8175SOL     OW25423   0.780   2.453   6.257
 8175SOL    HW125424   0.846   2.383   6.232
 8175SOL    HW225425   0.699   2.410   6.297
 8176SOL     OW25426   2.861   4.424   0.240
 8176SOL    HW125427   2.869   4.485   0.318
 8176SOL    HW225428   2.785   4.361   0.254
 8177SOL     OW25429   3.213   1.086   2.407
 8177SOL    HW125430   3.217   1.081   2.308
 8177SOL    HW225431   3.246   1.176   2.438
 8178SOL     OW25432   2.293   6.373   1.242
 8178SOL    HW125433   2.384   6.412   1.227
 8178SOL    HW225434   2.247   6.424   1.315
 8179SOL     OW25435   6.250   6.956   4.229
 8179SOL    HW125436   6.249   6.858   4.207
 8179SOL    HW225437   6.157   6.986   4.250
 8180SOL     OW25438   4.746   5.629   0.883
 8180SOL    HW125439   4.797   5.713   0.904
 8180SOL    HW225440   4.785   5.587   0.801
 8181SOL     OW25441   6.500   0.655   6.393
 8181SOL    HW125442   6.519   0.723   6.464
 8181SOL    HW225443   6.401   0.652   6.376
 8182SOL     OW25444   3.691   3.504   3.115
 8182SOL    HW125445   3.743   3.531   3.034
 8182SOL    HW225446   3.613   3.566   3.127
 8183SOL     OW25447   0.371   0.206   5.104
 8183SOL    HW125448   0.399   0.190   5.199
 8183SOL    HW225449   0.347   0.302   5.092
 8184SOL     OW25450   0.169   5.969   4.797
 8184SOL    HW125451   0.150   5.873   4.817
 8184SOL    HW225452   0.259   5.976   4.752
 8185SOL     OW25453   0.123   6.460   4.771
 8185SOL    HW125454   0.041   6.426   4.726
 8185SOL    HW225455   0.098   6.513   4.851
 8186SOL     OW25456   1.500   5.892   0.061
 8186SOL    HW125457   1.460   5.873   0.151
 8186SOL    HW225458   1.468   5.981   0.029
 8187SOL     OW25459   1.469   6.200   4.497
 8187SOL    HW125460   1.488   6.216   4.594
 8187SOL    HW225461   1.429   6.110   4.485
 8188SOL     OW25462   1.676   2.987   2.654
 8188SOL    HW125463   1.709   2.897   2.626
 8188SOL    HW225464   1.745   3.056   2.631
 8189SOL     OW25465   6.802   5.552   3.966
 8189SOL    HW125466   6.825   5.513   3.876
 8189SOL    HW225467   6.885   5.577   4.014
 8190SOL     OW25468   5.667   3.826   2.963
 8190SOL    HW125469   5.651   3.729   2.983
 8190SOL    HW225470   5.683   3.837   2.865
 8191SOL     OW25471   5.150   5.086   0.918
 8191SOL    HW125472   5.116   5.173   0.953
 8191SOL    HW225473   5.144   5.086   0.818
 8192SOL     OW25474   6.801   5.688   2.617
 8192SOL    HW125475   6.886   5.681   2.669
 8192SOL    HW225476   6.729   5.725   2.676
 8193SOL     OW25477   0.929   5.044   4.512
 8193SOL    HW125478   0.855   4.991   4.472
 8193SOL    HW225479   0.914   5.141   4.495
 8194SOL     OW25480   5.341   6.996   2.350
 8194SOL    HW125481   5.389   6.932   2.289
 8194SOL    HW225482   5.406   0.047   2.384
 8195SOL     OW25483   6.594   6.505   3.089
 8195SOL    HW125484   6.588   6.442   3.012
 8195SOL    HW225485   6.506   6.508   3.137
 8196SOL     OW25486   4.910   6.800   2.857
 8196SOL    HW125487   4.947   6.892   2.844
 8196SOL    HW225488   4.957   6.756   2.934
 8197SOL     OW25489   4.230   1.115   3.148
 8197SOL    HW125490   4.147   1.074   3.109
 8197SOL    HW225491   4.235   1.093   3.246
 8198SOL     OW25492   2.109   5.506   0.009
 8198SOL    HW125493   2.128   5.562   0.090
 8198SOL    HW225494   2.010   5.502   7.011
 8199SOL     OW25495   6.093   2.909   0.259
 8199SOL    HW125496   6.162   2.969   0.299
 8199SOL    HW225497   6.012   2.908   0.318
 8200SOL     OW25498   5.991   4.614   0.022
 8200SOL    HW125499   5.894   4.633   0.037
 8200SOL    HW225500   6.042   4.632   0.107
 8201SOL     OW25501   5.378   1.148   5.434
 8201SOL    HW125502   5.402   1.205   5.356
 8201SOL    HW225503   5.287   1.172   5.466
 8202SOL     OW25504   0.449   5.749   1.925
 8202SOL    HW125505   0.467   5.684   1.851
 8202SOL    HW225506   0.532   5.763   1.977
 8203SOL     OW25507   1.126   2.720   0.276
 8203SOL    HW125508   1.205   2.747   0.222
 8203SOL    HW225509   1.152   2.645   0.338
 8204SOL     OW25510   1.806   3.845   0.578
 8204SOL    HW125511   1.838   3.868   0.486
 8204SOL    HW225512   1.877   3.794   0.626
 8205SOL     OW25513   6.992   4.109   6.293
 8205SOL    HW125514   6.900   4.145   6.277
 8205SOL    HW225515   7.015   4.043   6.222
 8206SOL     OW25516   3.464   1.145   0.886
 8206SOL    HW125517   3.408   1.105   0.814
 8206SOL    HW225518   3.421   1.228   0.920
 8207SOL     OW25519   4.097   3.698   3.945
 8207SOL    HW125520   4.191   3.721   3.971
 8207SOL    HW225521   4.065   3.620   3.999
 8208SOL     OW25522   3.110   0.086   5.887
 8208SOL    HW125523   3.184   0.116   5.827
 8208SOL    HW225524   3.138   0.003   5.936
 8209SOL     OW25525   6.020   2.284   3.597
 8209SOL    HW125526   6.027   2.356   3.528
 8209SOL    HW225527   6.042   2.322   3.687
 8210SOL     OW25528   1.564   2.212   6.312
 8210SOL    HW125529   1.503   2.291   6.322
 8210SOL    HW225530   1.579   2.170   6.402
 8211SOL     OW25531   3.702   4.691   1.410
 8211SOL    HW125532   3.605   4.671   1.399
 8211SOL    HW225533   3.750   4.609   1.440
 8212SOL     OW25534   1.839   3.748   2.924
 8212SOL    HW125535   1.936   3.740   2.902
 8212SOL    HW225536   1.822   3.711   3.015
 8213SOL     OW25537   6.564   4.578   0.781
 8213SOL    HW125538   6.590   4.568   0.685
 8213SOL    HW225539   6.522   4.493   0.813
 8214SOL     OW25540   4.967   3.292   3.824
 8214SOL    HW125541   4.971   3.361   3.896
 8214SOL    HW225542   5.037   3.310   3.756
 8215SOL     OW25543   3.666   5.030   1.699
 8215SOL    HW125544   3.581   4.977   1.699
 8215SOL    HW225545   3.710   5.024   1.610
 8216SOL     OW25546   5.579   3.076   4.306
 8216SOL    HW125547   5.496   3.126   4.332
 8216SOL    HW225548   5.658   3.137   4.311
 8217SOL     OW25549   2.414   6.064   0.193
 8217SOL    HW125550   2.406   6.024   0.284
 8217SOL    HW225551   2.328   6.052   0.143
 8218SOL     OW25552   4.969   2.036   0.032
 8218SOL    HW125553   4.895   2.102   0.020
 8218SOL    HW225554   5.011   2.048   0.121
 8219SOL     OW25555   5.123   2.787   7.017
 8219SOL    HW125556   5.162   2.701   6.984
 8219SOL    HW225557   5.173   2.817   0.081
 8220SOL     OW25558   4.107   3.745   1.558
 8220SOL    HW125559   4.132   3.802   1.480
 8220SOL    HW225560   4.029   3.687   1.534
 8221SOL     OW25561   5.528   3.860   3.780
 8221SOL    HW125562   5.514   3.773   3.829
 8221SOL    HW225563   5.439   3.904   3.765
 8222SOL     OW25564   5.683   0.794   2.808
 8222SOL    HW125565   5.660   0.888   2.835
 8222SOL    HW225566   5.711   0.793   2.712
 8223SOL     OW25567   0.984   4.080   7.014
 8223SOL    HW125568   0.985   4.128   6.926
 8223SOL    HW225569   0.983   3.982   6.998
 8224SOL     OW25570   0.859   3.635   2.604
 8224SOL    HW125571   0.787   3.704   2.603
 8224SOL    HW225572   0.826   3.552   2.649
 8225SOL     OW25573   5.151   0.845   1.070
 8225SOL    HW125574   5.089   0.888   1.004
 8225SOL    HW225575   5.101   0.780   1.126
 8226SOL     OW25576   3.789   0.631   6.688
 8226SOL    HW125577   3.697   0.668   6.700
 8226SOL    HW225578   3.787   0.531   6.699
 8227SOL     OW25579   5.972   4.015   3.247
 8227SOL    HW125580   5.993   4.110   3.273
 8227SOL    HW225581   5.877   4.009   3.218
 8228SOL     OW25582   0.441   1.552   3.643
 8228SOL    HW125583   0.458   1.631   3.701
 8228SOL    HW225584   0.344   1.528   3.646
 8229SOL     OW25585   5.378   5.440   6.985
 8229SOL    HW125586   5.294   5.461   6.936
 8229SOL    HW225587   5.397   5.511   0.035
 8230SOL     OW25588   5.099   0.137   3.490
 8230SOL    HW125589   5.113   0.046   3.529
 8230SOL    HW225590   5.140   0.141   3.399
 8231SOL     OW25591   4.058   5.927   1.329
 8231SOL    HW125592   4.128   5.866   1.292
 8231SOL    HW225593   3.983   5.935   1.264
 8232SOL     OW25594   2.432   1.428   0.337
 8232SOL    HW125595   2.388   1.426   0.247
 8232SOL    HW225596   2.380   1.372   0.401
 8233SOL     OW25597   0.827   5.637   5.771
 8233SOL    HW125598   0.873   5.582   5.841
 8233SOL    HW225599   0.755   5.583   5.728
 8234SOL     OW25600   1.870   3.433   6.855
 8234SOL    HW125601   1.893   3.427   6.952
 8234SOL    HW225602   1.868   3.529   6.828
 8235SOL     OW25603   4.363   2.667   6.738
 8235SOL    HW125604   4.383   2.672   6.836
 8235SOL    HW225605   4.446   2.639   6.689
 8236SOL     OW25606   6.270   2.120   1.688
 8236SOL    HW125607   6.300   2.216   1.683
 8236SOL    HW225608   6.285   2.086   1.781
 8237SOL     OW25609   3.700   6.123   5.670
 8237SOL    HW125610   3.681   6.204   5.615
 8237SOL    HW225611   3.751   6.150   5.752
 8238SOL     OW25612   0.747   0.955   6.403
 8238SOL    HW125613   0.762   1.053   6.388
 8238SOL    HW225614   0.672   0.924   6.344
 8239SOL     OW25615   5.388   1.253   6.695
 8239SOL    HW125616   5.292   1.230   6.677
 8239SOL    HW225617   5.429   1.183   6.753
 8240SOL     OW25618   3.619   3.122   2.876
 8240SOL    HW125619   3.690   3.060   2.842
 8240SOL    HW225620   3.530   3.095   2.838
 8241SOL     OW25621   4.778   6.247   1.104
 8241SOL    HW125622   4.788   6.346   1.111
 8241SOL    HW225623   4.866   6.206   1.078
 8242SOL     OW25624   1.447   4.398   5.173
 8242SOL    HW125625   1.505   4.462   5.223
 8242SOL    HW225626   1.413   4.442   5.089
 8243SOL     OW25627   0.435   3.224   4.871
 8243SOL    HW125628   0.472   3.300   4.924
 8243SOL    HW225629   0.396   3.156   4.932
 8244SOL     OW25630   3.076   5.534   5.213
 8244SOL    HW125631   3.163   5.509   5.171
 8244SOL    HW225632   3.001   5.508   5.153
 8245SOL     OW25633   4.461   4.063   0.920
 8245SOL    HW125634   4.443   3.970   0.954
 8245SOL    HW225635   4.444   4.129   0.994
 8246SOL     OW25636   5.452   3.054   4.997
 8246SOL    HW125637   5.472   3.107   5.080
 8246SOL    HW225638   5.411   2.966   5.023
 8247SOL     OW25639   1.054   6.374   6.946
 8247SOL    HW125640   0.972   6.415   6.986
 8247SOL    HW225641   1.055   6.393   6.848
 8248SOL     OW25642   0.213   4.281   3.489
 8248SOL    HW125643   0.286   4.259   3.554
 8248SOL    HW225644   0.155   4.352   3.528
 8249SOL     OW25645   0.852   5.318   3.101
 8249SOL    HW125646   0.875   5.402   3.150
 8249SOL    HW225647   0.754   5.318   3.080
 8250SOL     OW25648   2.915   3.371   2.697
 8250SOL    HW125649   2.950   3.465   2.704
 8250SOL    HW225650   2.908   3.346   2.601
 8251SOL     OW25651   5.551   1.027   4.589
 8251SOL    HW125652   5.615   0.951   4.604
 8251SOL    HW225653   5.469   0.994   4.544
 8252SOL     OW25654   1.073   4.085   4.042
 8252SOL    HW125655   1.168   4.100   4.014
 8252SOL    HW225656   1.053   4.139   4.123
 8253SOL     OW25657   3.236   3.017   5.906
 8253SOL    HW125658   3.288   2.944   5.861
 8253SOL    HW225659   3.140   3.011   5.879
 8254SOL     OW25660   5.079   5.340   2.855
 8254SOL    HW125661   5.071   5.428   2.902
 8254SOL    HW225662   5.040   5.268   2.913
 8255SOL     OW25663   3.789   4.917   3.568
 8255SOL    HW125664   3.788   4.946   3.472
 8255SOL    HW225665   3.768   4.996   3.626
 8256SOL     OW25666   5.203   2.273   3.248
 8256SOL    HW125667   5.240   2.181   3.252
 8256SOL    HW225668   5.151   2.286   3.164
 8257SOL     OW25669   6.273   4.210   4.220
 8257SOL    HW125670   6.349   4.204   4.155
 8257SOL    HW225671   6.286   4.143   4.293
 8258SOL     OW25672   5.383   2.074   6.934
 8258SOL    HW125673   5.378   2.173   6.921
 8258SOL    HW225674   5.343   2.050   0.005
 8259SOL     OW25675   4.868   0.496   0.634
 8259SOL    HW125676   4.935   0.564   0.664
 8259SOL    HW225677   4.914   0.431   0.573
 8260SOL     OW25678   3.304   5.807   6.653
 8260SOL    HW125679   3.298   5.905   6.671
 8260SOL    HW225680   3.288   5.791   6.556
 8261SOL     OW25681   5.118   1.513   1.510
 8261SOL    HW125682   5.150   1.418   1.512
 8261SOL    HW225683   5.018   1.514   1.519
 8262SOL     OW25684   6.535   2.773   1.547
 8262SOL    HW125685   6.578   2.834   1.613
 8262SOL    HW225686   6.444   2.747   1.580
 8263SOL     OW25687   5.674   1.692   0.330
 8263SOL    HW125688   5.610   1.767   0.344
 8263SOL    HW225689   5.721   1.672   0.416
 8264SOL     OW25690   1.211   4.210   1.222
 8264SOL    HW125691   1.177   4.142   1.157
 8264SOL    HW225692   1.300   4.243   1.192
 8265SOL     OW25693   1.862   0.470   2.517
 8265SOL    HW125694   1.778   0.470   2.464
 8265SOL    HW225695   1.880   0.563   2.550
 8266SOL     OW25696   3.033   0.732   2.721
 8266SOL    HW125697   2.954   0.770   2.770
 8266SOL    HW225698   3.104   0.801   2.714
 8267SOL     OW25699   0.044   3.805   1.042
 8267SOL    HW125700   6.978   3.771   1.087
 8267SOL    HW225701   0.033   3.799   0.943
 8268SOL     OW25702   2.566   4.582   6.937
 8268SOL    HW125703   2.653   4.598   6.890
 8268SOL    HW225704   2.491   4.622   6.884
 8269SOL     OW25705   5.833   2.107   6.764
 8269SOL    HW125706   5.777   2.122   6.845
 8269SOL    HW225707   5.928   2.130   6.785
 8270SOL     OW25708   2.555   6.256   4.389
 8270SOL    HW125709   2.509   6.218   4.469
 8270SOL    HW225710   2.488   6.275   4.318
 8271SOL     OW25711   0.522   2.512   2.567
 8271SOL    HW125712   0.424   2.494   2.559
 8271SOL    HW225713   0.573   2.442   2.518
 8272SOL     OW25714   3.508   1.268   4.149
 8272SOL    HW125715   3.523   1.363   4.121
 8272SOL    HW225716   3.542   1.207   4.078
 8273SOL     OW25717   1.759   6.342   2.078
 8273SOL    HW125718   1.858   6.341   2.095
 8273SOL    HW225719   1.743   6.359   1.981
 8274SOL     OW25720   5.226   3.884   3.762
 8274SOL    HW125721   5.138   3.926   3.741
 8274SOL    HW225722   5.245   3.811   3.696
 8275SOL     OW25723   6.019   2.516   0.103
 8275SOL    HW125724   6.072   2.594   0.070
 8275SOL    HW225725   5.930   2.514   0.057
 8276SOL     OW25726   0.719   2.172   2.714
 8276SOL    HW125727   0.779   2.140   2.788
 8276SOL    HW225728   0.709   2.099   2.646
 8277SOL     OW25729   0.170   1.285   0.406
 8277SOL    HW125730   0.185   1.283   0.307
 8277SOL    HW225731   0.240   1.229   0.451
 8278SOL     OW25732   1.142   2.539   0.541
 8278SOL    HW125733   1.224   2.591   0.565
 8278SOL    HW225734   1.083   2.532   0.621
 8279SOL     OW25735   0.209   5.647   3.977
 8279SOL    HW125736   0.271   5.714   3.935
 8279SOL    HW225737   0.214   5.561   3.926
 8280SOL     OW25738   2.997   2.354   5.909
 8280SOL    HW125739   3.074   2.291   5.917
 8280SOL    HW225740   3.015   2.436   5.964
 8281SOL     OW25741   3.949   5.316   2.432
 8281SOL    HW125742   3.959   5.230   2.482
 8281SOL    HW225743   4.002   5.312   2.347
 8282SOL     OW25744   6.122   2.918   6.217
 8282SOL    HW125745   6.110   2.926   6.316
 8282SOL    HW225746   6.152   2.825   6.195
 8283SOL     OW25747   2.080   2.986   5.951
 8283SOL    HW125748   1.997   3.036   5.977
 8283SOL    HW225749   2.057   2.918   5.881
 8284SOL     OW25750   6.582   4.517   1.623
 8284SOL    HW125751   6.681   4.512   1.636
 8284SOL    HW225752   6.543   4.584   1.685
 8285SOL     OW25753   3.355   2.876   3.509
 8285SOL    HW125754   3.318   2.826   3.432
 8285SOL    HW225755   3.455   2.878   3.503
 8286SOL     OW25756   0.498   3.004   0.012
 8286SOL    HW125757   0.460   2.931   6.971
 8286SOL    HW225758   0.566   2.965   0.074
 8287SOL     OW25759   1.563   0.041   3.990
 8287SOL    HW125760   1.652   0.028   4.034
 8287SOL    HW225761   1.552   0.138   3.966
 8288SOL     OW25762   3.041   1.405   3.312
 8288SOL    HW125763   2.956   1.445   3.278
 8288SOL    HW225764   3.118   1.456   3.276
 8289SOL     OW25765   0.524   6.791   0.252
 8289SOL    HW125766   0.434   6.799   0.210
 8289SOL    HW225767   0.588   6.855   0.209
 8290SOL     OW25768   6.263   2.139   0.750
 8290SOL    HW125769   6.196   2.088   0.696
 8290SOL    HW225770   6.219   2.171   0.835
 8291SOL     OW25771   4.105   0.412   0.920
 8291SOL    HW125772   4.158   0.496   0.910
 8291SOL    HW225773   4.108   0.360   0.835
 8292SOL     OW25774   2.581   0.679   5.992
 8292SOL    HW125775   2.533   0.592   6.000
 8292SOL    HW225776   2.670   0.672   6.038
 8293SOL     OW25777   5.948   5.433   5.285
 8293SOL    HW125778   6.010   5.440   5.207
 8293SOL    HW225779   5.920   5.338   5.298
 8294SOL     OW25780   6.194   2.738   0.060
 8294SOL    HW125781   6.149   2.807   0.117
 8294SOL    HW225782   6.244   2.783   7.003
 8295SOL     OW25783   5.223   2.593   6.873
 8295SOL    HW125784   5.265   2.674   6.831
 8295SOL    HW225785   5.196   2.529   6.801
 8296SOL     OW25786   6.875   4.841   5.162
 8296SOL    HW125787   6.868   4.856   5.063
 8296SOL    HW225788   6.907   4.925   5.206
 8297SOL     OW25789   1.162   3.560   3.997
 8297SOL    HW125790   1.165   3.645   3.944
 8297SOL    HW225791   1.190   3.483   3.939
 8298SOL     OW25792   4.680   1.928   1.851
 8298SOL    HW125793   4.778   1.949   1.855
 8298SOL    HW225794   4.631   2.005   1.810
 8299SOL     OW25795   5.523   1.872   1.799
 8299SOL    HW125796   5.527   1.831   1.708
 8299SOL    HW225797   5.434   1.917   1.811
 8300SOL     OW25798   1.549   5.365   3.110
 8300SOL    HW125799   1.494   5.380   3.028
 8300SOL    HW225800   1.519   5.281   3.155
 8301SOL     OW25801   2.650   1.667   6.073
 8301SOL    HW125802   2.690   1.727   6.142
 8301SOL    HW225803   2.554   1.650   6.096
 8302SOL     OW25804   6.023   5.966   5.712
 8302SOL    HW125805   6.080   5.884   5.720
 8302SOL    HW225806   5.985   5.989   5.801
 8303SOL     OW25807   0.221   7.007   6.928
 8303SOL    HW125808   0.308   7.012   6.880
 8303SOL    HW225809   0.149   0.030   6.871
 8304SOL     OW25810   0.026   3.021   0.531
 8304SOL    HW125811   0.009   2.975   0.444
 8304SOL    HW225812   0.123   3.011   0.555
 8305SOL     OW25813   2.944   4.922   2.702
 8305SOL    HW125814   2.887   4.992   2.659
 8305SOL    HW225815   2.931   4.925   2.801
 8306SOL     OW25816   1.985   2.729   3.925
 8306SOL    HW125817   2.078   2.766   3.918
 8306SOL    HW225818   1.927   2.772   3.856
 8307SOL     OW25819   3.778   6.002   0.893
 8307SOL    HW125820   3.778   5.965   0.801
 8307SOL    HW225821   3.687   6.035   0.917
 8308SOL     OW25822   2.784   0.679   2.309
 8308SOL    HW125823   2.833   0.753   2.354
 8308SOL    HW225824   2.849   0.607   2.283
 8309SOL     OW25825   5.748   6.493   2.215
 8309SOL    HW125826   5.677   6.563   2.210
 8309SOL    HW225827   5.838   6.537   2.207
 8310SOL     OW25828   6.130   4.658   6.812
 8310SOL    HW125829   6.072   4.654   6.894
 8310SOL    HW225830   6.095   4.595   6.743
 8311SOL     OW25831   6.519   0.216   6.381
 8311SOL    HW125832   6.573   0.297   6.359
 8311SOL    HW225833   6.573   0.154   6.437
 8312SOL     OW25834   4.874   6.291   1.544
 8312SOL    HW125835   4.888   6.354   1.467
 8312SOL    HW225836   4.787   6.243   1.533
 8313SOL     OW25837   3.751   1.456   2.655
 8313SOL    HW125838   3.801   1.428   2.573
 8313SOL    HW225839   3.696   1.379   2.689
 8314SOL     OW25840   0.118   0.035   3.754
 8314SOL    HW125841   0.099   7.001   3.838
 8314SOL    HW225842   0.206   0.004   3.716
 8315SOL     OW25843   4.968   4.519   6.797
 8315SOL    HW125844   4.938   4.481   6.885
 8315SOL    HW225845   4.998   4.614   6.811
 8316SOL     OW25846   2.928   5.325   6.945
 8316SOL    HW125847   2.897   5.276   0.010
 8316SOL    HW225848   2.853   5.379   6.907
 8317SOL     OW25849   2.683   4.783   1.375
 8317SOL    HW125850   2.622   4.733   1.436
 8317SOL    HW225851   2.711   4.724   1.299
 8318SOL     OW25852   3.007   1.292   5.820
 8318SOL    HW125853   3.105   1.313   5.809
 8318SOL    HW225854   2.976   1.325   5.909
 8319SOL     OW25855   2.570   0.512   5.335
 8319SOL    HW125856   2.527   0.428   5.302
 8319SOL    HW225857   2.586   0.574   5.258
 8320SOL     OW25858   3.786   5.025   1.162
 8320SOL    HW125859   3.869   5.076   1.185
 8320SOL    HW225860   3.757   5.048   1.069
 8321SOL     OW25861   6.720   0.689   1.080
 8321SOL    HW125862   6.748   0.777   1.118
 8321SOL    HW225863   6.621   0.679   1.091
 8322SOL     OW25864   5.249   6.633   0.668
 8322SOL    HW125865   5.155   6.658   0.646
 8322SOL    HW225866   5.250   6.568   0.744
 8323SOL     OW25867   1.542   0.510   1.934
 8323SOL    HW125868   1.530   0.609   1.918
 8323SOL    HW225869   1.628   0.494   1.982
 8324SOL     OW25870   6.860   0.736   2.613
 8324SOL    HW125871   6.760   0.735   2.620
 8324SOL    HW225872   6.887   0.775   2.525
 8325SOL     OW25873   3.742   4.108   4.526
 8325SOL    HW125874   3.754   4.202   4.560
 8325SOL    HW225875   3.813   4.050   4.564
 8326SOL     OW25876   4.133   3.231   6.275
 8326SOL    HW125877   4.076   3.184   6.207
 8326SOL    HW225878   4.124   3.185   6.363
 8327SOL     OW25879   4.903   2.092   6.020
 8327SOL    HW125880   4.944   2.033   6.089
 8327SOL    HW225881   4.965   2.169   6.001
 8328SOL     OW25882   2.302   2.610   3.784
 8328SOL    HW125883   2.397   2.640   3.782
 8328SOL    HW225884   2.289   2.545   3.859
 8329SOL     OW25885   0.621   2.882   4.560
 8329SOL    HW125886   0.706   2.890   4.612
 8329SOL    HW225887   0.623   2.945   4.483
 8330SOL     OW25888   2.191   6.973   0.610
 8330SOL    HW125889   2.286   6.951   0.590
 8330SOL    HW225890   2.135   6.890   0.602
 8331SOL     OW25891   2.723   6.953   1.108
 8331SOL    HW125892   2.653   0.007   1.113
 8331SOL    HW225893   2.696   6.876   1.167
 8332SOL     OW25894   4.267   6.137   3.611
 8332SOL    HW125895   4.265   6.214   3.547
 8332SOL    HW225896   4.216   6.162   3.694
 8333SOL     OW25897   1.806   5.027   5.409
 8333SOL    HW125898   1.723   4.975   5.430
 8333SOL    HW225899   1.863   5.035   5.490
 8334SOL     OW25900   6.647   6.956   3.649
 8334SOL    HW125901   6.628   6.862   3.621
 8334SOL    HW225902   6.746   6.970   3.652
 8335SOL     OW25903   6.403   6.334   5.304
 8335SOL    HW125904   6.325   6.361   5.247
 8335SOL    HW225905   6.370   6.300   5.392
 8336SOL     OW25906   1.178   1.909   2.852
 8336SOL    HW125907   1.220   1.998   2.834
 8336SOL    HW225908   1.127   1.913   2.938
 8337SOL     OW25909   6.477   6.421   2.268
 8337SOL    HW125910   6.377   6.416   2.263
 8337SOL    HW225911   6.516   6.342   2.222
 8338SOL     OW25912   2.216   5.369   0.645
 8338SOL    HW125913   2.175   5.396   0.732
 8338SOL    HW225914   2.308   5.334   0.660
 8339SOL     OW25915   5.201   0.877   2.914
 8339SOL    HW125916   5.199   0.974   2.939
 8339SOL    HW225917   5.225   0.823   2.995
 8340SOL     OW25918   4.771   3.918   1.642
 8340SOL    HW125919   4.714   4.000   1.640
 8340SOL    HW225920   4.713   3.837   1.652
 8341SOL     OW25921   2.475   6.876   0.632
 8341SOL    HW125922   2.528   6.962   0.635
 8341SOL    HW225923   2.522   6.807   0.686
 8342SOL     OW25924   5.187   6.874   1.174
 8342SOL    HW125925   5.203   6.963   1.218
 8342SOL    HW225926   5.117   6.824   1.225
 8343SOL     OW25927   0.044   4.623   5.320
 8343SOL    HW125928   7.007   4.663   5.246
 8343SOL    HW225929   0.139   4.655   5.314
 8344SOL     OW25930   3.774   0.046   5.084
 8344SOL    HW125931   3.834   6.984   5.074
 8344SOL    HW225932   3.681   0.020   5.057
 8345SOL     OW25933   6.221   1.374   3.196
 8345SOL    HW125934   6.180   1.449   3.144
 8345SOL    HW225935   6.171   1.363   3.282
 8346SOL     OW25936   4.263   5.122   2.358
 8346SOL    HW125937   4.327   5.198   2.362
 8346SOL    HW225938   4.277   5.061   2.436
 8347SOL     OW25939   3.444   5.191   4.678
 8347SOL    HW125940   3.444   5.094   4.655
 8347SOL    HW225941   3.532   5.215   4.721
 8348SOL     OW25942   2.407   0.338   0.636
 8348SOL    HW125943   2.383   0.423   0.589
 8348SOL    HW225944   2.334   0.314   0.700
 8349SOL     OW25945   6.127   5.009   2.106
 8349SOL    HW125946   6.126   5.056   2.018
 8349SOL    HW225947   6.189   5.056   2.169
 8350SOL     OW25948   6.414   0.997   5.104
 8350SOL    HW125949   6.429   1.056   5.025
 8350SOL    HW225950   6.353   0.922   5.080
 8351SOL     OW25951   3.367   6.681   2.463
 8351SOL    HW125952   3.282   6.630   2.474
 8351SOL    HW225953   3.420   6.676   2.548
 8352SOL     OW25954   6.477   6.166   1.508
 8352SOL    HW125955   6.500   6.210   1.421
 8352SOL    HW225956   6.561   6.140   1.556
 8353SOL     OW25957   1.837   3.694   2.101
 8353SOL    HW125958   1.920   3.720   2.051
 8353SOL    HW225959   1.856   3.613   2.156
 8354SOL     OW25960   3.076   0.723   0.606
 8354SOL    HW125961   3.011   0.697   0.677
 8354SOL    HW225962   3.163   0.749   0.648
 8355SOL     OW25963   2.958   1.504   0.884
 8355SOL    HW125964   2.928   1.473   0.974
 8355SOL    HW225965   3.017   1.583   0.893
 8356SOL     OW25966   2.891   5.214   0.177
 8356SOL    HW125967   2.870   5.288   0.241
 8356SOL    HW225968   2.953   5.149   0.220
 8357SOL     OW25969   4.448   5.895   3.112
 8357SOL    HW125970   4.399   5.980   3.134
 8357SOL    HW225971   4.390   5.838   3.055
 8358SOL     OW25972   3.253   1.883   5.054
 8358SOL    HW125973   3.263   1.797   5.105
 8358SOL    HW225974   3.223   1.863   4.961
 8359SOL     OW25975   3.440   5.037   4.167
 8359SOL    HW125976   3.467   5.010   4.259
 8359SOL    HW225977   3.463   5.133   4.152
 8360SOL     OW25978   4.562   0.710   3.356
 8360SOL    HW125979   4.541   0.807   3.352
 8360SOL    HW225980   4.590   0.678   3.266
 8361SOL     OW25981   1.355   0.548   3.055
 8361SOL    HW125982   1.436   0.585   3.009
 8361SOL    HW225983   1.277   0.610   3.040
 8362SOL     OW25984   2.692   3.305   0.611
 8362SOL    HW125985   2.722   3.245   0.685
 8362SOL    HW225986   2.610   3.355   0.639
 8363SOL     OW25987   0.695   3.615   1.497
 8363SOL    HW125988   0.735   3.691   1.548
 8363SOL    HW225989   0.767   3.563   1.450
 8364SOL     OW25990   6.663   4.794   5.342
 8364SOL    HW125991   6.750   4.803   5.295
 8364SOL    HW225992   6.624   4.703   5.323
 8365SOL     OW25993   1.358   3.743   5.876
 8365SOL    HW125994   1.374   3.775   5.970
 8365SOL    HW225995   1.292   3.668   5.877
 8366SOL     OW25996   2.712   0.001   2.229
 8366SOL    HW125997   2.719   0.101   2.225
 8366SOL    HW225998   2.758   6.985   2.312
 8367SOL     OW25999   5.104   5.530   3.718
 8367SOL    HW126000   5.017   5.577   3.701
 8367SOL    HW226001   5.112   5.451   3.657
 8368SOL     OW26002   3.274   5.701   6.415
 8368SOL    HW126003   3.274   5.761   6.335
 8368SOL    HW226004   3.281   5.606   6.386
 8369SOL     OW26005   2.431   1.305   0.937
 8369SOL    HW126006   2.394   1.333   1.025
 8369SOL    HW226007   2.356   1.298   0.871
 8370SOL     OW26008   1.947   1.517   0.446
 8370SOL    HW126009   2.003   1.543   0.524
 8370SOL    HW226010   1.898   1.432   0.466
 8371SOL     OW26011   1.314   2.484   0.300
 8371SOL    HW126012   1.343   2.388   0.295
 8371SOL    HW226013   1.256   2.497   0.380
 8372SOL     OW26014   6.236   0.701   0.456
 8372SOL    HW126015   6.159   0.640   0.441
 8372SOL    HW226016   6.227   0.782   0.399
 8373SOL     OW26017   1.381   6.770   4.111
 8373SOL    HW126018   1.361   6.794   4.016
 8373SOL    HW226019   1.385   6.853   4.166
 8374SOL     OW26020   6.788   1.166   5.758
 8374SOL    HW126021   6.820   1.198   5.668
 8374SOL    HW226022   6.689   1.181   5.764
 8375SOL     OW26023   4.288   0.806   6.575
 8375SOL    HW126024   4.329   0.864   6.645
 8375SOL    HW226025   4.208   0.760   6.614
 8376SOL     OW26026   4.265   0.739   4.058
 8376SOL    HW126027   4.291   0.722   4.153
 8376SOL    HW226028   4.300   0.665   4.000
 8377SOL     OW26029   5.436   5.074   0.984
 8377SOL    HW126030   5.353   5.116   0.948
 8377SOL    HW226031   5.412   4.999   1.045
 8378SOL     OW26032   4.760   2.906   3.745
 8378SOL    HW126033   4.699   2.927   3.669
 8378SOL    HW226034   4.855   2.908   3.712
 8379SOL     OW26035   5.376   2.859   2.505
 8379SOL    HW126036   5.326   2.912   2.574
 8379SOL    HW226037   5.414   2.921   2.436
 8380SOL     OW26038   5.872   1.379   3.836
 8380SOL    HW126039   5.815   1.389   3.918
 8380SOL    HW226040   5.953   1.437   3.845
 8381SOL     OW26041   1.920   5.147   4.299
 8381SOL    HW126042   1.976   5.152   4.382
 8381SOL    HW226043   1.974   5.105   4.225
 8382SOL     OW26044   0.699   4.627   2.355
 8382SOL    HW126045   0.626   4.595   2.416
 8382SOL    HW226046   0.677   4.600   2.261
 8383SOL     OW26047   3.357   1.537   5.568
 8383SOL    HW126048   3.448   1.544   5.609
 8383SOL    HW226049   3.334   1.624   5.523
 8384SOL     OW26050   0.608   6.889   1.452
 8384SOL    HW126051   0.661   6.891   1.366
 8384SOL    HW226052   0.598   6.983   1.486
 8385SOL     OW26053   4.347   1.612   1.295
 8385SOL    HW126054   4.249   1.601   1.282
 8385SOL    HW226055   4.395   1.534   1.253
 8386SOL     OW26056   0.579   2.928   1.953
 8386SOL    HW126057   0.566   3.016   1.908
 8386SOL    HW226058   0.502   2.868   1.933
 8387SOL     OW26059   0.483   1.918   1.761
 8387SOL    HW126060   0.538   1.900   1.843
 8387SOL    HW226061   0.446   2.011   1.765
 8388SOL     OW26062   1.223   6.942   2.663
 8388SOL    HW126063   1.184   6.862   2.710
 8388SOL    HW226064   1.255   6.915   2.573
 8389SOL     OW26065   6.015   3.059   3.618
 8389SOL    HW126066   6.096   3.076   3.562
 8389SOL    HW226067   5.940   3.118   3.588
 8390SOL     OW26068   6.101   2.232   6.783
 8390SOL    HW126069   6.118   2.301   6.713
 8390SOL    HW226070   6.133   2.265   6.872
 8391SOL     OW26071   6.537   0.220   1.104
 8391SOL    HW126072   6.611   0.247   1.165
 8391SOL    HW226073   6.487   0.143   1.143
 8392SOL     OW26074   3.739   2.883   4.934
 8392SOL    HW126075   3.661   2.834   4.896
 8392SOL    HW226076   3.823   2.834   4.913
 8393SOL     OW26077   5.703   6.921   0.993
 8393SOL    HW126078   5.656   6.833   0.993
 8393SOL    HW226079   5.802   6.907   0.984
 8394SOL     OW26080   5.889   2.723   2.804
 8394SOL    HW126081   5.866   2.631   2.774
 8394SOL    HW226082   5.932   2.719   2.894
 8395SOL     OW26083   2.204   1.087   4.921
 8395SOL    HW126084   2.138   1.083   4.846
 8395SOL    HW226085   2.172   1.030   4.997
 8396SOL     OW26086   5.268   5.366   4.151
 8396SOL    HW126087   5.280   5.465   4.151
 8396SOL    HW226088   5.231   5.337   4.063
 8397SOL     OW26089   6.073   6.608   2.788
 8397SOL    HW126090   6.089   6.526   2.732
 8397SOL    HW226091   6.055   6.581   2.882
 8398SOL     OW26092   5.764   1.574   6.421
 8398SOL    HW126093   5.719   1.532   6.500
 8398SOL    HW226094   5.713   1.655   6.393
 8399SOL     OW26095   0.459   4.296   2.389
 8399SOL    HW126096   0.363   4.323   2.380
 8399SOL    HW226097   0.493   4.265   2.300
 8400SOL     OW26098   0.831   0.944   4.776
 8400SOL    HW126099   0.909   0.891   4.808
 8400SOL    HW226100   0.864   1.020   4.718
 8401SOL     OW26101   1.800   0.464   5.909
 8401SOL    HW126102   1.730   0.536   5.910
 8401SOL    HW226103   1.864   0.478   5.985
 8402SOL     OW26104   2.756   0.412   5.927
 8402SOL    HW126105   2.784   0.330   5.877
 8402SOL    HW226106   2.766   0.492   5.867
 8403SOL     OW26107   5.839   5.146   5.726
 8403SOL    HW126108   5.744   5.119   5.746
 8403SOL    HW226109   5.846   5.245   5.724
 8404SOL     OW26110   1.366   1.485   0.301
 8404SOL    HW126111   1.305   1.563   0.290
 8404SOL    HW226112   1.461   1.516   0.300
 8405SOL     OW26113   3.752   6.822   5.889
 8405SOL    HW126114   3.761   6.810   5.791
 8405SOL    HW226115   3.838   6.856   5.927
 8406SOL     OW26116   6.139   0.702   5.983
 8406SOL    HW126117   6.187   0.779   5.941
 8406SOL    HW226118   6.099   0.730   6.070
 8407SOL     OW26119   4.635   0.815   4.877
 8407SOL    HW126120   4.559   0.759   4.844
 8407SOL    HW226121   4.710   0.756   4.904
 8408SOL     OW26122   4.059   2.264   1.575
 8408SOL    HW126123   4.058   2.168   1.547
 8408SOL    HW226124   4.000   2.276   1.655
 8409SOL     OW26125   4.262   2.506   1.763
 8409SOL    HW126126   4.201   2.538   1.691
 8409SOL    HW226127   4.350   2.552   1.755
 8410SOL     OW26128   0.141   1.770   1.441
 8410SOL    HW126129   0.123   1.863   1.409
 8410SOL    HW226130   0.085   1.705   1.390
 8411SOL     OW26131   1.170   5.833   1.114
 8411SOL    HW126132   1.082   5.789   1.133
 8411SOL    HW226133   1.218   5.849   1.200
 8412SOL     OW26134   2.739   2.325   0.418
 8412SOL    HW126135   2.742   2.405   0.358
 8412SOL    HW226136   2.733   2.242   0.363
 8413SOL     OW26137   3.796   5.739   4.813
 8413SOL    HW126138   3.737   5.820   4.811
 8413SOL    HW226139   3.755   5.667   4.756
 8414SOL     OW26140   2.325   0.093   0.818
 8414SOL    HW126141   2.295   0.025   0.751
 8414SOL    HW226142   2.259   0.168   0.822
 8415SOL     OW26143   3.474   1.561   6.310
 8415SOL    HW126144   3.520   1.474   6.293
 8415SOL    HW226145   3.505   1.600   6.396
 8416SOL     OW26146   0.452   2.189   4.926
 8416SOL    HW126147   0.543   2.225   4.907
 8416SOL    HW226148   0.393   2.201   4.846
 8417SOL     OW26149   1.886   3.576   6.285
 8417SOL    HW126150   1.923   3.496   6.239
 8417SOL    HW226151   1.924   3.582   6.377
 8418SOL     OW26152   6.861   6.236   2.742
 8418SOL    HW126153   6.896   6.247   2.649
 8418SOL    HW226154   6.766   6.267   2.746
 8419SOL     OW26155   3.344   1.548   4.420
 8419SOL    HW126156   3.362   1.590   4.509
 8419SOL    HW226157   3.430   1.512   4.383
 8420SOL     OW26158   3.771   1.191   2.221
 8420SOL    HW126159   3.836   1.252   2.175
 8420SOL    HW226160   3.718   1.142   2.152
 8421SOL     OW26161   4.758   0.076   6.658
 8421SOL    HW126162   4.765   0.168   6.619
 8421SOL    HW226163   4.721   0.014   6.589
 8422SOL     OW26164   5.103   2.085   4.476
 8422SOL    HW126165   5.167   2.132   4.536
 8422SOL    HW226166   5.057   2.152   4.418
 8423SOL     OW26167   6.237   5.778   0.220
 8423SOL    HW126168   6.332   5.805   0.236
 8423SOL    HW226169   6.226   5.681   0.244
 8424SOL     OW26170   2.894   0.054   5.500
 8424SOL    HW126171   2.894   7.006   5.576
 8424SOL    HW226172   2.924   0.143   5.532
 8425SOL     OW26173   3.864   3.294   2.158
 8425SOL    HW126174   3.954   3.267   2.124
 8425SOL    HW226175   3.795   3.228   2.127
 8426SOL     OW26176   3.662   2.925   1.657
 8426SOL    HW126177   3.627   3.019   1.653
 8426SOL    HW226178   3.670   2.896   1.752
 8427SOL     OW26179   4.090   3.191   2.696
 8427SOL    HW126180   4.088   3.290   2.688
 8427SOL    HW226181   4.131   3.165   2.783
 8428SOL     OW26182   5.763   0.366   1.686
 8428SOL    HW126183   5.741   0.462   1.669
 8428SOL    HW226184   5.779   0.319   1.599
 8429SOL     OW26185   3.296   6.201   5.472
 8429SOL    HW126186   3.270   6.177   5.378
 8429SOL    HW226187   3.220   6.247   5.517
 8430SOL     OW26188   5.445   0.012   5.416
 8430SOL    HW126189   5.466   0.026   5.319
 8430SOL    HW226190   5.425   6.933   5.432
 8431SOL     OW26191   2.304   3.117   6.392
 8431SOL    HW126192   2.401   3.122   6.369
 8431SOL    HW226193   2.257   3.058   6.325
 8432SOL     OW26194   6.661   5.360   5.592
 8432SOL    HW126195   6.683   5.265   5.613
 8432SOL    HW226196   6.742   5.417   5.606
 8433SOL     OW26197   5.071   1.825   1.113
 8433SOL    HW126198   5.115   1.737   1.131
 8433SOL    HW226199   4.974   1.819   1.137
 8434SOL     OW26200   2.723   6.244   4.675
 8434SOL    HW126201   2.795   6.177   4.657
 8434SOL    HW226202   2.713   6.256   4.774
 8435SOL     OW26203   6.524   1.676   3.131
 8435SOL    HW126204   6.599   1.613   3.154
 8435SOL    HW226205   6.527   1.696   3.033
 8436SOL     OW26206   1.719   5.115   2.798
 8436SOL    HW126207   1.784   5.041   2.811
 8436SOL    HW226208   1.762   5.202   2.819
 8437SOL     OW26209   1.708   5.879   0.702
 8437SOL    HW126210   1.733   5.976   0.696
 8437SOL    HW226211   1.648   5.865   0.781
 8438SOL     OW26212   0.926   4.200   2.709
 8438SOL    HW126213   0.916   4.134   2.784
 8438SOL    HW226214   1.023   4.208   2.684
 8439SOL     OW26215   6.039   4.254   2.429
 8439SOL    HW126216   5.940   4.241   2.420
 8439SOL    HW226217   6.070   4.218   2.517
 8440SOL     OW26218   1.548   1.750   2.153
 8440SOL    HW126219   1.461   1.795   2.177
 8440SOL    HW226220   1.598   1.730   2.237
 8441SOL     OW26221   0.027   2.943   6.345
 8441SOL    HW126222   0.056   3.035   6.371
 8441SOL    HW226223   0.016   2.939   6.246
 8442SOL     OW26224   3.786   2.628   6.690
 8442SOL    HW126225   3.813   2.701   6.753
 8442SOL    HW226226   3.819   2.650   6.598
 8443SOL     OW26227   2.193   4.018   2.907
 8443SOL    HW126228   2.238   4.085   2.966
 8443SOL    HW226229   2.192   4.052   2.813
 8444SOL     OW26230   5.303   5.201   5.285
 8444SOL    HW126231   5.250   5.231   5.364
 8444SOL    HW226232   5.370   5.272   5.260
 8445SOL     OW26233   4.305   6.371   6.601
 8445SOL    HW126234   4.317   6.323   6.514
 8445SOL    HW226235   4.394   6.383   6.645
 8446SOL     OW26236   6.666   5.963   4.467
 8446SOL    HW126237   6.619   5.914   4.540
 8446SOL    HW226238   6.600   5.989   4.396
 8447SOL     OW26239   3.291   1.777   4.276
 8447SOL    HW126240   3.296   1.714   4.353
 8447SOL    HW226241   3.284   1.725   4.191
 8448SOL     OW26242   3.476   6.728   2.723
 8448SOL    HW126243   3.465   6.828   2.725
 8448SOL    HW226244   3.423   6.687   2.797
 8449SOL     OW26245   1.395   2.586   4.095
 8449SOL    HW126246   1.316   2.548   4.144
 8449SOL    HW226247   1.467   2.609   4.161
 8450SOL     OW26248   6.735   1.055   0.732
 8450SOL    HW126249   6.778   1.072   0.643
 8450SOL    HW226250   6.674   0.976   0.724
 8451SOL     OW26251   4.032   2.642   0.994
 8451SOL    HW126252   4.062   2.737   0.989
 8451SOL    HW226253   3.947   2.631   0.943
 8452SOL     OW26254   5.235   0.756   5.987
 8452SOL    HW126255   5.219   0.744   5.889
 8452SOL    HW226256   5.238   0.667   6.032
 8453SOL     OW26257   0.254   0.559   0.357
 8453SOL    HW126258   0.300   0.534   0.442
 8453SOL    HW226259   0.233   0.657   0.359
 8454SOL     OW26260   6.125   5.983   0.015
 8454SOL    HW126261   6.197   5.986   0.085
 8454SOL    HW226262   6.138   6.060   6.969
 8455SOL     OW26263   5.991   0.854   3.075
 8455SOL    HW126264   6.052   0.912   3.022
 8455SOL    HW226265   5.990   0.762   3.036
 8456SOL     OW26266   6.933   0.851   2.390
 8456SOL    HW126267   0.002   0.891   2.358
 8456SOL    HW226268   6.862   0.866   2.321
 8457SOL     OW26269   6.327   6.850   4.889
 8457SOL    HW126270   6.399   6.788   4.917
 8457SOL    HW226271   6.364   6.942   4.878
 8458SOL     OW26272   1.179   6.582   0.209
 8458SOL    HW126273   1.223   6.639   0.279
 8458SOL    HW226274   1.133   6.642   0.143
 8459SOL     OW26275   0.556   5.745   2.860
 8459SOL    HW126276   0.485   5.782   2.800
 8459SOL    HW226277   0.565   5.803   2.940
 8460SOL     OW26278   3.832   3.097   3.467
 8460SOL    HW126279   3.806   3.173   3.407
 8460SOL    HW226280   3.874   3.134   3.550
 8461SOL     OW26281   6.473   3.360   3.754
 8461SOL    HW126282   6.411   3.438   3.764
 8461SOL    HW226283   6.420   3.276   3.747
 8462SOL     OW26284   2.453   2.488   1.805
 8462SOL    HW126285   2.437   2.389   1.799
 8462SOL    HW226286   2.368   2.534   1.828
 8463SOL     OW26287   6.651   0.435   1.758
 8463SOL    HW126288   6.718   0.499   1.719
 8463SOL    HW226289   6.559   0.464   1.734
 8464SOL     OW26290   6.681   0.991   4.525
 8464SOL    HW126291   6.661   0.902   4.566
 8464SOL    HW226292   6.610   1.014   4.459
 8465SOL     OW26293   2.024   1.275   0.779
 8465SOL    HW126294   2.036   1.298   0.876
 8465SOL    HW226295   2.027   1.175   0.768
 8466SOL     OW26296   0.882   6.975   4.243
 8466SOL    HW126297   0.933   6.979   4.328
 8466SOL    HW226298   0.945   6.964   4.166
 8467SOL     OW26299   4.086   5.569   0.656
 8467SOL    HW126300   4.042   5.606   0.575
 8467SOL    HW226301   4.163   5.628   0.682
 8468SOL     OW26302   4.086   2.780   0.099
 8468SOL    HW126303   4.080   2.730   0.186
 8468SOL    HW226304   4.149   2.857   0.110
 8469SOL     OW26305   4.863   2.190   5.447
 8469SOL    HW126306   4.825   2.147   5.529
 8469SOL    HW226307   4.822   2.148   5.366
 8470SOL     OW26308   2.202   2.960   0.028
 8470SOL    HW126309   2.136   2.930   0.096
 8470SOL    HW226310   2.292   2.971   0.071
 8471SOL     OW26311   3.997   1.300   4.864
 8471SOL    HW126312   3.912   1.350   4.880
 8471SOL    HW226313   4.072   1.364   4.849
 8472SOL     OW26314   1.156   6.430   3.081
 8472SOL    HW126315   1.062   6.435   3.047
 8472SOL    HW226316   1.170   6.500   3.151
 8473SOL     OW26317   6.529   5.847   6.927
 8473SOL    HW126318   6.608   5.893   6.886
 8473SOL    HW226319   6.539   5.748   6.917
 8474SOL     OW26320   4.095   5.797   0.173
 8474SOL    HW126321   3.999   5.812   0.148
 8474SOL    HW226322   4.143   5.757   0.095
 8475SOL     OW26323   4.812   1.697   2.823
 8475SOL    HW126324   4.748   1.684   2.748
 8475SOL    HW226325   4.904   1.709   2.786
 8476SOL     OW26326   4.720   0.168   3.090
 8476SOL    HW126327   4.737   0.162   2.991
 8476SOL    HW226328   4.710   0.264   3.115
 8477SOL     OW26329   3.225   0.537   3.223
 8477SOL    HW126330   3.296   0.476   3.190
 8477SOL    HW226331   3.201   0.513   3.317
 8478SOL     OW26332   1.563   0.526   6.135
 8478SOL    HW126333   1.503   0.535   6.056
 8478SOL    HW226334   1.640   0.589   6.126
 8479SOL     OW26335   5.450   0.728   2.191
 8479SOL    HW126336   5.403   0.644   2.218
 8479SOL    HW226337   5.549   0.711   2.189
 8480SOL     OW26338   1.765   0.879   1.788
 8480SOL    HW126339   1.861   0.904   1.781
 8480SOL    HW226340   1.752   0.786   1.753
 8481SOL     OW26341   4.054   0.120   5.669
 8481SOL    HW126342   4.115   0.047   5.637
 8481SOL    HW226343   4.108   0.201   5.692
 8482SOL     OW26344   6.902   0.573   1.321
 8482SOL    HW126345   6.993   0.540   1.297
 8482SOL    HW226346   6.895   0.670   1.297
 8483SOL     OW26347   5.000   6.502   1.791
 8483SOL    HW126348   4.931   6.483   1.860
 8483SOL    HW226349   5.091   6.489   1.830
 8484SOL     OW26350   6.642   4.855   5.603
 8484SOL    HW126351   6.672   4.804   5.523
 8484SOL    HW226352   6.548   4.885   5.591
 8485SOL     OW26353   2.034   3.227   6.445
 8485SOL    HW126354   2.125   3.187   6.452
 8485SOL    HW226355   2.028   3.282   6.362
 8486SOL     OW26356   4.490   0.718   2.443
 8486SOL    HW126357   4.529   0.761   2.525
 8486SOL    HW226358   4.428   0.644   2.471
 8487SOL     OW26359   4.259   0.501   0.628
 8487SOL    HW126360   4.254   0.576   0.562
 8487SOL    HW226361   4.304   0.532   0.712
 8488SOL     OW26362   6.858   3.673   5.298
 8488SOL    HW126363   6.765   3.681   5.261
 8488SOL    HW226364   6.853   3.639   5.392
 8489SOL     OW26365   3.314   6.939   3.531
 8489SOL    HW126366   3.230   6.990   3.549
 8489SOL    HW226367   3.292   6.841   3.523
 8490SOL     OW26368   4.007   5.061   2.592
 8490SOL    HW126369   4.093   5.009   2.593
 8490SOL    HW226370   3.931   4.999   2.610
 8491SOL     OW26371   0.738   0.563   1.594
 8491SOL    HW126372   0.668   0.597   1.656
 8491SOL    HW226373   0.719   0.594   1.501
 8492SOL     OW26374   5.681   4.050   4.800
 8492SOL    HW126375   5.713   4.010   4.714
 8492SOL    HW226376   5.582   4.063   4.795
 8493SOL     OW26377   3.660   3.209   0.640
 8493SOL    HW126378   3.585   3.147   0.663
 8493SOL    HW226379   3.680   3.204   0.542
 8494SOL     OW26380   3.488   6.368   6.631
 8494SOL    HW126381   3.515   6.301   6.562
 8494SOL    HW226382   3.396   6.402   6.610
 8495SOL     OW26383   0.835   2.791   6.387
 8495SOL    HW126384   0.743   2.763   6.359
 8495SOL    HW226385   0.837   2.800   6.487
 8496SOL     OW26386   1.174   2.326   3.713
 8496SOL    HW126387   1.245   2.364   3.772
 8496SOL    HW226388   1.195   2.229   3.695
 8497SOL     OW26389   5.782   4.003   3.804
 8497SOL    HW126390   5.685   3.993   3.781
 8497SOL    HW226391   5.837   3.988   3.722
 8498SOL     OW26392   6.624   0.763   1.462
 8498SOL    HW126393   6.700   0.786   1.401
 8498SOL    HW226394   6.657   0.700   1.533
 8499SOL     OW26395   7.009   4.126   0.425
 8499SOL    HW126396   6.914   4.141   0.454
 8499SOL    HW226397   0.051   4.196   0.465
 8500SOL     OW26398   2.030   0.674   5.441
 8500SOL    HW126399   2.056   0.593   5.494
 8500SOL    HW226400   2.017   0.648   5.345
 8501SOL     OW26401   2.666   3.753   6.532
 8501SOL    HW126402   2.655   3.749   6.433
 8501SOL    HW226403   2.654   3.661   6.571
 8502SOL     OW26404   0.784   6.619   1.812
 8502SOL    HW126405   0.749   6.535   1.771
 8502SOL    HW226406   0.715   6.691   1.803
 8503SOL     OW26407   3.843   5.337   3.316
 8503SOL    HW126408   3.909   5.329   3.391
 8503SOL    HW226409   3.758   5.290   3.342
 8504SOL     OW26410   1.718   4.911   3.243
 8504SOL    HW126411   1.804   4.949   3.278
 8504SOL    HW226412   1.678   4.974   3.176
 8505SOL     OW26413   4.278   1.931   3.170
 8505SOL    HW126414   4.330   2.008   3.134
 8505SOL    HW226415   4.180   1.945   3.152
 8506SOL     OW26416   0.668   5.477   6.901
 8506SOL    HW126417   0.597   5.409   6.887
 8506SOL    HW226418   0.629   5.559   6.943
 8507SOL     OW26419   1.782   0.416   4.315
 8507SOL    HW126420   1.878   0.443   4.317
 8507SOL    HW226421   1.733   0.471   4.247
 8508SOL     OW26422   0.511   3.250   5.585
 8508SOL    HW126423   0.571   3.309   5.530
 8508SOL    HW226424   0.426   3.298   5.605
 8509SOL     OW26425   6.359   2.447   4.663
 8509SOL    HW126426   6.318   2.491   4.743
 8509SOL    HW226427   6.458   2.439   4.677
 8510SOL     OW26428   5.358   6.889   2.622
 8510SOL    HW126429   5.399   6.958   2.562
 8510SOL    HW226430   5.351   6.803   2.572
 8511SOL     OW26431   6.680   5.497   1.403
 8511SOL    HW126432   6.634   5.495   1.314
 8511SOL    HW226433   6.687   5.591   1.435
 8512SOL     OW26434   4.007   2.924   0.929
 8512SOL    HW126435   4.086   2.985   0.941
 8512SOL    HW226436   3.924   2.980   0.920
 8513SOL     OW26437   0.516   3.132   0.602
 8513SOL    HW126438   0.547   3.123   0.697
 8513SOL    HW226439   0.590   3.108   0.540
 8514SOL     OW26440   2.194   3.087   4.803
 8514SOL    HW126441   2.154   3.177   4.817
 8514SOL    HW226442   2.266   3.071   4.870
 8515SOL     OW26443   3.093   1.172   0.223
 8515SOL    HW126444   3.008   1.176   0.171
 8515SOL    HW226445   3.085   1.228   0.306
 8516SOL     OW26446   6.669   3.311   4.909
 8516SOL    HW126447   6.577   3.347   4.924
 8516SOL    HW226448   6.694   3.251   4.985
 8517SOL     OW26449   1.332   1.930   5.734
 8517SOL    HW126450   1.296   1.837   5.739
 8517SOL    HW226451   1.260   1.994   5.760
 8518SOL     OW26452   5.738   4.959   0.124
 8518SOL    HW126453   5.750   4.863   0.097
 8518SOL    HW226454   5.792   4.978   0.206
 8519SOL     OW26455   0.772   3.775   0.568
 8519SOL    HW126456   0.737   3.692   0.525
 8519SOL    HW226457   0.728   3.855   0.528
 8520SOL     OW26458   3.338   3.697   6.166
 8520SOL    HW126459   3.281   3.775   6.141
 8520SOL    HW226460   3.413   3.687   6.101
 8521SOL     OW26461   1.978   6.862   4.518
 8521SOL    HW126462   1.901   6.839   4.459
 8521SOL    HW226463   1.968   6.816   4.606
 8522SOL     OW26464   0.451   0.633   6.938
 8522SOL    HW126465   0.490   0.681   0.001
 8522SOL    HW226466   0.401   0.552   6.969
 8523SOL     OW26467   3.958   1.880   1.229
 8523SOL    HW126468   3.898   1.826   1.289
 8523SOL    HW226469   4.054   1.854   1.247
 8524SOL     OW26470   2.875   6.270   5.317
 8524SOL    HW126471   2.872   6.283   5.416
 8524SOL    HW226472   2.783   6.280   5.279
 8525SOL     OW26473   6.435   2.674   3.051
 8525SOL    HW126474   6.373   2.616   3.103
 8525SOL    HW226475   6.425   2.656   2.953
 8526SOL     OW26476   0.434   4.336   6.702
 8526SOL    HW126477   0.379   4.253   6.702
 8526SOL    HW226478   0.409   4.392   6.623
 8527SOL     OW26479   2.481   0.821   6.205
 8527SOL    HW126480   2.496   0.765   6.124
 8527SOL    HW226481   2.525   0.910   6.193
 8528SOL     OW26482   5.710   0.157   0.457
 8528SOL    HW126483   5.623   0.133   0.415
 8528SOL    HW226484   5.697   0.170   0.555
 8529SOL     OW26485   1.032   6.375   6.600
 8529SOL    HW126486   1.005   6.421   6.515
 8529SOL    HW226487   1.045   6.277   6.582
 8530SOL     OW26488   3.979   3.813   3.064
 8530SOL    HW126489   4.044   3.744   3.093
 8530SOL    HW226490   3.967   3.809   2.965
 8531SOL     OW26491   6.765   5.688   3.154
 8531SOL    HW126492   6.681   5.637   3.170
 8531SOL    HW226493   6.819   5.641   3.084
 8532SOL     OW26494   3.583   5.395   0.203
 8532SOL    HW126495   3.618   5.370   0.113
 8532SOL    HW226496   3.497   5.347   0.220
 8533SOL     OW26497   2.846   5.829   5.102
 8533SOL    HW126498   2.763   5.880   5.081
 8533SOL    HW226499   2.898   5.877   5.173
 8534SOL     OW26500   1.834   3.462   2.259
 8534SOL    HW126501   1.810   3.375   2.216
 8534SOL    HW226502   1.831   3.452   2.359
 8535SOL     OW26503   6.421   0.107   2.156
 8535SOL    HW126504   6.372   0.048   2.220
 8535SOL    HW226505   6.365   0.120   2.074
 8536SOL     OW26506   1.802   1.083   3.791
 8536SOL    HW126507   1.801   1.079   3.691
 8536SOL    HW226508   1.871   1.021   3.827
 8537SOL     OW26509   5.758   1.036   2.973
 8537SOL    HW126510   5.726   1.038   3.068
 8537SOL    HW226511   5.844   0.986   2.968
 8538SOL     OW26512   0.688   2.456   6.645
 8538SOL    HW126513   0.720   2.550   6.643
 8538SOL    HW226514   0.697   2.420   6.738
 8539SOL     OW26515   5.292   3.328   2.126
 8539SOL    HW126516   5.389   3.314   2.106
 8539SOL    HW226517   5.245   3.355   2.041
 8540SOL     OW26518   4.253   0.208   1.068
 8540SOL    HW126519   4.277   0.293   1.114
 8540SOL    HW226520   4.155   0.190   1.080
 8541SOL     OW26521   1.393   3.202   3.395
 8541SOL    HW126522   1.416   3.239   3.485
 8541SOL    HW226523   1.375   3.104   3.403
 8542SOL     OW26524   2.910   4.553   6.438
 8542SOL    HW126525   2.918   4.482   6.508
 8542SOL    HW226526   2.858   4.630   6.474
 8543SOL     OW26527   3.788   2.433   6.888
 8543SOL    HW126528   3.761   2.505   6.823
 8543SOL    HW226529   3.783   2.469   6.981
 8544SOL     OW26530   5.714   1.701   4.214
 8544SOL    HW126531   5.638   1.746   4.167
 8544SOL    HW226532   5.718   1.733   4.309
 8545SOL     OW26533   4.243   6.557   5.281
 8545SOL    HW126534   4.323   6.604   5.245
 8545SOL    HW226535   4.160   6.602   5.249
 8546SOL     OW26536   4.158   2.490   6.995
 8546SOL    HW126537   4.135   2.472   6.900
 8546SOL    HW226538   4.077   2.526   0.025
 8547SOL     OW26539   1.767   4.409   2.270
 8547SOL    HW126540   1.678   4.444   2.299
 8547SOL    HW226541   1.798   4.460   2.190
 8548SOL     OW26542   6.064   2.379   5.453
 8548SOL    HW126543   6.127   2.334   5.389
 8548SOL    HW226544   6.103   2.376   5.545
 8549SOL     OW26545   5.262   2.869   5.109
 8549SOL    HW126546   5.175   2.866   5.159
 8549SOL    HW226547   5.319   2.791   5.136
 8550SOL     OW26548   1.635   4.521   5.322
 8550SOL    HW126549   1.620   4.619   5.334
 8550SOL    HW226550   1.667   4.481   5.408
 8551SOL     OW26551   2.159   4.629   1.160
 8551SOL    HW126552   2.254   4.659   1.152
 8551SOL    HW226553   2.148   4.575   1.243
 8552SOL     OW26554   2.965   6.697   4.644
 8552SOL    HW126555   3.059   6.672   4.670
 8552SOL    HW226556   2.917   6.614   4.613
 8553SOL     OW26557   6.222   5.527   0.288
 8553SOL    HW126558   6.309   5.504   0.332
 8553SOL    HW226559   6.146   5.506   0.350
 8554SOL     OW26560   5.760   3.737   0.611
 8554SOL    HW126561   5.819   3.713   0.688
 8554SOL    HW226562   5.691   3.666   0.596
 8555SOL     OW26563   1.963   6.438   4.122
 8555SOL    HW126564   1.952   6.339   4.113
 8555SOL    HW226565   2.004   6.459   4.210
 8556SOL     OW26566   5.841   0.174   5.185
 8556SOL    HW126567   5.837   0.137   5.092
 8556SOL    HW226568   5.936   0.182   5.214
 8557SOL     OW26569   6.326   1.667   0.881
 8557SOL    HW126570   6.305   1.659   0.979
 8557SOL    HW226571   6.360   1.759   0.862
 8558SOL     OW26572   1.559   4.438   2.624
 8558SOL    HW126573   1.562   4.343   2.594
 8558SOL    HW226574   1.549   4.498   2.545
 8559SOL     OW26575   0.934   1.352   5.262
 8559SOL    HW126576   0.873   1.422   5.224
 8559SOL    HW226577   0.975   1.386   5.347
 8560SOL     OW26578   6.541   2.576   6.595
 8560SOL    HW126579   6.481   2.552   6.671
 8560SOL    HW226580   6.534   2.506   6.524
 8561SOL     OW26581   4.888   5.986   6.294
 8561SOL    HW126582   4.862   6.080   6.317
 8561SOL    HW226583   4.986   5.974   6.308
 8562SOL     OW26584   3.884   0.615   4.412
 8562SOL    HW126585   3.804   0.628   4.471
 8562SOL    HW226586   3.855   0.613   4.317
 8563SOL     OW26587   2.804   3.010   6.530
 8563SOL    HW126588   2.855   2.947   6.471
 8563SOL    HW226589   2.713   2.971   6.548
 8564SOL     OW26590   0.625   5.605   3.289
 8564SOL    HW126591   0.533   5.572   3.267
 8564SOL    HW226592   0.631   5.623   3.387
 8565SOL     OW26593   3.324   0.890   1.164
 8565SOL    HW126594   3.316   0.794   1.190
 8565SOL    HW226595   3.271   0.907   1.081
 8566SOL     OW26596   1.455   4.031   4.498
 8566SOL    HW126597   1.396   3.951   4.490
 8566SOL    HW226598   1.550   4.005   4.479
 8567SOL     OW26599   5.401   6.437   6.285
 8567SOL    HW126600   5.389   6.341   6.261
 8567SOL    HW226601   5.494   6.466   6.264
 8568SOL     OW26602   5.611   6.897   0.539
 8568SOL    HW126603   5.583   6.820   0.596
 8568SOL    HW226604   5.680   6.866   0.472
 8569SOL     OW26605   2.839   0.434   5.412
 8569SOL    HW126606   2.881   0.521   5.387
 8569SOL    HW226607   2.740   0.444   5.415
 8570SOL     OW26608   6.626   3.444   6.616
 8570SOL    HW126609   6.589   3.352   6.625
 8570SOL    HW226610   6.551   3.510   6.625
 8571SOL     OW26611   6.643   4.589   5.950
 8571SOL    HW126612   6.563   4.650   5.957
 8571SOL    HW226613   6.722   4.641   5.918
 8572SOL     OW26614   3.100   4.984   6.456
 8572SOL    HW126615   3.075   5.058   6.518
 8572SOL    HW226616   3.098   4.897   6.505
 8573SOL     OW26617   3.607   6.092   4.414
 8573SOL    HW126618   3.605   6.030   4.335
 8573SOL    HW226619   3.695   6.140   4.416
 8574SOL     OW26620   1.028   4.100   4.334
 8574SOL    HW126621   1.042   4.038   4.411
 8574SOL    HW226622   0.945   4.153   4.349
 8575SOL     OW26623   2.900   3.405   6.135
 8575SOL    HW126624   2.873   3.416   6.231
 8575SOL    HW226625   2.947   3.317   6.124
 8576SOL     OW26626   2.148   0.343   0.814
 8576SOL    HW126627   2.179   0.437   0.803
 8576SOL    HW226628   2.054   0.343   0.848
 8577SOL     OW26629   6.426   5.731   4.425
 8577SOL    HW126630   6.348   5.700   4.480
 8577SOL    HW226631   6.393   5.788   4.350
 8578SOL     OW26632   4.588   0.800   4.200
 8578SOL    HW126633   4.609   0.884   4.249
 8578SOL    HW226634   4.501   0.763   4.232
 8579SOL     OW26635   0.556   4.499   2.584
 8579SOL    HW126636   0.616   4.451   2.648
 8579SOL    HW226637   0.511   4.432   2.524
 8580SOL     OW26638   2.431   5.536   5.987
 8580SOL    HW126639   2.428   5.437   6.001
 8580SOL    HW226640   2.373   5.562   5.910
 8581SOL     OW26641   3.532   3.573   0.164
 8581SOL    HW126642   3.451   3.519   0.188
 8581SOL    HW226643   3.586   3.590   0.247
 8582SOL     OW26644   4.091   4.890   0.041
 8582SOL    HW126645   4.027   4.886   0.118
 8582SOL    HW226646   4.152   4.968   0.052
 8583SOL     OW26647   5.332   0.076   4.675
 8583SOL    HW126648   5.413   0.017   4.676
 8583SOL    HW226649   5.313   0.105   4.581
 8584SOL     OW26650   0.388   5.702   6.195
 8584SOL    HW126651   0.459   5.769   6.218
 8584SOL    HW226652   0.407   5.616   6.242
 8585SOL     OW26653   1.481   1.494   0.688
 8585SOL    HW126654   1.384   1.517   0.693
 8585SOL    HW226655   1.534   1.577   0.672
 8586SOL     OW26656   3.725   5.161   3.717
 8586SOL    HW126657   3.686   5.228   3.655
 8586SOL    HW226658   3.659   5.141   3.790
 8587SOL     OW26659   6.313   1.664   1.315
 8587SOL    HW126660   6.249   1.655   1.391
 8587SOL    HW226661   6.326   1.761   1.294
 8588SOL     OW26662   3.846   2.971   6.341
 8588SOL    HW126663   3.825   2.941   6.434
 8588SOL    HW226664   3.831   3.069   6.334
 8589SOL     OW26665   2.606   1.759   4.090
 8589SOL    HW126666   2.598   1.768   3.991
 8589SOL    HW226667   2.515   1.743   4.129
 8590SOL     OW26668   5.488   4.457   5.471
 8590SOL    HW126669   5.452   4.484   5.560
 8590SOL    HW226670   5.531   4.367   5.478
 8591SOL     OW26671   0.552   2.861   0.411
 8591SOL    HW126672   0.495   2.940   0.388
 8591SOL    HW226673   0.552   2.847   0.510
 8592SOL     OW26674   6.428   6.263   6.854
 8592SOL    HW126675   6.476   6.345   6.886
 8592SOL    HW226676   6.483   6.219   6.782
 8593SOL     OW26677   0.479   5.216   3.345
 8593SOL    HW126678   0.468   5.301   3.293
 8593SOL    HW226679   0.487   5.140   3.281
 8594SOL     OW26680   4.136   3.428   2.535
 8594SOL    HW126681   4.223   3.378   2.536
 8594SOL    HW226682   4.123   3.469   2.444
 8595SOL     OW26683   1.737   3.034   1.927
 8595SOL    HW126684   1.697   2.944   1.906
 8595SOL    HW226685   1.827   3.040   1.884
 8596SOL     OW26686   6.757   4.204   2.722
 8596SOL    HW126687   6.671   4.155   2.737
 8596SOL    HW226688   6.747   4.298   2.753
 8597SOL     OW26689   2.061   1.639   1.085
 8597SOL    HW126690   2.066   1.730   1.045
 8597SOL    HW226691   1.973   1.627   1.131
 8598SOL     OW26692   6.140   2.705   1.815
 8598SOL    HW126693   6.127   2.606   1.826
 8598SOL    HW226694   6.192   2.741   1.892
 8599SOL     OW26695   0.918   2.205   1.064
 8599SOL    HW126696   0.976   2.268   1.012
 8599SOL    HW226697   0.964   2.117   1.072
 8600SOL     OW26698   6.978   2.486   6.088
 8600SOL    HW126699   6.956   2.389   6.085
 8600SOL    HW226700   0.057   2.498   6.114
 8601SOL     OW26701   0.790   0.491   5.082
 8601SOL    HW126702   0.850   0.508   5.003
 8601SOL    HW226703   0.754   0.398   5.077
 8602SOL     OW26704   1.048   6.358   2.399
 8602SOL    HW126705   1.090   6.281   2.447
 8602SOL    HW226706   0.986   6.323   2.329
 8603SOL     OW26707   4.985   3.630   2.058
 8603SOL    HW126708   4.952   3.613   1.965
 8603SOL    HW226709   4.945   3.714   2.093
 8604SOL     OW26710   6.084   1.666   3.601
 8604SOL    HW126711   6.131   1.723   3.668
 8604SOL    HW226712   6.089   1.709   3.511
 8605SOL     OW26713   2.726   5.227   1.742
 8605SOL    HW126714   2.820   5.203   1.768
 8605SOL    HW226715   2.698   5.173   1.663
 8606SOL     OW26716   4.093   5.244   4.550
 8606SOL    HW126717   4.037   5.191   4.486
 8606SOL    HW226718   4.091   5.201   4.640
 8607SOL     OW26719   2.854   6.193   0.253
 8607SOL    HW126720   2.819   6.284   0.228
 8607SOL    HW226721   2.791   6.123   0.221
 8608SOL     OW26722   5.777   6.574   2.585
 8608SOL    HW126723   5.759   6.566   2.683
 8608SOL    HW226724   5.871   6.543   2.566
 8609SOL     OW26725   5.597   0.095   5.864
 8609SOL    HW126726   5.637   0.145   5.941
 8609SOL    HW226727   5.529   0.154   5.819
 8610SOL     OW26728   6.571   6.548   5.226
 8610SOL    HW126729   6.655   6.510   5.265
 8610SOL    HW226730   6.505   6.474   5.213
 8611SOL     OW26731   2.039   2.004   2.607
 8611SOL    HW126732   2.020   1.947   2.687
 8611SOL    HW226733   2.043   1.946   2.526
 8612SOL     OW26734   5.199   3.023   4.633
 8612SOL    HW126735   5.135   3.088   4.592
 8612SOL    HW226736   5.171   2.930   4.609
 8613SOL     OW26737   1.350   0.360   0.415
 8613SOL    HW126738   1.264   0.385   0.371
 8613SOL    HW226739   1.420   0.345   0.345
 8614SOL     OW26740   1.546   3.226   3.177
 8614SOL    HW126741   1.634   3.191   3.211
 8614SOL    HW226742   1.476   3.213   3.247
 8615SOL     OW26743   4.874   1.760   6.085
 8615SOL    HW126744   4.809   1.716   6.147
 8615SOL    HW226745   4.933   1.822   6.136
 8616SOL     OW26746   1.323   3.321   0.682
 8616SOL    HW126747   1.234   3.300   0.641
 8616SOL    HW226748   1.340   3.419   0.677
 8617SOL     OW26749   6.243   3.181   0.694
 8617SOL    HW126750   6.178   3.230   0.637
 8617SOL    HW226751   6.195   3.116   0.752
 8618SOL     OW26752   3.374   1.379   2.804
 8618SOL    HW126753   3.369   1.476   2.829
 8618SOL    HW226754   3.305   1.328   2.857
 8619SOL     OW26755   3.640   6.431   0.771
 8619SOL    HW126756   3.637   6.519   0.818
 8619SOL    HW226757   3.674   6.444   0.678
 8620SOL     OW26758   6.185   5.986   4.109
 8620SOL    HW126759   6.110   5.933   4.071
 8620SOL    HW226760   6.153   6.036   4.190
 8621SOL     OW26761   5.019   1.091   3.520
 8621SOL    HW126762   5.115   1.097   3.547
 8621SOL    HW226763   4.981   1.184   3.512
 8622SOL     OW26764   5.263   4.998   6.191
 8622SOL    HW126765   5.267   5.074   6.255
 8622SOL    HW226766   5.170   4.962   6.188
 8623SOL     OW26767   5.766   1.985   3.900
 8623SOL    HW126768   5.750   2.057   3.832
 8623SOL    HW226769   5.864   1.962   3.901
 8624SOL     OW26770   6.260   3.094   3.498
 8624SOL    HW126771   6.248   3.009   3.447
 8624SOL    HW226772   6.329   3.081   3.569
 8625SOL     OW26773   3.594   1.328   6.570
 8625SOL    HW126774   3.606   1.420   6.608
 8625SOL    HW226775   3.613   1.329   6.472
 8626SOL     OW26776   3.273   3.704   1.663
 8626SOL    HW126777   3.194   3.658   1.705
 8626SOL    HW226778   3.249   3.798   1.641
 8627SOL     OW26779   2.961   0.446   6.656
 8627SOL    HW126780   2.905   0.522   6.690
 8627SOL    HW226781   2.966   0.375   6.726
 8628SOL     OW26782   6.353   1.274   1.478
 8628SOL    HW126783   6.299   1.199   1.516
 8628SOL    HW226784   6.313   1.304   1.392
 8629SOL     OW26785   1.430   6.090   3.365
 8629SOL    HW126786   1.520   6.069   3.403
 8629SOL    HW226787   1.385   6.006   3.335
 8630SOL     OW26788   4.957   4.898   4.168
 8630SOL    HW126789   5.032   4.928   4.109
 8630SOL    HW226790   4.978   4.922   4.263
 8631SOL     OW26791   3.987   6.728   3.400
 8631SOL    HW126792   4.073   6.767   3.432
 8631SOL    HW226793   3.922   6.722   3.476
 8632SOL     OW26794   3.291   0.797   3.070
 8632SOL    HW126795   3.251   0.720   3.120
 8632SOL    HW226796   3.362   0.763   3.009
 8633SOL     OW26797   6.417   6.596   2.835
 8633SOL    HW126798   6.377   6.525   2.893
 8633SOL    HW226799   6.401   6.573   2.739
 8634SOL     OW26800   6.322   6.267   1.710
 8634SOL    HW126801   6.224   6.251   1.696
 8634SOL    HW226802   6.374   6.223   1.637
 8635SOL     OW26803   6.118   3.973   6.063
 8635SOL    HW126804   6.032   3.938   6.100
 8635SOL    HW226805   6.146   4.054   6.114
 8636SOL     OW26806   5.715   4.982   1.035
 8636SOL    HW126807   5.739   4.997   1.131
 8636SOL    HW226808   5.618   5.002   1.021
 8637SOL     OW26809   0.900   0.473   2.062
 8637SOL    HW126810   0.850   0.557   2.041
 8637SOL    HW226811   0.875   0.403   1.995
 8638SOL     OW26812   6.022   4.361   1.191
 8638SOL    HW126813   5.940   4.404   1.228
 8638SOL    HW226814   6.103   4.404   1.230
 8639SOL     OW26815   5.957   2.498   3.023
 8639SOL    HW126816   6.012   2.419   2.999
 8639SOL    HW226817   5.882   2.507   2.958
 8640SOL     OW26818   4.894   5.952   1.606
 8640SOL    HW126819   4.937   5.951   1.516
 8640SOL    HW226820   4.826   6.024   1.609
 8641SOL     OW26821   5.422   4.516   3.798
 8641SOL    HW126822   5.381   4.585   3.859
 8641SOL    HW226823   5.476   4.452   3.852
 8642SOL     OW26824   4.498   1.321   0.824
 8642SOL    HW126825   4.400   1.308   0.806
 8642SOL    HW226826   4.551   1.250   0.778
 8643SOL     OW26827   4.621   6.895   0.078
 8643SOL    HW126828   4.651   6.901   7.000
 8643SOL    HW226829   4.659   6.972   0.129
 8644SOL     OW26830   6.448   3.190   5.493
 8644SOL    HW126831   6.417   3.112   5.546
 8644SOL    HW226832   6.479   3.159   5.403
 8645SOL     OW26833   6.421   3.683   1.782
 8645SOL    HW126834   6.521   3.694   1.784
 8645SOL    HW226835   6.392   3.624   1.857
 8646SOL     OW26836   4.820   6.201   0.457
 8646SOL    HW126837   4.806   6.289   0.413
 8646SOL    HW226838   4.736   6.173   0.504
 8647SOL     OW26839   5.006   5.145   2.157
 8647SOL    HW126840   5.049   5.147   2.247
 8647SOL    HW226841   4.922   5.200   2.159
 8648SOL     OW26842   6.182   0.532   4.180
 8648SOL    HW126843   6.137   0.615   4.147
 8648SOL    HW226844   6.126   0.452   4.157
 8649SOL     OW26845   6.435   3.997   6.001
 8649SOL    HW126846   6.410   3.954   6.087
 8649SOL    HW226847   6.478   4.085   6.019
 8650SOL     OW26848   0.392   5.656   1.555
 8650SOL    HW126849   0.455   5.732   1.544
 8650SOL    HW226850   0.300   5.691   1.576
 8651SOL     OW26851   4.284   3.494   1.322
 8651SOL    HW126852   4.241   3.468   1.408
 8651SOL    HW226853   4.348   3.569   1.337
 8652SOL     OW26854   0.498   2.327   4.328
 8652SOL    HW126855   0.485   2.335   4.229
 8652SOL    HW226856   0.424   2.375   4.375
 8653SOL     OW26857   5.154   3.066   6.418
 8653SOL    HW126858   5.147   3.016   6.332
 8653SOL    HW226859   5.250   3.074   6.444
 8654SOL     OW26860   1.477   4.851   1.592
 8654SOL    HW126861   1.571   4.858   1.625
 8654SOL    HW226862   1.440   4.761   1.616
 8655SOL     OW26863   5.546   6.078   3.113
 8655SOL    HW126864   5.599   6.100   3.195
 8655SOL    HW226865   5.484   6.002   3.133
 8656SOL     OW26866   6.429   2.538   1.881
 8656SOL    HW126867   6.526   2.528   1.862
 8656SOL    HW226868   6.376   2.491   1.811
 8657SOL     OW26869   2.794   5.060   0.476
 8657SOL    HW126870   2.834   5.124   0.542
 8657SOL    HW226871   2.862   5.039   0.405
 8658SOL     OW26872   1.083   5.823   5.759
 8658SOL    HW126873   1.093   5.877   5.842
 8658SOL    HW226874   0.994   5.777   5.760
 8659SOL     OW26875   3.845   0.092   4.667
 8659SOL    HW126876   3.858   0.027   4.592
 8659SOL    HW226877   3.920   0.083   4.733
 8660SOL     OW26878   4.743   4.662   0.109
 8660SOL    HW126879   4.769   4.643   0.203
 8660SOL    HW226880   4.769   4.755   0.085
 8661SOL     OW26881   6.558   3.049   1.905
 8661SOL    HW126882   6.609   3.116   1.959
 8661SOL    HW226883   6.481   3.014   1.959
 8662SOL     OW26884   0.265   1.007   7.001
 8662SOL    HW126885   0.210   0.983   6.921
 8662SOL    HW226886   0.348   0.950   7.002
 8663SOL     OW26887   2.494   5.652   0.923
 8663SOL    HW126888   2.397   5.667   0.939
 8663SOL    HW226889   2.515   5.667   0.826
 8664SOL     OW26890   4.727   4.684   1.449
 8664SOL    HW126891   4.669   4.752   1.494
 8664SOL    HW226892   4.724   4.698   1.350
 8665SOL     OW26893   5.312   5.238   4.655
 8665SOL    HW126894   5.313   5.295   4.737
 8665SOL    HW226895   5.238   5.268   4.595
 8666SOL     OW26896   6.786   4.577   4.344
 8666SOL    HW126897   6.864   4.535   4.391
 8666SOL    HW226898   6.720   4.609   4.412
 8667SOL     OW26899   5.341   2.507   3.391
 8667SOL    HW126900   5.292   2.428   3.354
 8667SOL    HW226901   5.294   2.591   3.363
 8668SOL     OW26902   3.386   0.867   5.298
 8668SOL    HW126903   3.476   0.882   5.255
 8668SOL    HW226904   3.399   0.818   5.384
 8669SOL     OW26905   3.495   6.792   6.220
 8669SOL    HW126906   3.561   6.734   6.171
 8669SOL    HW226907   3.414   6.737   6.243
 8670SOL     OW26908   4.451   4.530   2.513
 8670SOL    HW126909   4.502   4.445   2.497
 8670SOL    HW226910   4.498   4.606   2.469
 8671SOL     OW26911   5.813   5.723   1.850
 8671SOL    HW126912   5.864   5.797   1.895
 8671SOL    HW226913   5.860   5.636   1.866
 8672SOL     OW26914   3.796   4.917   4.505
 8672SOL    HW126915   3.874   4.860   4.480
 8672SOL    HW226916   3.793   4.927   4.605
 8673SOL     OW26917   4.806   2.078   6.790
 8673SOL    HW126918   4.851   2.158   6.828
 8673SOL    HW226919   4.866   1.998   6.800
 8674SOL     OW26920   0.738   6.921   2.735
 8674SOL    HW126921   0.794   7.002   2.718
 8674SOL    HW226922   0.647   6.935   2.697
 8675SOL     OW26923   2.301   1.579   2.600
 8675SOL    HW126924   2.350   1.504   2.644
 8675SOL    HW226925   2.362   1.657   2.589
 8676SOL     OW26926   4.694   1.315   3.880
 8676SOL    HW126927   4.617   1.371   3.851
 8676SOL    HW226928   4.742   1.361   3.955
 8677SOL     OW26929   2.011   3.601   5.713
 8677SOL    HW126930   2.011   3.509   5.752
 8677SOL    HW226931   1.934   3.653   5.750
 8678SOL     OW26932   0.958   0.523   6.155
 8678SOL    HW126933   0.992   0.545   6.247
 8678SOL    HW226934   1.023   0.557   6.087
 8679SOL     OW26935   6.013   1.878   4.492
 8679SOL    HW126936   5.976   1.905   4.403
 8679SOL    HW226937   5.952   1.909   4.564
 8680SOL     OW26938   0.962   3.240   6.957
 8680SOL    HW126939   0.863   3.255   6.954
 8680SOL    HW226940   0.987   3.200   0.028
 8681SOL     OW26941   4.168   4.054   1.418
 8681SOL    HW126942   4.253   4.107   1.412
 8681SOL    HW226943   4.131   4.061   1.510
 8682SOL     OW26944   1.406   5.925   2.833
 8682SOL    HW126945   1.354   5.978   2.766
 8682SOL    HW226946   1.479   5.875   2.787
 8683SOL     OW26947   4.858   3.430   0.039
 8683SOL    HW126948   4.800   3.398   0.114
 8683SOL    HW226949   4.868   3.358   6.988
 8684SOL     OW26950   6.271   2.518   3.570
 8684SOL    HW126951   6.310   2.426   3.578
 8684SOL    HW226952   6.191   2.515   3.511
 8685SOL     OW26953   0.134   1.814   5.708
 8685SOL    HW126954   0.113   1.718   5.695
 8685SOL    HW226955   0.100   1.868   5.631
 8686SOL     OW26956   6.156   1.292   3.981
 8686SOL    HW126957   6.075   1.269   4.035
 8686SOL    HW226958   6.166   1.226   3.907
 8687SOL     OW26959   3.657   0.880   2.824
 8687SOL    HW126960   3.719   0.940   2.874
 8687SOL    HW226961   3.710   0.814   2.771
 8688SOL     OW26962   0.822   6.512   2.363
 8688SOL    HW126963   0.762   6.433   2.365
 8688SOL    HW226964   0.911   6.488   2.402
 8689SOL     OW26965   5.062   4.091   1.601
 8689SOL    HW126966   5.071   4.100   1.700
 8689SOL    HW226967   5.094   4.001   1.573
 8690SOL     OW26968   1.546   0.796   2.146
 8690SOL    HW126969   1.630   0.752   2.178
 8690SOL    HW226970   1.468   0.761   2.198
 8691SOL     OW26971   6.117   1.371   0.199
 8691SOL    HW126972   6.078   1.365   0.291
 8691SOL    HW226973   6.074   1.302   0.140
 8692SOL     OW26974   1.516   1.246   3.516
 8692SOL    HW126975   1.584   1.174   3.525
 8692SOL    HW226976   1.539   1.321   3.578
 8693SOL     OW26977   5.087   2.015   6.488
 8693SOL    HW126978   5.124   2.066   6.566
 8693SOL    HW226979   5.069   2.078   6.412
 8694SOL     OW26980   4.076   7.014   6.991
 8694SOL    HW126981   3.983   0.001   0.013
 8694SOL    HW226982   4.103   6.919   6.978
 8695SOL     OW26983   4.536   4.352   5.302
 8695SOL    HW126984   4.479   4.323   5.224
 8695SOL    HW226985   4.550   4.451   5.298
 8696SOL     OW26986   2.215   5.544   0.405
 8696SOL    HW126987   2.130   5.572   0.359
 8696SOL    HW226988   2.194   5.483   0.480
 8697SOL     OW26989   5.268   4.936   6.633
 8697SOL    HW126990   5.209   4.863   6.667
 8697SOL    HW226991   5.300   4.914   6.541
 8698SOL     OW26992   5.596   5.746   5.078
 8698SOL    HW126993   5.634   5.672   5.022
 8698SOL    HW226994   5.505   5.770   5.044
 8699SOL     OW26995   1.871   1.194   4.226
 8699SOL    HW126996   1.796   1.192   4.292
 8699SOL    HW226997   1.869   1.280   4.177
 8700SOL     OW26998   2.361   2.005   6.067
 8700SOL    HW126999   2.411   2.074   6.118
 8700SOL    HW227000   2.374   1.915   6.109
 8701SOL     OW27001   1.158   1.037   3.561
 8701SOL    HW127002   1.188   1.055   3.467
 8701SOL    HW227003   1.144   0.939   3.574
 8702SOL     OW27004   4.854   6.667   6.591
 8702SOL    HW127005   4.864   6.573   6.560
 8702SOL    HW227006   4.880   6.674   6.687
 8703SOL     OW27007   1.146   4.669   1.541
 8703SOL    HW127008   1.124   4.581   1.498
 8703SOL    HW227009   1.159   4.738   1.470
 8704SOL     OW27010   0.978   4.500   2.198
 8704SOL    HW127011   1.062   4.493   2.143
 8704SOL    HW227012   1.001   4.496   2.295
 8705SOL     OW27013   4.706   6.182   4.306
 8705SOL    HW127014   4.670   6.127   4.381
 8705SOL    HW227015   4.638   6.189   4.234
 8706SOL     OW27016   5.005   0.579   6.182
 8706SOL    HW127017   5.090   0.544   6.220
 8706SOL    HW227018   4.928   0.551   6.240
 8707SOL     OW27019   4.153   1.971   5.867
 8707SOL    HW127020   4.205   1.887   5.851
 8707SOL    HW227021   4.214   2.042   5.903
 8708SOL     OW27022   4.087   1.567   1.224
 8708SOL    HW127023   4.073   1.566   1.126
 8708SOL    HW227024   3.999   1.561   1.271
 8709SOL     OW27025   5.190   3.636   6.963
 8709SOL    HW127026   5.145   3.577   0.013
 8709SOL    HW227027   5.244   3.706   7.011
 8710SOL     OW27028   6.526   3.677   4.241
 8710SOL    HW127029   6.480   3.632   4.165
 8710SOL    HW227030   6.587   3.612   4.287
 8711SOL     OW27031   1.575   1.179   4.280
 8711SOL    HW127032   1.480   1.184   4.313
 8711SOL    HW227033   1.581   1.228   4.192
 8712SOL     OW27034   3.455   0.345   6.729
 8712SOL    HW127035   3.469   0.405   6.808
 8712SOL    HW227036   3.377   0.379   6.676
 8713SOL     OW27037   6.209   4.742   3.064
 8713SOL    HW127038   6.215   4.716   2.968
 8713SOL    HW227039   6.295   4.784   3.093
 8714SOL     OW27040   1.992   1.547   3.780
 8714SOL    HW127041   2.015   1.495   3.698
 8714SOL    HW227042   1.936   1.626   3.754
 8715SOL     OW27043   5.739   0.681   2.221
 8715SOL    HW127044   5.763   0.590   2.189
 8715SOL    HW227045   5.821   0.738   2.222
 8716SOL     OW27046   0.592   0.822   2.553
 8716SOL    HW127047   0.510   0.766   2.542
 8716SOL    HW227048   0.576   0.913   2.515
 8717SOL     OW27049   4.468   3.818   1.019
 8717SOL    HW127050   4.522   3.742   0.982
 8717SOL    HW227051   4.493   3.834   1.114
 8718SOL     OW27052   6.917   2.837   5.748
 8718SOL    HW127053   6.883   2.758   5.697
 8718SOL    HW227054   7.012   2.821   5.775
 8719SOL     OW27055   6.301   0.921   5.903
 8719SOL    HW127056   6.294   1.008   5.951
 8719SOL    HW227057   6.393   0.884   5.913
 8720SOL     OW27058   5.008   3.191   5.140
 8720SOL    HW127059   5.052   3.192   5.230
 8720SOL    HW227060   5.057   3.128   5.079
 8721SOL     OW27061   6.826   0.694   5.152
 8721SOL    HW127062   6.812   0.599   5.179
 8721SOL    HW227063   6.747   0.749   5.181
 8722SOL     OW27064   3.071   2.763   0.809
 8722SOL    HW127065   3.007   2.802   0.876
 8722SOL    HW227066   3.048   2.797   0.718
 8723SOL     OW27067   0.499   5.934   0.495
 8723SOL    HW127068   0.478   6.027   0.465
 8723SOL    HW227069   0.588   5.906   0.459
 8724SOL     OW27070   4.890   5.737   6.593
 8724SOL    HW127071   4.886   5.731   6.494
 8724SOL    HW227072   4.973   5.692   6.627
 8725SOL     OW27073   2.509   6.498   1.102
 8725SOL    HW127074   2.572   6.440   1.152
 8725SOL    HW227075   2.486   6.455   1.014
 8726SOL     OW27076   0.154   0.362   1.021
 8726SOL    HW127077   0.132   0.386   0.927
 8726SOL    HW227078   0.088   0.296   1.056
 8727SOL     OW27079   5.556   6.435   1.334
 8727SOL    HW127080   5.619   6.391   1.270
 8727SOL    HW227081   5.505   6.507   1.286
 8728SOL     OW27082   2.596   5.926   5.118
 8728SOL    HW127083   2.559   5.913   5.027
 8728SOL    HW227084   2.529   5.974   5.175
 8729SOL     OW27085   4.686   5.597   4.407
 8729SOL    HW127086   4.687   5.551   4.495
 8729SOL    HW227087   4.628   5.678   4.411
 8730SOL     OW27088   6.270   6.020   1.152
 8730SOL    HW127089   6.182   5.974   1.169
 8730SOL    HW227090   6.324   5.964   1.089
 8731SOL     OW27091   0.705   1.719   2.538
 8731SOL    HW127092   0.789   1.683   2.578
 8731SOL    HW227093   0.646   1.643   2.510
 8732SOL     OW27094   6.842   6.131   2.021
 8732SOL    HW127095   6.939   6.150   2.030
 8732SOL    HW227096   6.829   6.050   1.963
 8733SOL     OW27097   7.001   0.511   0.681
 8733SOL    HW127098   6.936   0.499   0.756
 8733SOL    HW227099   0.054   0.439   0.685
 8734SOL     OW27100   6.512   6.356   0.950
 8734SOL    HW127101   6.498   6.413   1.031
 8734SOL    HW227102   6.609   6.353   0.928
 8735SOL     OW27103   0.825   3.054   6.243
 8735SOL    HW127104   0.833   2.977   6.180
 8735SOL    HW227105   0.785   3.133   6.195
 8736SOL     OW27106   0.121   5.022   5.989
 8736SOL    HW127107   0.196   5.044   5.926
 8736SOL    HW227108   0.033   5.034   5.942
 8737SOL     OW27109   3.890   5.951   6.675
 8737SOL    HW127110   3.802   5.908   6.699
 8737SOL    HW227111   3.958   5.927   6.745
 8738SOL     OW27112   1.039   4.284   5.360
 8738SOL    HW127113   1.070   4.319   5.449
 8738SOL    HW227114   1.063   4.188   5.352
 8739SOL     OW27115   1.377   3.482   5.581
 8739SOL    HW127116   1.475   3.466   5.573
 8739SOL    HW227117   1.344   3.537   5.504
 8740SOL     OW27118   1.624   6.356   0.587
 8740SOL    HW127119   1.684   6.308   0.651
 8740SOL    HW227120   1.616   6.303   0.503
 8741SOL     OW27121   1.399   3.826   1.796
 8741SOL    HW127122   1.357   3.827   1.887
 8741SOL    HW227123   1.492   3.788   1.803
 8742SOL     OW27124   4.717   5.234   2.218
 8742SOL    HW127125   4.724   5.297   2.295
 8742SOL    HW227126   4.706   5.286   2.133
 8743SOL     OW27127   2.903   5.173   2.418
 8743SOL    HW127128   2.913   5.115   2.337
 8743SOL    HW227129   2.842   5.128   2.484
 8744SOL     OW27130   2.782   3.494   5.568
 8744SOL    HW127131   2.781   3.406   5.521
 8744SOL    HW227132   2.840   3.488   5.649
 8745SOL     OW27133   5.192   1.773   6.496
 8745SOL    HW127134   5.166   1.868   6.513
 8745SOL    HW227135   5.205   1.726   6.584
 8746SOL     OW27136   5.233   3.401   4.387
 8746SOL    HW127137   5.267   3.492   4.365
 8746SOL    HW227138   5.226   3.390   4.486
 8747SOL     OW27139   0.390   1.606   4.044
 8747SOL    HW127140   0.417   1.513   4.020
 8747SOL    HW227141   0.443   1.637   4.123
 8748SOL     OW27142   2.951   0.181   6.471
 8748SOL    HW127143   3.040   0.138   6.486
 8748SOL    HW227144   2.898   0.177   6.555
 8749SOL     OW27145   3.972   1.516   3.368
 8749SOL    HW127146   3.949   1.422   3.392
 8749SOL    HW227147   4.046   1.517   3.302
 8750SOL     OW27148   1.835   0.619   4.932
 8750SOL    HW127149   1.823   0.714   4.959
 8750SOL    HW227150   1.873   0.614   4.839
 8751SOL     OW27151   1.901   6.359   2.965
 8751SOL    HW127152   1.986   6.349   2.913
 8751SOL    HW227153   1.826   6.316   2.915
 8752SOL     OW27154   2.167   0.973   6.088
 8752SOL    HW127155   2.229   1.040   6.129
 8752SOL    HW227156   2.096   0.948   6.154
 8753SOL     OW27157   5.379   1.510   5.064
 8753SOL    HW127158   5.415   1.525   4.972
 8753SOL    HW227159   5.279   1.511   5.060
 8754SOL     OW27160   1.821   1.079   5.475
 8754SOL    HW127161   1.834   0.980   5.487
 8754SOL    HW227162   1.901   1.118   5.429
 8755SOL     OW27163   2.132   1.957   0.659
 8755SOL    HW127164   2.124   2.052   0.689
 8755SOL    HW227165   2.063   1.937   0.589
 8756SOL     OW27166   2.678   5.339   4.443
 8756SOL    HW127167   2.739   5.406   4.486
 8756SOL    HW227168   2.695   5.248   4.481
 8757SOL     OW27169   3.317   5.295   3.475
 8757SOL    HW127170   3.323   5.252   3.385
 8757SOL    HW227171   3.226   5.336   3.486
 8758SOL     OW27172   4.997   6.674   2.622
 8758SOL    HW127173   4.959   6.718   2.541
 8758SOL    HW227174   4.986   6.736   2.701
 8759SOL     OW27175   5.661   0.649   6.213
 8759SOL    HW127176   5.698   0.700   6.135
 8759SOL    HW227177   5.567   0.679   6.230
 8760SOL     OW27178   1.909   3.075   3.646
 8760SOL    HW127179   1.934   3.171   3.640
 8760SOL    HW227180   1.893   3.051   3.742
 8761SOL     OW27181   5.178   6.096   1.812
 8761SOL    HW127182   5.172   5.998   1.833
 8761SOL    HW227183   5.242   6.140   1.875
 8762SOL     OW27184   1.219   5.126   1.324
 8762SOL    HW127185   1.318   5.122   1.314
 8762SOL    HW227186   1.194   5.113   1.420
 8763SOL     OW27187   0.357   5.971   6.845
 8763SOL    HW127188   0.257   5.978   6.845
 8763SOL    HW227189   0.385   5.892   6.790
 8764SOL     OW27190   3.121   2.058   6.143
 8764SOL    HW127191   3.172   2.102   6.070
 8764SOL    HW227192   3.050   2.120   6.176
 8765SOL     OW27193   5.739   0.414   4.868
 8765SOL    HW127194   5.739   0.317   4.845
 8765SOL    HW227195   5.700   0.427   4.959
 8766SOL     OW27196   2.424   4.494   2.334
 8766SOL    HW127197   2.369   4.576   2.349
 8766SOL    HW227198   2.513   4.521   2.297
 8767SOL     OW27199   4.463   0.306   5.130
 8767SOL    HW127200   4.544   0.268   5.086
 8767SOL    HW227201   4.472   0.405   5.137
 8768SOL     OW27202   0.571   3.963   0.473
 8768SOL    HW127203   0.550   3.881   0.419
 8768SOL    HW227204   0.520   4.040   0.435
 8769SOL     OW27205   1.866   0.821   6.062
 8769SOL    HW127206   1.932   0.861   6.125
 8769SOL    HW227207   1.893   0.728   6.039
 8770SOL     OW27208   5.751   1.504   2.802
 8770SOL    HW127209   5.769   1.561   2.722
 8770SOL    HW227210   5.800   1.542   2.881
 8771SOL     OW27211   3.059   3.326   5.089
 8771SOL    HW127212   3.134   3.262   5.104
 8771SOL    HW227213   2.973   3.284   5.119
 8772SOL     OW27214   6.570   6.530   6.554
 8772SOL    HW127215   6.532   6.568   6.638
 8772SOL    HW227216   6.588   6.605   6.490
 8773SOL     OW27217   2.793   1.542   3.188
 8773SOL    HW127218   2.850   1.609   3.140
 8773SOL    HW227219   2.736   1.589   3.255
 8774SOL     OW27220   1.405   1.412   7.001
 8774SOL    HW127221   1.315   1.452   6.984
 8774SOL    HW227222   1.409   1.377   0.078
 8775SOL     OW27223   6.579   6.210   4.189
 8775SOL    HW127224   6.526   6.152   4.250
 8775SOL    HW227225   6.658   6.247   4.239
 8776SOL     OW27226   3.117   3.747   5.483
 8776SOL    HW127227   3.199   3.749   5.427
 8776SOL    HW227228   3.051   3.815   5.450
 8777SOL     OW27229   6.178   5.468   3.024
 8777SOL    HW127230   6.146   5.373   3.026
 8777SOL    HW227231   6.104   5.528   2.994
 8778SOL     OW27232   1.138   3.247   2.836
 8778SOL    HW127233   1.203   3.198   2.778
 8778SOL    HW227234   1.154   3.224   2.932
 8779SOL     OW27235   1.685   4.740   1.062
 8779SOL    HW127236   1.773   4.751   1.108
 8779SOL    HW227237   1.615   4.714   1.130
 8780SOL     OW27238   1.775   5.515   5.422
 8780SOL    HW127239   1.850   5.527   5.356
 8780SOL    HW227240   1.727   5.429   5.402
 8781SOL     OW27241   1.585   2.493   2.228
 8781SOL    HW127242   1.495   2.530   2.204
 8781SOL    HW227243   1.580   2.394   2.233
 8782SOL     OW27244   5.567   1.192   3.870
 8782SOL    HW127245   5.508   1.228   3.943
 8782SOL    HW227246   5.638   1.135   3.911
 8783SOL     OW27247   5.910   2.437   5.959
 8783SOL    HW127248   5.973   2.427   5.882
 8783SOL    HW227249   5.928   2.366   6.026
 8784SOL     OW27250   5.568   4.291   6.013
 8784SOL    HW127251   5.519   4.305   6.099
 8784SOL    HW227252   5.562   4.195   5.986
 8785SOL     OW27253   5.536   4.000   6.397
 8785SOL    HW127254   5.453   3.977   6.347
 8785SOL    HW227255   5.512   4.042   6.485
 8786SOL     OW27256   1.865   5.843   6.652
 8786SOL    HW127257   1.868   5.875   6.557
 8786SOL    HW227258   1.949   5.794   6.674
 8787SOL     OW27259   1.157   2.763   6.607
 8787SOL    HW127260   1.173   2.749   6.704
 8787SOL    HW227261   1.122   2.678   6.566
 8788SOL     OW27262   1.441   1.928   5.214
 8788SOL    HW127263   1.531   1.900   5.181
 8788SOL    HW227264   1.435   1.912   5.312
 8789SOL     OW27265   6.399   1.048   0.355
 8789SOL    HW127266   6.498   1.036   0.360
 8789SOL    HW227267   6.360   1.038   0.446
 8790SOL     OW27268   4.107   1.457   6.432
 8790SOL    HW127269   4.175   1.513   6.385
 8790SOL    HW227270   4.065   1.511   6.505
 8791SOL     OW27271   5.368   6.098   5.096
 8791SOL    HW127272   5.291   6.036   5.078
 8791SOL    HW227273   5.356   6.182   5.042
 8792SOL     OW27274   5.279   6.631   2.603
 8792SOL    HW127275   5.187   6.597   2.622
 8792SOL    HW227276   5.301   6.613   2.507
 8793SOL     OW27277   0.947   4.574   3.203
 8793SOL    HW127278   1.047   4.567   3.201
 8793SOL    HW227279   0.907   4.482   3.202
 8794SOL     OW27280   2.786   6.465   2.768
 8794SOL    HW127281   2.779   6.430   2.674
 8794SOL    HW227282   2.708   6.524   2.787
 8795SOL     OW27283   2.902   6.342   4.977
 8795SOL    HW127284   2.830   6.273   4.976
 8795SOL    HW227285   2.989   6.300   4.953
 8796SOL     OW27286   4.592   2.359   4.510
 8796SOL    HW127287   4.554   2.374   4.601
 8796SOL    HW227288   4.685   2.324   4.518
 8797SOL     OW27289   0.249   5.381   6.675
 8797SOL    HW127290   0.333   5.434   6.660
 8797SOL    HW227291   0.172   5.444   6.688
 8798SOL     OW27292   3.340   3.479   5.207
 8798SOL    HW127293   3.379   3.472   5.116
 8798SOL    HW227294   3.311   3.573   5.224
 8799SOL     OW27295   3.726   0.814   2.069
 8799SOL    HW127296   3.651   0.783   2.128
 8799SOL    HW227297   3.813   0.802   2.116
 8800SOL     OW27298   4.047   3.744   0.718
 8800SOL    HW127299   4.113   3.790   0.659
 8800SOL    HW227300   4.087   3.732   0.809
 8801SOL     OW27301   2.773   6.551   5.448
 8801SOL    HW127302   2.841   6.620   5.426
 8801SOL    HW227303   2.809   6.489   5.518
 8802SOL     OW27304   1.714   6.329   1.492
 8802SOL    HW127305   1.614   6.324   1.490
 8802SOL    HW227306   1.745   6.390   1.418
 8803SOL     OW27307   3.682   6.087   2.202
 8803SOL    HW127308   3.702   6.185   2.205
 8803SOL    HW227309   3.765   6.036   2.180
 8804SOL     OW27310   2.894   0.558   1.440
 8804SOL    HW127311   2.901   0.656   1.458
 8804SOL    HW227312   2.984   0.521   1.419
 8805SOL     OW27313   0.316   0.483   3.755
 8805SOL    HW127314   0.271   0.414   3.811
 8805SOL    HW227315   0.251   0.557   3.735
 8806SOL     OW27316   2.237   4.923   6.656
 8806SOL    HW127317   2.148   4.906   6.699
 8806SOL    HW227318   2.281   5.000   6.702
 8807SOL     OW27319   1.952   5.199   6.735
 8807SOL    HW127320   1.995   5.248   6.659
 8807SOL    HW227321   1.895   5.125   6.699
 8808SOL     OW27322   5.879   2.633   0.870
 8808SOL    HW127323   5.814   2.656   0.942
 8808SOL    HW227324   5.902   2.715   0.818
 8809SOL     OW27325   6.323   4.449   0.001
 8809SOL    HW127326   6.237   4.407   6.990
 8809SOL    HW227327   6.331   4.539   6.974
 8810SOL     OW27328   5.133   1.513   3.895
 8810SOL    HW127329   5.128   1.531   3.993
 8810SOL    HW227330   5.041   1.514   3.856
 8811SOL     OW27331   0.822   0.961   3.317
 8811SOL    HW127332   0.839   0.996   3.409
 8811SOL    HW227333   0.816   1.037   3.252
 8812SOL     OW27334   2.890   1.038   6.817
 8812SOL    HW127335   2.973   0.982   6.824
 8812SOL    HW227336   2.897   1.116   6.879
 8813SOL     OW27337   0.954   5.687   1.198
 8813SOL    HW127338   0.981   5.613   1.260
 8813SOL    HW227339   0.855   5.694   1.195
 8814SOL     OW27340   5.295   6.949   5.844
 8814SOL    HW127341   5.353   7.009   5.899
 8814SOL    HW227342   5.268   6.996   5.761
 8815SOL     OW27343   6.085   4.553   3.261
 8815SOL    HW127344   6.109   4.607   3.180
 8815SOL    HW227345   6.158   4.562   3.329
 8816SOL     OW27346   0.790   5.669   2.498
 8816SOL    HW127347   0.784   5.570   2.511
 8816SOL    HW227348   0.807   5.713   2.587
 8817SOL     OW27349   2.163   3.951   5.275
 8817SOL    HW127350   2.255   3.973   5.242
 8817SOL    HW227351   2.122   3.883   5.214
 8818SOL     OW27352   6.531   4.838   5.036
 8818SOL    HW127353   6.577   4.753   5.061
 8818SOL    HW227354   6.498   4.883   5.119
 8819SOL     OW27355   0.217   1.018   4.700
 8819SOL    HW127356   0.298   0.987   4.750
 8819SOL    HW227357   0.233   1.010   4.602
 8820SOL     OW27358   1.036   2.587   3.103
 8820SOL    HW127359   1.040   2.676   3.058
 8820SOL    HW227360   1.127   2.546   3.104
 8821SOL     OW27361   1.130   6.773   6.735
 8821SOL    HW127362   1.046   6.762   6.789
 8821SOL    HW227363   1.187   6.691   6.745
 8822SOL     OW27364   1.113   2.650   4.151
 8822SOL    HW127365   1.024   2.612   4.178
 8822SOL    HW227366   1.118   2.655   4.052
 8823SOL     OW27367   2.521   5.251   0.799
 8823SOL    HW127368   2.502   5.241   0.897
 8823SOL    HW227369   2.590   5.322   0.786
 8824SOL     OW27370   4.885   4.112   1.387
 8824SOL    HW127371   4.895   4.033   1.327
 8824SOL    HW227372   4.934   4.096   1.473
 8825SOL     OW27373   2.397   2.069   6.980
 8825SOL    HW127374   2.309   2.109   6.954
 8825SOL    HW227375   2.456   2.064   6.900
 8826SOL     OW27376   5.403   0.108   1.492
 8826SOL    HW127377   5.392   0.113   1.592
 8826SOL    HW227378   5.410   0.201   1.456
 8827SOL     OW27379   6.702   1.512   3.938
 8827SOL    HW127380   6.619   1.471   3.976
 8827SOL    HW227381   6.677   1.589   3.879
 8828SOL     OW27382   1.703   6.020   3.529
 8828SOL    HW127383   1.769   6.051   3.460
 8828SOL    HW227384   1.664   6.099   3.575
 8829SOL     OW27385   0.563   0.415   1.249
 8829SOL    HW127386   0.543   0.512   1.260
 8829SOL    HW227387   0.555   0.390   1.152
 8830SOL     OW27388   1.400   1.273   0.822
 8830SOL    HW127389   1.440   1.356   0.785
 8830SOL    HW227390   1.474   1.211   0.852
 8831SOL     OW27391   6.812   0.603   1.606
 8831SOL    HW127392   6.876   0.579   1.533
 8831SOL    HW227393   6.842   0.688   1.649
 8832SOL     OW27394   6.387   0.998   1.774
 8832SOL    HW127395   6.430   0.908   1.783
 8832SOL    HW227396   6.457   1.067   1.756
 8833SOL     OW27397   0.811   5.160   2.040
 8833SOL    HW127398   0.746   5.104   1.990
 8833SOL    HW227399   0.816   5.251   2.000
 8834SOL     OW27400   6.618   4.385   4.051
 8834SOL    HW127401   6.552   4.311   4.059
 8834SOL    HW227402   6.651   4.391   3.957
 8835SOL     OW27403   0.629   1.428   0.730
 8835SOL    HW127404   0.717   1.467   0.757
 8835SOL    HW227405   0.574   1.410   0.812
 8836SOL     OW27406   4.743   1.755   1.580
 8836SOL    HW127407   4.803   1.774   1.502
 8836SOL    HW227408   4.798   1.738   1.662
 8837SOL     OW27409   0.453   2.596   2.251
 8837SOL    HW127410   0.376   2.608   2.189
 8837SOL    HW227411   0.503   2.682   2.259
 8838SOL     OW27412   1.218   0.023   3.427
 8838SOL    HW127413   1.261   0.089   3.488
 8838SOL    HW227414   1.136   7.002   3.471
 8839SOL     OW27415   5.635   5.051   4.883
 8839SOL    HW127416   5.560   5.022   4.942
 8839SOL    HW227417   5.714   5.076   4.939
 8840SOL     OW27418   4.514   0.562   1.975
 8840SOL    HW127419   4.538   0.534   2.068
 8840SOL    HW227420   4.493   0.481   1.920
 8841SOL     OW27421   3.986   6.876   3.150
 8841SOL    HW127422   4.023   6.815   3.221
 8841SOL    HW227423   3.921   6.940   3.192
 8842SOL     OW27424   1.493   1.516   1.854
 8842SOL    HW127425   1.422   1.480   1.794
 8842SOL    HW227426   1.491   1.616   1.852
 8843SOL     OW27427   6.815   3.030   3.995
 8843SOL    HW127428   6.832   2.932   4.008
 8843SOL    HW227429   6.823   3.076   4.084
 8844SOL     OW27430   5.971   1.876   6.861
 8844SOL    HW127431   5.945   1.780   6.854
 8844SOL    HW227432   5.941   1.925   6.779
 8845SOL     OW27433   5.138   2.366   7.008
 8845SOL    HW127434   5.227   2.338   6.972
 8845SOL    HW227435   5.127   2.465   6.997
 8846SOL     OW27436   3.083   4.911   4.434
 8846SOL    HW127437   3.045   4.920   4.526
 8846SOL    HW227438   3.009   4.888   4.370
 8847SOL     OW27439   0.887   1.601   3.327
 8847SOL    HW127440   0.929   1.515   3.298
 8847SOL    HW227441   0.839   1.587   3.413
 8848SOL     OW27442   0.640   1.406   3.507
 8848SOL    HW127443   0.565   1.460   3.546
 8848SOL    HW227444   0.629   1.401   3.408
 8849SOL     OW27445   3.388   7.002   0.987
 8849SOL    HW127446   3.291   0.004   1.002
 8849SOL    HW227447   3.426   0.052   0.923
 8850SOL     OW27448   3.034   1.719   0.117
 8850SOL    HW127449   3.045   1.668   0.032
 8850SOL    HW227450   3.093   1.800   0.115
 8851SOL     OW27451   1.921   3.995   1.811
 8851SOL    HW127452   1.920   3.898   1.787
 8851SOL    HW227453   1.838   4.017   1.863
 8852SOL     OW27454   0.992   2.497   4.537
 8852SOL    HW127455   1.025   2.407   4.509
 8852SOL    HW227456   1.022   2.566   4.471
 8853SOL     OW27457   4.485   0.583   1.528
 8853SOL    HW127458   4.473   0.486   1.551
 8853SOL    HW227459   4.562   0.620   1.579
 8854SOL     OW27460   6.799   2.326   4.875
 8854SOL    HW127461   6.889   2.301   4.840
 8854SOL    HW227462   6.809   2.373   4.963
 8855SOL     OW27463   4.902   4.857   1.195
 8855SOL    HW127464   4.975   4.804   1.239
 8855SOL    HW227465   4.923   4.868   1.098
 8856SOL     OW27466   6.127   0.970   5.664
 8856SOL    HW127467   6.127   1.066   5.635
 8856SOL    HW227468   6.180   0.960   5.748
 8857SOL     OW27469   0.225   2.115   6.200
 8857SOL    HW127470   0.157   2.049   6.168
 8857SOL    HW227471   0.203   2.143   6.293
 8858SOL     OW27472   6.467   5.553   4.934
 8858SOL    HW127473   6.511   5.480   4.883
 8858SOL    HW227474   6.437   5.519   5.023
 8859SOL     OW27475   0.308   5.737   3.095
 8859SOL    HW127476   0.366   5.814   3.122
 8859SOL    HW227477   0.235   5.771   3.034
 8860SOL     OW27478   6.375   2.590   2.786
 8860SOL    HW127479   6.312   2.547   2.722
 8860SOL    HW227480   6.469   2.572   2.758
 8861SOL     OW27481   3.054   2.749   1.372
 8861SOL    HW127482   3.111   2.758   1.453
 8861SOL    HW227483   3.056   2.654   1.340
 8862SOL     OW27484   4.383   4.654   4.774
 8862SOL    HW127485   4.438   4.738   4.780
 8862SOL    HW227486   4.397   4.599   4.856
 8863SOL     OW27487   1.489   3.519   1.834
 8863SOL    HW127488   1.513   3.506   1.738
 8863SOL    HW227489   1.456   3.433   1.872
 8864SOL     OW27490   6.735   1.934   4.696
 8864SOL    HW127491   6.710   2.031   4.685
 8864SOL    HW227492   6.706   1.883   4.615
 8865SOL     OW27493   2.864   1.547   0.605
 8865SOL    HW127494   2.937   1.508   0.661
 8865SOL    HW227495   2.806   1.474   0.570
 8866SOL     OW27496   6.304   0.092   1.915
 8866SOL    HW127497   6.365   0.169   1.898
 8866SOL    HW227498   6.222   0.100   1.858
 8867SOL     OW27499   5.841   2.293   3.229
 8867SOL    HW127500   5.835   2.393   3.233
 8867SOL    HW227501   5.787   2.254   3.304
 8868SOL     OW27502   0.565   2.911   3.711
 8868SOL    HW127503   0.509   2.870   3.784
 8868SOL    HW227504   0.583   3.007   3.732
 8869SOL     OW27505   4.408   0.107   3.517
 8869SOL    HW127506   4.492   0.115   3.463
 8869SOL    HW227507   4.418   0.160   3.601
 8870SOL     OW27508   0.966   0.485   1.716
 8870SOL    HW127509   0.892   0.533   1.670
 8870SOL    HW227510   1.029   0.551   1.758
 8871SOL     OW27511   0.210   6.604   1.040
 8871SOL    HW127512   0.140   6.594   1.111
 8871SOL    HW227513   0.169   6.643   0.958
 8872SOL     OW27514   6.617   4.869   3.672
 8872SOL    HW127515   6.667   4.919   3.742
 8872SOL    HW227516   6.587   4.781   3.708
 8873SOL     OW27517   1.683   1.760   3.510
 8873SOL    HW127518   1.683   1.766   3.410
 8873SOL    HW227519   1.612   1.820   3.547
 8874SOL     OW27520   2.483   6.096   0.701
 8874SOL    HW127521   2.560   6.161   0.700
 8874SOL    HW227522   2.506   6.019   0.760
 8875SOL     OW27523   6.315   2.891   4.265
 8875SOL    HW127524   6.313   2.841   4.178
 8875SOL    HW227525   6.403   2.878   4.309
 8876SOL     OW27526   4.850   0.131   0.495
 8876SOL    HW127527   4.923   0.070   0.463
 8876SOL    HW227528   4.797   0.163   0.416
 8877SOL     OW27529   1.016   4.426   1.586
 8877SOL    HW127530   1.091   4.366   1.613
 8877SOL    HW227531   0.933   4.400   1.636
 8878SOL     OW27532   4.955   3.714   2.639
 8878SOL    HW127533   4.967   3.812   2.621
 8878SOL    HW227534   4.934   3.667   2.553
 8879SOL     OW27535   6.961   4.421   4.077
 8879SOL    HW127536   6.903   4.365   4.137
 8879SOL    HW227537   6.922   4.421   3.985
 8880SOL     OW27538   4.076   1.993   2.448
 8880SOL    HW127539   4.167   1.966   2.479
 8880SOL    HW227540   4.084   2.037   2.358
 8881SOL     OW27541   3.833   5.274   2.931
 8881SOL    HW127542   3.770   5.201   2.907
 8881SOL    HW227543   3.860   5.264   3.027
 8882SOL     OW27544   4.277   1.627   0.409
 8882SOL    HW127545   4.377   1.630   0.405
 8882SOL    HW227546   4.249   1.570   0.487
 8883SOL     OW27547   0.785   6.694   2.878
 8883SOL    HW127548   0.696   6.670   2.918
 8883SOL    HW227549   0.779   6.784   2.835
 8884SOL     OW27550   4.538   1.781   6.116
 8884SOL    HW127551   4.554   1.684   6.134
 8884SOL    HW227552   4.444   1.804   6.141
 8885SOL     OW27553   5.885   4.932   0.839
 8885SOL    HW127554   5.833   4.947   0.923
 8885SOL    HW227555   5.962   4.996   0.835
 8886SOL     OW27556   4.533   6.332   0.332
 8886SOL    HW127557   4.551   6.391   0.410
 8886SOL    HW227558   4.561   6.378   0.248
 8887SOL     OW27559   4.202   0.462   1.757
 8887SOL    HW127560   4.294   0.423   1.759
 8887SOL    HW227561   4.191   0.515   1.672
 8888SOL     OW27562   3.837   2.032   1.928
 8888SOL    HW127563   3.841   2.040   1.829
 8888SOL    HW227564   3.757   2.082   1.962
 8889SOL     OW27565   1.850   4.517   6.562
 8889SOL    HW127566   1.871   4.445   6.495
 8889SOL    HW227567   1.778   4.576   6.526
 8890SOL     OW27568   1.761   5.900   6.988
 8890SOL    HW127569   1.751   5.970   6.917
 8890SOL    HW227570   1.675   5.889   0.020
 8891SOL     OW27571   5.679   3.378   5.584
 8891SOL    HW127572   5.693   3.282   5.561
 8891SOL    HW227573   5.720   3.435   5.513
 8892SOL     OW27574   2.426   5.102   5.023
 8892SOL    HW127575   2.374   5.135   4.945
 8892SOL    HW227576   2.519   5.138   5.019
 8893SOL     OW27577   0.565   4.357   5.749
 8893SOL    HW127578   0.498   4.395   5.686
 8893SOL    HW227579   0.615   4.431   5.793
 8894SOL     OW27580   5.491   2.482   1.487
 8894SOL    HW127581   5.482   2.430   1.402
 8894SOL    HW227582   5.587   2.479   1.517
 8895SOL     OW27583   0.310   3.558   1.835
 8895SOL    HW127584   0.281   3.506   1.915
 8895SOL    HW227585   0.393   3.609   1.857
 8896SOL     OW27586   0.771   0.838   3.701
 8896SOL    HW127587   0.849   0.795   3.656
 8896SOL    HW227588   0.693   0.837   3.639
 8897SOL     OW27589   1.359   4.941   4.665
 8897SOL    HW127590   1.343   4.953   4.763
 8897SOL    HW227591   1.422   5.012   4.632
 8898SOL     OW27592   6.024   4.978   3.008
 8898SOL    HW127593   5.941   4.955   3.060
 8898SOL    HW227594   6.096   4.912   3.028
 8899SOL     OW27595   2.246   4.689   1.532
 8899SOL    HW127596   2.189   4.610   1.508
 8899SOL    HW227597   2.208   4.734   1.613
 8900SOL     OW27598   4.242   1.884   4.649
 8900SOL    HW127599   4.155   1.891   4.601
 8900SOL    HW227600   4.309   1.946   4.606
 8901SOL     OW27601   1.052   4.821   5.698
 8901SOL    HW127602   1.048   4.722   5.681
 8901SOL    HW227603   0.966   4.863   5.671
 8902SOL     OW27604   0.691   4.377   6.651
 8902SOL    HW127605   0.681   4.469   6.614
 8902SOL    HW227606   0.602   4.342   6.679
 8903SOL     OW27607   0.751   0.668   4.165
 8903SOL    HW127608   0.708   0.685   4.253
 8903SOL    HW227609   0.693   0.610   4.109
 8904SOL     OW27610   6.765   1.400   2.724
 8904SOL    HW127611   6.791   1.306   2.702
 8904SOL    HW227612   6.691   1.399   2.792
 8905SOL     OW27613   1.821   5.024   1.392
 8905SOL    HW127614   1.826   5.018   1.292
 8905SOL    HW227615   1.842   4.935   1.432
 8906SOL     OW27616   6.509   0.710   6.752
 8906SOL    HW127617   6.411   0.735   6.753
 8906SOL    HW227618   6.518   0.611   6.753
 8907SOL     OW27619   2.637   2.942   5.405
 8907SOL    HW127620   2.601   2.961   5.314
 8907SOL    HW227621   2.587   2.865   5.445
 8908SOL     OW27622   1.516   5.578   5.440
 8908SOL    HW127623   1.615   5.570   5.429
 8908SOL    HW227624   1.492   5.674   5.453
 8909SOL     OW27625   2.240   6.088   2.064
 8909SOL    HW127626   2.298   6.007   2.073
 8909SOL    HW227627   2.204   6.093   1.971
 8910SOL     OW27628   1.038   0.753   3.624
 8910SOL    HW127629   1.059   0.803   3.708
 8910SOL    HW227630   1.110   0.686   3.607
 8911SOL     OW27631   4.955   2.838   4.100
 8911SOL    HW127632   4.862   2.816   4.130
 8911SOL    HW227633   4.957   2.932   4.065
 8912SOL     OW27634   3.418   3.080   3.286
 8912SOL    HW127635   3.444   3.041   3.375
 8912SOL    HW227636   3.500   3.113   3.239
 8913SOL     OW27637   4.960   5.534   0.740
 8913SOL    HW127638   4.978   5.574   0.830
 8913SOL    HW227639   5.041   5.544   0.682
 8914SOL     OW27640   4.890   5.143   5.318
 8914SOL    HW127641   4.933   5.216   5.370
 8914SOL    HW227642   4.960   5.087   5.275
 8915SOL     OW27643   2.341   1.216   3.482
 8915SOL    HW127644   2.373   1.128   3.518
 8915SOL    HW227645   2.327   1.209   3.383
 8916SOL     OW27646   6.072   0.246   2.177
 8916SOL    HW127647   6.143   0.263   2.244
 8916SOL    HW227648   6.035   0.333   2.144
 8917SOL     OW27649   5.923   2.498   0.363
 8917SOL    HW127650   5.963   2.499   0.272
 8917SOL    HW227651   5.882   2.588   0.382
 8918SOL     OW27652   1.628   3.358   2.806
 8918SOL    HW127653   1.570   3.429   2.847
 8918SOL    HW227654   1.655   3.387   2.714
 8919SOL     OW27655   6.561   2.094   3.091
 8919SOL    HW127656   6.513   2.018   3.136
 8919SOL    HW227657   6.587   2.066   2.999
 8920SOL     OW27658   0.984   1.744   0.637
 8920SOL    HW127659   0.902   1.773   0.687
 8920SOL    HW227660   1.061   1.800   0.665
 8921SOL     OW27661   0.850   2.540   1.303
 8921SOL    HW127662   0.792   2.463   1.330
 8921SOL    HW227663   0.845   2.552   1.204
 8922SOL     OW27664   2.979   5.254   3.346
 8922SOL    HW127665   3.026   5.288   3.427
 8922SOL    HW227666   2.959   5.330   3.285
 8923SOL     OW27667   2.708   1.815   3.284
 8923SOL    HW127668   2.764   1.766   3.350
 8923SOL    HW227669   2.691   1.908   3.316
 8924SOL     OW27670   6.015   5.090   4.668
 8924SOL    HW127671   6.001   5.038   4.583
 8924SOL    HW227672   5.930   5.138   4.692
 8925SOL     OW27673   0.426   6.323   3.785
 8925SOL    HW127674   0.376   6.409   3.782
 8925SOL    HW227675   0.467   6.312   3.875
 8926SOL     OW27676   5.669   2.523   6.726
 8926SOL    HW127677   5.610   2.451   6.690
 8926SOL    HW227678   5.720   2.565   6.650
 8927SOL     OW27679   1.146   1.868   6.117
 8927SOL    HW127680   1.235   1.909   6.138
 8927SOL    HW227681   1.141   1.850   6.018
 8928SOL     OW27682   0.630   6.544   4.770
 8928SOL    HW127683   0.685   6.467   4.803
 8928SOL    HW227684   0.689   6.611   4.724
 8929SOL     OW27685   6.653   1.357   3.511
 8929SOL    HW127686   6.655   1.274   3.568
 8929SOL    HW227687   6.744   1.398   3.509
 8930SOL     OW27688   2.228   5.433   2.573
 8930SOL    HW127689   2.259   5.363   2.638
 8930SOL    HW227690   2.281   5.516   2.587
 8931SOL     OW27691   4.497   3.175   0.040
 8931SOL    HW127692   4.468   3.220   6.973
 8931SOL    HW227693   4.477   3.234   0.118
 8932SOL     OW27694   0.467   3.532   2.304
 8932SOL    HW127695   0.420   3.615   2.276
 8932SOL    HW227696   0.549   3.518   2.247
 8933SOL     OW27697   5.002   2.353   5.963
 8933SOL    HW127698   4.915   2.378   6.005
 8933SOL    HW227699   4.998   2.371   5.865
 8934SOL     OW27700   2.622   6.016   2.527
 8934SOL    HW127701   2.588   5.940   2.583
 8934SOL    HW227702   2.545   6.065   2.487
 8935SOL     OW27703   0.068   5.567   6.495
 8935SOL    HW127704   0.148   5.591   6.440
 8935SOL    HW227705   0.044   5.471   6.481
 8936SOL     OW27706   4.242   3.330   0.865
 8936SOL    HW127707   4.183   3.279   0.928
 8936SOL    HW227708   4.203   3.329   0.774
 8937SOL     OW27709   6.898   1.295   6.367
 8937SOL    HW127710   6.925   1.388   6.342
 8937SOL    HW227711   6.970   1.231   6.339
 8938SOL     OW27712   4.800   5.444   1.974
 8938SOL    HW127713   4.885   5.496   1.982
 8938SOL    HW227714   4.787   5.415   1.879
 8939SOL     OW27715   5.496   2.020   4.267
 8939SOL    HW127716   5.490   2.120   4.262
 8939SOL    HW227717   5.424   1.980   4.209
 8940SOL     OW27718   5.375   6.582   2.344
 8940SOL    HW127719   5.456   6.617   2.392
 8940SOL    HW227720   5.369   6.483   2.357
 8941SOL     OW27721   3.878   2.233   0.401
 8941SOL    HW127722   3.930   2.170   0.343
 8941SOL    HW227723   3.933   2.315   0.418
 8942SOL     OW27724   1.178   2.306   5.753
 8942SOL    HW127725   1.276   2.327   5.749
 8942SOL    HW227726   1.126   2.382   5.713
 8943SOL     OW27727   5.003   3.704   0.836
 8943SOL    HW127728   5.094   3.704   0.877
 8943SOL    HW227729   5.003   3.764   0.756
 8944SOL     OW27730   4.447   5.191   1.184
 8944SOL    HW127731   4.361   5.239   1.198
 8944SOL    HW227732   4.523   5.250   1.209
 8945SOL     OW27733   2.179   1.338   3.661
 8945SOL    HW127734   2.248   1.286   3.611
 8945SOL    HW227735   2.198   1.436   3.653
 8946SOL     OW27736   3.667   0.839   5.057
 8946SOL    HW127737   3.615   0.835   4.972
 8946SOL    HW227738   3.675   0.747   5.096
 8947SOL     OW27739   3.670   3.629   5.444
 8947SOL    HW127740   3.610   3.549   5.450
 8947SOL    HW227741   3.634   3.692   5.375
 8948SOL     OW27742   5.268   4.556   3.592
 8948SOL    HW127743   5.333   4.528   3.663
 8948SOL    HW227744   5.282   4.500   3.510
 8949SOL     OW27745   1.790   5.723   6.180
 8949SOL    HW127746   1.794   5.723   6.080
 8949SOL    HW227747   1.882   5.732   6.217
 8950SOL     OW27748   4.778   3.028   4.815
 8950SOL    HW127749   4.697   3.086   4.820
 8950SOL    HW227750   4.835   3.043   4.895
 8951SOL     OW27751   2.901   2.049   5.482
 8951SOL    HW127752   2.971   1.991   5.440
 8951SOL    HW227753   2.832   2.073   5.413
 8952SOL     OW27754   5.886   6.762   3.583
 8952SOL    HW127755   5.903   6.860   3.574
 8952SOL    HW227756   5.889   6.720   3.492
 8953SOL     OW27757   1.043   5.301   5.704
 8953SOL    HW127758   1.143   5.303   5.707
 8953SOL    HW227759   1.007   5.357   5.779
 8954SOL     OW27760   2.416   6.571   6.512
 8954SOL    HW127761   2.352   6.494   6.516
 8954SOL    HW227762   2.394   6.636   6.585
 8955SOL     OW27763   6.698   3.553   4.426
 8955SOL    HW127764   6.737   3.464   4.405
 8955SOL    HW227765   6.736   3.587   4.512
 8956SOL     OW27766   0.967   0.499   4.173
 8956SOL    HW127767   0.940   0.403   4.174
 8956SOL    HW227768   0.886   0.557   4.171
 8957SOL     OW27769   3.250   6.153   1.886
 8957SOL    HW127770   3.177   6.200   1.936
 8957SOL    HW227771   3.303   6.097   1.950
 8958SOL     OW27772   3.050   0.385   5.079
 8958SOL    HW127773   2.951   0.380   5.071
 8958SOL    HW227774   3.092   0.366   4.990
 8959SOL     OW27775   4.053   5.266   6.809
 8959SOL    HW127776   4.115   5.190   6.791
 8959SOL    HW227777   3.974   5.260   6.748
 8960SOL     OW27778   4.366   5.852   0.597
 8960SOL    HW127779   4.379   5.778   0.663
 8960SOL    HW227780   4.333   5.813   0.510
 8961SOL     OW27781   0.608   2.721   4.306
 8961SOL    HW127782   0.647   2.756   4.391
 8961SOL    HW227783   0.611   2.792   4.236
 8962SOL     OW27784   4.623   0.531   4.163
 8962SOL    HW127785   4.643   0.503   4.069
 8962SOL    HW227786   4.646   0.628   4.174
 8963SOL     OW27787   1.319   0.891   4.105
 8963SOL    HW127788   1.245   0.824   4.112
 8963SOL    HW227789   1.397   0.849   4.058
 8964SOL     OW27790   0.643   2.994   3.255
 8964SOL    HW127791   0.656   2.936   3.335
 8964SOL    HW227792   0.655   2.941   3.172
 8965SOL     OW27793   1.834   5.278   1.539
 8965SOL    HW127794   1.782   5.315   1.461
 8965SOL    HW227795   1.845   5.180   1.528
 8966SOL     OW27796   3.997   2.205   4.668
 8966SOL    HW127797   4.022   2.292   4.711
 8966SOL    HW227798   4.047   2.131   4.712
 8967SOL     OW27799   5.406   6.572   0.392
 8967SOL    HW127800   5.465   6.500   0.428
 8967SOL    HW227801   5.339   6.598   0.461
 8968SOL     OW27802   6.145   3.954   3.897
 8968SOL    HW127803   6.109   4.027   3.839
 8968SOL    HW227804   6.245   3.955   3.895
 8969SOL     OW27805   6.488   6.986   4.371
 8969SOL    HW127806   6.557   6.977   4.299
 8969SOL    HW227807   6.398   6.965   4.334
 8970SOL     OW27808   2.847   2.859   1.613
 8970SOL    HW127809   2.773   2.820   1.667
 8970SOL    HW227810   2.816   2.874   1.519
 8971SOL     OW27811   3.715   6.482   2.931
 8971SOL    HW127812   3.786   6.551   2.918
 8971SOL    HW227813   3.661   6.475   2.847
 8972SOL     OW27814   5.097   0.500   4.886
 8972SOL    HW127815   5.154   0.418   4.896
 8972SOL    HW227816   5.131   0.572   4.946
 8973SOL     OW27817   2.036   4.649   6.706
 8973SOL    HW127818   2.098   4.579   6.743
 8973SOL    HW227819   1.986   4.611   6.629
 8974SOL     OW27820   0.306   2.638   4.134
 8974SOL    HW127821   0.342   2.654   4.226
 8974SOL    HW227822   0.343   2.552   4.099
 8975SOL     OW27823   3.375   0.783   5.903
 8975SOL    HW127824   3.382   0.712   5.972
 8975SOL    HW227825   3.466   0.822   5.887
 8976SOL     OW27826   1.652   5.819   3.891
 8976SOL    HW127827   1.607   5.909   3.889
 8976SOL    HW227828   1.738   5.824   3.840
 8977SOL     OW27829   5.312   1.451   6.915
 8977SOL    HW127830   5.386   1.387   6.893
 8977SOL    HW227831   5.267   1.421   6.999
 8978SOL     OW27832   5.529   4.966   1.371
 8978SOL    HW127833   5.486   4.876   1.374
 8978SOL    HW227834   5.626   4.956   1.347
 8979SOL     OW27835   0.940   4.668   5.028
 8979SOL    HW127836   0.988   4.756   5.022
 8979SOL    HW227837   0.962   4.624   5.115
 8980SOL     OW27838   3.047   3.360   3.858
 8980SOL    HW127839   3.116   3.413   3.908
 8980SOL    HW227840   3.087   3.275   3.826
 8981SOL     OW27841   2.696   2.059   5.309
 8981SOL    HW127842   2.660   1.978   5.264
 8981SOL    HW227843   2.738   2.119   5.240
 8982SOL     OW27844   3.520   5.170   0.828
 8982SOL    HW127845   3.609   5.135   0.856
 8982SOL    HW227846   3.465   5.095   0.791
 8983SOL     OW27847   5.043   4.471   0.664
 8983SOL    HW127848   4.950   4.460   0.628
 8983SOL    HW227849   5.040   4.528   0.746
 8984SOL     OW27850   1.554   6.701   3.241
 8984SOL    HW127851   1.492   6.634   3.198
 8984SOL    HW227852   1.515   6.792   3.232
 8985SOL     OW27853   2.943   3.144   6.119
 8985SOL    HW127854   3.021   3.085   6.099
 8985SOL    HW227855   2.863   3.111   6.068
 8986SOL     OW27856   2.599   5.997   1.863
 8986SOL    HW127857   2.648   6.081   1.889
 8986SOL    HW227858   2.637   5.920   1.915
 8987SOL     OW27859   5.030   6.282   2.495
 8987SOL    HW127860   4.965   6.284   2.419
 8987SOL    HW227861   4.981   6.279   2.582
 8988SOL     OW27862   0.437   4.439   5.062
 8988SOL    HW127863   0.456   4.408   5.156
 8988SOL    HW227864   0.349   4.487   5.060
 8989SOL     OW27865   2.459   2.391   6.805
 8989SOL    HW127866   2.460   2.293   6.787
 8989SOL    HW227867   2.459   2.407   6.904
 8990SOL     OW27868   0.198   5.193   4.497
 8990SOL    HW127869   0.184   5.122   4.566
 8990SOL    HW227870   0.192   5.152   4.406
 8991SOL     OW27871   1.237   2.588   5.026
 8991SOL    HW127872   1.328   2.566   5.059
 8991SOL    HW227873   1.176   2.509   5.041
 8992SOL     OW27874   6.160   1.902   1.589
 8992SOL    HW127875   6.222   1.827   1.612
 8992SOL    HW227876   6.210   1.989   1.594
 8993SOL     OW27877   4.454   2.048   1.281
 8993SOL    HW127878   4.506   2.128   1.253
 8993SOL    HW227879   4.517   1.976   1.312
 8994SOL     OW27880   1.802   5.450   2.655
 8994SOL    HW127881   1.843   5.397   2.730
 8994SOL    HW227882   1.815   5.547   2.672
 8995SOL     OW27883   0.385   0.164   1.306
 8995SOL    HW127884   0.425   0.119   1.386
 8995SOL    HW227885   0.413   0.260   1.305
 8996SOL     OW27886   4.374   5.644   5.558
 8996SOL    HW127887   4.304   5.668   5.625
 8996SOL    HW227888   4.348   5.679   5.468
 8997SOL     OW27889   6.124   0.200   5.203
 8997SOL    HW127890   6.128   0.157   5.294
 8997SOL    HW227891   6.197   0.163   5.146
 8998SOL     OW27892   6.589   3.888   4.807
 8998SOL    HW127893   6.527   3.960   4.839
 8998SOL    HW227894   6.635   3.847   4.885
 8999SOL     OW27895   4.124   5.797   6.202
 8999SOL    HW127896   4.174   5.744   6.134
 8999SOL    HW227897   4.175   5.798   6.288
 9000SOL     OW27898   1.089   4.021   1.058
 9000SOL    HW127899   1.030   3.960   1.111
 9000SOL    HW227900   1.042   4.048   0.974
 9001SOL     OW27901   1.424   5.604   0.844
 9001SOL    HW127902   1.451   5.595   0.748
 9001SOL    HW227903   1.489   5.555   0.901
 9002SOL     OW27904   6.615   5.717   6.335
 9002SOL    HW127905   6.533   5.739   6.388
 9002SOL    HW227906   6.617   5.771   6.251
 9003SOL     OW27907   4.985   6.718   0.683
 9003SOL    HW127908   4.975   6.716   0.782
 9003SOL    HW227909   4.926   6.789   0.644
 9004SOL     OW27910   6.364   4.831   2.263
 9004SOL    HW127911   6.382   4.921   2.303
 9004SOL    HW227912   6.444   4.772   2.277
 9005SOL     OW27913   5.010   0.928   4.598
 9005SOL    HW127914   4.973   0.991   4.667
 9005SOL    HW227915   5.054   0.851   4.643
 9006SOL     OW27916   3.612   6.211   0.326
 9006SOL    HW127917   3.559   6.158   0.259
 9006SOL    HW227918   3.703   6.230   0.288
 9007SOL     OW27919   0.233   0.693   3.394
 9007SOL    HW127920   0.254   0.596   3.396
 9007SOL    HW227921   0.213   0.726   3.486
 9008SOL     OW27922   6.730   5.212   1.959
 9008SOL    HW127923   6.711   5.125   1.914
 9008SOL    HW227924   6.815   5.205   2.011
 9009SOL     OW27925   3.119   6.663   2.221
 9009SOL    HW127926   3.172   6.583   2.249
 9009SOL    HW227927   3.021   6.641   2.222
 9010SOL     OW27928   2.011   5.265   4.854
 9010SOL    HW127929   1.993   5.312   4.768
 9010SOL    HW227930   1.999   5.329   4.930
 9011SOL     OW27931   2.645   2.085   2.195
 9011SOL    HW127932   2.598   2.111   2.279
 9011SOL    HW227933   2.713   2.155   2.171
 9012SOL     OW27934   2.495   6.372   6.940
 9012SOL    HW127935   2.461   6.307   6.873
 9012SOL    HW227936   2.435   6.452   6.943
 9013SOL     OW27937   2.055   0.382   4.292
 9013SOL    HW127938   2.137   0.440   4.290
 9013SOL    HW227939   2.049   0.330   4.207
 9014SOL     OW27940   5.489   3.534   3.527
 9014SOL    HW127941   5.478   3.451   3.472
 9014SOL    HW227942   5.511   3.508   3.621
 9015SOL     OW27943   3.966   6.725   6.174
 9015SOL    HW127944   3.871   6.695   6.169
 9015SOL    HW227945   4.010   6.714   6.085
 9016SOL     OW27946   5.025   4.321   6.269
 9016SOL    HW127947   4.931   4.305   6.298
 9016SOL    HW227948   5.074   4.234   6.266
 9017SOL     OW27949   2.769   0.091   5.262
 9017SOL    HW127950   2.715   0.008   5.252
 9017SOL    HW227951   2.826   0.085   5.344
 9018SOL     OW27952   3.837   5.284   0.547
 9018SOL    HW127953   3.868   5.229   0.625
 9018SOL    HW227954   3.858   5.236   0.462
 9019SOL     OW27955   0.888   3.522   4.756
 9019SOL    HW127956   0.977   3.494   4.792
 9019SOL    HW227957   0.899   3.558   4.663
 9020SOL     OW27958   5.545   4.744   3.660
 9020SOL    HW127959   5.588   4.796   3.734
 9020SOL    HW227960   5.513   4.656   3.696
 9021SOL     OW27961   0.076   1.155   4.196
 9021SOL    HW127962   7.001   1.142   4.233
 9021SOL    HW227963   0.079   1.238   4.142
 9022SOL     OW27964   4.636   3.848   6.965
 9022SOL    HW127965   4.717   3.815   7.012
 9022SOL    HW227966   4.607   3.935   7.005
 9023SOL     OW27967   0.024   4.968   0.760
 9023SOL    HW127968   6.975   4.894   0.765
 9023SOL    HW227969   0.059   4.987   0.852
 9024SOL     OW27970   2.330   4.703   6.111
 9024SOL    HW127971   2.363   4.623   6.161
 9024SOL    HW227972   2.341   4.784   6.168
 9025SOL     OW27973   0.760   5.978   1.411
 9025SOL    HW127974   0.756   6.009   1.316
 9025SOL    HW227975   0.711   5.891   1.420
 9026SOL     OW27976   6.025   1.044   6.838
 9026SOL    HW127977   5.957   0.996   6.784
 9026SOL    HW227978   6.100   1.074   6.779
 9027SOL     OW27979   0.169   3.965   3.116
 9027SOL    HW127980   0.126   3.890   3.066
 9027SOL    HW227981   0.227   4.017   3.054
 9028SOL     OW27982   3.362   4.877   6.843
 9028SOL    HW127983   3.455   4.881   6.808
 9028SOL    HW227984   3.301   4.926   6.782
 9029SOL     OW27985   4.273   6.181   5.162
 9029SOL    HW127986   4.297   6.234   5.081
 9029SOL    HW227987   4.177   6.198   5.186
 9030SOL     OW27988   2.818   2.298   2.304
 9030SOL    HW127989   2.891   2.260   2.361
 9030SOL    HW227990   2.850   2.307   2.210
 9031SOL     OW27991   5.325   0.218   5.101
 9031SOL    HW127992   5.418   0.210   5.137
 9031SOL    HW227993   5.274   0.284   5.155
 9032SOL     OW27994   5.218   2.971   0.828
 9032SOL    HW127995   5.122   2.981   0.803
 9032SOL    HW227996   5.263   3.060   0.826
 9033SOL     OW27997   1.218   6.101   2.698
 9033SOL    HW127998   1.237   6.149   2.783
 9033SOL    HW227999   1.142   6.038   2.712
 9034SOL     OW28000   4.330   6.772   5.111
 9034SOL    HW128001   4.259   6.842   5.120
 9034SOL    HW228002   4.327   6.734   5.018
 9035SOL     OW28003   3.116   5.223   5.810
 9035SOL    HW128004   3.042   5.289   5.802
 9035SOL    HW228005   3.148   5.220   5.905
 9036SOL     OW28006   0.138   5.179   5.197
 9036SOL    HW128007   0.115   5.090   5.238
 9036SOL    HW228008   0.193   5.164   5.115
 9037SOL     OW28009   0.156   0.574   2.429
 9037SOL    HW128010   0.169   0.532   2.519
 9037SOL    HW228011   0.081   0.527   2.381
 9038SOL     OW28012   3.748   3.185   5.569
 9038SOL    HW128013   3.797   3.126   5.505
 9038SOL    HW228014   3.650   3.182   5.549
 9039SOL     OW28015   4.449   6.131   6.444
 9039SOL    HW128016   4.352   6.151   6.429
 9039SOL    HW228017   4.476   6.163   6.535
 9040SOL     OW28018   1.965   2.123   1.808
 9040SOL    HW128019   2.054   2.158   1.839
 9040SOL    HW228020   1.926   2.187   1.741
 9041SOL     OW28021   5.991   2.103   2.727
 9041SOL    HW128022   6.042   2.130   2.809
 9041SOL    HW228023   5.893   2.122   2.741
 9042SOL     OW28024   5.890   5.643   6.599
 9042SOL    HW128025   5.813   5.601   6.646
 9042SOL    HW228026   5.975   5.597   6.626
 9043SOL     OW28027   2.607   3.179   1.577
 9043SOL    HW128028   2.519   3.175   1.623
 9043SOL    HW228029   2.597   3.224   1.488
 9044SOL     OW28030   1.923   0.766   0.235
 9044SOL    HW128031   2.019   0.755   0.211
 9044SOL    HW228032   1.873   0.803   0.157
 9045SOL     OW28033   3.569   0.664   3.918
 9045SOL    HW128034   3.476   0.630   3.933
 9045SOL    HW228035   3.633   0.588   3.927
 9046SOL     OW28036   4.063   3.825   2.450
 9046SOL    HW128037   4.108   3.868   2.529
 9046SOL    HW228038   4.028   3.735   2.477
 9047SOL     OW28039   0.759   4.496   5.872
 9047SOL    HW128040   0.787   4.406   5.905
 9047SOL    HW228041   0.806   4.567   5.925
 9048SOL     OW28042   0.001   1.912   5.259
 9048SOL    HW128043   6.989   1.925   5.165
 9048SOL    HW228044   0.100   1.898   5.261
 9049SOL     OW28045   1.350   6.850   5.410
 9049SOL    HW128046   1.251   6.847   5.425
 9049SOL    HW228047   1.389   6.925   5.464
 9050SOL     OW28048   1.049   4.487   7.013
 9050SOL    HW128049   1.010   4.524   0.081
 9050SOL    HW228050   1.144   4.461   0.012
 9051SOL     OW28051   2.309   0.805   1.716
 9051SOL    HW128052   2.360   0.886   1.688
 9051SOL    HW228053   2.281   0.815   1.811
 9052SOL     OW28054   2.331   3.081   6.647
 9052SOL    HW128055   2.311   3.097   6.550
 9052SOL    HW228056   2.256   3.117   6.703
 9053SOL     OW28057   0.602   1.354   0.200
 9053SOL    HW128058   0.558   1.437   0.165
 9053SOL    HW228059   0.595   1.353   0.299
 9054SOL     OW28060   1.615   5.796   3.065
 9054SOL    HW128061   1.519   5.796   3.091
 9054SOL    HW228062   1.652   5.703   3.077
 9055SOL     OW28063   0.774   2.610   6.048
 9055SOL    HW128064   0.786   2.561   6.135
 9055SOL    HW228065   0.685   2.656   6.048
 9056SOL     OW28066   5.122   1.523   4.175
 9056SOL    HW128067   5.082   1.585   4.242
 9056SOL    HW228068   5.185   1.460   4.220
 9057SOL     OW28069   4.888   1.511   3.783
 9057SOL    HW128070   4.849   1.419   3.783
 9057SOL    HW228071   4.879   1.552   3.692
 9058SOL     OW28072   2.028   0.136   6.053
 9058SOL    HW128073   1.991   0.179   6.135
 9058SOL    HW228074   1.953   0.099   5.998
 9059SOL     OW28075   1.961   2.453   3.871
 9059SOL    HW128076   1.905   2.425   3.949
 9059SOL    HW228077   1.974   2.552   3.873
 9060SOL     OW28078   5.460   2.376   5.096
 9060SOL    HW128079   5.381   2.320   5.070
 9060SOL    HW228080   5.532   2.365   5.027
 9061SOL     OW28081   2.191   4.637   3.724
 9061SOL    HW128082   2.177   4.567   3.654
 9061SOL    HW228083   2.120   4.628   3.794
 9062SOL     OW28084   1.434   6.111   1.837
 9062SOL    HW128085   1.366   6.151   1.776
 9062SOL    HW228086   1.525   6.117   1.794
 9063SOL     OW28087   3.373   1.512   1.664
 9063SOL    HW128088   3.394   1.605   1.693
 9063SOL    HW228089   3.292   1.479   1.711
 9064SOL     OW28090   4.206   4.142   6.483
 9064SOL    HW128091   4.201   4.051   6.524
 9064SOL    HW228092   4.268   4.199   6.537
 9065SOL     OW28093   2.720   0.837   1.133
 9065SOL    HW128094   2.788   0.765   1.135
 9065SOL    HW228095   2.681   0.844   1.041
 9066SOL     OW28096   4.687   6.645   0.039
 9066SOL    HW128097   4.659   6.738   0.064
 9066SOL    HW228098   4.765   6.650   6.994
 9067SOL     OW28099   0.574   0.140   1.519
 9067SOL    HW128100   0.506   0.191   1.572
 9067SOL    HW228101   0.661   0.189   1.521
 9068SOL     OW28102   1.193   6.027   6.378
 9068SOL    HW128103   1.280   6.071   6.401
 9068SOL    HW228104   1.125   6.050   6.447
 9069SOL     OW28105   1.092   2.044   5.774
 9069SOL    HW128106   1.101   2.144   5.771
 9069SOL    HW228107   0.995   2.020   5.767
 9070SOL     OW28108   1.195   4.321   4.203
 9070SOL    HW128109   1.151   4.283   4.285
 9070SOL    HW228110   1.163   4.415   4.189
 9071SOL     OW28111   5.039   5.055   6.901
 9071SOL    HW128112   5.006   5.118   6.831
 9071SOL    HW228113   5.124   5.090   6.940
 9072SOL     OW28114   5.033   4.161   0.593
 9072SOL    HW128115   5.024   4.255   0.626
 9072SOL    HW228116   4.944   4.116   0.593
 9073SOL     OW28117   2.085   0.296   1.422
 9073SOL    HW128118   2.162   0.355   1.397
 9073SOL    HW228119   2.115   0.201   1.425
 9074SOL     OW28120   0.372   0.765   1.615
 9074SOL    HW128121   0.275   0.740   1.617
 9074SOL    HW228122   0.414   0.728   1.533
 9075SOL     OW28123   6.944   0.226   1.092
 9075SOL    HW128124   6.894   0.216   1.007
 9075SOL    HW228125   6.889   0.277   1.158
 9076SOL     OW28126   1.358   2.519   5.407
 9076SOL    HW128127   1.403   2.513   5.318
 9076SOL    HW228128   1.267   2.477   5.401
 9077SOL     OW28129   5.883   5.872   2.159
 9077SOL    HW128130   5.954   5.816   2.116
 9077SOL    HW228131   5.834   5.923   2.088
 9078SOL     OW28132   4.483   3.258   5.378
 9078SOL    HW128133   4.545   3.191   5.337
 9078SOL    HW228134   4.487   3.251   5.477
 9079SOL     OW28135   2.046   6.950   5.344
 9079SOL    HW128136   1.977   6.926   5.276
 9079SOL    HW228137   2.029   6.898   5.428
 9080SOL     OW28138   4.681   0.824   0.238
 9080SOL    HW128139   4.592   0.843   0.279
 9080SOL    HW228140   4.691   0.726   0.221
 9081SOL     OW28141   5.586   6.938   3.707
 9081SOL    HW128142   5.499   6.900   3.675
 9081SOL    HW228143   5.569   0.006   3.756
 9082SOL     OW28144   2.465   0.337   2.014
 9082SOL    HW128145   2.499   0.340   1.920
 9082SOL    HW228146   2.481   0.426   2.057
 9083SOL     OW28147   4.380   5.086   3.463
 9083SOL    HW128148   4.289   5.082   3.423
 9083SOL    HW228149   4.445   5.119   3.394
 9084SOL     OW28150   3.639   3.604   2.002
 9084SOL    HW128151   3.554   3.570   2.041
 9084SOL    HW228152   3.711   3.601   2.071
 9085SOL     OW28153   1.228   1.880   0.635
 9085SOL    HW128154   1.204   1.977   0.640
 9085SOL    HW228155   1.284   1.863   0.554
 9086SOL     OW28156   6.598   3.246   0.477
 9086SOL    HW128157   6.623   3.149   0.470
 9086SOL    HW228158   6.541   3.271   0.399
 9087SOL     OW28159   5.242   3.590   2.151
 9087SOL    HW128160   5.266   3.494   2.161
 9087SOL    HW228161   5.144   3.598   2.129
 9088SOL     OW28162   6.117   4.704   2.264
 9088SOL    HW128163   6.193   4.768   2.251
 9088SOL    HW228164   6.035   4.755   2.291
 9089SOL     OW28165   3.720   1.255   5.903
 9089SOL    HW128166   3.795   1.230   5.964
 9089SOL    HW228167   3.644   1.290   5.957
 9090SOL     OW28168   6.876   2.175   3.854
 9090SOL    HW128169   6.848   2.082   3.875
 9090SOL    HW228170   6.931   2.175   3.770
 9091SOL     OW28171   4.430   2.897   5.567
 9091SOL    HW128172   4.341   2.883   5.609
 9091SOL    HW228173   4.502   2.896   5.637
 9092SOL     OW28174   6.808   3.602   5.908
 9092SOL    HW128175   6.861   3.579   5.990
 9092SOL    HW228176   6.749   3.525   5.885
 9093SOL     OW28177   2.447   6.327   4.932
 9093SOL    HW128178   2.442   6.372   4.843
 9093SOL    HW228179   2.419   6.391   5.003
 9094SOL     OW28180   1.769   4.100   0.716
 9094SOL    HW128181   1.792   4.034   0.644
 9094SOL    HW228182   1.713   4.054   0.785
 9095SOL     OW28183   0.369   0.191   6.064
 9095SOL    HW128184   0.399   0.282   6.092
 9095SOL    HW228185   0.449   0.135   6.043
 9096SOL     OW28186   6.514   5.659   4.046
 9096SOL    HW128187   6.605   5.623   4.068
 9096SOL    HW228188   6.507   5.673   3.947
 9097SOL     OW28189   0.756   3.786   0.194
 9097SOL    HW128190   0.824   3.772   0.123
 9097SOL    HW228191   0.770   3.874   0.238
 9098SOL     OW28192   1.879   5.404   4.623
 9098SOL    HW128193   1.968   5.415   4.577
 9098SOL    HW228194   1.806   5.421   4.558
 9099SOL     OW28195   2.395   1.772   6.170
 9099SOL    HW128196   2.451   1.733   6.243
 9099SOL    HW228197   2.317   1.711   6.152
 9100SOL     OW28198   1.975   4.749   4.684
 9100SOL    HW128199   1.941   4.811   4.613
 9100SOL    HW228200   2.072   4.765   4.698
 9101SOL     OW28201   6.728   1.677   1.425
 9101SOL    HW128202   6.813   1.709   1.384
 9101SOL    HW228203   6.662   1.656   1.353
 9102SOL     OW28204   3.489   0.686   2.914
 9102SOL    HW128205   3.540   0.640   2.987
 9102SOL    HW228206   3.548   0.752   2.868
 9103SOL     OW28207   6.261   0.366   1.126
 9103SOL    HW128208   6.287   0.394   1.034
 9103SOL    HW228209   6.164   0.341   1.127
 9104SOL     OW28210   5.445   2.453   5.795
 9104SOL    HW128211   5.375   2.523   5.782
 9104SOL    HW228212   5.512   2.458   5.721
 9105SOL     OW28213   2.989   0.764   0.298
 9105SOL    HW128214   3.032   0.674   0.304
 9105SOL    HW228215   3.057   0.834   0.322
 9106SOL     OW28216   2.527   2.875   6.258
 9106SOL    HW128217   2.431   2.873   6.232
 9106SOL    HW228218   2.585   2.866   6.177
 9107SOL     OW28219   3.928   0.670   1.125
 9107SOL    HW128220   3.926   0.578   1.165
 9107SOL    HW228221   3.847   0.720   1.155
 9108SOL     OW28222   6.045   6.489   5.437
 9108SOL    HW128223   5.979   6.550   5.481
 9108SOL    HW228224   6.073   6.527   5.350
 9109SOL     OW28225   5.329   3.960   3.167
 9109SOL    HW128226   5.324   4.004   3.257
 9109SOL    HW228227   5.317   4.028   3.095
 9110SOL     OW28228   1.289   6.500   2.463
 9110SOL    HW128229   1.351   6.450   2.402
 9110SOL    HW228230   1.198   6.505   2.421
 9111SOL     OW28231   4.674   2.740   5.468
 9111SOL    HW128232   4.667   2.650   5.510
 9111SOL    HW228233   4.584   2.781   5.460
 9112SOL     OW28234   0.633   4.683   1.567
 9112SOL    HW128235   0.563   4.694   1.637
 9112SOL    HW228236   0.598   4.625   1.494
 9113SOL     OW28237   5.570   0.329   4.578
 9113SOL    HW128238   5.579   0.245   4.526
 9113SOL    HW228239   5.588   0.310   4.675
 9114SOL     OW28240   0.076   1.121   6.287
 9114SOL    HW128241   0.029   1.033   6.282
 9114SOL    HW228242   0.127   1.136   6.202
 9115SOL     OW28243   5.397   3.866   4.463
 9115SOL    HW128244   5.425   3.789   4.521
 9115SOL    HW228245   5.451   3.866   4.379
 9116SOL     OW28246   0.493   5.414   3.900
 9116SOL    HW128247   0.536   5.385   3.986
 9116SOL    HW228248   0.524   5.506   3.876
 9117SOL     OW28249   2.036   6.803   0.198
 9117SOL    HW128250   1.993   6.885   0.235
 9117SOL    HW228251   2.135   6.812   0.201
 9118SOL     OW28252   6.946   5.110   1.075
 9118SOL    HW128253   6.923   5.206   1.059
 9118SOL    HW228254   0.026   5.095   1.057
 9119SOL     OW28255   3.852   1.723   0.590
 9119SOL    HW128256   3.799   1.808   0.588
 9119SOL    HW228257   3.822   1.664   0.515
 9120SOL     OW28258   6.687   4.343   5.179
 9120SOL    HW128259   6.728   4.253   5.162
 9120SOL    HW228260   6.654   4.347   5.273
 9121SOL     OW28261   4.405   0.962   4.766
 9121SOL    HW128262   4.389   0.972   4.667
 9121SOL    HW228263   4.493   0.915   4.780
 9122SOL     OW28264   0.135   1.793   2.142
 9122SOL    HW128265   0.060   1.845   2.183
 9122SOL    HW228266   0.151   1.827   2.049
 9123SOL     OW28267   0.712   6.170   4.612
 9123SOL    HW128268   0.682   6.228   4.537
 9123SOL    HW228269   0.731   6.226   4.692
 9124SOL     OW28270   3.318   5.496   0.816
 9124SOL    HW128271   3.406   5.516   0.773
 9124SOL    HW228272   3.271   5.424   0.765
 9125SOL     OW28273   4.792   6.522   1.956
 9125SOL    HW128274   4.719   6.581   1.923
 9125SOL    HW228275   4.752   6.444   2.005
 9126SOL     OW28276   3.739   5.192   0.310
 9126SOL    HW128277   3.781   5.192   0.219
 9126SOL    HW228278   3.691   5.279   0.324
 9127SOL     OW28279   6.355   4.384   5.794
 9127SOL    HW128280   6.270   4.416   5.835
 9127SOL    HW228281   6.404   4.326   5.860
 9128SOL     OW28282   5.406   3.681   6.787
 9128SOL    HW128283   5.393   3.702   6.691
 9128SOL    HW228284   5.320   3.695   6.836
 9129SOL     OW28285   0.774   2.961   1.650
 9129SOL    HW128286   0.724   3.038   1.690
 9129SOL    HW228287   0.838   2.996   1.581
 9130SOL     OW28288   2.962   3.900   6.214
 9130SOL    HW128289   2.932   3.834   6.283
 9130SOL    HW228290   2.891   3.910   6.144
 9131SOL     OW28291   6.353   3.376   1.080
 9131SOL    HW128292   6.396   3.287   1.072
 9131SOL    HW228293   6.269   3.378   1.026
 9132SOL     OW28294   0.781   4.302   4.208
 9132SOL    HW128295   0.777   4.360   4.290
 9132SOL    HW228296   0.850   4.337   4.145
 9133SOL     OW28297   5.130   6.583   0.279
 9133SOL    HW128298   5.228   6.566   0.272
 9133SOL    HW228299   5.110   6.676   0.247
 9134SOL     OW28300   4.822   4.410   0.026
 9134SOL    HW128301   4.809   4.507   0.045
 9134SOL    HW228302   4.808   4.357   0.109
 9135SOL     OW28303   6.874   5.245   2.402
 9135SOL    HW128304   6.951   5.231   2.465
 9135SOL    HW228305   6.808   5.308   2.442
 9136SOL     OW28306   0.475   4.992   6.946
 9136SOL    HW128307   0.384   4.955   6.965
 9136SOL    HW228308   0.516   4.941   6.870
 9137SOL     OW28309   5.467   5.363   6.071
 9137SOL    HW128310   5.379   5.323   6.045
 9137SOL    HW228311   5.513   5.399   5.989
 9138SOL     OW28312   1.633   3.969   6.170
 9138SOL    HW128313   1.636   3.980   6.269
 9138SOL    HW228314   1.710   3.913   6.140
 9139SOL     OW28315   0.638   6.810   0.829
 9139SOL    HW128316   0.602   6.757   0.906
 9139SOL    HW228317   0.665   6.748   0.755
 9140SOL     OW28318   0.376   3.993   2.930
 9140SOL    HW128319   0.439   3.992   2.852
 9140SOL    HW228320   0.403   3.923   2.996
 9141SOL     OW28321   0.253   5.848   4.182
 9141SOL    HW128322   0.225   5.766   4.133
 9141SOL    HW228323   0.352   5.844   4.201
 9142SOL     OW28324   1.692   5.263   3.346
 9142SOL    HW128325   1.781   5.305   3.363
 9142SOL    HW228326   1.643   5.317   3.277
 9143SOL     OW28327   5.116   3.366   2.363
 9143SOL    HW128328   5.208   3.398   2.386
 9143SOL    HW228329   5.104   3.370   2.264
 9144SOL     OW28330   2.360   4.582   5.285
 9144SOL    HW128331   2.437   4.570   5.222
 9144SOL    HW228332   2.274   4.564   5.236
 9145SOL     OW28333   3.020   5.986   6.683
 9145SOL    HW128334   3.111   6.024   6.668
 9145SOL    HW228335   3.011   5.899   6.635
 9146SOL     OW28336   5.181   1.842   4.407
 9146SOL    HW128337   5.177   1.930   4.455
 9146SOL    HW228338   5.275   1.824   4.380
 9147SOL     OW28339   4.412   6.995   6.346
 9147SOL    HW128340   4.349   6.917   6.348
 9147SOL    HW228341   4.360   0.062   6.332
 9148SOL     OW28342   3.375   5.659   2.577
 9148SOL    HW128343   3.397   5.589   2.509
 9148SOL    HW228344   3.459   5.697   2.615
 9149SOL     OW28345   1.216   3.858   1.361
 9149SOL    HW128346   1.121   3.848   1.332
 9149SOL    HW228347   1.277   3.822   1.290
 9150SOL     OW28348   3.847   3.558   6.584
 9150SOL    HW128349   3.860   3.591   6.490
 9150SOL    HW228350   3.776   3.613   6.628
 9151SOL     OW28351   2.146   3.777   3.738
 9151SOL    HW128352   2.241   3.808   3.733
 9151SOL    HW228353   2.110   3.765   3.646
 9152SOL     OW28354   1.923   5.439   1.742
 9152SOL    HW128355   1.902   5.383   1.662
 9152SOL    HW228356   2.021   5.429   1.764
 9153SOL     OW28357   0.658   3.624   0.396
 9153SOL    HW128358   0.695   3.660   0.311
 9153SOL    HW228359   0.559   3.611   0.387
 9154SOL     OW28360   4.524   5.130   2.927
 9154SOL    HW128361   4.581   5.115   3.008
 9154SOL    HW228362   4.428   5.127   2.953
 9155SOL     OW28363   0.562   6.349   2.775
 9155SOL    HW128364   0.587   6.402   2.694
 9155SOL    HW228365   0.507   6.406   2.836
 9156SOL     OW28366   6.880   4.432   5.573
 9156SOL    HW128367   6.899   4.530   5.581
 9156SOL    HW228368   6.946   4.381   5.628
 9157SOL     OW28369   2.003   4.780   4.972
 9157SOL    HW128370   1.958   4.745   4.890
 9157SOL    HW228371   1.934   4.805   5.040
 9158SOL     OW28372   6.655   2.506   3.796
 9158SOL    HW128373   6.621   2.549   3.879
 9158SOL    HW228374   6.722   2.436   3.820
 9159SOL     OW28375   2.463   0.993   3.601
 9159SOL    HW128376   2.466   0.976   3.699
 9159SOL    HW228377   2.463   0.906   3.552
 9160SOL     OW28378   0.516   3.491   6.528
 9160SOL    HW128379   0.483   3.412   6.581
 9160SOL    HW228380   0.558   3.458   6.443
 9161SOL     OW28381   5.576   3.149   2.730
 9161SOL    HW128382   5.596   3.051   2.738
 9161SOL    HW228383   5.600   3.194   2.816
 9162SOL     OW28384   5.616   2.292   1.808
 9162SOL    HW128385   5.654   2.250   1.726
 9162SOL    HW228386   5.641   2.238   1.888
 9163SOL     OW28387   1.617   3.729   3.115
 9163SOL    HW128388   1.556   3.805   3.090
 9163SOL    HW228389   1.595   3.649   3.060
 9164SOL     OW28390   3.886   0.994   0.585
 9164SOL    HW128391   3.883   0.894   0.579
 9164SOL    HW228392   3.824   1.024   0.658
 9165SOL     OW28393   6.705   0.061   6.550
 9165SOL    HW128394   6.737   6.998   6.500
 9165SOL    HW228395   6.775   0.088   6.617
 9166SOL     OW28396   4.063   5.650   2.163
 9166SOL    HW128397   4.009   5.568   2.182
 9166SOL    HW228398   4.141   5.627   2.105
 9167SOL     OW28399   0.467   2.547   4.988
 9167SOL    HW128400   0.477   2.449   4.972
 9167SOL    HW228401   0.485   2.567   5.084
 9168SOL     OW28402   5.556   5.742   4.527
 9168SOL    HW128403   5.572   5.777   4.619
 9168SOL    HW228404   5.593   5.806   4.460
 9169SOL     OW28405   5.670   5.841   0.357
 9169SOL    HW128406   5.739   5.872   0.291
 9169SOL    HW228407   5.683   5.744   0.375
 9170SOL     OW28408   1.350   0.112   5.461
 9170SOL    HW128409   1.432   0.096   5.406
 9170SOL    HW228410   1.366   0.187   5.524
 9171SOL     OW28411   4.805   5.971   6.727
 9171SOL    HW128412   4.818   5.923   6.814
 9171SOL    HW228413   4.844   5.917   6.652
 9172SOL     OW28414   5.312   0.474   6.096
 9172SOL    HW128415   5.265   0.386   6.088
 9172SOL    HW228416   5.409   0.461   6.075
 9173SOL     OW28417   6.004   4.074   6.948
 9173SOL    HW128418   6.003   3.987   6.997
 9173SOL    HW228419   6.098   4.094   6.918
 9174SOL     OW28420   6.104   5.023   0.152
 9174SOL    HW128421   6.074   5.085   0.079
 9174SOL    HW228422   6.024   4.994   0.206
 9175SOL     OW28423   2.210   0.944   1.304
 9175SOL    HW128424   2.149   0.893   1.243
 9175SOL    HW228425   2.271   1.001   1.249
 9176SOL     OW28426   1.503   6.901   2.287
 9176SOL    HW128427   1.543   6.811   2.273
 9176SOL    HW228428   1.499   6.950   2.200
 9177SOL     OW28429   0.570   5.637   3.596
 9177SOL    HW128430   0.499   5.568   3.608
 9177SOL    HW228431   0.622   5.647   3.680
 9178SOL     OW28432   0.999   3.403   0.868
 9178SOL    HW128433   0.989   3.309   0.836
 9178SOL    HW228434   1.050   3.457   0.800
 9179SOL     OW28435   3.910   5.931   2.955
 9179SOL    HW128436   3.917   6.017   2.904
 9179SOL    HW228437   3.866   5.862   2.897
 9180SOL     OW28438   0.305   1.195   5.008
 9180SOL    HW128439   0.222   1.208   4.953
 9180SOL    HW228440   0.385   1.209   4.949
 9181SOL     OW28441   3.344   1.924   2.807
 9181SOL    HW128442   3.396   1.843   2.836
 9181SOL    HW228443   3.250   1.897   2.786
 9182SOL     OW28444   6.759   1.487   3.095
 9182SOL    HW128445   6.707   1.478   3.010
 9182SOL    HW228446   6.849   1.526   3.075
 9183SOL     OW28447   3.319   1.810   5.495
 9183SOL    HW128448   3.317   1.851   5.587
 9183SOL    HW228449   3.387   1.858   5.439
 9184SOL     OW28450   2.655   5.930   0.832
 9184SOL    HW128451   2.649   5.877   0.748
 9184SOL    HW228452   2.751   5.940   0.858
 9185SOL     OW28453   0.341   1.314   5.377
 9185SOL    HW128454   0.296   1.333   5.464
 9185SOL    HW228455   0.438   1.333   5.385
 9186SOL     OW28456   5.190   6.593   5.869
 9186SOL    HW128457   5.273   6.645   5.888
 9186SOL    HW228458   5.114   6.631   5.921
 9187SOL     OW28459   5.099   3.350   1.314
 9187SOL    HW128460   5.133   3.348   1.220
 9187SOL    HW228461   5.003   3.378   1.313
 9188SOL     OW28462   1.019   0.932   2.469
 9188SOL    HW128463   0.949   0.897   2.531
 9188SOL    HW228464   0.975   0.973   2.389
 9189SOL     OW28465   2.835   0.568   6.885
 9189SOL    HW128466   2.791   0.486   6.919
 9189SOL    HW228467   2.888   0.611   6.958
 9190SOL     OW28468   3.499   1.192   5.719
 9190SOL    HW128469   3.575   1.219   5.778
 9190SOL    HW228470   3.533   1.131   5.647
 9191SOL     OW28471   4.930   0.168   1.598
 9191SOL    HW128472   4.870   0.234   1.644
 9191SOL    HW228473   4.899   0.156   1.503
 9192SOL     OW28474   4.220   4.737   4.071
 9192SOL    HW128475   4.126   4.724   4.104
 9192SOL    HW228476   4.282   4.746   4.150
 9193SOL     OW28477   3.995   3.793   2.181
 9193SOL    HW128478   4.029   3.791   2.275
 9193SOL    HW228479   3.957   3.883   2.161
 9194SOL     OW28480   2.748   5.758   3.693
 9194SOL    HW128481   2.807   5.833   3.664
 9194SOL    HW228482   2.745   5.755   3.793
 9195SOL     OW28483   0.305   3.373   3.420
 9195SOL    HW128484   0.352   3.297   3.466
 9195SOL    HW228485   0.342   3.460   3.453
 9196SOL     OW28486   5.597   5.537   3.453
 9196SOL    HW128487   5.649   5.454   3.470
 9196SOL    HW228488   5.505   5.514   3.422
 9197SOL     OW28489   4.160   2.392   6.636
 9197SOL    HW128490   4.178   2.490   6.633
 9197SOL    HW228491   4.120   2.362   6.550
 9198SOL     OW28492   6.653   2.501   4.672
 9198SOL    HW128493   6.717   2.455   4.733
 9198SOL    HW228494   6.674   2.477   4.577
 9199SOL     OW28495   1.016   3.557   6.950
 9199SOL    HW128496   0.942   3.512   6.900
 9199SOL    HW228497   1.102   3.542   6.901
 9200SOL     OW28498   4.392   5.770   2.115
 9200SOL    HW128499   4.351   5.794   2.203
 9200SOL    HW228500   4.377   5.845   2.049
 9201SOL     OW28501   0.233   2.571   2.413
 9201SOL    HW128502   0.298   2.525   2.354
 9201SOL    HW228503   0.140   2.555   2.380
 9202SOL     OW28504   1.795   5.995   3.063
 9202SOL    HW128505   1.718   5.931   3.071
 9202SOL    HW228506   1.821   6.026   3.155
 9203SOL     OW28507   5.253   2.149   0.484
 9203SOL    HW128508   5.196   2.230   0.474
 9203SOL    HW228509   5.346   2.176   0.509
 9204SOL     OW28510   4.806   4.431   1.463
 9204SOL    HW128511   4.749   4.350   1.449
 9204SOL    HW228512   4.748   4.509   1.484
 9205SOL     OW28513   4.268   2.638   0.817
 9205SOL    HW128514   4.216   2.610   0.898
 9205SOL    HW228515   4.207   2.679   0.750
 9206SOL     OW28516   6.637   0.454   4.992
 9206SOL    HW128517   6.689   0.368   5.001
 9206SOL    HW228518   6.595   0.458   4.901
 9207SOL     OW28519   5.936   6.018   0.568
 9207SOL    HW128520   5.924   6.102   0.515
 9207SOL    HW228521   5.992   5.953   0.516
 9208SOL     OW28522   5.982   4.145   1.477
 9208SOL    HW128523   6.024   4.183   1.559
 9208SOL    HW228524   6.049   4.088   1.429
 9209SOL     OW28525   5.134   0.712   4.688
 9209SOL    HW128526   5.200   0.754   4.750
 9209SOL    HW228527   5.114   0.618   4.718
 9210SOL     OW28528   1.632   6.878   0.468
 9210SOL    HW128529   1.658   6.799   0.524
 9210SOL    HW228530   1.583   6.944   0.524
 9211SOL     OW28531   5.453   1.263   6.160
 9211SOL    HW128532   5.395   1.227   6.233
 9211SOL    HW228533   5.404   1.258   6.073
 9212SOL     OW28534   6.070   3.637   6.429
 9212SOL    HW128535   6.123   3.557   6.400
 9212SOL    HW228536   6.126   3.719   6.422
 9213SOL     OW28537   0.365   5.499   3.238
 9213SOL    HW128538   0.350   5.590   3.200
 9213SOL    HW228539   0.317   5.431   3.182
 9214SOL     OW28540   1.648   1.274   5.643
 9214SOL    HW128541   1.674   1.369   5.627
 9214SOL    HW228542   1.674   1.219   5.564
 9215SOL     OW28543   6.706   3.799   3.793
 9215SOL    HW128544   6.773   3.750   3.848
 9215SOL    HW228545   6.713   3.897   3.812
 9216SOL     OW28546   1.690   0.121   3.391
 9216SOL    HW128547   1.648   0.170   3.315
 9216SOL    HW228548   1.637   0.038   3.411
 9217SOL     OW28549   3.713   2.632   0.515
 9217SOL    HW128550   3.800   2.639   0.466
 9217SOL    HW228551   3.689   2.721   0.555
 9218SOL     OW28552   5.151   5.793   5.942
 9218SOL    HW128553   5.086   5.862   5.910
 9218SOL    HW228554   5.241   5.810   5.900
 9219SOL     OW28555   3.884   3.313   5.969
 9219SOL    HW128556   3.912   3.270   5.883
 9219SOL    HW228557   3.790   3.285   5.991
 9220SOL     OW28558   0.835   6.703   3.734
 9220SOL    HW128559   0.819   6.740   3.826
 9220SOL    HW228560   0.748   6.672   3.695
 9221SOL     OW28561   2.557   1.387   2.278
 9221SOL    HW128562   2.587   1.358   2.369
 9221SOL    HW228563   2.506   1.473   2.284
 9222SOL     OW28564   2.268   6.032   3.147
 9222SOL    HW128565   2.322   5.953   3.119
 9222SOL    HW228566   2.222   6.012   3.233
 9223SOL     OW28567   6.192   2.278   4.779
 9223SOL    HW128568   6.114   2.274   4.716
 9223SOL    HW228569   6.265   2.333   4.738
 9224SOL     OW28570   1.848   5.722   2.692
 9224SOL    HW128571   1.895   5.770   2.618
 9224SOL    HW228572   1.871   5.765   2.780
 9225SOL     OW28573   0.441   5.920   5.336
 9225SOL    HW128574   0.367   5.888   5.276
 9225SOL    HW228575   0.499   5.843   5.361
 9226SOL     OW28576   1.038   6.956   4.769
 9226SOL    HW128577   1.024   6.905   4.684
 9226SOL    HW228578   0.952   6.999   4.796
 9227SOL     OW28579   4.513   2.851   0.765
 9227SOL    HW128580   4.469   2.762   0.754
 9227SOL    HW228581   4.549   2.859   0.857
 9228SOL     OW28582   3.751   3.601   4.311
 9228SOL    HW128583   3.756   3.638   4.218
 9228SOL    HW228584   3.828   3.539   4.326
 9229SOL     OW28585   0.697   6.162   1.150
 9229SOL    HW128586   0.684   6.148   1.052
 9229SOL    HW228587   0.638   6.237   1.181
 9230SOL     OW28588   3.534   0.011   5.882
 9230SOL    HW128589   3.621   6.979   5.887
 9230SOL    HW228590   3.550   0.102   5.843
 9231SOL     OW28591   5.719   6.520   1.736
 9231SOL    HW128592   5.713   6.462   1.817
 9231SOL    HW228593   5.629   6.526   1.692
 9232SOL     OW28594   1.059   4.998   1.933
 9232SOL    HW128595   1.017   5.076   1.888
 9232SOL    HW228596   1.015   4.913   1.902
 9233SOL     OW28597   1.180   0.197   5.975
 9233SOL    HW128598   1.279   0.202   5.981
 9233SOL    HW228599   1.142   0.179   6.066
 9234SOL     OW28600   3.333   3.975   0.090
 9234SOL    HW128601   3.237   4.002   0.080
 9234SOL    HW228602   3.388   4.021   0.020
 9235SOL     OW28603   1.643   2.375   2.667
 9235SOL    HW128604   1.740   2.351   2.663
 9235SOL    HW228605   1.627   2.439   2.742
 9236SOL     OW28606   1.652   4.190   6.526
 9236SOL    HW128607   1.637   4.096   6.497
 9236SOL    HW228608   1.735   4.225   6.482
 9237SOL     OW28609   6.665   5.722   3.737
 9237SOL    HW128610   6.763   5.740   3.743
 9237SOL    HW228611   6.614   5.804   3.760
 9238SOL     OW28612   1.890   2.846   4.981
 9238SOL    HW128613   1.968   2.795   5.016
 9238SOL    HW228614   1.893   2.940   5.017
 9239SOL     OW28615   2.158   6.057   6.271
 9239SOL    HW128616   2.181   6.150   6.243
 9239SOL    HW228617   2.059   6.045   6.271
 9240SOL     OW28618   3.764   1.416   4.899
 9240SOL    HW128619   3.747   1.484   4.827
 9240SOL    HW228620   3.684   1.358   4.909
 9241SOL     OW28621   5.123   6.413   6.931
 9241SOL    HW128622   5.203   6.424   6.990
 9241SOL    HW228623   5.153   6.402   6.836
 9242SOL     OW28624   2.458   2.467   0.046
 9242SOL    HW128625   2.376   2.516   0.015
 9242SOL    HW228626   2.449   2.447   0.144
 9243SOL     OW28627   2.302   0.060   0.368
 9243SOL    HW128628   2.254   0.044   0.454
 9243SOL    HW228629   2.273   0.147   0.329
 9244SOL     OW28630   3.008   6.403   6.239
 9244SOL    HW128631   2.950   6.384   6.160
 9244SOL    HW228632   3.095   6.442   6.208
 9245SOL     OW28633   0.504   4.003   3.427
 9245SOL    HW128634   0.504   4.039   3.520
 9245SOL    HW228635   0.477   4.076   3.364
 9246SOL     OW28636   4.859   1.341   6.607
 9246SOL    HW128637   4.785   1.316   6.669
 9246SOL    HW228638   4.821   1.360   6.516
 9247SOL     OW28639   3.170   6.316   2.822
 9247SOL    HW128640   3.130   6.389   2.767
 9247SOL    HW228641   3.104   6.242   2.834
 9248SOL     OW28642   2.740   0.120   6.260
 9248SOL    HW128643   2.784   0.097   6.173
 9248SOL    HW228644   2.809   0.160   6.322
 9249SOL     OW28645   2.953   1.855   0.508
 9249SOL    HW128646   2.891   1.879   0.433
 9249SOL    HW228647   2.921   1.772   0.553
 9250SOL     OW28648   0.872   3.392   1.501
 9250SOL    HW128649   0.963   3.429   1.522
 9250SOL    HW228650   0.847   3.323   1.569
 9251SOL     OW28651   4.227   1.266   0.817
 9251SOL    HW128652   4.192   1.188   0.764
 9251SOL    HW228653   4.198   1.351   0.773
 9252SOL     OW28654   5.501   1.569   4.816
 9252SOL    HW128655   5.559   1.487   4.818
 9252SOL    HW228656   5.488   1.598   4.721
 9253SOL     OW28657   2.417   5.412   3.566
 9253SOL    HW128658   2.377   5.353   3.496
 9253SOL    HW228659   2.515   5.396   3.571
 9254SOL     OW28660   6.404   5.696   2.200
 9254SOL    HW128661   6.447   5.786   2.214
 9254SOL    HW228662   6.417   5.668   2.105
 9255SOL     OW28663   0.573   3.164   1.574
 9255SOL    HW128664   0.540   3.110   1.652
 9255SOL    HW228665   0.533   3.256   1.578
 9256SOL     OW28666   1.728   6.491   1.263
 9256SOL    HW128667   1.784   6.570   1.287
 9256SOL    HW228668   1.688   6.505   1.172
 9257SOL     OW28669   6.688   6.532   5.543
 9257SOL    HW128670   6.696   6.623   5.503
 9257SOL    HW228671   6.729   6.465   5.482
 9258SOL     OW28672   5.085   3.555   3.172
 9258SOL    HW128673   5.156   3.622   3.152
 9258SOL    HW228674   5.052   3.514   3.087
 9259SOL     OW28675   1.076   3.106   6.385
 9259SOL    HW128676   1.004   3.058   6.336
 9259SOL    HW228677   1.157   3.114   6.326
 9260SOL     OW28678   5.007   4.874   5.177
 9260SOL    HW128679   5.102   4.905   5.182
 9260SOL    HW228680   4.981   4.860   5.082
 9261SOL     OW28681   1.455   2.844   1.121
 9261SOL    HW128682   1.426   2.750   1.103
 9261SOL    HW228683   1.548   2.858   1.086
 9262SOL     OW28684   6.457   6.395   5.938
 9262SOL    HW128685   6.549   6.362   5.962
 9262SOL    HW228686   6.464   6.485   5.896
 9263SOL     OW28687   2.259   4.597   2.634
 9263SOL    HW128688   2.279   4.516   2.690
 9263SOL    HW228689   2.208   4.569   2.553
 9264SOL     OW28690   5.966   3.815   5.605
 9264SOL    HW128691   5.904   3.882   5.565
 9264SOL    HW228692   6.016   3.857   5.681
 9265SOL     OW28693   4.443   0.329   1.778
 9265SOL    HW128694   4.412   0.240   1.812
 9265SOL    HW228695   4.496   0.316   1.694
 9266SOL     OW28696   0.230   4.796   0.757
 9266SOL    HW128697   0.181   4.883   0.756
 9266SOL    HW228698   0.264   4.778   0.850
 9267SOL     OW28699   6.680   1.220   3.102
 9267SOL    HW128700   6.589   1.209   3.141
 9267SOL    HW228701   6.710   1.315   3.113
 9268SOL     OW28702   0.267   6.988   0.856
 9268SOL    HW128703   0.215   0.003   0.935
 9268SOL    HW228704   0.365   6.987   0.880
 9269SOL     OW28705   3.669   5.999   1.417
 9269SOL    HW128706   3.624   6.067   1.474
 9269SOL    HW228707   3.629   5.909   1.433
 9270SOL     OW28708   1.871   1.421   5.302
 9270SOL    HW128709   1.935   1.368   5.246
 9270SOL    HW228710   1.891   1.519   5.292
 9271SOL     OW28711   1.309   4.922   5.601
 9271SOL    HW128712   1.316   5.018   5.575
 9271SOL    HW228713   1.229   4.909   5.659
 9272SOL     OW28714   6.374   6.699   6.221
 9272SOL    HW128715   6.379   6.671   6.125
 9272SOL    HW228716   6.293   6.756   6.235
 9273SOL     OW28717   6.510   4.011   3.435
 9273SOL    HW128718   6.443   4.065   3.386
 9273SOL    HW228719   6.565   3.958   3.370
 9274SOL     OW28720   6.971   3.376   1.125
 9274SOL    HW128721   6.878   3.402   1.151
 9274SOL    HW228722   0.018   3.446   1.157
 9275SOL     OW28723   4.766   1.794   0.279
 9275SOL    HW128724   4.678   1.841   0.292
 9275SOL    HW228725   4.812   1.785   0.367
 9276SOL     OW28726   1.295   4.219   0.376
 9276SOL    HW128727   1.217   4.230   0.314
 9276SOL    HW228728   1.379   4.211   0.322
 9277SOL     OW28729   3.452   6.066   3.070
 9277SOL    HW128730   3.535   6.117   3.045
 9277SOL    HW228731   3.412   6.026   2.987
 9278SOL     OW28732   1.462   0.042   4.567
 9278SOL    HW128733   1.511   6.975   4.593
 9278SOL    HW228734   1.504   0.081   4.485
 9279SOL     OW28735   3.879   6.040   1.927
 9279SOL    HW128736   3.783   6.038   1.899
 9279SOL    HW228737   3.911   5.946   1.941
 9280SOL     OW28738   1.239   4.569   1.812
 9280SOL    HW128739   1.273   4.643   1.870
 9280SOL    HW228740   1.209   4.607   1.724
 9281SOL     OW28741   1.467   5.824   0.551
 9281SOL    HW128742   1.552   5.876   0.554
 9281SOL    HW228743   1.486   5.728   0.570
 9282SOL     OW28744   1.744   1.070   3.522
 9282SOL    HW128745   1.837   1.106   3.520
 9282SOL    HW228746   1.734   1.002   3.450
 9283SOL     OW28747   5.799   4.772   6.318
 9283SOL    HW128748   5.753   4.857   6.343
 9283SOL    HW228749   5.741   4.694   6.341
 9284SOL     OW28750   3.914   6.113   1.471
 9284SOL    HW128751   3.968   6.103   1.388
 9284SOL    HW228752   3.829   6.061   1.463
 9285SOL     OW28753   0.095   5.646   3.362
 9285SOL    HW128754   0.097   5.695   3.275
 9285SOL    HW228755   0.046   5.700   3.430
 9286SOL     OW28756   5.414   5.881   1.693
 9286SOL    HW128757   5.314   5.876   1.694
 9286SOL    HW228758   5.449   5.865   1.786
 9287SOL     OW28759   4.525   4.408   0.701
 9287SOL    HW128760   4.471   4.330   0.734
 9287SOL    HW228761   4.495   4.431   0.608
 9288SOL     OW28762   3.513   1.001   3.256
 9288SOL    HW128763   3.476   1.012   3.164
 9288SOL    HW228764   3.464   0.928   3.303
 9289SOL     OW28765   4.318   5.837   2.378
 9289SOL    HW128766   4.241   5.874   2.430
 9289SOL    HW228767   4.359   5.761   2.429
 9290SOL     OW28768   5.637   0.476   3.584
 9290SOL    HW128769   5.542   0.505   3.590
 9290SOL    HW228770   5.646   0.404   3.516
 9291SOL     OW28771   0.151   4.968   5.412
 9291SOL    HW128772   0.143   4.879   5.367
 9291SOL    HW228773   0.237   4.972   5.463
 9292SOL     OW28774   1.735   2.365   0.015
 9292SOL    HW128775   1.831   2.361   7.003
 9292SOL    HW228776   1.730   2.384   0.113
 9293SOL     OW28777   4.087   1.200   6.084
 9293SOL    HW128778   4.070   1.294   6.054
 9293SOL    HW228779   4.185   1.185   6.095
 9294SOL     OW28780   5.459   6.260   6.005
 9294SOL    HW128781   5.509   6.183   6.046
 9294SOL    HW228782   5.522   6.319   5.956
 9295SOL     OW28783   6.095   0.159   2.925
 9295SOL    HW128784   6.008   0.127   2.887
 9295SOL    HW228785   6.145   0.082   2.963
 9296SOL     OW28786   2.562   3.246   5.759
 9296SOL    HW128787   2.548   3.275   5.664
 9296SOL    HW228788   2.660   3.252   5.780
 9297SOL     OW28789   6.893   5.435   1.834
 9297SOL    HW128790   6.924   5.458   1.927
 9297SOL    HW228791   6.908   5.337   1.818
 9298SOL     OW28792   6.647   4.959   0.020
 9298SOL    HW128793   6.670   4.875   6.987
 9298SOL    HW228794   6.583   5.013   6.983
 9299SOL     OW28795   3.570   2.086   4.205
 9299SOL    HW128796   3.634   2.028   4.257
 9299SOL    HW228797   3.477   2.070   4.238
 9300SOL     OW28798   2.747   5.872   5.902
 9300SOL    HW128799   2.842   5.840   5.889
 9300SOL    HW228800   2.724   5.936   5.829
 9301SOL     OW28801   0.090   3.331   4.269
 9301SOL    HW128802   0.140   3.249   4.243
 9301SOL    HW228803   0.005   3.338   4.215
 9302SOL     OW28804   2.944   6.053   3.916
 9302SOL    HW128805   3.028   6.082   3.960
 9302SOL    HW228806   2.869   6.112   3.946
 9303SOL     OW28807   3.214   4.192   6.812
 9303SOL    HW128808   3.207   4.189   6.712
 9303SOL    HW228809   3.308   4.171   6.839
 9304SOL     OW28810   6.141   5.510   6.694
 9304SOL    HW128811   6.191   5.437   6.647
 9304SOL    HW228812   6.207   5.569   6.741
 9305SOL     OW28813   2.529   1.788   0.829
 9305SOL    HW128814   2.430   1.803   0.823
 9305SOL    HW228815   2.558   1.728   0.754
 9306SOL     OW28816   6.691   6.349   3.938
 9306SOL    HW128817   6.649   6.299   3.862
 9306SOL    HW228818   6.665   6.307   4.024
 9307SOL     OW28819   1.661   4.344   0.820
 9307SOL    HW128820   1.726   4.420   0.821
 9307SOL    HW228821   1.711   4.257   0.825
 9308SOL     OW28822   2.452   3.397   1.029
 9308SOL    HW128823   2.507   3.471   1.066
 9308SOL    HW228824   2.358   3.403   1.064
 9309SOL     OW28825   3.420   5.132   6.224
 9309SOL    HW128826   3.360   5.210   6.209
 9309SOL    HW228827   3.515   5.161   6.218
 9310SOL     OW28828   6.404   6.668   5.951
 9310SOL    HW128829   6.425   6.745   5.891
 9310SOL    HW228830   6.310   6.637   5.935
 9311SOL     OW28831   5.640   4.767   6.760
 9311SOL    HW128832   5.688   4.758   6.848
 9311SOL    HW228833   5.684   4.838   6.706
 9312SOL     OW28834   6.324   3.588   4.075
 9312SOL    HW128835   6.225   3.606   4.075
 9312SOL    HW228836   6.345   3.515   4.011
 9313SOL     OW28837   0.455   0.339   1.722
 9313SOL    HW128838   0.432   0.269   1.789
 9313SOL    HW228839   0.476   0.425   1.769
 9314SOL     OW28840   5.432   4.709   1.343
 9314SOL    HW128841   5.442   4.624   1.292
 9314SOL    HW228842   5.396   4.690   1.435
 9315SOL     OW28843   5.360   5.536   5.707
 9315SOL    HW128844   5.363   5.623   5.658
 9315SOL    HW228845   5.268   5.522   5.744
 9316SOL     OW28846   5.719   5.553   6.801
 9316SOL    HW128847   5.647   5.483   6.808
 9316SOL    HW228848   5.688   5.636   6.848
 9317SOL     OW28849   2.624   6.813   3.134
 9317SOL    HW128850   2.685   6.881   3.174
 9317SOL    HW228851   2.589   6.845   3.046
 9318SOL     OW28852   3.588   0.171   3.601
 9318SOL    HW128853   3.658   0.138   3.664
 9318SOL    HW228854   3.513   0.105   3.596
 9319SOL     OW28855   3.982   2.373   0.775
 9319SOL    HW128856   4.000   2.388   0.678
 9319SOL    HW228857   3.919   2.444   0.808
 9320SOL     OW28858   6.437   6.720   6.809
 9320SOL    HW128859   6.385   6.793   6.855
 9320SOL    HW228860   6.481   6.757   6.727
 9321SOL     OW28861   1.442   2.316   4.518
 9321SOL    HW128862   1.472   2.407   4.546
 9321SOL    HW228863   1.516   2.251   4.534
 9322SOL     OW28864   5.489   3.715   0.346
 9322SOL    HW128865   5.457   3.635   0.296
 9322SOL    HW228866   5.423   3.790   0.336
 9323SOL     OW28867   0.861   2.768   4.659
 9323SOL    HW128868   0.894   2.772   4.754
 9323SOL    HW228869   0.929   2.722   4.602
 9324SOL     OW28870   0.956   4.344   1.334
 9324SOL    HW128871   0.973   4.388   1.421
 9324SOL    HW228872   1.043   4.321   1.290
 9325SOL     OW28873   0.050   4.596   2.763
 9325SOL    HW128874   0.132   4.538   2.768
 9325SOL    HW228875   0.051   4.661   2.838
 9326SOL     OW28876   3.904   4.739   1.163
 9326SOL    HW128877   3.879   4.696   1.250
 9326SOL    HW228878   3.885   4.837   1.168
 9327SOL     OW28879   1.816   2.002   3.091
 9327SOL    HW128880   1.782   1.945   3.016
 9327SOL    HW228881   1.916   1.999   3.092
 9328SOL     OW28882   0.921   0.431   3.440
 9328SOL    HW128883   0.889   0.525   3.426
 9328SOL    HW228884   0.994   0.411   3.375
 9329SOL     OW28885   1.452   5.041   5.834
 9329SOL    HW128886   1.508   5.017   5.914
 9329SOL    HW228887   1.357   5.054   5.863
 9330SOL     OW28888   0.804   6.405   0.741
 9330SOL    HW128889   0.810   6.388   0.642
 9330SOL    HW228890   0.881   6.361   0.787
 9331SOL     OW28891   2.433   5.411   4.817
 9331SOL    HW128892   2.448   5.337   4.751
 9331SOL    HW228893   2.448   5.499   4.774
 9332SOL     OW28894   6.267   5.952   0.599
 9332SOL    HW128895   6.358   5.952   0.558
 9332SOL    HW228896   6.201   5.916   0.533
 9333SOL     OW28897   1.165   5.534   0.883
 9333SOL    HW128898   1.098   5.599   0.915
 9333SOL    HW228899   1.255   5.577   0.880
 9334SOL     OW28900   0.374   6.178   0.397
 9334SOL    HW128901   0.311   6.139   0.331
 9334SOL    HW228902   0.420   6.257   0.357
 9335SOL     OW28903   0.033   3.786   0.780
 9335SOL    HW128904   0.122   3.790   0.736
 9335SOL    HW228905   6.996   3.866   0.754
 9336SOL     OW28906   3.915   5.519   5.714
 9336SOL    HW128907   3.842   5.523   5.646
 9336SOL    HW228908   3.898   5.587   5.786
 9337SOL     OW28909   3.038   1.821   4.506
 9337SOL    HW128910   3.053   1.918   4.489
 9337SOL    HW228911   3.081   1.796   4.593
 9338SOL     OW28912   4.073   6.952   1.393
 9338SOL    HW128913   3.979   6.921   1.400
 9338SOL    HW228914   4.130   6.879   1.357
 9339SOL     OW28915   0.348   3.502   4.561
 9339SOL    HW128916   0.401   3.523   4.644
 9339SOL    HW228917   0.261   3.460   4.587
 9340SOL     OW28918   2.650   4.637   2.231
 9340SOL    HW128919   2.710   4.592   2.166
 9340SOL    HW228920   2.583   4.693   2.182
 9341SOL     OW28921   5.217   5.682   1.482
 9341SOL    HW128922   5.182   5.730   1.563
 9341SOL    HW228923   5.303   5.637   1.505
 9342SOL     OW28924   3.113   0.340   4.792
 9342SOL    HW128925   3.062   0.300   4.716
 9342SOL    HW228926   3.208   0.308   4.789
 9343SOL     OW28927   5.325   3.832   1.341
 9343SOL    HW128928   5.411   3.859   1.385
 9343SOL    HW228929   5.268   3.913   1.327
 9344SOL     OW28930   5.198   6.422   4.696
 9344SOL    HW128931   5.119   6.373   4.658
 9344SOL    HW228932   5.229   6.375   4.779
 9345SOL     OW28933   6.807   4.804   6.151
 9345SOL    HW128934   6.828   4.901   6.164
 9345SOL    HW228935   6.845   4.773   6.064
 9346SOL     OW28936   5.052   0.924   1.959
 9346SOL    HW128937   5.106   0.998   1.920
 9346SOL    HW228938   5.069   0.920   2.058
 9347SOL     OW28939   4.432   6.707   2.027
 9347SOL    HW128940   4.451   6.804   2.044
 9347SOL    HW228941   4.500   6.671   1.963
 9348SOL     OW28942   2.616   5.286   1.994
 9348SOL    HW128943   2.635   5.232   1.911
 9348SOL    HW228944   2.696   5.342   2.015
 9349SOL     OW28945   0.470   4.899   1.162
 9349SOL    HW128946   0.440   4.821   1.217
 9349SOL    HW228947   0.468   4.982   1.218
 9350SOL     OW28948   6.412   0.438   6.782
 9350SOL    HW128949   6.490   0.376   6.771
 9350SOL    HW228950   6.339   0.412   6.720
 9351SOL     OW28951   4.436   4.041   6.266
 9351SOL    HW128952   4.347   4.008   6.234
 9351SOL    HW228953   4.501   3.965   6.265
 9352SOL     OW28954   2.517   1.715   6.840
 9352SOL    HW128955   2.601   1.763   6.864
 9352SOL    HW228956   2.499   1.642   6.905
 9353SOL     OW28957   0.853   3.039   2.269
 9353SOL    HW128958   0.813   3.078   2.352
 9353SOL    HW228959   0.893   3.112   2.214
 9354SOL     OW28960   5.900   2.041   2.270
 9354SOL    HW128961   5.999   2.034   2.278
 9354SOL    HW228962   5.870   1.993   2.188
 9355SOL     OW28963   0.458   1.734   2.172
 9355SOL    HW128964   0.411   1.646   2.165
 9355SOL    HW228965   0.391   1.806   2.191
 9356SOL     OW28966   4.416   2.408   2.184
 9356SOL    HW128967   4.455   2.358   2.107
 9356SOL    HW228968   4.389   2.344   2.256
 9357SOL     OW28969   2.157   4.492   6.927
 9357SOL    HW128970   2.242   4.545   6.933
 9357SOL    HW228971   2.115   4.484   0.001
 9358SOL     OW28972   5.473   4.232   3.210
 9358SOL    HW128973   5.402   4.249   3.279
 9358SOL    HW228974   5.435   4.246   3.119
 9359SOL     OW28975   4.074   5.118   5.327
 9359SOL    HW128976   4.134   5.108   5.406
 9359SOL    HW228977   4.042   5.212   5.320
 9360SOL     OW28978   1.013   0.414   5.769
 9360SOL    HW128979   0.973   0.470   5.697
 9360SOL    HW228980   1.017   0.319   5.741
 9361SOL     OW28981   1.415   1.188   2.556
 9361SOL    HW128982   1.352   1.111   2.552
 9361SOL    HW228983   1.407   1.242   2.472
 9362SOL     OW28984   1.089   1.597   3.002
 9362SOL    HW128985   1.160   1.660   3.032
 9362SOL    HW228986   1.033   1.642   2.932
 9363SOL     OW28987   1.310   6.094   2.293
 9363SOL    HW128988   1.395   6.130   2.255
 9363SOL    HW228989   1.328   6.005   2.337
 9364SOL     OW28990   5.423   4.170   0.942
 9364SOL    HW128991   5.396   4.082   0.980
 9364SOL    HW228992   5.341   4.221   0.914
 9365SOL     OW28993   2.352   1.694   4.458
 9365SOL    HW128994   2.359   1.643   4.372
 9365SOL    HW228995   2.295   1.643   4.522
 9366SOL     OW28996   3.091   1.260   1.500
 9366SOL    HW128997   3.176   1.303   1.469
 9366SOL    HW228998   3.027   1.332   1.529
 9367SOL     OW28999   5.300   6.873   4.070
 9367SOL    HW129000   5.274   6.967   4.095
 9367SOL    HW229001   5.236   6.808   4.110
 9368SOL     OW29002   5.609   2.820   0.765
 9368SOL    HW129003   5.608   2.886   0.839
 9368SOL    HW229004   5.703   2.792   0.745
 9369SOL     OW29005   0.277   1.916   5.281
 9369SOL    HW129006   0.269   2.007   5.239
 9369SOL    HW229007   0.356   1.915   5.342
 9370SOL     OW29008   5.690   5.525   2.107
 9370SOL    HW129009   5.745   5.571   2.177
 9370SOL    HW229010   5.747   5.508   2.027
 9371SOL     OW29011   1.934   6.621   0.377
 9371SOL    HW129012   1.870   6.551   0.346
 9371SOL    HW229013   1.961   6.678   0.299
 9372SOL     OW29014   5.509   5.391   0.649
 9372SOL    HW129015   5.508   5.372   0.748
 9372SOL    HW229016   5.444   5.331   0.603
 9373SOL     OW29017   4.778   2.936   4.357
 9373SOL    HW129018   4.724   2.869   4.306
 9373SOL    HW229019   4.808   2.895   4.444
 9374SOL     OW29020   5.600   3.907   6.903
 9374SOL    HW129021   5.556   3.842   6.841
 9374SOL    HW229022   5.616   3.993   6.857
 9375SOL     OW29023   6.647   6.747   4.435
 9375SOL    HW129024   6.746   6.736   4.449
 9375SOL    HW229025   6.623   6.844   4.439
 9376SOL     OW29026   2.622   3.404   1.746
 9376SOL    HW129027   2.612   3.323   1.688
 9376SOL    HW229028   2.532   3.432   1.780
 9377SOL     OW29029   6.816   4.474   3.828
 9377SOL    HW129030   6.859   4.420   3.756
 9377SOL    HW229031   6.776   4.557   3.790
 9378SOL     OW29032   4.398   6.068   1.207
 9378SOL    HW129033   4.360   6.059   1.115
 9378SOL    HW229034   4.362   5.995   1.265
 9379SOL     OW29035   4.564   4.783   5.385
 9379SOL    HW129036   4.510   4.703   5.357
 9379SOL    HW229037   4.526   4.820   5.470
 9380SOL     OW29038   6.880   5.520   5.589
 9380SOL    HW129039   6.887   5.549   5.494
 9380SOL    HW229040   6.968   5.483   5.619
 9381SOL     OW29041   0.913   0.742   0.218
 9381SOL    HW129042   0.850   0.743   0.141
 9381SOL    HW229043   0.960   0.830   0.224
 9382SOL     OW29044   5.621   1.897   2.337
 9382SOL    HW129045   5.526   1.914   2.311
 9382SOL    HW229046   5.669   1.984   2.348
 9383SOL     OW29047   6.626   5.116   6.744
 9383SOL    HW129048   6.565   5.063   6.803
 9383SOL    HW229049   6.714   5.068   6.734
 9384SOL     OW29050   3.743   6.923   2.489
 9384SOL    HW129051   3.684   6.842   2.487
 9384SOL    HW229052   3.782   6.938   2.399
 9385SOL     OW29053   3.714   6.363   3.696
 9385SOL    HW129054   3.676   6.279   3.735
 9385SOL    HW229055   3.798   6.387   3.743
 9386SOL     OW29056   3.430   0.116   4.908
 9386SOL    HW129057   3.498   0.067   4.852
 9386SOL    HW229058   3.475   0.191   4.957
 9387SOL     OW29059   4.913   5.980   0.582
 9387SOL    HW129060   4.830   5.982   0.639
 9387SOL    HW229061   4.916   6.063   0.526
 9388SOL     OW29062   6.590   6.965   1.593
 9388SOL    HW129063   6.579   6.987   1.496
 9388SOL    HW229064   6.581   0.032   1.647
 9389SOL     OW29065   3.372   1.117   0.480
 9389SOL    HW129066   3.390   1.199   0.425
 9389SOL    HW229067   3.312   1.140   0.556
 9390SOL     OW29068   3.539   5.677   1.033
 9390SOL    HW129069   3.624   5.697   1.083
 9390SOL    HW229070   3.478   5.756   1.039
 9391SOL     OW29071   5.753   0.435   3.845
 9391SOL    HW129072   5.689   0.447   3.769
 9391SOL    HW229073   5.846   0.426   3.808
 9392SOL     OW29074   0.791   6.797   5.078
 9392SOL    HW129075   0.777   6.813   4.980
 9392SOL    HW229076   0.872   6.848   5.108
 9393SOL     OW29077   4.472   1.765   5.761
 9393SOL    HW129078   4.455   1.707   5.681
 9393SOL    HW229079   4.458   1.712   5.844
 9394SOL     OW29080   6.247   1.558   2.238
 9394SOL    HW129081   6.284   1.627   2.301
 9394SOL    HW229082   6.269   1.467   2.272
 9395SOL     OW29083   2.053   2.878   6.821
 9395SOL    HW129084   1.992   2.809   6.860
 9395SOL    HW229085   2.115   2.912   6.891
 9396SOL     OW29086   0.305   1.110   5.809
 9396SOL    HW129087   0.401   1.098   5.786
 9396SOL    HW229088   0.258   1.022   5.804
 9397SOL     OW29089   1.895   2.007   1.116
 9397SOL    HW129090   1.870   1.926   1.062
 9397SOL    HW229091   1.826   2.078   1.103
 9398SOL     OW29092   2.767   1.833   1.737
 9398SOL    HW129093   2.803   1.785   1.817
 9398SOL    HW229094   2.742   1.767   1.667
 9399SOL     OW29095   0.324   0.812   5.626
 9399SOL    HW129096   0.305   0.728   5.574
 9399SOL    HW229097   0.329   0.889   5.563
 9400SOL     OW29098   3.806   1.406   3.747
 9400SOL    HW129099   3.800   1.472   3.672
 9400SOL    HW229100   3.896   1.413   3.790
 9401SOL     OW29101   4.091   6.676   4.306
 9401SOL    HW129102   4.034   6.631   4.237
 9401SOL    HW229103   4.111   6.611   4.379
 9402SOL     OW29104   2.611   4.542   5.994
 9402SOL    HW129105   2.699   4.528   5.948
 9402SOL    HW229106   2.584   4.638   5.985
 9403SOL     OW29107   5.700   0.286   4.311
 9403SOL    HW129108   5.647   0.269   4.227
 9403SOL    HW229109   5.690   0.208   4.372
 9404SOL     OW29110   1.749   4.485   4.983
 9404SOL    HW129111   1.830   4.471   5.039
 9404SOL    HW229112   1.709   4.574   5.004
 9405SOL     OW29113   0.444   0.703   1.320
 9405SOL    HW129114   0.528   0.756   1.317
 9405SOL    HW229115   0.375   0.746   1.262
 9406SOL     OW29116   6.627   1.536   4.710
 9406SOL    HW129117   6.582   1.525   4.799
 9406SOL    HW229118   6.717   1.493   4.712
 9407SOL     OW29119   3.199   5.669   3.527
 9407SOL    HW129120   3.132   5.730   3.484
 9407SOL    HW229121   3.292   5.701   3.506
 9408SOL     OW29122   3.834   2.263   6.660
 9408SOL    HW129123   3.917   2.279   6.605
 9408SOL    HW229124   3.832   2.327   6.737
 9409SOL     OW29125   6.211   3.743   3.667
 9409SOL    HW129126   6.286   3.807   3.651
 9409SOL    HW229127   6.142   3.787   3.724
 9410SOL     OW29128   4.240   6.900   1.835
 9410SOL    HW129129   4.203   6.821   1.884
 9410SOL    HW229130   4.312   6.870   1.773
 9411SOL     OW29131   5.681   4.997   2.002
 9411SOL    HW129132   5.708   4.927   1.936
 9411SOL    HW229133   5.581   5.007   2.000
 9412SOL     OW29134   6.745   2.147   3.354
 9412SOL    HW129135   6.823   2.202   3.324
 9412SOL    HW229136   6.720   2.082   3.282
 9413SOL     OW29137   3.743   5.599   3.242
 9413SOL    HW129138   3.796   5.631   3.163
 9413SOL    HW229139   3.780   5.512   3.274
 9414SOL     OW29140   2.353   0.206   2.272
 9414SOL    HW129141   2.298   0.126   2.247
 9414SOL    HW229142   2.386   0.250   2.189
 9415SOL     OW29143   1.276   0.093   2.139
 9415SOL    HW129144   1.184   0.120   2.112
 9415SOL    HW229145   1.296   0.127   2.231
 9416SOL     OW29146   1.322   1.972   1.445
 9416SOL    HW129147   1.380   2.048   1.475
 9416SOL    HW229148   1.328   1.897   1.511
 9417SOL     OW29149   1.111   0.435   4.563
 9417SOL    HW129150   1.034   0.371   4.567
 9417SOL    HW229151   1.170   0.422   4.643
 9418SOL     OW29152   4.317   4.234   0.763
 9418SOL    HW129153   4.347   4.154   0.814
 9418SOL    HW229154   4.231   4.213   0.716
 9419SOL     OW29155   2.335   5.809   3.947
 9419SOL    HW129156   2.327   5.775   3.853
 9419SOL    HW229157   2.422   5.778   3.986
 9420SOL     OW29158   1.778   0.398   3.185
 9420SOL    HW129159   1.739   0.456   3.256
 9420SOL    HW229160   1.862   0.355   3.218
 9421SOL     OW29161   1.438   4.917   5.309
 9421SOL    HW129162   1.402   4.889   5.398
 9421SOL    HW229163   1.537   4.902   5.306
 9422SOL     OW29164   3.808   1.223   2.954
 9422SOL    HW129165   3.797   1.290   3.027
 9422SOL    HW229166   3.749   1.248   2.877
 9423SOL     OW29167   4.584   0.011   4.906
 9423SOL    HW129168   4.671   6.988   4.878
 9423SOL    HW229169   4.583   0.023   5.005
 9424SOL     OW29170   3.030   5.843   3.420
 9424SOL    HW129171   2.932   5.823   3.419
 9424SOL    HW229172   3.045   5.937   3.389
 9425SOL     OW29173   0.774   5.417   2.585
 9425SOL    HW129174   0.692   5.378   2.542
 9425SOL    HW229175   0.849   5.351   2.580
 9426SOL     OW29176   3.340   5.770   0.602
 9426SOL    HW129177   3.424   5.733   0.640
 9426SOL    HW229178   3.306   5.842   0.663
 9427SOL     OW29179   2.547   5.041   4.018
 9427SOL    HW129180   2.543   4.978   4.095
 9427SOL    HW229181   2.558   5.135   4.052
 9428SOL     OW29182   4.551   6.480   2.255
 9428SOL    HW129183   4.485   6.475   2.179
 9428SOL    HW229184   4.509   6.444   2.338
 9429SOL     OW29185   0.398   3.567   3.045
 9429SOL    HW129186   0.439   3.482   3.078
 9429SOL    HW229187   0.303   3.549   3.017
 9430SOL     OW29188   6.555   6.707   1.718
 9430SOL    HW129189   6.529   6.700   1.815
 9430SOL    HW229190   6.559   6.803   1.692
 9431SOL     OW29191   6.735   4.470   0.555
 9431SOL    HW129192   6.722   4.469   0.456
 9431SOL    HW229193   6.791   4.549   0.580
 9432SOL     OW29194   6.654   6.948   4.132
 9432SOL    HW129195   6.590   6.961   4.055
 9432SOL    HW229196   6.714   0.011   4.138
 9433SOL     OW29197   2.684   5.491   4.006
 9433SOL    HW129198   2.712   5.396   4.012
 9433SOL    HW229199   2.584   5.496   3.998
 9434SOL     OW29200   6.368   4.587   3.358
 9434SOL    HW129201   6.404   4.537   3.437
 9434SOL    HW229202   6.379   4.686   3.373
 9435SOL     OW29203   2.480   2.343   5.442
 9435SOL    HW129204   2.448   2.257   5.483
 9435SOL    HW229205   2.579   2.336   5.424
 9436SOL     OW29206   3.651   1.771   5.650
 9436SOL    HW129207   3.635   1.678   5.682
 9436SOL    HW229208   3.739   1.775   5.602
 9437SOL     OW29209   0.473   5.994   4.390
 9437SOL    HW129210   0.531   6.009   4.309
 9437SOL    HW229211   0.402   6.064   4.394
 9438SOL     OW29212   0.394   6.342   1.769
 9438SOL    HW129213   0.335   6.291   1.707
 9438SOL    HW229214   0.354   6.343   1.861
 9439SOL     OW29215   1.667   3.130   1.180
 9439SOL    HW129216   1.672   3.065   1.255
 9439SOL    HW229217   1.670   3.081   1.093
 9440SOL     OW29218   3.106   6.126   3.399
 9440SOL    HW129219   3.071   6.188   3.469
 9440SOL    HW229220   3.186   6.077   3.435
 9441SOL     OW29221   1.293   5.478   5.579
 9441SOL    HW129222   1.362   5.508   5.514
 9441SOL    HW229223   1.293   5.539   5.658
 9442SOL     OW29224   0.802   3.506   1.018
 9442SOL    HW129225   0.871   3.454   0.968
 9442SOL    HW229226   0.802   3.601   0.986
 9443SOL     OW29227   1.623   2.137   1.144
 9443SOL    HW129228   1.573   2.050   1.139
 9443SOL    HW229229   1.598   2.185   1.227
 9444SOL     OW29230   1.275   4.398   5.640
 9444SOL    HW129231   1.327   4.483   5.631
 9444SOL    HW229232   1.178   4.416   5.623
 9445SOL     OW29233   6.114   2.094   2.032
 9445SOL    HW129234   6.044   2.029   2.001
 9445SOL    HW229235   6.200   2.075   1.984
 9446SOL     OW29236   5.716   4.693   0.043
 9446SOL    HW129237   5.725   4.593   0.034
 9446SOL    HW229238   5.631   4.715   0.090
 9447SOL     OW29239   6.043   0.861   1.828
 9447SOL    HW129240   6.043   0.959   1.805
 9447SOL    HW229241   5.969   0.815   1.779
 9448SOL     OW29242   6.016   6.143   0.326
 9448SOL    HW129243   5.990   6.054   0.289
 9448SOL    HW229244   6.115   6.151   0.327
 9449SOL     OW29245   5.733   5.498   4.946
 9449SOL    HW129246   5.833   5.490   4.941
 9449SOL    HW229247   5.695   5.496   4.854
 9450SOL     OW29248   1.943   6.039   3.834
 9450SOL    HW129249   1.848   6.064   3.819
 9450SOL    HW229250   1.973   6.072   3.923
 9451SOL     OW29251   4.226   3.875   5.255
 9451SOL    HW129252   4.171   3.868   5.172
 9451SOL    HW229253   4.280   3.959   5.253
 9452SOL     OW29254   3.716   4.315   0.445
 9452SOL    HW129255   3.792   4.377   0.424
 9452SOL    HW229256   3.642   4.328   0.379
 9453SOL     OW29257   3.845   5.989   1.163
 9453SOL    HW129258   3.760   6.013   1.209
 9453SOL    HW229259   3.830   5.986   1.064
 9454SOL     OW29260   2.130   2.272   5.913
 9454SOL    HW129261   2.187   2.275   5.995
 9454SOL    HW229262   2.152   2.350   5.855
 9455SOL     OW29263   1.853   2.425   2.123
 9455SOL    HW129264   1.819   2.360   2.055
 9455SOL    HW229265   1.775   2.464   2.173
 9456SOL     OW29266   1.148   3.099   0.152
 9456SOL    HW129267   1.203   3.148   0.220
 9456SOL    HW229268   1.209   3.066   0.079
 9457SOL     OW29269   6.032   3.838   0.091
 9457SOL    HW129270   5.935   3.818   0.082
 9457SOL    HW229271   6.057   3.839   0.188
 9458SOL     OW29272   1.256   5.811   4.162
 9458SOL    HW129273   1.307   5.844   4.242
 9458SOL    HW229274   1.266   5.876   4.087
 9459SOL     OW29275   4.341   6.561   0.608
 9459SOL    HW129276   4.289   6.475   0.613
 9459SOL    HW229277   4.437   6.541   0.588
 9460SOL     OW29278   1.737   3.866   5.525
 9460SOL    HW129279   1.650   3.852   5.571
 9460SOL    HW229280   1.806   3.893   5.592
 9461SOL     OW29281   1.375   0.290   2.718
 9461SOL    HW129282   1.325   0.254   2.796
 9461SOL    HW229283   1.334   0.376   2.688
 9462SOL     OW29284   0.585   3.195   3.721
 9462SOL    HW129285   0.533   3.254   3.784
 9462SOL    HW229286   0.655   3.249   3.675
 9463SOL     OW29287   5.213   2.246   6.112
 9463SOL    HW129288   5.155   2.296   6.047
 9463SOL    HW229289   5.282   2.194   6.062
 9464SOL     OW29290   4.182   6.644   6.551
 9464SOL    HW129291   4.186   6.651   6.651
 9464SOL    HW229292   4.219   6.556   6.522
 9465SOL     OW29293   4.335   6.126   4.217
 9465SOL    HW129294   4.359   6.038   4.259
 9465SOL    HW229295   4.238   6.145   4.230
 9466SOL     OW29296   3.392   1.966   6.658
 9466SOL    HW129297   3.457   2.040   6.677
 9466SOL    HW229298   3.320   1.967   6.727
 9467SOL     OW29299   1.348   2.905   2.210
 9467SOL    HW129300   1.405   2.964   2.268
 9467SOL    HW229301   1.353   2.938   2.115
 9468SOL     OW29302   0.392   2.420   5.844
 9468SOL    HW129303   0.327   2.357   5.887
 9468SOL    HW229304   0.481   2.412   5.888
 9469SOL     OW29305   0.399   4.120   2.597
 9469SOL    HW129306   0.419   4.184   2.524
 9469SOL    HW229307   0.303   4.094   2.593
 9470SOL     OW29308   6.714   3.776   1.808
 9470SOL    HW129309   6.680   3.860   1.850
 9470SOL    HW229310   6.793   3.798   1.750
 9471SOL     OW29311   0.052   2.553   5.799
 9471SOL    HW129312   0.033   2.519   5.890
 9471SOL    HW229313   0.137   2.606   5.799
 9472SOL     OW29314   6.668   2.362   5.290
 9472SOL    HW129315   6.713   2.272   5.295
 9472SOL    HW229316   6.721   2.422   5.230
 9473SOL     OW29317   2.389   5.162   5.413
 9473SOL    HW129318   2.352   5.072   5.391
 9473SOL    HW229319   2.442   5.197   5.335
 9474SOL     OW29320   3.847   5.576   3.806
 9474SOL    HW129321   3.823   5.666   3.843
 9474SOL    HW229322   3.922   5.537   3.861
 9475SOL     OW29323   2.076   3.348   1.319
 9475SOL    HW129324   2.112   3.435   1.353
 9475SOL    HW229325   2.044   3.292   1.396
 9476SOL     OW29326   2.521   3.597   5.579
 9476SOL    HW129327   2.613   3.570   5.552
 9476SOL    HW229328   2.486   3.664   5.514
 9477SOL     OW29329   1.122   2.073   0.351
 9477SOL    HW129330   1.133   2.172   0.342
 9477SOL    HW229331   1.050   2.054   0.418
 9478SOL     OW29332   5.570   3.590   6.324
 9478SOL    HW129333   5.560   3.598   6.225
 9478SOL    HW229334   5.649   3.643   6.354
 9479SOL     OW29335   5.507   4.558   5.205
 9479SOL    HW129336   5.495   4.532   5.301
 9479SOL    HW229337   5.603   4.544   5.178
 9480SOL     OW29338   6.849   3.407   6.412
 9480SOL    HW129339   6.927   3.429   6.469
 9480SOL    HW229340   6.764   3.422   6.464
 9481SOL     OW29341   0.167   2.565   2.702
 9481SOL    HW129342   0.200   2.571   2.608
 9481SOL    HW229343   0.068   2.551   2.702
 9482SOL     OW29344   4.604   1.052   2.028
 9482SOL    HW129345   4.559   0.998   1.957
 9482SOL    HW229346   4.579   1.016   2.118
 9483SOL     OW29347   1.493   1.007   0.674
 9483SOL    HW129348   1.508   1.009   0.773
 9483SOL    HW229349   1.516   1.097   0.636
 9484SOL     OW29350   6.147   0.351   3.598
 9484SOL    HW129351   6.230   0.340   3.653
 9484SOL    HW229352   6.164   0.414   3.523
 9485SOL     OW29353   0.329   0.001   2.993
 9485SOL    HW129354   0.420   0.019   3.030
 9485SOL    HW229355   0.262   0.058   3.039
 9486SOL     OW29356   3.009   6.997   2.069
 9486SOL    HW129357   3.070   0.047   2.026
 9486SOL    HW229358   2.946   0.027   2.131
 9487SOL     OW29359   3.219   3.199   3.157
 9487SOL    HW129360   3.238   3.297   3.164
 9487SOL    HW229361   3.298   3.147   3.191
 9488SOL     OW29362   1.793   0.548   1.711
 9488SOL    HW129363   1.810   0.519   1.806
 9488SOL    HW229364   1.748   0.474   1.661
 9489SOL     OW29365   2.986   4.613   0.421
 9489SOL    HW129366   3.022   4.700   0.456
 9489SOL    HW229367   3.012   4.539   0.482
 9490SOL     OW29368   4.861   1.453   0.337
 9490SOL    HW129369   4.777   1.486   0.296
 9490SOL    HW229370   4.932   1.447   0.267
 9491SOL     OW29371   5.577   6.005   6.138
 9491SOL    HW129372   5.507   6.025   6.207
 9491SOL    HW229373   5.658   5.967   6.183
 9492SOL     OW29374   2.499   5.091   1.238
 9492SOL    HW129375   2.566   5.018   1.243
 9492SOL    HW229376   2.470   5.116   1.330
 9493SOL     OW29377   5.295   6.251   2.772
 9493SOL    HW129378   5.350   6.297   2.843
 9493SOL    HW229379   5.201   6.283   2.777
 9494SOL     OW29380   3.880   3.274   6.571
 9494SOL    HW129381   3.865   3.243   6.665
 9494SOL    HW229382   3.894   3.373   6.570
 9495SOL     OW29383   5.467   2.665   4.332
 9495SOL    HW129384   5.564   2.647   4.312
 9495SOL    HW229385   5.426   2.715   4.257
 9496SOL     OW29386   6.595   4.432   7.016
 9496SOL    HW129387   6.651   4.359   0.038
 9496SOL    HW229388   6.499   4.405   0.002
 9497SOL     OW29389   1.267   6.381   6.029
 9497SOL    HW129390   1.294   6.404   6.123
 9497SOL    HW229391   1.192   6.315   6.031
 9498SOL     OW29392   4.459   6.860   6.718
 9498SOL    HW129393   4.378   6.817   6.758
 9498SOL    HW229394   4.485   6.812   6.634
 9499SOL     OW29395   4.922   3.929   5.778
 9499SOL    HW129396   4.917   3.919   5.878
 9499SOL    HW229397   4.891   3.844   5.735
 9500SOL     OW29398   4.659   6.016   0.947
 9500SOL    HW129399   4.675   6.114   0.961
 9500SOL    HW229400   4.654   5.997   0.850
 9501SOL     OW29401   3.310   1.602   5.117
 9501SOL    HW129402   3.272   1.531   5.176
 9501SOL    HW229403   3.409   1.595   5.115
 9502SOL     OW29404   3.614   3.255   5.903
 9502SOL    HW129405   3.541   3.220   5.962
 9502SOL    HW229406   3.574   3.305   5.827
 9503SOL     OW29407   1.262   6.968   1.831
 9503SOL    HW129408   1.336   6.959   1.764
 9503SOL    HW229409   1.263   6.889   1.892
 9504SOL     OW29410   0.251   3.001   0.656
 9504SOL    HW129411   0.262   2.902   0.660
 9504SOL    HW229412   0.340   3.045   0.664
 9505SOL     OW29413   5.190   3.231   3.213
 9505SOL    HW129414   5.150   3.238   3.121
 9505SOL    HW229415   5.135   3.284   3.277
 9506SOL     OW29416   6.330   2.366   1.403
 9506SOL    HW129417   6.421   2.351   1.364
 9506SOL    HW229418   6.285   2.441   1.355
 9507SOL     OW29419   1.310   2.948   5.133
 9507SOL    HW129420   1.278   3.015   5.200
 9507SOL    HW229421   1.399   2.975   5.097
 9508SOL     OW29422   4.752   1.203   5.754
 9508SOL    HW129423   4.772   1.290   5.708
 9508SOL    HW229424   4.836   1.168   5.795
 9509SOL     OW29425   3.457   0.042   6.128
 9509SOL    HW129426   3.475   0.048   6.030
 9509SOL    HW229427   3.469   6.964   6.159
 9510SOL     OW29428   6.679   4.037   2.989
 9510SOL    HW129429   6.669   4.099   3.067
 9510SOL    HW229430   6.610   4.058   2.920
 9511SOL     OW29431   2.199   1.455   1.406
 9511SOL    HW129432   2.125   1.522   1.417
 9511SOL    HW229433   2.172   1.369   1.449
 9512SOL     OW29434   1.443   4.155   5.312
 9512SOL    HW129435   1.417   4.235   5.258
 9512SOL    HW229436   1.477   4.185   5.401
 9513SOL     OW29437   2.470   4.533   4.392
 9513SOL    HW129438   2.451   4.442   4.355
 9513SOL    HW229439   2.399   4.558   4.456
 9514SOL     OW29440   3.146   2.892   5.556
 9514SOL    HW129441   3.188   2.945   5.482
 9514SOL    HW229442   3.116   2.804   5.519
 9515SOL     OW29443   2.337   5.563   5.745
 9515SOL    HW129444   2.369   5.491   5.683
 9515SOL    HW229445   2.287   5.632   5.693
 9516SOL     OW29446   6.095   4.157   4.810
 9516SOL    HW129447   6.044   4.076   4.782
 9516SOL    HW229448   6.144   4.194   4.732
 9517SOL     OW29449   0.872   5.017   2.760
 9517SOL    HW129450   0.907   5.061   2.843
 9517SOL    HW229451   0.780   5.051   2.741
 9518SOL     OW29452   1.332   2.948   5.797
 9518SOL    HW129453   1.350   2.956   5.699
 9518SOL    HW229454   1.415   2.919   5.845
 9519SOL     OW29455   3.197   3.638   3.518
 9519SOL    HW129456   3.122   3.605   3.576
 9519SOL    HW229457   3.167   3.638   3.422
 9520SOL     OW29458   5.328   0.967   6.618
 9520SOL    HW129459   5.239   1.001   6.649
 9520SOL    HW229460   5.392   0.965   6.696
 9521SOL     OW29461   3.935   1.325   1.118
 9521SOL    HW129462   4.024   1.289   1.148
 9521SOL    HW229463   3.949   1.393   1.046
 9522SOL     OW29464   3.753   6.892   1.058
 9522SOL    HW129465   3.758   6.803   1.013
 9522SOL    HW229466   3.769   6.880   1.156
 9523SOL     OW29467   2.669   4.709   4.736
 9523SOL    HW129468   2.677   4.694   4.638
 9523SOL    HW229469   2.624   4.631   4.779
 9524SOL     OW29470   1.908   3.877   0.295
 9524SOL    HW129471   1.978   3.940   0.329
 9524SOL    HW229472   1.947   3.817   0.225
 9525SOL     OW29473   2.543   2.952   6.529
 9525SOL    HW129474   2.466   3.001   6.570
 9525SOL    HW229475   2.521   2.927   6.435
 9526SOL     OW29476   5.448   4.928   6.006
 9526SOL    HW129477   5.523   4.908   6.068
 9526SOL    HW229478   5.365   4.945   6.058
 9527SOL     OW29479   3.831   6.531   4.436
 9527SOL    HW129480   3.790   6.575   4.515
 9527SOL    HW229481   3.926   6.508   4.457
 9528SOL     OW29482   4.791   2.415   0.383
 9528SOL    HW129483   4.765   2.327   0.342
 9528SOL    HW229484   4.803   2.483   0.311
 9529SOL     OW29485   5.810   0.394   2.186
 9529SOL    HW129486   5.729   0.376   2.130
 9529SOL    HW229487   5.795   0.362   2.279
 9530SOL     OW29488   1.179   5.709   3.536
 9530SOL    HW129489   1.229   5.696   3.621
 9530SOL    HW229490   1.094   5.759   3.555
 9531SOL     OW29491   3.077   6.031   1.604
 9531SOL    HW129492   3.173   6.011   1.628
 9531SOL    HW229493   3.017   5.996   1.677
 9532SOL     OW29494   6.907   5.165   4.629
 9532SOL    HW129495   6.940   5.255   4.600
 9532SOL    HW229496   6.969   5.095   4.594
 9533SOL     OW29497   0.897   4.148   3.850
 9533SOL    HW129498   0.939   4.083   3.913
 9533SOL    HW229499   0.968   4.204   3.808
 9534SOL     OW29500   4.771   5.816   3.927
 9534SOL    HW129501   4.686   5.841   3.881
 9534SOL    HW229502   4.773   5.856   4.018
 9535SOL     OW29503   0.242   1.698   4.423
 9535SOL    HW129504   0.231   1.780   4.479
 9535SOL    HW229505   0.294   1.629   4.473
 9536SOL     OW29506   3.922   3.677   5.604
 9536SOL    HW129507   3.969   3.591   5.586
 9536SOL    HW229508   3.858   3.696   5.529
 9537SOL     OW29509   0.074   0.918   3.984
 9537SOL    HW129510   0.060   0.923   4.083
 9537SOL    HW229511   0.149   0.979   3.959
 9538SOL     OW29512   5.415   0.705   5.179
 9538SOL    HW129513   5.426   0.639   5.253
 9538SOL    HW229514   5.504   0.727   5.140
 9539SOL     OW29515   3.574   4.010   2.172
 9539SOL    HW129516   3.506   4.021   2.099
 9539SOL    HW229517   3.530   4.023   2.261
 9540SOL     OW29518   4.191   4.863   3.088
 9540SOL    HW129519   4.229   4.950   3.057
 9540SOL    HW229520   4.092   4.863   3.076
 9541SOL     OW29521   1.578   5.758   5.726
 9541SOL    HW129522   1.527   5.676   5.754
 9541SOL    HW229523   1.547   5.786   5.636
 9542SOL     OW29524   6.279   3.832   2.769
 9542SOL    HW129525   6.294   3.747   2.819
 9542SOL    HW229526   6.225   3.813   2.687
 9543SOL     OW29527   2.170   0.499   5.607
 9543SOL    HW129528   2.215   0.480   5.694
 9543SOL    HW229529   2.233   0.479   5.532
 9544SOL     OW29530   6.463   3.330   4.338
 9544SOL    HW129531   6.465   3.428   4.322
 9544SOL    HW229532   6.388   3.289   4.287
 9545SOL     OW29533   6.674   4.007   1.943
 9545SOL    HW129534   6.738   4.083   1.946
 9545SOL    HW229535   6.581   4.040   1.962
 9546SOL     OW29536   2.851   2.890   0.966
 9546SOL    HW129537   2.911   2.907   1.044
 9546SOL    HW229538   2.795   2.809   0.984
 9547SOL     OW29539   4.323   0.503   3.269
 9547SOL    HW129540   4.292   0.597   3.260
 9547SOL    HW229541   4.347   0.485   3.365
 9548SOL     OW29542   0.425   4.846   5.829
 9548SOL    HW129543   0.401   4.894   5.745
 9548SOL    HW229544   0.518   4.869   5.857
 9549SOL     OW29545   4.768   1.209   1.583
 9549SOL    HW129546   4.808   1.117   1.588
 9549SOL    HW229547   4.777   1.253   1.673
 9550SOL     OW29548   6.685   2.550   1.516
 9550SOL    HW129549   6.618   2.623   1.524
 9550SOL    HW229550   6.758   2.564   1.584
 9551SOL     OW29551   6.034   2.880   6.480
 9551SOL    HW129552   5.946   2.919   6.454
 9551SOL    HW229553   6.054   2.902   6.576
 9552SOL     OW29554   2.889   1.875   6.713
 9552SOL    HW129555   2.878   1.924   6.626
 9552SOL    HW229556   2.885   1.776   6.695
 9553SOL     OW29557   5.530   1.219   0.112
 9553SOL    HW129558   5.556   1.277   0.034
 9553SOL    HW229559   5.610   1.171   0.146
 9554SOL     OW29560   2.726   1.071   4.946
 9554SOL    HW129561   2.768   1.157   4.919
 9554SOL    HW229562   2.632   1.068   4.914
 9555SOL     OW29563   0.402   6.364   3.384
 9555SOL    HW129564   0.335   6.290   3.396
 9555SOL    HW229565   0.438   6.362   3.291
 9556SOL     OW29566   2.125   4.166   6.414
 9556SOL    HW129567   2.118   4.148   6.512
 9556SOL    HW229568   2.216   4.200   6.393
 9557SOL     OW29569   5.833   0.872   0.926
 9557SOL    HW129570   5.743   0.877   0.969
 9557SOL    HW229571   5.864   0.964   0.903
 9558SOL     OW29572   4.877   6.123   5.808
 9558SOL    HW129573   4.890   6.220   5.789
 9558SOL    HW229574   4.944   6.092   5.875
 9559SOL     OW29575   2.064   4.445   0.549
 9559SOL    HW129576   2.132   4.493   0.494
 9559SOL    HW229577   1.998   4.511   0.584
 9560SOL     OW29578   2.784   0.255   2.220
 9560SOL    HW129579   2.765   0.331   2.157
 9560SOL    HW229580   2.783   0.289   2.314
 9561SOL     OW29581   6.899   0.810   0.351
 9561SOL    HW129582   6.979   0.842   0.401
 9561SOL    HW229583   6.927   0.774   0.262
 9562SOL     OW29584   1.756   6.159   2.827
 9562SOL    HW129585   1.779   6.087   2.893
 9562SOL    HW229586   1.662   6.189   2.843
 9563SOL     OW29587   0.780   5.818   6.574
 9563SOL    HW129588   0.868   5.789   6.612
 9563SOL    HW229589   0.793   5.847   6.479
 9564SOL     OW29590   1.154   1.242   0.983
 9564SOL    HW129591   1.224   1.287   0.927
 9564SOL    HW229592   1.162   1.143   0.973
 9565SOL     OW29593   2.078   2.313   4.399
 9565SOL    HW129594   2.013   2.340   4.329
 9565SOL    HW229595   2.138   2.241   4.363
 9566SOL     OW29596   3.020   0.230   6.811
 9566SOL    HW129597   2.975   0.261   6.895
 9566SOL    HW229598   2.994   0.135   6.793
 9567SOL     OW29599   0.509   4.468   1.046
 9567SOL    HW129600   0.431   4.408   1.031
 9567SOL    HW229601   0.514   4.494   1.142
 9568SOL     OW29602   4.368   1.553   5.943
 9568SOL    HW129603   4.353   1.512   6.033
 9568SOL    HW229604   4.295   1.523   5.881
 9569SOL     OW29605   5.958   0.292   1.850
 9569SOL    HW129606   5.916   0.243   1.927
 9569SOL    HW229607   5.888   0.315   1.783
 9570SOL     OW29608   0.908   3.603   2.324
 9570SOL    HW129609   0.823   3.575   2.279
 9570SOL    HW229610   0.893   3.612   2.422
 9571SOL     OW29611   1.929   1.423   6.544
 9571SOL    HW129612   1.943   1.370   6.628
 9571SOL    HW229613   1.987   1.504   6.545
 9572SOL     OW29614   2.247   4.842   4.391
 9572SOL    HW129615   2.278   4.794   4.473
 9572SOL    HW229616   2.183   4.784   4.341
 9573SOL     OW29617   5.567   6.947   4.636
 9573SOL    HW129618   5.607   6.989   4.555
 9573SOL    HW229619   5.615   6.862   4.658
 9574SOL     OW29620   4.593   3.068   0.590
 9574SOL    HW129621   4.533   3.138   0.628
 9574SOL    HW229622   4.585   2.984   0.644
 9575SOL     OW29623   5.370   0.049   1.875
 9575SOL    HW129624   5.294   0.093   1.827
 9575SOL    HW229625   5.456   0.095   1.852
 9576SOL     OW29626   1.223   1.227   5.544
 9576SOL    HW129627   1.257   1.140   5.510
 9576SOL    HW229628   1.157   1.211   5.618
 9577SOL     OW29629   6.716   5.062   3.190
 9577SOL    HW129630   6.808   5.075   3.227
 9577SOL    HW229631   6.649   5.075   3.263
 9578SOL     OW29632   2.126   3.262   2.978
 9578SOL    HW129633   2.079   3.190   2.926
 9578SOL    HW229634   2.212   3.225   3.015
 9579SOL     OW29635   5.546   5.334   2.252
 9579SOL    HW129636   5.573   5.428   2.235
 9579SOL    HW229637   5.490   5.301   2.175
 9580SOL     OW29638   4.844   3.916   3.812
 9580SOL    HW129639   4.773   3.940   3.879
 9580SOL    HW229640   4.873   3.822   3.827
 9581SOL     OW29641   5.040   1.961   6.215
 9581SOL    HW129642   5.102   1.913   6.276
 9581SOL    HW229643   5.030   2.056   6.244
 9582SOL     OW29644   4.514   6.561   4.902
 9582SOL    HW129645   4.584   6.507   4.950
 9582SOL    HW229646   4.558   6.613   4.829
 9583SOL     OW29647   2.833   5.195   1.398
 9583SOL    HW129648   2.907   5.216   1.334
 9583SOL    HW229649   2.756   5.256   1.379
 9584SOL     OW29650   2.423   5.137   4.319
 9584SOL    HW129651   2.446   5.202   4.392
 9584SOL    HW229652   2.489   5.062   4.319
 9585SOL     OW29653   4.395   6.801   0.825
 9585SOL    HW129654   4.480   6.809   0.877
 9585SOL    HW229655   4.417   6.791   0.728
 9586SOL     OW29656   3.266   5.261   3.169
 9586SOL    HW129657   3.360   5.242   3.196
 9586SOL    HW229658   3.265   5.290   3.073
 9587SOL     OW29659   3.690   6.649   6.958
 9587SOL    HW129660   3.768   6.638   6.896
 9587SOL    HW229661   3.657   6.559   6.986
 9588SOL     OW29662   6.536   5.865   0.212
 9588SOL    HW129663   6.621   5.814   0.225
 9588SOL    HW229664   6.528   5.894   0.116
 9589SOL     OW29665   1.398   1.961   6.277
 9589SOL    HW129666   1.324   1.985   6.340
 9589SOL    HW229667   1.448   2.044   6.250
 9590SOL     OW29668   6.445   0.723   1.172
 9590SOL    HW129669   6.351   0.755   1.157
 9590SOL    HW229670   6.456   0.696   1.267
 9591SOL     OW29671   5.105   0.732   0.049
 9591SOL    HW129672   5.027   0.795   0.055
 9591SOL    HW229673   5.087   0.651   0.104
 9592SOL     OW29674   2.638   5.980   5.615
 9592SOL    HW129675   2.590   6.053   5.566
 9592SOL    HW229676   2.641   5.898   5.559
 9593SOL     OW29677   2.169   2.226   3.773
 9593SOL    HW129678   2.131   2.312   3.741
 9593SOL    HW229679   2.141   2.210   3.868
 9594SOL     OW29680   0.184   6.588   3.372
 9594SOL    HW129681   0.125   6.614   3.295
 9594SOL    HW229682   0.223   6.497   3.354
 9595SOL     OW29683   0.371   3.643   3.540
 9595SOL    HW129684   0.308   3.717   3.517
 9595SOL    HW229685   0.385   3.639   3.639
 9596SOL     OW29686   1.867   6.825   0.762
 9596SOL    HW129687   1.788   6.781   0.720
 9596SOL    HW229688   1.947   6.814   0.703
 9597SOL     OW29689   0.767   3.698   2.006
 9597SOL    HW129690   0.840   3.641   1.968
 9597SOL    HW229691   0.806   3.763   2.071
 9598SOL     OW29692   2.192   4.369   4.109
 9598SOL    HW129693   2.110   4.334   4.062
 9598SOL    HW229694   2.244   4.426   4.046
 9599SOL     OW29695   4.630   7.015   4.594
 9599SOL    HW129696   4.610   7.001   4.691
 9599SOL    HW229697   4.727   6.993   4.578
 9600SOL     OW29698   4.014   0.931   0.192
 9600SOL    HW129699   3.916   0.950   0.196
 9600SOL    HW229700   4.029   0.834   0.210
 9601SOL     OW29701   0.615   3.341   0.221
 9601SOL    HW129702   0.693   3.394   0.187
 9601SOL    HW229703   0.536   3.401   0.232
 9602SOL     OW29704   4.462   4.341   5.599
 9602SOL    HW129705   4.364   4.337   5.619
 9602SOL    HW229706   4.475   4.352   5.500
 9603SOL     OW29707   5.016   6.965   5.958
 9603SOL    HW129708   4.981   0.040   5.978
 9603SOL    HW229709   5.114   6.970   5.939
 9604SOL     OW29710   4.834   6.944   1.207
 9604SOL    HW129711   4.833   0.004   1.270
 9604SOL    HW229712   4.882   6.866   1.249
 9605SOL     OW29713   5.378   5.004   1.671
 9605SOL    HW129714   5.408   5.088   1.627
 9605SOL    HW229715   5.282   5.014   1.699
 9606SOL     OW29716   1.265   1.518   6.556
 9606SOL    HW129717   1.201   1.531   6.631
 9606SOL    HW229718   1.218   1.476   6.478
 9607SOL     OW29719   1.894   2.613   6.863
 9607SOL    HW129720   1.944   2.536   6.823
 9607SOL    HW229721   1.805   2.622   6.818
 9608SOL     OW29722   6.023   2.275   4.540
 9608SOL    HW129723   5.960   2.304   4.468
 9608SOL    HW229724   6.062   2.186   4.517
 9609SOL     OW29725   4.892   3.154   0.637
 9609SOL    HW129726   4.922   3.196   0.552
 9609SOL    HW229727   4.797   3.182   0.656
 9610SOL     OW29728   1.008   4.806   2.979
 9610SOL    HW129729   1.057   4.851   3.054
 9610SOL    HW229730   0.986   4.873   2.908
 9611SOL     OW29731   2.361   0.782   0.617
 9611SOL    HW129732   2.316   0.870   0.630
 9611SOL    HW229733   2.454   0.786   0.652
 9612SOL     OW29734   0.374   2.024   3.620
 9612SOL    HW129735   0.395   2.000   3.715
 9612SOL    HW229736   0.329   2.113   3.618
 9613SOL     OW29737   6.207   4.431   4.074
 9613SOL    HW129738   6.110   4.438   4.049
 9613SOL    HW229739   6.221   4.348   4.129
 9614SOL     OW29740   3.963   2.188   2.984
 9614SOL    HW129741   3.951   2.089   2.979
 9614SOL    HW229742   3.929   2.230   2.900
 9615SOL     OW29743   1.475   4.354   1.110
 9615SOL    HW129744   1.572   4.370   1.092
 9615SOL    HW229745   1.432   4.313   1.030
 9616SOL     OW29746   4.457   3.769   6.097
 9616SOL    HW129747   4.440   3.766   6.195
 9616SOL    HW229748   4.383   3.721   6.049
 9617SOL     OW29749   1.593   3.487   2.554
 9617SOL    HW129750   1.538   3.404   2.564
 9617SOL    HW229751   1.549   3.549   2.489
 9618SOL     OW29752   2.476   2.351   0.522
 9618SOL    HW129753   2.446   2.256   0.535
 9618SOL    HW229754   2.572   2.353   0.496
 9619SOL     OW29755   2.259   0.470   0.021
 9619SOL    HW129756   2.271   0.371   0.019
 9619SOL    HW229757   2.347   0.514   0.041
 9620SOL     OW29758   5.392   1.208   4.830
 9620SOL    HW129759   5.366   1.142   4.760
 9620SOL    HW229760   5.466   1.171   4.886
 9621SOL     OW29761   1.617   4.134   3.129
 9621SOL    HW129762   1.616   4.053   3.070
 9621SOL    HW229763   1.545   4.125   3.198
 9622SOL     OW29764   4.514   0.255   0.113
 9622SOL    HW129765   4.449   0.179   0.123
 9622SOL    HW229766   4.532   0.271   0.016
 9623SOL     OW29767   1.586   3.575   6.826
 9623SOL    HW129768   1.533   3.545   6.905
 9623SOL    HW229769   1.660   3.635   6.856
 9624SOL     OW29770   6.764   3.122   3.724
 9624SOL    HW129771   6.810   3.070   3.652
 9624SOL    HW229772   6.771   3.073   3.811
 9625SOL     OW29773   5.746   6.105   1.674
 9625SOL    HW129774   5.653   6.069   1.667
 9625SOL    HW229775   5.756   6.158   1.758
 9626SOL     OW29776   3.380   0.528   0.335
 9626SOL    HW129777   3.419   0.465   0.268
 9626SOL    HW229778   3.367   0.618   0.292
 9627SOL     OW29779   0.820   0.126   0.116
 9627SOL    HW129780   0.844   0.208   0.064
 9627SOL    HW229781   0.889   0.110   0.186
 9628SOL     OW29782   3.579   0.062   1.874
 9628SOL    HW129783   3.497   0.019   1.912
 9628SOL    HW229784   3.567   0.161   1.874
 9629SOL     OW29785   2.479   0.121   1.044
 9629SOL    HW129786   2.421   0.100   0.966
 9629SOL    HW229787   2.432   0.187   1.104
 9630SOL     OW29788   0.326   2.296   6.512
 9630SOL    HW129789   0.361   2.275   6.604
 9630SOL    HW229790   0.244   2.242   6.495
 9631SOL     OW29791   6.794   5.918   0.338
 9631SOL    HW129792   6.798   5.835   0.282
 9631SOL    HW229793   6.732   5.984   0.295
 9632SOL     OW29794   1.570   5.782   2.671
 9632SOL    HW129795   1.669   5.792   2.660
 9632SOL    HW229796   1.547   5.685   2.676
 9633SOL     OW29797   6.960   5.313   6.720
 9633SOL    HW129798   6.934   5.335   6.626
 9633SOL    HW229799   6.934   5.219   6.741
 9634SOL     OW29800   0.142   5.862   5.882
 9634SOL    HW129801   0.201   5.923   5.829
 9634SOL    HW229802   0.093   5.916   5.951
 9635SOL     OW29803   7.004   5.960   5.444
 9635SOL    HW129804   0.022   5.899   5.373
 9635SOL    HW229805   6.905   5.949   5.452
 9636SOL     OW29806   4.489   1.755   0.561
 9636SOL    HW129807   4.549   1.833   0.574
 9636SOL    HW229808   4.535   1.672   0.591
 9637SOL     OW29809   2.230   0.719   6.643
 9637SOL    HW129810   2.329   0.710   6.630
 9637SOL    HW229811   2.203   0.666   6.724
 9638SOL     OW29812   6.672   2.425   6.312
 9638SOL    HW129813   6.768   2.435   6.335
 9638SOL    HW229814   6.654   2.332   6.281
 9639SOL     OW29815   3.544   0.430   2.567
 9639SOL    HW129816   3.534   0.529   2.563
 9639SOL    HW229817   3.554   0.401   2.662
 9640SOL     OW29818   1.358   1.746   3.097
 9640SOL    HW129819   1.348   1.835   3.051
 9640SOL    HW229820   1.447   1.706   3.073
 9641SOL     OW29821   5.384   5.626   6.464
 9641SOL    HW129822   5.473   5.590   6.494
 9641SOL    HW229823   5.385   5.635   6.364
 9642SOL     OW29824   3.409   6.654   3.180
 9642SOL    HW129825   3.318   6.689   3.202
 9642SOL    HW229826   3.465   6.728   3.142
 9643SOL     OW29827   4.255   4.919   2.581
 9643SOL    HW129828   4.226   4.832   2.542
 9643SOL    HW229829   4.307   4.902   2.665
 9644SOL     OW29830   2.293   1.007   0.728
 9644SOL    HW129831   2.199   0.992   0.759
 9644SOL    HW229832   2.357   0.982   0.801
 9645SOL     OW29833   2.875   5.422   5.062
 9645SOL    HW129834   2.827   5.336   5.042
 9645SOL    HW229835   2.809   5.497   5.065
 9646SOL     OW29836   3.414   5.409   3.900
 9646SOL    HW129837   3.319   5.394   3.874
 9646SOL    HW229838   3.432   5.366   3.989
 9647SOL     OW29839   6.694   3.058   6.401
 9647SOL    HW129840   6.757   3.104   6.339
 9647SOL    HW229841   6.692   2.960   6.381
 9648SOL     OW29842   4.581   3.597   0.924
 9648SOL    HW129843   4.662   3.553   0.887
 9648SOL    HW229844   4.531   3.532   0.981
 9649SOL     OW29845   2.059   5.088   1.914
 9649SOL    HW129846   2.099   5.137   1.992
 9649SOL    HW229847   1.961   5.111   1.908
 9650SOL     OW29848   1.307   0.515   1.321
 9650SOL    HW129849   1.299   0.556   1.411
 9650SOL    HW229850   1.334   0.585   1.254
 9651SOL     OW29851   0.468   1.860   0.113
 9651SOL    HW129852   0.398   1.858   0.184
 9651SOL    HW229853   0.556   1.831   0.152
 9652SOL     OW29854   1.232   5.045   1.620
 9652SOL    HW129855   1.170   4.972   1.652
 9652SOL    HW229856   1.327   5.017   1.634
 9653SOL     OW29857   5.983   6.060   4.325
 9653SOL    HW129858   5.903   6.015   4.287
 9653SOL    HW229859   6.004   6.022   4.416
 9654SOL     OW29860   2.049   3.059   2.380
 9654SOL    HW129861   2.126   3.041   2.441
 9654SOL    HW229862   2.054   3.153   2.347
 9655SOL     OW29863   6.305   2.050   0.028
 9655SOL    HW129864   6.282   2.021   6.952
 9655SOL    HW229865   6.229   2.104   0.066
 9656SOL     OW29866   2.548   1.803   3.074
 9656SOL    HW129867   2.606   1.786   3.154
 9656SOL    HW229868   2.574   1.890   3.033
 9657SOL     OW29869   0.035   0.546   4.915
 9657SOL    HW129870   0.055   0.630   4.866
 9657SOL    HW229871   6.989   0.565   4.991
 9658SOL     OW29872   5.950   1.305   2.471
 9658SOL    HW129873   5.941   1.403   2.452
 9658SOL    HW229874   5.955   1.291   2.570
 9659SOL     OW29875   1.419   4.819   6.614
 9659SOL    HW129876   1.425   4.912   6.649
 9659SOL    HW229877   1.358   4.766   6.673
 9660SOL     OW29878   1.133   4.911   0.401
 9660SOL    HW129879   1.143   4.860   0.316
 9660SOL    HW229880   1.036   4.929   0.418
 9661SOL     OW29881   4.175   0.718   0.427
 9661SOL    HW129882   4.148   0.627   0.394
 9661SOL    HW229883   4.098   0.760   0.474
 9662SOL     OW29884   5.780   2.323   3.981
 9662SOL    HW129885   5.719   2.258   3.935
 9662SOL    HW229886   5.732   2.409   3.995
 9663SOL     OW29887   2.842   5.701   2.570
 9663SOL    HW129888   2.924   5.750   2.540
 9663SOL    HW229889   2.846   5.606   2.537
 9664SOL     OW29890   3.004   6.170   1.353
 9664SOL    HW129891   3.033   6.130   1.440
 9664SOL    HW229892   3.052   6.256   1.338
 9665SOL     OW29893   5.560   4.202   3.658
 9665SOL    HW129894   5.614   4.276   3.618
 9665SOL    HW229895   5.539   4.134   3.587
 9666SOL     OW29896   5.986   4.558   4.815
 9666SOL    HW129897   5.963   4.603   4.728
 9666SOL    HW229898   5.935   4.473   4.823
 9667SOL     OW29899   2.988   3.859   3.215
 9667SOL    HW129900   3.051   3.935   3.229
 9667SOL    HW229901   2.930   3.848   3.296
 9668SOL     OW29902   0.275   1.622   5.201
 9668SOL    HW129903   0.283   1.721   5.214
 9668SOL    HW229904   0.218   1.584   5.275
 9669SOL     OW29905   1.928   6.567   0.042
 9669SOL    HW129906   1.892   6.498   0.106
 9669SOL    HW229907   1.908   6.658   0.077
 9670SOL     OW29908   6.362   3.965   6.717
 9670SOL    HW129909   6.285   3.911   6.683
 9670SOL    HW229910   6.396   3.926   6.802
 9671SOL     OW29911   6.746   1.084   0.183
 9671SOL    HW129912   6.846   1.079   0.181
 9671SOL    HW229913   6.711   1.036   0.264
 9672SOL     OW29914   0.701   6.658   5.446
 9672SOL    HW129915   0.693   6.628   5.351
 9672SOL    HW229916   0.636   6.607   5.503
 9673SOL     OW29917   2.442   2.679   6.037
 9673SOL    HW129918   2.404   2.654   6.126
 9673SOL    HW229919   2.422   2.606   5.971
 9674SOL     OW29920   2.420   6.266   2.168
 9674SOL    HW129921   2.376   6.352   2.194
 9674SOL    HW229922   2.351   6.204   2.131
 9675SOL     OW29923   0.038   2.196   2.260
 9675SOL    HW129924   0.131   2.171   2.233
 9675SOL    HW229925   0.011   2.279   2.212
 9676SOL     OW29926   6.816   2.854   4.449
 9676SOL    HW129927   6.897   2.872   4.505
 9676SOL    HW229928   6.756   2.789   4.496
 9677SOL     OW29929   1.676   3.488   5.643
 9677SOL    HW129930   1.675   3.548   5.723
 9677SOL    HW229931   1.627   3.404   5.664
 9678SOL     OW29932   3.748   3.520   2.851
 9678SOL    HW129933   3.693   3.602   2.867
 9678SOL    HW229934   3.689   3.447   2.814
 9679SOL     OW29935   0.671   3.930   0.956
 9679SOL    HW129936   0.574   3.926   0.934
 9679SOL    HW229937   0.718   3.989   0.890
 9680SOL     OW29938   4.893   4.971   2.897
 9680SOL    HW129939   4.934   5.053   2.938
 9680SOL    HW229940   4.838   4.997   2.817
 9681SOL     OW29941   0.861   0.899   3.949
 9681SOL    HW129942   0.837   0.836   4.023
 9681SOL    HW229943   0.828   0.863   3.862
 9682SOL     OW29944   0.925   4.221   2.435
 9682SOL    HW129945   0.879   4.159   2.371
 9682SOL    HW229946   0.911   4.188   2.528
 9683SOL     OW29947   4.294   0.016   5.327
 9683SOL    HW129948   4.229   6.983   5.271
 9683SOL    HW229949   4.280   0.115   5.314
 9684SOL     OW29950   0.683   4.390   3.531
 9684SOL    HW129951   0.736   4.458   3.582
 9684SOL    HW229952   0.591   4.425   3.515
 9685SOL     OW29953   1.615   1.915   6.563
 9685SOL    HW129954   1.601   2.000   6.613
 9685SOL    HW229955   1.546   1.848   6.591
 9686SOL     OW29956   5.709   2.668   1.949
 9686SOL    HW129957   5.738   2.698   1.858
 9686SOL    HW229958   5.788   2.662   2.009
 9687SOL     OW29959   3.182   1.076   4.609
 9687SOL    HW129960   3.095   1.040   4.642
 9687SOL    HW229961   3.206   1.158   4.662
 9688SOL     OW29962   5.443   1.713   4.534
 9688SOL    HW129963   5.540   1.714   4.512
 9688SOL    HW229964   5.402   1.628   4.501
 9689SOL     OW29965   2.582   5.314   5.229
 9689SOL    HW129966   2.604   5.402   5.186
 9689SOL    HW229967   2.617   5.239   5.173
 9690SOL     OW29968   6.454   3.750   0.210
 9690SOL    HW129969   6.478   3.835   0.256
 9690SOL    HW229970   6.524   3.681   0.229
 9691SOL     OW29971   1.530   4.842   0.690
 9691SOL    HW129972   1.566   4.931   0.664
 9691SOL    HW229973   1.432   4.851   0.709
 9692SOL     OW29974   3.137   5.267   0.445
 9692SOL    HW129975   3.195   5.186   0.448
 9692SOL    HW229976   3.191   5.346   0.415
 9693SOL     OW29977   5.921   5.618   1.463
 9693SOL    HW129978   5.828   5.629   1.498
 9693SOL    HW229979   5.924   5.649   1.368
 9694SOL     OW29980   0.965   1.627   0.255
 9694SOL    HW129981   1.062   1.651   0.268
 9694SOL    HW229982   0.929   1.586   0.339
 9695SOL     OW29983   6.563   4.799   0.254
 9695SOL    HW129984   6.593   4.853   0.175
 9695SOL    HW229985   6.463   4.802   0.261
 9696SOL     OW29986   4.065   4.061   0.326
 9696SOL    HW129987   3.995   3.994   0.353
 9696SOL    HW229988   4.029   4.153   0.337
 9697SOL     OW29989   0.539   6.007   6.512
 9697SOL    HW129990   0.569   5.949   6.588
 9697SOL    HW229991   0.454   5.972   6.474
 9698SOL     OW29992   4.904   1.587   5.440
 9698SOL    HW129993   4.829   1.652   5.456
 9698SOL    HW229994   4.990   1.637   5.432
 9699SOL     OW29995   1.290   2.278   6.716
 9699SOL    HW129996   1.314   2.209   6.783
 9699SOL    HW229997   1.194   2.268   6.689
 9700SOL     OW29998   3.628   2.886   3.458
 9700SOL    HW129999   3.690   2.961   3.482
 9700SOL    HW230000   3.677   2.819   3.402
 9701SOL     OW30001   4.739   4.735   4.165
 9701SOL    HW130002   4.684   4.737   4.081
 9701SOL    HW230003   4.834   4.758   4.143
 9702SOL     OW30004   5.483   0.308   0.627
 9702SOL    HW130005   5.403   0.351   0.668
 9702SOL    HW230006   5.505   0.223   0.675
 9703SOL     OW30007   2.743   5.769   4.389
 9703SOL    HW130008   2.773   5.768   4.293
 9703SOL    HW230009   2.812   5.817   4.444
 9704SOL     OW30010   2.330   1.808   4.105
 9704SOL    HW130011   2.294   1.716   4.091
 9704SOL    HW230012   2.255   1.874   4.101
 9705SOL     OW30013   3.799   4.117   0.628
 9705SOL    HW130014   3.746   4.153   0.705
 9705SOL    HW230015   3.781   4.172   0.547
 9706SOL     OW30016   0.152   2.705   3.487
 9706SOL    HW130017   0.208   2.696   3.404
 9706SOL    HW230018   0.059   2.676   3.467
 9707SOL     OW30019   3.102   5.287   1.617
 9707SOL    HW130020   3.056   5.207   1.656
 9707SOL    HW230021   3.195   5.261   1.590
 9708SOL     OW30022   1.765   1.918   1.608
 9708SOL    HW130023   1.823   1.868   1.672
 9708SOL    HW230024   1.726   1.854   1.541
 9709SOL     OW30025   1.655   6.387   3.618
 9709SOL    HW130026   1.579   6.444   3.649
 9709SOL    HW230027   1.693   6.337   3.695
 9710SOL     OW30028   1.317   0.219   3.619
 9710SOL    HW130029   1.383   0.288   3.590
 9710SOL    HW230030   1.247   0.261   3.676
 9711SOL     OW30031   1.653   3.361   6.325
 9711SOL    HW130032   1.705   3.320   6.400
 9711SOL    HW230033   1.704   3.439   6.287
 9712SOL     OW30034   4.946   3.295   4.646
 9712SOL    HW130035   4.941   3.205   4.604
 9712SOL    HW230036   4.905   3.292   4.737
 9713SOL     OW30037   0.246   5.297   3.110
 9713SOL    HW130038   0.257   5.208   3.154
 9713SOL    HW230039   0.149   5.316   3.096
 9714SOL     OW30040   2.714   1.899   2.428
 9714SOL    HW130041   2.693   1.957   2.349
 9714SOL    HW230042   2.752   1.813   2.395
 9715SOL     OW30043   5.957   5.890   5.998
 9715SOL    HW130044   5.966   5.813   6.061
 9715SOL    HW230045   5.860   5.914   5.988
 9716SOL     OW30046   3.119   0.757   5.987
 9716SOL    HW130047   3.108   0.658   5.994
 9716SOL    HW230048   3.211   0.779   5.956
 9717SOL     OW30049   5.671   5.175   3.416
 9717SOL    HW130050   5.575   5.191   3.392
 9717SOL    HW230051   5.686   5.076   3.424
 9718SOL     OW30052   5.432   2.997   1.873
 9718SOL    HW130053   5.512   3.034   1.825
 9718SOL    HW230054   5.350   3.044   1.842
 9719SOL     OW30055   0.223   1.309   0.135
 9719SOL    HW130056   0.257   1.239   0.073
 9719SOL    HW230057   0.295   1.377   0.150
 9720SOL     OW30058   0.653   0.669   0.717
 9720SOL    HW130059   0.749   0.671   0.746
 9720SOL    HW230060   0.646   0.619   0.631
 9721SOL     OW30061   0.391   2.582   3.578
 9721SOL    HW130062   0.307   2.631   3.554
 9721SOL    HW230063   0.461   2.600   3.509
 9722SOL     OW30064   0.062   0.321   4.768
 9722SOL    HW130065   6.986   0.307   4.731
 9722SOL    HW230066   0.065   0.407   4.819
 9723SOL     OW30067   6.332   0.531   3.942
 9723SOL    HW130068   6.321   0.517   4.041
 9723SOL    HW230069   6.328   0.443   3.895
 9724SOL     OW30070   3.928   2.680   1.743
 9724SOL    HW130071   3.912   2.779   1.747
 9724SOL    HW230072   3.859   2.638   1.684
 9725SOL     OW30073   3.685   2.998   5.833
 9725SOL    HW130074   3.773   3.010   5.786
 9725SOL    HW230075   3.641   3.087   5.845
 9726SOL     OW30076   4.887   5.867   4.609
 9726SOL    HW130077   4.804   5.912   4.577
 9726SOL    HW230078   4.862   5.782   4.656
 9727SOL     OW30079   0.847   0.700   6.723
 9727SOL    HW130080   0.798   0.651   6.795
 9727SOL    HW230081   0.787   0.768   6.682
 9728SOL     OW30082   3.207   6.197   6.382
 9728SOL    HW130083   3.224   6.275   6.322
 9728SOL    HW230084   3.142   6.135   6.338
 9729SOL     OW30085   3.199   5.218   2.672
 9729SOL    HW130086   3.182   5.245   2.577
 9729SOL    HW230087   3.223   5.121   2.675
 9730SOL     OW30088   5.220   3.782   2.760
 9730SOL    HW130089   5.129   3.803   2.725
 9730SOL    HW230090   5.263   3.711   2.704
 9731SOL     OW30091   4.993   4.855   0.921
 9731SOL    HW130092   5.042   4.768   0.923
 9731SOL    HW230093   5.056   4.928   0.894
 9732SOL     OW30094   4.691   6.229   4.790
 9732SOL    HW130095   4.672   6.280   4.874
 9732SOL    HW230096   4.777   6.262   4.750
 9733SOL     OW30097   4.792   4.817   4.427
 9733SOL    HW130098   4.884   4.784   4.446
 9733SOL    HW230099   4.765   4.791   4.335
 9734SOL     OW30100   6.247   2.142   5.904
 9734SOL    HW130101   6.264   2.157   5.807
 9734SOL    HW230102   6.150   2.120   5.918
 9735SOL     OW30103   3.101   5.013   0.744
 9735SOL    HW130104   3.151   5.086   0.792
 9735SOL    HW230105   3.018   4.991   0.795
 9736SOL     OW30106   3.608   1.653   1.292
 9736SOL    HW130107   3.528   1.595   1.309
 9736SOL    HW230108   3.603   1.689   1.199
 9737SOL     OW30109   4.300   1.614   4.563
 9737SOL    HW130110   4.274   1.704   4.597
 9737SOL    HW230111   4.219   1.566   4.528
 9738SOL     OW30112   2.483   0.587   2.106
 9738SOL    HW130113   2.437   0.612   2.191
 9738SOL    HW230114   2.540   0.664   2.075
 9739SOL     OW30115   5.355   4.411   2.352
 9739SOL    HW130116   5.448   4.446   2.343
 9739SOL    HW230117   5.349   4.321   2.309
 9740SOL     OW30118   6.842   3.026   2.993
 9740SOL    HW130119   6.888   3.039   3.081
 9740SOL    HW230120   6.778   2.949   3.000
 9741SOL     OW30121   3.604   1.987   2.479
 9741SOL    HW130122   3.622   1.897   2.517
 9741SOL    HW230123   3.682   2.017   2.424
 9742SOL     OW30124   3.812   1.616   3.574
 9742SOL    HW130125   3.877   1.678   3.617
 9742SOL    HW230126   3.839   1.597   3.480
 9743SOL     OW30127   1.272   0.932   5.575
 9743SOL    HW130128   1.200   0.863   5.570
 9743SOL    HW230129   1.326   0.918   5.658
 9744SOL     OW30130   2.671   0.102   1.442
 9744SOL    HW130131   2.728   0.124   1.363
 9744SOL    HW230132   2.592   0.164   1.444
 9745SOL     OW30133   0.602   0.759   4.785
 9745SOL    HW130134   0.617   0.803   4.874
 9745SOL    HW230135   0.671   0.688   4.772
 9746SOL     OW30136   5.944   6.892   4.448
 9746SOL    HW130137   5.999   6.829   4.393
 9746SOL    HW230138   5.999   6.925   4.525
 9747SOL     OW30139   0.148   0.105   6.190
 9747SOL    HW130140   0.228   0.140   6.142
 9747SOL    HW230141   0.166   0.011   6.220
 9748SOL     OW30142   1.608   4.345   4.824
 9748SOL    HW130143   1.622   4.247   4.818
 9748SOL    HW230144   1.658   4.382   4.902
 9749SOL     OW30145   0.387   5.378   4.576
 9749SOL    HW130146   0.465   5.324   4.608
 9749SOL    HW230147   0.313   5.317   4.547
 9750SOL     OW30148   2.510   5.408   2.409
 9750SOL    HW130149   2.457   5.491   2.429
 9750SOL    HW230150   2.595   5.410   2.462
 9751SOL     OW30151   1.080   2.107   0.688
 9751SOL    HW130152   1.079   2.182   0.754
 9751SOL    HW230153   0.986   2.075   0.672
 9752SOL     OW30154   3.374   6.788   5.828
 9752SOL    HW130155   3.420   6.870   5.862
 9752SOL    HW230156   3.442   6.727   5.787
 9753SOL     OW30157   6.708   6.743   0.063
 9753SOL    HW130158   6.632   6.720   0.124
 9753SOL    HW230159   6.763   6.661   0.046
 9754SOL     OW30160   6.837   3.469   6.788
 9754SOL    HW130161   6.759   3.466   6.725
 9754SOL    HW230162   6.874   3.377   6.799
 9755SOL     OW30163   4.043   5.631   4.966
 9755SOL    HW130164   3.966   5.647   4.904
 9755SOL    HW230165   4.047   5.706   5.033
 9756SOL     OW30166   4.506   3.166   6.282
 9756SOL    HW130167   4.457   3.192   6.199
 9756SOL    HW230168   4.575   3.236   6.304
 9757SOL     OW30169   6.279   0.932   3.944
 9757SOL    HW130170   6.355   0.872   3.969
 9757SOL    HW230171   6.193   0.893   3.977
 9758SOL     OW30172   3.338   0.764   0.207
 9758SOL    HW130173   3.392   0.820   0.144
 9758SOL    HW230174   3.278   0.823   0.261
 9759SOL     OW30175   2.887   5.944   1.804
 9759SOL    HW130176   2.832   5.861   1.795
 9759SOL    HW230177   2.829   6.024   1.784
 9760SOL     OW30178   5.176   4.158   6.606
 9760SOL    HW130179   5.133   4.245   6.582
 9760SOL    HW230180   5.137   4.085   6.550
 9761SOL     OW30181   4.898   5.405   2.646
 9761SOL    HW130182   4.829   5.444   2.708
 9761SOL    HW230183   4.962   5.349   2.699
 9762SOL     OW30184   3.428   0.800   2.171
 9762SOL    HW130185   3.370   0.818   2.091
 9762SOL    HW230186   3.412   0.871   2.240
 9763SOL     OW30187   2.054   1.888   1.682
 9763SOL    HW130188   1.997   1.964   1.713
 9763SOL    HW230189   2.135   1.923   1.635
 9764SOL     OW30190   0.417   2.403   4.059
 9764SOL    HW130191   0.364   2.320   4.041
 9764SOL    HW230192   0.463   2.432   3.975
 9765SOL     OW30193   0.673   0.909   6.028
 9765SOL    HW130194   0.631   0.944   5.944
 9765SOL    HW230195   0.650   0.969   6.105
 9766SOL     OW30196   2.681   0.801   2.084
 9766SOL    HW130197   2.729   0.740   2.147
 9766SOL    HW230198   2.684   0.895   2.118
 9767SOL     OW30199   4.407   0.320   5.483
 9767SOL    HW130200   4.341   0.305   5.409
 9767SOL    HW230201   4.402   0.416   5.513
 9768SOL     OW30202   4.438   2.113   3.034
 9768SOL    HW130203   4.493   2.056   2.974
 9768SOL    HW230204   4.478   2.205   3.039
 9769SOL     OW30205   0.737   2.300   0.517
 9769SOL    HW130206   0.657   2.297   0.458
 9769SOL    HW230207   0.708   2.308   0.613
 9770SOL     OW30208   0.619   2.900   5.245
 9770SOL    HW130209   0.708   2.899   5.201
 9770SOL    HW230210   0.591   2.994   5.262
 9771SOL     OW30211   1.818   6.734   3.872
 9771SOL    HW130212   1.894   6.669   3.871
 9771SOL    HW230213   1.812   6.780   3.783
 9772SOL     OW30214   5.836   6.559   1.430
 9772SOL    HW130215   5.772   6.634   1.413
 9772SOL    HW230216   5.786   6.473   1.441
 9773SOL     OW30217   4.854   5.465   3.978
 9773SOL    HW130218   4.869   5.382   4.032
 9773SOL    HW230219   4.866   5.444   3.881
 9774SOL     OW30220   6.668   5.362   4.531
 9774SOL    HW130221   6.746   5.303   4.553
 9774SOL    HW230222   6.689   5.416   4.450
 9775SOL     OW30223   2.902   1.826   4.913
 9775SOL    HW130224   2.844   1.842   4.833
 9775SOL    HW230225   2.923   1.914   4.956
 9776SOL     OW30226   0.549   4.711   4.608
 9776SOL    HW130227   0.610   4.632   4.616
 9776SOL    HW230228   0.468   4.696   4.664
 9777SOL     OW30229   4.831   6.263   6.324
 9777SOL    HW130230   4.913   6.273   6.267
 9777SOL    HW230231   4.750   6.263   6.267
 9778SOL     OW30232   3.465   0.871   4.832
 9778SOL    HW130233   3.370   0.858   4.858
 9778SOL    HW230234   3.489   0.967   4.840
 9779SOL     OW30235   3.590   2.253   6.514
 9779SOL    HW130236   3.582   2.173   6.455
 9779SOL    HW230237   3.687   2.268   6.536
 9780SOL     OW30238   1.702   3.558   1.206
 9780SOL    HW130239   1.742   3.485   1.151
 9780SOL    HW230240   1.738   3.555   1.298
 9781SOL     OW30241   0.620   6.975   4.161
 9781SOL    HW130242   0.714   6.968   4.195
 9781SOL    HW230243   0.556   6.959   4.236
 9782SOL     OW30244   6.445   6.960   1.034
 9782SOL    HW130245   6.407   7.009   0.955
 9782SOL    HW230246   6.542   6.941   1.019
 9783SOL     OW30247   6.247   6.905   3.609
 9783SOL    HW130248   6.301   6.938   3.531
 9783SOL    HW230249   6.266   6.808   3.625
 9784SOL     OW30250   4.645   0.256   4.817
 9784SOL    HW130251   4.566   0.300   4.773
 9784SOL    HW230252   4.624   0.160   4.833
 9785SOL     OW30253   1.099   2.015   1.103
 9785SOL    HW130254   1.132   1.938   1.047
 9785SOL    HW230255   1.129   2.001   1.198
 9786SOL     OW30256   1.990   0.463   3.575
 9786SOL    HW130257   2.052   0.387   3.595
 9786SOL    HW230258   1.983   0.474   3.476
 9787SOL     OW30259   5.806   3.981   1.630
 9787SOL    HW130260   5.823   4.050   1.560
 9787SOL    HW230261   5.893   3.949   1.667
 9788SOL     OW30262   0.037   0.098   6.716
 9788SOL    HW130263   6.974   0.149   6.746
 9788SOL    HW230264   0.023   0.065   6.622
 9789SOL     OW30265   1.875   4.251   4.587
 9789SOL    HW130266   1.874   4.167   4.642
 9789SOL    HW230267   1.858   4.329   4.647
 9790SOL     OW30268   0.206   1.087   3.615
 9790SOL    HW130269   0.140   1.079   3.540
 9790SOL    HW230270   0.254   1.000   3.627
 9791SOL     OW30271   1.581   2.708   0.828
 9791SOL    HW130272   1.535   2.783   0.781
 9791SOL    HW230273   1.515   2.634   0.846
 9792SOL     OW30274   4.491   5.402   1.894
 9792SOL    HW130275   4.573   5.351   1.871
 9792SOL    HW230276   4.470   5.467   1.821
 9793SOL     OW30277   5.420   6.154   2.316
 9793SOL    HW130278   5.519   6.139   2.321
 9793SOL    HW230279   5.396   6.237   2.366
 9794SOL     OW30280   3.659   3.951   6.862
 9794SOL    HW130281   3.631   3.898   6.942
 9794SOL    HW230282   3.580   3.966   6.803
 9795SOL     OW30283   1.774   4.593   3.050
 9795SOL    HW130284   1.765   4.534   2.969
 9795SOL    HW230285   1.807   4.683   3.022
 9796SOL     OW30286   4.095   4.991   6.295
 9796SOL    HW130287   4.013   4.940   6.270
 9796SOL    HW230288   4.135   4.952   6.378
 9797SOL     OW30289   6.149   3.322   5.433
 9797SOL    HW130290   6.162   3.255   5.506
 9797SOL    HW230291   6.216   3.396   5.444
 9798SOL     OW30292   3.327   1.327   2.103
 9798SOL    HW130293   3.426   1.336   2.109
 9798SOL    HW230294   3.283   1.389   2.167
 9799SOL     OW30295   4.023   3.251   3.150
 9799SOL    HW130296   4.056   3.301   3.230
 9799SOL    HW230297   3.996   3.159   3.177
 9800SOL     OW30298   3.945   6.856   0.544
 9800SOL    HW130299   3.980   6.877   0.635
 9800SOL    HW230300   4.014   6.881   0.476
 9801SOL     OW30301   5.795   4.940   1.305
 9801SOL    HW130302   5.804   4.894   1.393
 9801SOL    HW230303   5.880   4.931   1.253
 9802SOL     OW30304   0.725   5.476   2.240
 9802SOL    HW130305   0.791   5.436   2.304
 9802SOL    HW230306   0.638   5.426   2.247
 9803SOL     OW30307   5.741   0.163   6.512
 9803SOL    HW130308   5.645   0.149   6.535
 9803SOL    HW230309   5.790   0.196   6.593
 9804SOL     OW30310   4.634   5.521   4.149
 9804SOL    HW130311   4.717   5.532   4.095
 9804SOL    HW230312   4.652   5.546   4.244
 9805SOL     OW30313   3.614   4.048   0.858
 9805SOL    HW130314   3.653   3.960   0.886
 9805SOL    HW230315   3.654   4.121   0.914
 9806SOL     OW30316   0.009   1.387   2.338
 9806SOL    HW130317   6.932   1.355   2.325
 9806SOL    HW230318   0.042   1.356   2.427
 9807SOL     OW30319   2.188   3.407   1.095
 9807SOL    HW130320   2.159   3.377   1.186
 9807SOL    HW230321   2.123   3.373   1.026
 9808SOL     OW30322   2.644   2.332   3.335
 9808SOL    HW130323   2.602   2.303   3.249
 9808SOL    HW230324   2.580   2.389   3.386
 9809SOL     OW30325   0.027   0.024   4.318
 9809SOL    HW130326   0.078   6.980   4.257
 9809SOL    HW230327   0.065   0.116   4.314
 9810SOL     OW30328   4.652   1.628   2.589
 9810SOL    HW130329   4.690   1.599   2.501
 9810SOL    HW230330   4.595   1.555   2.626
 9811SOL     OW30331   1.474   0.841   3.288
 9811SOL    HW130332   1.435   0.842   3.196
 9811SOL    HW230333   1.572   0.861   3.283
 9812SOL     OW30334   5.526   2.757   6.443
 9812SOL    HW130335   5.557   2.773   6.349
 9812SOL    HW230336   5.473   2.673   6.446
 9813SOL     OW30337   6.102   4.754   0.497
 9813SOL    HW130338   6.142   4.696   0.426
 9813SOL    HW230339   6.154   4.741   0.582
 9814SOL     OW30340   6.435   1.482   5.954
 9814SOL    HW130341   6.380   1.419   5.899
 9814SOL    HW230342   6.379   1.560   5.981
 9815SOL     OW30343   6.806   4.921   2.097
 9815SOL    HW130344   6.889   4.901   2.150
 9815SOL    HW230345   6.803   4.862   2.017
 9816SOL     OW30346   0.026   1.975   4.954
 9816SOL    HW130347   0.115   2.018   4.944
 9816SOL    HW230348   0.037   1.876   4.957
 9817SOL     OW30349   2.346   1.661   0.503
 9817SOL    HW130350   2.386   1.574   0.476
 9817SOL    HW230351   2.268   1.645   0.564
 9818SOL     OW30352   0.322   0.162   2.444
 9818SOL    HW130353   0.237   0.110   2.438
 9818SOL    HW230354   0.371   0.155   2.357
 9819SOL     OW30355   5.651   1.312   4.729
 9819SOL    HW130356   5.703   1.227   4.726
 9819SOL    HW230357   5.568   1.299   4.783
 9820SOL     OW30358   3.624   0.401   6.446
 9820SOL    HW130359   3.625   0.386   6.544
 9820SOL    HW230360   3.552   0.346   6.404
 9821SOL     OW30361   4.928   4.077   6.789
 9821SOL    HW130362   4.960   4.131   6.711
 9821SOL    HW230363   4.853   4.126   6.833
 9822SOL     OW30364   3.205   6.194   3.858
 9822SOL    HW130365   3.262   6.112   3.853
 9822SOL    HW230366   3.227   6.245   3.941
 9823SOL     OW30367   4.386   5.537   3.408
 9823SOL    HW130368   4.476   5.503   3.437
 9823SOL    HW230369   4.315   5.493   3.463
 9824SOL     OW30370   1.194   5.882   5.526
 9824SOL    HW130371   1.150   5.850   5.609
 9824SOL    HW230372   1.164   5.975   5.506
 9825SOL     OW30373   0.818   6.258   4.361
 9825SOL    HW130374   0.818   6.335   4.425
 9825SOL    HW230375   0.823   6.293   4.267
 9826SOL     OW30376   1.778   5.753   5.918
 9826SOL    HW130377   1.696   5.729   5.866
 9826SOL    HW230378   1.797   5.851   5.908
 9827SOL     OW30379   1.365   4.772   1.907
 9827SOL    HW130380   1.393   4.863   1.876
 9827SOL    HW230381   1.434   4.735   1.969
 9828SOL     OW30382   4.821   2.109   4.307
 9828SOL    HW130383   4.897   2.082   4.249
 9828SOL    HW230384   4.759   2.169   4.256
 9829SOL     OW30385   5.543   4.023   5.445
 9829SOL    HW130386   5.605   4.099   5.466
 9829SOL    HW230387   5.523   3.972   5.528
 9830SOL     OW30388   5.947   1.222   3.265
 9830SOL    HW130389   5.981   1.205   3.172
 9830SOL    HW230390   5.847   1.223   3.263
 9831SOL     OW30391   0.852   5.234   1.733
 9831SOL    HW130392   0.944   5.255   1.768
 9831SOL    HW230393   0.852   5.241   1.634
 9832SOL     OW30394   5.276   5.761   5.225
 9832SOL    HW130395   5.211   5.837   5.232
 9832SOL    HW230396   5.349   5.774   5.292
 9833SOL     OW30397   3.658   2.933   4.267
 9833SOL    HW130398   3.683   2.970   4.357
 9833SOL    HW230399   3.735   2.882   4.230
 9834SOL     OW30400   3.540   5.814   6.449
 9834SOL    HW130401   3.567   5.816   6.352
 9834SOL    HW230402   3.461   5.754   6.460
 9835SOL     OW30403   3.618   3.211   3.825
 9835SOL    HW130404   3.606   3.211   3.726
 9835SOL    HW230405   3.610   3.305   3.860
 9836SOL     OW30406   6.518   2.775   5.994
 9836SOL    HW130407   6.578   2.777   6.074
 9836SOL    HW230408   6.483   2.682   5.982
 9837SOL     OW30409   6.082   0.829   4.462
 9837SOL    HW130410   6.145   0.765   4.417
 9837SOL    HW230411   6.108   0.840   4.558
 9838SOL     OW30412   0.853   5.927   0.976
 9838SOL    HW130413   0.767   5.976   0.958
 9838SOL    HW230414   0.833   5.837   1.014
 9839SOL     OW30415   3.765   6.124   3.993
 9839SOL    HW130416   3.751   6.113   4.091
 9839SOL    HW230417   3.679   6.151   3.950
 9840SOL     OW30418   6.057   2.188   6.390
 9840SOL    HW130419   6.153   2.161   6.388
 9840SOL    HW230420   6.048   2.282   6.359
 9841SOL     OW30421   0.123   5.614   2.424
 9841SOL    HW130422   0.116   5.700   2.374
 9841SOL    HW230423   0.201   5.562   2.391
 9842SOL     OW30424   3.798   0.232   0.170
 9842SOL    HW130425   3.822   0.219   0.266
 9842SOL    HW230426   3.772   0.145   0.130
 9843SOL     OW30427   0.551   0.208   0.499
 9843SOL    HW130428   0.488   0.161   0.437
 9843SOL    HW230429   0.615   0.142   0.538
 9844SOL     OW30430   5.178   1.332   4.669
 9844SOL    HW130431   5.122   1.280   4.605
 9844SOL    HW230432   5.151   1.309   4.763
 9845SOL     OW30433   1.187   3.598   2.367
 9845SOL    HW130434   1.182   3.500   2.350
 9845SOL    HW230435   1.118   3.645   2.311
 9846SOL     OW30436   6.145   2.416   2.619
 9846SOL    HW130437   6.106   2.334   2.661
 9846SOL    HW230438   6.079   2.455   2.555
 9847SOL     OW30439   4.032   4.475   6.942
 9847SOL    HW130440   3.959   4.418   6.980
 9847SOL    HW230441   4.120   4.448   6.983
 9848SOL     OW30442   3.170   3.480   5.603
 9848SOL    HW130443   3.209   3.408   5.546
 9848SOL    HW230444   3.161   3.564   5.549
 9849SOL     OW30445   1.573   1.367   2.126
 9849SOL    HW130446   1.548   1.355   2.030
 9849SOL    HW230447   1.673   1.368   2.135
 9850SOL     OW30448   1.869   0.566   4.064
 9850SOL    HW130449   1.891   0.475   4.027
 9850SOL    HW230450   1.770   0.577   4.067
 9851SOL     OW30451   3.248   5.668   4.121
 9851SOL    HW130452   3.237   5.689   4.024
 9851SOL    HW230453   3.263   5.570   4.132
 9852SOL     OW30454   2.370   0.415   6.727
 9852SOL    HW130455   2.394   0.491   6.787
 9852SOL    HW230456   2.444   0.347   6.726
 9853SOL     OW30457   0.170   3.974   4.022
 9853SOL    HW130458   0.182   4.007   4.116
 9853SOL    HW230459   0.110   3.894   4.021
 9854SOL     OW30460   6.432   3.883   6.961
 9854SOL    HW130461   6.385   3.840   0.021
 9854SOL    HW230462   6.526   3.903   6.987
 9855SOL     OW30463   1.014   6.308   0.880
 9855SOL    HW130464   1.060   6.248   0.815
 9855SOL    HW230465   0.983   6.255   0.958
 9856SOL     OW30466   4.864   4.532   3.303
 9856SOL    HW130467   4.937   4.555   3.239
 9856SOL    HW230468   4.783   4.504   3.252
 9857SOL     OW30469   4.618   6.930   5.440
 9857SOL    HW130470   4.599   6.973   5.528
 9857SOL    HW230471   4.707   6.962   5.405
 9858SOL     OW30472   0.075   5.218   2.585
 9858SOL    HW130473   0.106   5.279   2.657
 9858SOL    HW230474   0.125   5.132   2.590
 9859SOL     OW30475   0.247   6.079   3.023
 9859SOL    HW130476   0.315   6.081   3.097
 9859SOL    HW230477   0.201   5.991   3.023
 9860SOL     OW30478   1.307   3.565   3.393
 9860SOL    HW130479   1.296   3.509   3.310
 9860SOL    HW230480   1.393   3.541   3.438
 9861SOL     OW30481   3.874   2.112   4.332
 9861SOL    HW130482   3.855   2.197   4.282
 9861SOL    HW230483   3.965   2.116   4.372
 9862SOL     OW30484   1.652   2.687   6.788
 9862SOL    HW130485   1.565   2.655   6.826
 9862SOL    HW230486   1.655   2.787   6.794
 9863SOL     OW30487   3.600   6.059   1.831
 9863SOL    HW130488   3.567   6.089   1.741
 9863SOL    HW230489   3.528   6.070   1.899
 9864SOL     OW30490   3.056   6.068   5.277
 9864SOL    HW130491   3.138   6.066   5.220
 9864SOL    HW230492   3.010   6.156   5.269
 9865SOL     OW30493   2.728   5.536   5.834
 9865SOL    HW130494   2.706   5.556   5.739
 9865SOL    HW230495   2.651   5.560   5.892
 9866SOL     OW30496   0.269   5.608   5.533
 9866SOL    HW130497   0.288   5.682   5.469
 9866SOL    HW230498   0.253   5.523   5.482
 9867SOL     OW30499   4.930   1.230   2.287
 9867SOL    HW130500   4.957   1.324   2.308
 9867SOL    HW230501   4.851   1.231   2.226
 9868SOL     OW30502   2.130   4.817   3.280
 9868SOL    HW130503   2.106   4.804   3.184
 9868SOL    HW230504   2.176   4.736   3.315
 9869SOL     OW30505   5.336   1.579   2.637
 9869SOL    HW130506   5.414   1.642   2.631
 9869SOL    HW230507   5.304   1.557   2.544
 9870SOL     OW30508   2.233   2.894   2.816
 9870SOL    HW130509   2.150   2.844   2.841
 9870SOL    HW230510   2.293   2.901   2.896
 9871SOL     OW30511   6.118   5.213   3.388
 9871SOL    HW130512   6.151   5.129   3.430
 9871SOL    HW230513   6.132   5.210   3.289
 9872SOL     OW30514   0.805   6.344   4.840
 9872SOL    HW130515   0.839   6.311   4.928
 9872SOL    HW230516   0.875   6.400   4.796
 9873SOL     OW30517   0.427   1.042   5.425
 9873SOL    HW130518   0.473   0.980   5.362
 9873SOL    HW230519   0.367   1.104   5.373
 9874SOL     OW30520   6.976   1.899   3.724
 9874SOL    HW130521   6.908   1.830   3.701
 9874SOL    HW230522   6.954   1.985   3.677
 9875SOL     OW30523   5.839   5.936   1.321
 9875SOL    HW130524   5.760   5.959   1.264
 9875SOL    HW230525   5.809   5.881   1.399
 9876SOL     OW30526   0.423   0.327   2.990
 9876SOL    HW130527   0.323   0.316   2.992
 9876SOL    HW230528   0.449   0.407   3.044
 9877SOL     OW30529   1.753   5.755   5.226
 9877SOL    HW130530   1.779   5.741   5.321
 9877SOL    HW230531   1.653   5.754   5.218
 9878SOL     OW30532   4.425   4.041   0.539
 9878SOL    HW130533   4.486   3.999   0.606
 9878SOL    HW230534   4.360   3.972   0.505
 9879SOL     OW30535   5.368   5.592   4.216
 9879SOL    HW130536   5.363   5.647   4.132
 9879SOL    HW230537   5.462   5.563   4.232
 9880SOL     OW30538   2.705   1.269   0.991
 9880SOL    HW130539   2.709   1.174   0.961
 9880SOL    HW230540   2.622   1.312   0.954
 9881SOL     OW30541   6.302   6.997   2.990
 9881SOL    HW130542   6.353   6.912   3.001
 9881SOL    HW230543   6.359   0.058   3.018
 9882SOL     OW30544   3.502   4.178   4.176
 9882SOL    HW130545   3.448   4.182   4.093
 9882SOL    HW230546   3.443   4.157   4.254
 9883SOL     OW30547   1.515   6.131   3.001
 9883SOL    HW130548   1.465   6.056   2.958
 9883SOL    HW230549   1.607   6.100   3.024
 9884SOL     OW30550   3.252   2.436   5.396
 9884SOL    HW130551   3.213   2.397   5.480
 9884SOL    HW230552   3.200   2.404   5.317
 9885SOL     OW30553   4.972   1.970   5.213
 9885SOL    HW130554   5.040   2.005   5.278
 9885SOL    HW230555   5.001   1.990   5.120
 9886SOL     OW30556   2.830   6.348   1.514
 9886SOL    HW130557   2.750   6.314   1.464
 9886SOL    HW230558   2.913   6.305   1.477
 9887SOL     OW30559   3.761   1.523   0.418
 9887SOL    HW130560   3.683   1.499   0.476
 9887SOL    HW230561   3.804   1.440   0.382
 9888SOL     OW30562   6.385   6.699   4.256
 9888SOL    HW130563   6.455   6.762   4.288
 9888SOL    HW230564   6.419   6.649   4.176
 9889SOL     OW30565   6.856   5.989   2.248
 9889SOL    HW130566   6.955   5.977   2.248
 9889SOL    HW230567   6.829   6.044   2.169
 9890SOL     OW30568   1.815   3.070   3.219
 9890SOL    HW130569   1.888   3.121   3.265
 9890SOL    HW230570   1.799   3.108   3.128
 9891SOL     OW30571   3.493   0.335   1.833
 9891SOL    HW130572   3.402   0.343   1.874
 9891SOL    HW230573   3.553   0.406   1.871
 9892SOL     OW30574   2.481   5.824   3.062
 9892SOL    HW130575   2.549   5.831   2.989
 9892SOL    HW230576   2.518   5.862   3.147
 9893SOL     OW30577   5.747   4.556   4.488
 9893SOL    HW130578   5.814   4.487   4.462
 9893SOL    HW230579   5.787   4.617   4.557
 9894SOL     OW30580   4.432   4.053   5.402
 9894SOL    HW130581   4.494   4.126   5.372
 9894SOL    HW230582   4.483   3.986   5.457
 9895SOL     OW30583   4.746   2.491   5.814
 9895SOL    HW130584   4.741   2.582   5.774
 9895SOL    HW230585   4.731   2.497   5.913
 9896SOL     OW30586   4.114   3.939   6.851
 9896SOL    HW130587   4.170   3.856   6.847
 9896SOL    HW230588   4.172   4.019   6.840
 9897SOL     OW30589   1.595   1.308   2.708
 9897SOL    HW130590   1.551   1.240   2.650
 9897SOL    HW230591   1.631   1.265   2.790
 9898SOL     OW30592   0.308   5.515   0.149
 9898SOL    HW130593   0.375   5.444   0.171
 9898SOL    HW230594   0.230   5.474   0.102
 9899SOL     OW30595   3.749   5.077   0.906
 9899SOL    HW130596   3.825   5.117   0.855
 9899SOL    HW230597   3.738   4.981   0.878
 9900SOL     OW30598   2.639   5.450   3.261
 9900SOL    HW130599   2.607   5.358   3.280
 9900SOL    HW230600   2.582   5.516   3.311
 9901SOL     OW30601   2.770   1.174   6.034
 9901SOL    HW130602   2.808   1.264   6.015
 9901SOL    HW230603   2.830   1.104   5.994
 9902SOL     OW30604   4.494   4.680   0.341
 9902SOL    HW130605   4.459   4.770   0.366
 9902SOL    HW230606   4.459   4.654   0.251
 9903SOL     OW30607   2.734   1.003   0.848
 9903SOL    HW130608   2.672   0.924   0.850
 9903SOL    HW230609   2.717   1.056   0.766
 9904SOL     OW30610   6.329   6.036   1.955
 9904SOL    HW130611   6.315   6.042   2.053
 9904SOL    HW230612   6.388   5.958   1.934
 9905SOL     OW30613   2.321   6.843   0.228
 9905SOL    HW130614   2.287   6.903   0.300
 9905SOL    HW230615   2.405   6.799   0.260
 9906SOL     OW30616   3.558   3.423   6.235
 9906SOL    HW130617   3.525   3.480   6.310
 9906SOL    HW230618   3.556   3.476   6.150
 9907SOL     OW30619   0.881   6.878   3.310
 9907SOL    HW130620   0.914   6.845   3.222
 9907SOL    HW230621   0.925   6.826   3.384
 9908SOL     OW30622   6.427   3.182   5.871
 9908SOL    HW130623   6.464   3.269   5.904
 9908SOL    HW230624   6.405   3.124   5.950
 9909SOL     OW30625   2.543   6.223   3.107
 9909SOL    HW130626   2.451   6.204   3.072
 9909SOL    HW230627   2.543   6.312   3.154
 9910SOL     OW30628   1.087   5.823   0.667
 9910SOL    HW130629   1.179   5.840   0.632
 9910SOL    HW230630   1.069   5.882   0.745
 9911SOL     OW30631   3.279   4.842   2.060
 9911SOL    HW130632   3.343   4.780   2.015
 9911SOL    HW230633   3.202   4.860   1.999
 9912SOL     OW30634   5.794   6.266   0.380
 9912SOL    HW130635   5.722   6.216   0.332
 9912SOL    HW230636   5.883   6.225   0.359
 9913SOL     OW30637   6.346   1.746   2.404
 9913SOL    HW130638   6.380   1.690   2.479
 9913SOL    HW230639   6.421   1.801   2.366
 9914SOL     OW30640   1.976   5.336   3.658
 9914SOL    HW130641   2.059   5.280   3.651
 9914SOL    HW230642   1.906   5.286   3.709
 9915SOL     OW30643   6.113   5.525   3.699
 9915SOL    HW130644   6.071   5.455   3.756
 9915SOL    HW230645   6.179   5.483   3.637
 9916SOL     OW30646   1.660   3.537   0.847
 9916SOL    HW130647   1.641   3.504   0.755
 9916SOL    HW230648   1.666   3.637   0.847
 9917SOL     OW30649   1.793   3.895   4.364
 9917SOL    HW130650   1.840   3.971   4.319
 9917SOL    HW230651   1.860   3.825   4.389
 9918SOL     OW30652   1.884   2.085   3.681
 9918SOL    HW130653   1.812   2.120   3.621
 9918SOL    HW230654   1.969   2.134   3.663
 9919SOL     OW30655   0.815   6.227   1.553
 9919SOL    HW130656   0.791   6.163   1.480
 9919SOL    HW230657   0.849   6.313   1.512
 9920SOL     OW30658   3.119   1.014   3.053
 9920SOL    HW130659   3.042   0.961   3.017
 9920SOL    HW230660   3.204   0.964   3.034
 9921SOL     OW30661   4.863   0.778   2.292
 9921SOL    HW130662   4.847   0.683   2.264
 9921SOL    HW230663   4.960   0.800   2.282
 9922SOL     OW30664   6.389   3.030   2.160
 9922SOL    HW130665   6.373   3.127   2.174
 9922SOL    HW230666   6.393   2.984   2.249
 9923SOL     OW30667   5.792   6.774   6.595
 9923SOL    HW130668   5.883   6.736   6.577
 9923SOL    HW230669   5.802   6.863   6.639
 9924SOL     OW30670   5.779   0.002   3.530
 9924SOL    HW130671   5.753   6.995   3.436
 9924SOL    HW230672   5.714   6.976   3.594
 9925SOL     OW30673   4.113   2.134   4.931
 9925SOL    HW130674   4.136   2.228   4.956
 9925SOL    HW230675   4.054   2.094   5.002
 9926SOL     OW30676   1.745   1.337   5.941
 9926SOL    HW130677   1.725   1.324   5.843
 9926SOL    HW230678   1.742   1.248   5.987
 9927SOL     OW30679   2.182   4.040   4.113
 9927SOL    HW130680   2.193   4.117   4.050
 9927SOL    HW230681   2.238   4.056   4.194
 9928SOL     OW30682   6.678   2.816   3.081
 9928SOL    HW130683   6.749   2.749   3.101
 9928SOL    HW230684   6.589   2.770   3.074
 9929SOL     OW30685   1.237   5.062   5.212
 9929SOL    HW130686   1.320   5.018   5.249
 9929SOL    HW230687   1.158   5.003   5.230
 9930SOL     OW30688   6.576   6.127   6.658
 9930SOL    HW130689   6.635   6.145   6.579
 9930SOL    HW230690   6.517   6.049   6.638
 9931SOL     OW30691   1.447   4.197   0.150
 9931SOL    HW130692   1.538   4.200   0.109
 9931SOL    HW230693   1.424   4.102   0.174
 9932SOL     OW30694   1.537   1.676   1.204
 9932SOL    HW130695   1.478   1.740   1.154
 9932SOL    HW230696   1.501   1.583   1.194
 9933SOL     OW30697   1.671   2.123   3.518
 9933SOL    HW130698   1.637   2.181   3.591
 9933SOL    HW230699   1.595   2.071   3.478
 9934SOL     OW30700   4.968   0.202   6.046
 9934SOL    HW130701   4.993   0.272   5.978
 9934SOL    HW230702   4.936   0.247   6.129
 9935SOL     OW30703   3.475   2.894   0.114
 9935SOL    HW130704   3.558   2.887   0.060
 9935SOL    HW230705   3.419   2.812   0.099
 9936SOL     OW30706   4.740   5.932   0.207
 9936SOL    HW130707   4.661   5.987   0.231
 9936SOL    HW230708   4.726   5.837   0.235
 9937SOL     OW30709   1.399   0.306   4.937
 9937SOL    HW130710   1.432   0.218   4.969
 9937SOL    HW230711   1.389   0.304   4.838
 9938SOL     OW30712   0.791   1.838   3.176
 9938SOL    HW130713   0.820   1.755   3.223
 9938SOL    HW230714   0.729   1.890   3.235
 9939SOL     OW30715   2.997   3.826   0.958
 9939SOL    HW130716   3.007   3.727   0.951
 9939SOL    HW230717   2.944   3.860   0.880
 9940SOL     OW30718   6.457   0.985   2.857
 9940SOL    HW130719   6.508   0.914   2.906
 9940SOL    HW230720   6.513   1.021   2.782
 9941SOL     OW30721   6.125   3.442   0.554
 9941SOL    HW130722   6.146   3.522   0.498
 9941SOL    HW230723   6.084   3.472   0.641
 9942SOL     OW30724   5.582   5.010   2.618
 9942SOL    HW130725   5.488   4.975   2.615
 9942SOL    HW230726   5.604   5.054   2.532
 9943SOL     OW30727   1.219   4.690   5.300
 9943SOL    HW130728   1.283   4.658   5.370
 9943SOL    HW230729   1.130   4.648   5.315
 9944SOL     OW30730   2.408   5.523   6.380
 9944SOL    HW130731   2.354   5.498   6.460
 9944SOL    HW230732   2.371   5.608   6.341
 9945SOL     OW30733   6.207   3.200   5.704
 9945SOL    HW130734   6.154   3.257   5.766
 9945SOL    HW230735   6.303   3.203   5.729
 9946SOL     OW30736   6.079   1.838   0.773
 9946SOL    HW130737   6.093   1.906   0.701
 9946SOL    HW230738   6.167   1.810   0.810
 9947SOL     OW30739   0.126   0.153   3.121
 9947SOL    HW130740   0.145   0.177   3.216
 9947SOL    HW230741   0.061   0.218   3.082
 9948SOL     OW30742   5.066   1.111   5.432
 9948SOL    HW130743   5.087   1.013   5.432
 9948SOL    HW230744   5.069   1.146   5.525
 9949SOL     OW30745   6.783   3.055   2.436
 9949SOL    HW130746   6.783   3.118   2.513
 9949SOL    HW230747   6.866   3.068   2.382
 9950SOL     OW30748   5.695   3.887   6.583
 9950SOL    HW130749   5.640   3.933   6.513
 9950SOL    HW230750   5.737   3.956   6.642
 9951SOL     OW30751   6.718   2.343   2.476
 9951SOL    HW130752   6.682   2.436   2.481
 9951SOL    HW230753   6.651   2.279   2.516
 9952SOL     OW30754   1.377   4.952   1.172
 9952SOL    HW130755   1.425   5.038   1.189
 9952SOL    HW230756   1.424   4.877   1.220
 9953SOL     OW30757   6.231   4.351   4.918
 9953SOL    HW130758   6.163   4.282   4.893
 9953SOL    HW230759   6.185   4.430   4.961
 9954SOL     OW30760   4.103   1.999   1.500
 9954SOL    HW130761   4.144   1.967   1.585
 9954SOL    HW230762   4.119   1.932   1.427
 9955SOL     OW30763   6.220   5.135   1.868
 9955SOL    HW130764   6.249   5.227   1.841
 9955SOL    HW230765   6.271   5.067   1.816
 9956SOL     OW30766   1.145   4.454   3.560
 9956SOL    HW130767   1.235   4.495   3.572
 9956SOL    HW230768   1.081   4.522   3.525
 9957SOL     OW30769   5.881   6.820   0.623
 9957SOL    HW130770   5.895   6.878   0.542
 9957SOL    HW230771   5.830   6.738   0.596
 9958SOL     OW30772   6.323   6.199   5.522
 9958SOL    HW130773   6.240   6.152   5.495
 9958SOL    HW230774   6.306   6.249   5.607
 9959SOL     OW30775   6.556   5.565   6.932
 9959SOL    HW130776   6.524   5.509   7.008
 9959SOL    HW230777   6.651   5.541   6.911
 9960SOL     OW30778   6.331   0.089   6.191
 9960SOL    HW130779   6.348   0.186   6.172
 9960SOL    HW230780   6.391   0.059   6.265
 9961SOL     OW30781   3.098   6.768   0.420
 9961SOL    HW130782   3.177   6.734   0.472
 9961SOL    HW230783   3.024   6.701   0.425
 9962SOL     OW30784   3.679   0.830   1.453
 9962SOL    HW130785   3.715   0.740   1.476
 9962SOL    HW230786   3.580   0.826   1.447
 9963SOL     OW30787   0.243   0.256   6.600
 9963SOL    HW130788   0.319   0.209   6.556
 9963SOL    HW230789   0.181   0.188   6.641
 9964SOL     OW30790   4.603   5.523   5.324
 9964SOL    HW130791   4.540   5.454   5.361
 9964SOL    HW230792   4.675   5.541   5.391
 9965SOL     OW30793   2.133   5.541   4.813
 9965SOL    HW130794   2.210   5.487   4.848
 9965SOL    HW230795   2.112   5.512   4.719
 9966SOL     OW30796   1.837   4.259   1.930
 9966SOL    HW130797   1.884   4.255   2.018
 9966SOL    HW230798   1.768   4.187   1.925
 9967SOL     OW30799   6.382   0.307   2.656
 9967SOL    HW130800   6.467   0.356   2.639
 9967SOL    HW230801   6.339   0.343   2.739
 9968SOL     OW30802   4.583   6.162   0.616
 9968SOL    HW130803   4.483   6.164   0.611
 9968SOL    HW230804   4.614   6.226   0.687
 9969SOL     OW30805   0.554   6.694   3.029
 9969SOL    HW130806   0.527   6.759   3.099
 9969SOL    HW230807   0.473   6.655   2.986
 9970SOL     OW30808   0.815   3.307   1.253
 9970SOL    HW130809   0.804   3.384   1.190
 9970SOL    HW230810   0.833   3.342   1.345
 9971SOL     OW30811   0.091   5.373   5.916
 9971SOL    HW130812   7.015   5.362   5.952
 9971SOL    HW230813   0.100   5.463   5.875
 9972SOL     OW30814   3.107   4.631   5.794
 9972SOL    HW130815   3.152   4.663   5.710
 9972SOL    HW230816   3.176   4.614   5.864
 9973SOL     OW30817   3.116   2.127   2.612
 9973SOL    HW130818   3.078   2.135   2.520
 9973SOL    HW230819   3.214   2.150   2.609
 9974SOL     OW30820   0.604   3.524   3.402
 9974SOL    HW130821   0.578   3.455   3.335
 9974SOL    HW230822   0.523   3.572   3.435
 9975SOL     OW30823   1.232   4.727   6.796
 9975SOL    HW130824   1.204   4.654   6.734
 9975SOL    HW230825   1.151   4.764   6.842
 9976SOL     OW30826   4.551   5.804   4.981
 9976SOL    HW130827   4.495   5.853   4.913
 9976SOL    HW230828   4.640   5.848   4.988
 9977SOL     OW30829   4.127   0.140   6.000
 9977SOL    HW130830   4.196   0.207   5.970
 9977SOL    HW230831   4.144   0.116   6.096
 9978SOL     OW30832   6.454   3.042   6.954
 9978SOL    HW130833   6.372   3.062   7.007
 9978SOL    HW230834   6.508   3.126   6.943
 9979SOL     OW30835   3.836   3.940   3.545
 9979SOL    HW130836   3.758   3.935   3.608
 9979SOL    HW230837   3.921   3.934   3.597
 9980SOL     OW30838   0.293   6.614   6.635
 9980SOL    HW130839   0.318   6.666   6.717
 9980SOL    HW230840   0.355   6.637   6.561
 9981SOL     OW30841   5.581   0.805   1.073
 9981SOL    HW130842   5.628   0.805   1.161
 9981SOL    HW230843   5.509   0.736   1.072
 9982SOL     OW30844   2.607   1.854   5.164
 9982SOL    HW130845   2.555   1.816   5.088
 9982SOL    HW230846   2.698   1.811   5.166
 9983SOL     OW30847   0.805   2.833   1.881
 9983SOL    HW130848   0.813   2.863   1.785
 9983SOL    HW230849   0.719   2.865   1.919
 9984SOL     OW30850   1.141   4.809   1.291
 9984SOL    HW130851   1.167   4.715   1.270
 9984SOL    HW230852   1.192   4.871   1.233
 9985SOL     OW30853   4.829   4.687   5.863
 9985SOL    HW130854   4.754   4.622   5.876
 9985SOL    HW230855   4.896   4.674   5.936
 9986SOL     OW30856   5.802   4.091   6.754
 9986SOL    HW130857   5.886   4.081   6.807
 9986SOL    HW230858   5.785   4.188   6.736
 9987SOL     OW30859   5.075   1.786   0.395
 9987SOL    HW130860   5.034   1.869   0.359
 9987SOL    HW230861   5.006   1.732   0.444
 9988SOL     OW30862   5.513   6.738   3.931
 9988SOL    HW130863   5.422   6.776   3.952
 9988SOL    HW230864   5.553   6.790   3.856
 9989SOL     OW30865   6.466   5.548   1.978
 9989SOL    HW130866   6.477   5.519   1.883
 9989SOL    HW230867   6.522   5.490   2.037
 9990SOL     OW30868   0.120   5.847   2.916
 9990SOL    HW130869   0.042   5.910   2.917
 9990SOL    HW230870   0.120   5.796   2.830
 9991SOL     OW30871   1.974   3.458   1.828
 9991SOL    HW130872   1.934   3.542   1.792
 9991SOL    HW230873   2.061   3.480   1.874
 9992SOL     OW30874   2.118   4.188   0.638
 9992SOL    HW130875   2.208   4.192   0.680
 9992SOL    HW230876   2.101   4.271   0.585
 9993SOL     OW30877   3.549   0.070   4.241
 9993SOL    HW130878   3.495   0.143   4.199
 9993SOL    HW230879   3.633   0.109   4.280
 9994SOL     OW30880   5.947   4.890   5.445
 9994SOL    HW130881   5.918   4.852   5.533
 9994SOL    HW230882   5.890   4.852   5.372
 9995SOL     OW30883   4.285   2.133   6.353
 9995SOL    HW130884   4.374   2.174   6.338
 9995SOL    HW230885   4.268   2.124   6.451
 9996SOL     OW30886   2.417   4.726   1.148
 9996SOL    HW130887   2.389   4.784   1.224
 9996SOL    HW230888   2.517   4.728   1.141
 9997SOL     OW30889   5.453   0.299   2.825
 9997SOL    HW130890   5.449   0.202   2.799
 9997SOL    HW230891   5.376   0.347   2.785
 9998SOL     OW30892   5.346   3.633   2.411
 9998SOL    HW130893   5.306   3.613   2.321
 9998SOL    HW230894   5.324   3.727   2.437
 9999SOL     OW30895   0.580   0.017   5.023
 9999SOL    HW130896   0.563   6.958   5.086
 9999SOL    HW230897   0.503   0.081   5.027
10000SOL     OW30898   4.431   3.196   1.693
10000SOL    HW130899   4.483   3.148   1.763
10000SOL    HW230900   4.432   3.143   1.608
10001SOL     OW30901   3.802   6.885   1.334
10001SOL    HW130902   3.747   6.960   1.371
10001SOL    HW230903   3.783   6.802   1.385
10002SOL     OW30904   2.064   6.709   3.285
10002SOL    HW130905   1.965   6.700   3.276
10002SOL    HW230906   2.094   6.792   3.237
10003SOL     OW30907   0.338   1.484   2.471
10003SOL    HW130908   0.345   1.584   2.470
10003SOL    HW230909   0.338   1.452   2.565
10004SOL     OW30910   0.062   3.067   3.175
10004SOL    HW130911   0.114   3.046   3.092
10004SOL    HW230912   0.117   3.044   3.255
10005SOL     OW30913   2.725   6.042   2.224
10005SOL    HW130914   2.680   6.077   2.306
10005SOL    HW230915   2.726   6.113   2.154
10006SOL     OW30916   5.555   1.843   6.103
10006SOL    HW130917   5.588   1.855   6.010
10006SOL    HW230918   5.464   1.803   6.102
10007SOL     OW30919   1.663   5.182   3.628
10007SOL    HW130920   1.610   5.099   3.643
10007SOL    HW230921   1.680   5.194   3.530
10008SOL     OW30922   4.058   0.854   5.980
10008SOL    HW130923   4.039   0.921   6.052
10008SOL    HW230924   4.058   0.762   6.019
10009SOL     OW30925   1.395   5.239   1.948
10009SOL    HW130926   1.468   5.272   2.008
10009SOL    HW230927   1.415   5.146   1.919
10010SOL     OW30928   1.931   5.003   0.634
10010SOL    HW130929   2.028   4.997   0.608
10010SOL    HW230930   1.915   4.947   0.715
10011SOL     OW30931   3.258   3.529   6.841
10011SOL    HW130932   3.245   3.610   6.898
10011SOL    HW230933   3.177   3.514   6.785
10012SOL     OW30934   5.905   1.642   2.970
10012SOL    HW130935   5.933   1.613   3.062
10012SOL    HW230936   5.984   1.683   2.923
10013SOL     OW30937   0.288   6.078   5.766
10013SOL    HW130938   0.378   6.120   5.783
10013SOL    HW230939   0.267   6.083   5.668
10014SOL     OW30940   1.317   1.177   2.974
10014SOL    HW130941   1.333   1.257   3.032
10014SOL    HW230942   1.387   1.174   2.902
10015SOL     OW30943   4.137   0.704   6.949
10015SOL    HW130944   4.211   0.680   7.010
10015SOL    HW230945   4.117   0.802   6.957
10016SOL     OW30946   2.952   0.888   4.918
10016SOL    HW130947   2.933   0.808   4.860
10016SOL    HW230948   2.872   0.948   4.919
10017SOL     OW30949   3.440   1.680   2.881
10017SOL    HW130950   3.382   1.646   2.955
10017SOL    HW230951   3.536   1.662   2.903
10018SOL     OW30952   0.303   4.710   5.316
10018SOL    HW130953   0.381   4.734   5.258
10018SOL    HW230954   0.336   4.679   5.405
10019SOL     OW30955   6.599   1.828   2.360
10019SOL    HW130956   6.648   1.913   2.376
10019SOL    HW230957   6.641   1.755   2.415
10020SOL     OW30958   6.625   0.850   3.014
10020SOL    HW130959   6.665   0.781   3.073
10020SOL    HW230960   6.646   0.941   3.049
10021SOL     OW30961   1.945   3.706   1.694
10021SOL    HW130962   1.886   3.672   1.621
10021SOL    HW230963   2.026   3.748   1.654
10022SOL     OW30964   0.978   6.591   6.105
10022SOL    HW130965   1.062   6.590   6.051
10022SOL    HW230966   0.918   6.664   6.071
10023SOL     OW30967   0.780   1.105   5.221
10023SOL    HW130968   0.799   1.201   5.203
10023SOL    HW230969   0.740   1.063   5.139
10024SOL     OW30970   1.980   4.159   3.587
10024SOL    HW130971   1.900   4.167   3.529
10024SOL    HW230972   1.972   4.076   3.644
10025SOL     OW30973   0.623   2.990   1.335
10025SOL    HW130974   0.710   2.947   1.357
10025SOL    HW230975   0.583   3.029   1.417
10026SOL     OW30976   6.448   1.136   4.429
10026SOL    HW130977   6.372   1.133   4.364
10026SOL    HW230978   6.465   1.231   4.456
10027SOL     OW30979   3.322   1.044   5.979
10027SOL    HW130980   3.323   0.964   5.919
10027SOL    HW230981   3.228   1.065   6.005
10028SOL     OW30982   3.817   6.599   2.138
10028SOL    HW130983   3.881   6.655   2.087
10028SOL    HW230984   3.840   6.600   2.235
10029SOL     OW30985   6.884   5.306   4.326
10029SOL    HW130986   6.831   5.376   4.278
10029SOL    HW230987   6.886   5.223   4.271
10030SOL     OW30988   3.039   6.814   4.218
10030SOL    HW130989   3.007   6.719   4.226
10030SOL    HW230990   2.999   6.856   4.137
10031SOL     OW30991   1.613   0.135   3.660
10031SOL    HW130992   1.582   0.144   3.566
10031SOL    HW230993   1.552   0.186   3.721
10032SOL     OW30994   2.975   6.250   4.488
10032SOL    HW130995   3.055   6.299   4.523
10032SOL    HW230996   2.996   6.153   4.480
10033SOL     OW30997   2.525   1.376   4.917
10033SOL    HW130998   2.514   1.299   4.980
10033SOL    HW230999   2.505   1.345   4.823
10034SOL     OW31000   2.386   1.202   2.066
10034SOL    HW131001   2.381   1.192   2.165
10034SOL    HW231002   2.419   1.293   2.043
10035SOL     OW31003   0.476   2.912   2.218
10035SOL    HW131004   0.528   2.939   2.299
10035SOL    HW231005   0.536   2.909   2.138
10036SOL     OW31006   0.418   1.523   0.101
10036SOL    HW131007   0.408   1.618   0.130
10036SOL    HW231008   0.430   1.519   0.002
10037SOL     OW31009   6.206   0.488   6.110
10037SOL    HW131010   6.246   0.532   6.190
10037SOL    HW231011   6.164   0.557   6.051
10038SOL     OW31012   4.725   6.880   6.841
10038SOL    HW131013   4.688   6.829   6.763
10038SOL    HW231014   4.724   6.978   6.821
10039SOL     OW31015   0.182   5.328   1.393
10039SOL    HW131016   0.152   5.363   1.482
10039SOL    HW231017   0.119   5.257   1.363
10040SOL     OW31018   2.897   0.497   0.536
10040SOL    HW131019   2.947   0.462   0.456
10040SOL    HW231020   2.939   0.582   0.566
10041SOL     OW31021   5.934   4.512   5.596
10041SOL    HW131022   5.936   4.452   5.516
10041SOL    HW231023   5.943   4.456   5.679
10042SOL     OW31024   6.276   0.783   5.048
10042SOL    HW131025   6.199   0.750   4.994
10042SOL    HW231026   6.341   0.709   5.063
10043SOL     OW31027   0.654   0.401   2.790
10043SOL    HW131028   0.562   0.372   2.815
10043SOL    HW231029   0.692   0.337   2.723
10044SOL     OW31030   3.076   2.208   6.810
10044SOL    HW131031   3.096   2.167   6.722
10044SOL    HW231032   3.161   2.220   6.862
10045SOL     OW31033   3.869   6.920   4.475
10045SOL    HW131034   3.906   6.856   4.408
10045SOL    HW231035   3.804   6.982   4.431
10046SOL     OW31036   6.873   2.155   1.432
10046SOL    HW131037   6.866   2.188   1.526
10046SOL    HW231038   6.823   2.218   1.371
10047SOL     OW31039   1.178   3.204   3.108
10047SOL    HW131040   1.087   3.215   3.149
10047SOL    HW231041   1.227   3.132   3.157
10048SOL     OW31042   3.467   2.012   1.919
10048SOL    HW131043   3.449   2.004   2.017
10048SOL    HW231044   3.514   2.098   1.901
10049SOL     OW31045   1.210   5.569   4.717
10049SOL    HW131046   1.186   5.479   4.681
10049SOL    HW231047   1.304   5.567   4.751
10050SOL     OW31048   5.846   1.206   5.358
10050SOL    HW131049   5.902   1.123   5.359
10050SOL    HW231050   5.766   1.192   5.301
10051SOL     OW31051   6.041   1.644   0.500
10051SOL    HW131052   6.133   1.625   0.533
10051SOL    HW231053   6.044   1.720   0.435
10052SOL     OW31054   1.868   5.226   0.941
10052SOL    HW131055   1.780   5.196   0.905
10052SOL    HW231056   1.925   5.260   0.866
10053SOL     OW31057   2.842   6.451   3.479
10053SOL    HW131058   2.867   6.445   3.382
10053SOL    HW231059   2.757   6.402   3.494
10054SOL     OW31060   4.622   4.774   3.913
10054SOL    HW131061   4.604   4.872   3.901
10054SOL    HW231062   4.541   4.722   3.887
10055SOL     OW31063   5.138   3.198   6.932
10055SOL    HW131064   5.070   3.200   6.859
10055SOL    HW231065   5.226   3.167   6.896
10056SOL     OW31066   4.963   3.852   2.947
10056SOL    HW131067   4.923   3.828   3.036
10056SOL    HW231068   4.984   3.768   2.897
10057SOL     OW31069   2.437   2.616   2.837
10057SOL    HW131070   2.394   2.703   2.813
10057SOL    HW231071   2.416   2.548   2.766
10058SOL     OW31072   0.935   4.980   3.917
10058SOL    HW131073   0.986   4.987   4.002
10058SOL    HW231074   0.853   5.038   3.922
10059SOL     OW31075   4.595   6.659   1.824
10059SOL    HW131076   4.535   6.722   1.776
10059SOL    HW231077   4.580   6.566   1.791
10060SOL     OW31078   2.486   2.443   2.328
10060SOL    HW131079   2.535   2.374   2.380
10060SOL    HW231080   2.526   2.451   2.236
10061SOL     OW31081   6.953   1.921   5.867
10061SOL    HW131082   0.007   1.888   5.804
10061SOL    HW231083   6.864   1.918   5.821
10062SOL     OW31084   5.206   5.838   2.921
10062SOL    HW131085   5.138   5.905   2.952
10062SOL    HW231086   5.251   5.872   2.839
10063SOL     OW31087   0.913   2.535   2.129
10063SOL    HW131088   0.820   2.514   2.160
10063SOL    HW231089   0.910   2.610   2.064
10064SOL     OW31090   5.051   4.906   5.650
10064SOL    HW131091   4.999   4.869   5.573
10064SOL    HW231092   5.085   4.831   5.707
10065SOL     OW31093   6.977   0.397   3.046
10065SOL    HW131094   6.973   0.470   2.977
10065SOL    HW231095   6.884   0.368   3.070
10066SOL     OW31096   0.085   0.659   3.929
10066SOL    HW131097   0.081   0.609   4.016
10066SOL    HW231098   0.103   0.756   3.947
10067SOL     OW31099   4.741   6.347   3.528
10067SOL    HW131100   4.661   6.361   3.470
10067SOL    HW231101   4.795   6.431   3.533
10068SOL     OW31102   5.424   3.456   5.473
10068SOL    HW131103   5.510   3.431   5.517
10068SOL    HW231104   5.348   3.425   5.530
10069SOL     OW31105   4.860   1.722   4.009
10069SOL    HW131106   4.877   1.637   3.960
10069SOL    HW231107   4.821   1.702   4.099
10070SOL     OW31108   1.431   0.260   4.342
10070SOL    HW131109   1.357   0.319   4.311
10070SOL    HW231110   1.452   0.281   4.438
10071SOL     OW31111   5.149   4.492   4.911
10071SOL    HW131112   5.159   4.513   5.008
10071SOL    HW231113   5.240   4.482   4.870
10072SOL     OW31114   1.165   6.516   3.863
10072SOL    HW131115   1.127   6.569   3.939
10072SOL    HW231116   1.259   6.490   3.884
10073SOL     OW31117   6.776   5.983   6.389
10073SOL    HW131118   6.716   5.994   6.309
10073SOL    HW231119   6.838   6.060   6.395
10074SOL     OW31120   1.915   0.056   4.848
10074SOL    HW131121   1.824   0.096   4.835
10074SOL    HW231122   1.984   0.114   4.804
10075SOL     OW31123   1.116   2.714   4.434
10075SOL    HW131124   1.177   2.659   4.378
10075SOL    HW231125   1.168   2.756   4.509
10076SOL     OW31126   6.014   0.016   3.731
10076SOL    HW131127   5.941   0.065   3.681
10076SOL    HW231128   6.089   7.014   3.668
10077SOL     OW31129   2.888   1.698   5.689
10077SOL    HW131130   2.933   1.759   5.755
10077SOL    HW231131   2.792   1.724   5.679
10078SOL     OW31132   5.281   6.353   4.999
10078SOL    HW131133   5.353   6.419   4.982
10078SOL    HW231134   5.233   6.376   5.084
10079SOL     OW31135   0.406   3.095   6.141
10079SOL    HW131136   0.439   3.051   6.225
10079SOL    HW231137   0.426   3.035   6.063
10080SOL     OW31138   1.199   2.787   5.519
10080SOL    HW131139   1.109   2.799   5.477
10080SOL    HW231140   1.249   2.715   5.472
10081SOL     OW31141   0.533   1.317   0.476
10081SOL    HW131142   0.586   1.339   0.558
10081SOL    HW231143   0.475   1.238   0.493
10082SOL     OW31144   6.766   0.643   0.548
10082SOL    HW131145   6.802   0.674   0.460
10082SOL    HW231146   6.833   0.583   0.592
10083SOL     OW31147   5.324   1.339   4.262
10083SOL    HW131148   5.376   1.375   4.340
10083SOL    HW231149   5.305   1.242   4.278
10084SOL     OW31150   2.372   0.307   6.190
10084SOL    HW131151   2.372   0.320   6.289
10084SOL    HW231152   2.463   0.330   6.154
10085SOL     OW31153   1.192   5.032   2.539
10085SOL    HW131154   1.217   5.129   2.543
10085SOL    HW231155   1.275   4.977   2.526
10086SOL     OW31156   6.864   3.021   1.984
10086SOL    HW131157   6.866   3.098   2.048
10086SOL    HW231158   6.894   3.052   1.894
10087SOL     OW31159   2.154   1.164   3.154
10087SOL    HW131160   2.254   1.172   3.160
10087SOL    HW231161   2.113   1.253   3.176
10088SOL     OW31162   5.712   0.155   4.765
10088SOL    HW131163   5.681   0.082   4.705
10088SOL    HW231164   5.792   0.124   4.817
10089SOL     OW31165   2.174   2.524   1.839
10089SOL    HW131166   2.208   2.513   1.933
10089SOL    HW231167   2.076   2.542   1.841
10090SOL     OW31168   0.744   5.438   1.972
10090SOL    HW131169   0.794   5.511   1.926
10090SOL    HW231170   0.735   5.460   2.069
10091SOL     OW31171   0.520   1.689   4.290
10091SOL    HW131172   0.453   1.669   4.362
10091SOL    HW231173   0.610   1.655   4.317
10092SOL     OW31174   1.933   2.901   5.594
10092SOL    HW131175   2.022   2.931   5.560
10092SOL    HW231176   1.861   2.930   5.531
10093SOL     OW31177   6.688   6.407   6.145
10093SOL    HW131178   6.693   6.391   6.243
10093SOL    HW231179   6.761   6.469   6.117
10094SOL     OW31180   1.455   0.313   1.735
10094SOL    HW131181   1.364   0.276   1.718
10094SOL    HW231182   1.457   0.357   1.825
10095SOL     OW31183   0.273   2.155   5.156
10095SOL    HW131184   0.298   2.178   5.061
10095SOL    HW231185   0.236   2.236   5.201
10096SOL     OW31186   6.688   5.432   2.507
10096SOL    HW131187   6.739   5.514   2.533
10096SOL    HW231188   6.594   5.457   2.484
10097SOL     OW31189   1.090   2.804   5.824
10097SOL    HW131190   1.101   2.760   5.913
10097SOL    HW231191   1.172   2.856   5.802
10098SOL     OW31192   3.761   5.290   6.615
10098SOL    HW131193   3.713   5.356   6.557
10098SOL    HW231194   3.698   5.256   6.685
10099SOL     OW31195   0.479   4.362   4.445
10099SOL    HW131196   0.498   4.410   4.359
10099SOL    HW231197   0.559   4.310   4.473
10100SOL     OW31198   4.827   0.207   5.721
10100SOL    HW131199   4.909   0.242   5.766
10100SOL    HW231200   4.837   0.109   5.705
10101SOL     OW31201   6.988   4.300   2.594
10101SOL    HW131202   6.898   4.275   2.630
10101SOL    HW231203   7.010   4.393   2.622
10102SOL     OW31204   3.987   0.737   4.112
10102SOL    HW131205   3.996   0.808   4.182
10102SOL    HW231206   4.073   0.729   4.061
10103SOL     OW31207   0.686   2.595   0.430
10103SOL    HW131208   0.654   2.688   0.447
10103SOL    HW231209   0.608   2.534   0.419
10104SOL     OW31210   2.473   6.154   5.489
10104SOL    HW131211   2.406   6.084   5.465
10104SOL    HW231212   2.491   6.212   5.409
10105SOL     OW31213   3.477   0.481   6.940
10105SOL    HW131214   3.527   0.568   6.944
10105SOL    HW231215   3.502   0.425   0.002
10106SOL     OW31216   4.415   5.360   0.904
10106SOL    HW131217   4.337   5.315   0.947
10106SOL    HW231218   4.484   5.382   0.973
10107SOL     OW31219   5.521   0.938   6.125
10107SOL    HW131220   5.519   0.992   6.041
10107SOL    HW231221   5.458   0.977   6.192
10108SOL     OW31222   5.108   6.306   6.270
10108SOL    HW131223   5.135   6.333   6.178
10108SOL    HW231224   5.177   6.244   6.308
10109SOL     OW31225   4.752   5.599   2.774
10109SOL    HW131226   4.774   5.692   2.743
10109SOL    HW231227   4.664   5.600   2.822
10110SOL     OW31228   3.321   1.825   5.976
10110SOL    HW131229   3.319   1.867   5.885
10110SOL    HW231230   3.310   1.896   6.046
10111SOL     OW31231   6.596   2.333   1.349
10111SOL    HW131232   6.623   2.415   1.398
10111SOL    HW231233   6.646   2.327   1.262
10112SOL     OW31234   4.545   3.502   6.113
10112SOL    HW131235   4.471   3.439   6.091
10112SOL    HW231236   4.520   3.595   6.087
10113SOL     OW31237   3.483   6.749   0.920
10113SOL    HW131238   3.455   6.845   0.929
10113SOL    HW231239   3.569   6.735   0.970
10114SOL     OW31240   4.838   1.610   1.844
10114SOL    HW131241   4.804   1.669   1.918
10114SOL    HW231242   4.764   1.551   1.812
10115SOL     OW31243   1.382   1.801   4.627
10115SOL    HW131244   1.301   1.811   4.685
10115SOL    HW231245   1.392   1.705   4.601
10116SOL     OW31246   0.427   0.418   0.940
10116SOL    HW131247   0.483   0.340   0.915
10116SOL    HW231248   0.348   0.387   0.993
10117SOL     OW31249   4.514   6.989   5.992
10117SOL    HW131250   4.511   0.066   5.958
10117SOL    HW231251   4.600   6.974   6.040
10118SOL     OW31252   6.011   5.552   2.420
10118SOL    HW131253   6.045   5.485   2.354
10118SOL    HW231254   6.027   5.518   2.513
10119SOL     OW31255   1.879   6.888   6.369
10119SOL    HW131256   1.968   6.883   6.414
10119SOL    HW231257   1.879   6.827   6.290
10120SOL     OW31258   5.723   3.723   3.597
10120SOL    HW131259   5.632   3.680   3.594
10120SOL    HW231260   5.714   3.820   3.616
10121SOL     OW31261   5.918   4.776   3.779
10121SOL    HW131262   5.943   4.795   3.874
10121SOL    HW231263   5.900   4.862   3.731
10122SOL     OW31264   5.274   2.520   0.584
10122SOL    HW131265   5.187   2.475   0.565
10122SOL    HW231266   5.259   2.618   0.596
10123SOL     OW31267   0.385   6.745   6.900
10123SOL    HW131268   0.357   6.765   6.993
10123SOL    HW231269   0.428   6.826   6.860
10124SOL     OW31270   3.151   4.006   0.693
10124SOL    HW131271   3.244   3.973   0.707
10124SOL    HW231272   3.086   3.930   0.702
10125SOL     OW31273   2.342   0.558   0.477
10125SOL    HW131274   2.358   0.644   0.525
10125SOL    HW231275   2.428   0.523   0.440
10126SOL     OW31276   5.821   5.151   6.023
10126SOL    HW131277   5.828   5.248   6.002
10126SOL    HW231278   5.797   5.100   5.941
10127SOL     OW31279   4.024   4.782   5.184
10127SOL    HW131280   3.981   4.729   5.257
10127SOL    HW231281   3.954   4.836   5.137
10128SOL     OW31282   1.028   1.233   1.221
10128SOL    HW131283   1.072   1.231   1.132
10128SOL    HW231284   1.092   1.202   1.291
10129SOL     OW31285   5.541   2.677   2.701
10129SOL    HW131286   5.580   2.601   2.649
10129SOL    HW231287   5.501   2.743   2.639
10130SOL     OW31288   6.061   6.033   1.498
10130SOL    HW131289   6.067   6.133   1.503
10130SOL    HW231290   5.995   6.009   1.426
10131SOL     OW31291   0.374   0.095   0.293
10131SOL    HW131292   0.420   0.124   0.209
10131SOL    HW231293   0.385   7.014   0.306
10132SOL     OW31294   2.579   6.611   2.745
10132SOL    HW131295   2.505   6.546   2.727
10132SOL    HW231296   2.605   6.656   2.659
10133SOL     OW31297   6.236   4.385   2.735
10133SOL    HW131298   6.175   4.464   2.728
10133SOL    HW231299   6.201   4.322   2.804
10134SOL     OW31300   0.304   1.501   1.806
10134SOL    HW131301   0.257   1.587   1.787
10134SOL    HW231302   0.236   1.427   1.812
10135SOL     OW31303   3.081   5.995   2.767
10135SOL    HW131304   3.025   5.980   2.849
10135SOL    HW231305   3.046   6.073   2.716
10136SOL     OW31306   6.373   6.497   2.574
10136SOL    HW131307   6.299   6.430   2.586
10136SOL    HW231308   6.420   6.479   2.487
10137SOL     OW31309   5.683   5.001   4.615
10137SOL    HW131310   5.690   5.010   4.714
10137SOL    HW231311   5.601   5.047   4.583
10138SOL     OW31312   6.315   2.822   5.835
10138SOL    HW131313   6.393   2.834   5.897
10138SOL    HW231314   6.234   2.863   5.876
10139SOL     OW31315   3.921   3.006   3.196
10139SOL    HW131316   3.892   3.012   3.292
10139SOL    HW231317   3.892   2.919   3.158
10140SOL     OW31318   1.038   4.952   4.177
10140SOL    HW131319   1.083   5.032   4.217
10140SOL    HW231320   1.063   4.871   4.230
10141SOL     OW31321   2.234   0.659   3.688
10141SOL    HW131322   2.263   0.657   3.784
10141SOL    HW231323   2.139   0.631   3.681
10142SOL     OW31324   5.278   5.720   4.485
10142SOL    HW131325   5.374   5.709   4.511
10142SOL    HW231326   5.264   5.682   4.393
10143SOL     OW31327   4.509   6.374   1.485
10143SOL    HW131328   4.465   6.456   1.448
10143SOL    HW231329   4.551   6.322   1.410
10144SOL     OW31330   2.619   4.588   2.793
10144SOL    HW131331   2.633   4.619   2.699
10144SOL    HW231332   2.615   4.488   2.794
10145SOL     OW31333   2.651   0.365   6.179
10145SOL    HW131334   2.676   0.270   6.197
10145SOL    HW231335   2.682   0.389   6.087
10146SOL     OW31336   4.763   5.110   4.412
10146SOL    HW131337   4.762   5.161   4.326
10146SOL    HW231338   4.773   5.012   4.393
10147SOL     OW31339   4.863   5.958   4.152
10147SOL    HW131340   4.902   5.914   4.233
10147SOL    HW231341   4.811   6.039   4.179
10148SOL     OW31342   6.485   5.605   0.705
10148SOL    HW131343   6.455   5.605   0.800
10148SOL    HW231344   6.542   5.686   0.688
10149SOL     OW31345   3.924   2.873   1.542
10149SOL    HW131346   3.962   2.884   1.450
10149SOL    HW231347   3.826   2.854   1.535
10150SOL     OW31348   5.603   4.188   0.733
10150SOL    HW131349   5.677   4.241   0.776
10150SOL    HW231350   5.537   4.161   0.803
10151SOL     OW31351   0.436   5.422   5.779
10151SOL    HW131352   0.471   5.464   5.695
10151SOL    HW231353   0.406   5.494   5.841
10152SOL     OW31354   0.755   5.553   4.135
10152SOL    HW131355   0.832   5.492   4.156
10152SOL    HW231356   0.790   5.643   4.112
10153SOL     OW31357   5.212   5.343   3.883
10153SOL    HW131358   5.124   5.385   3.859
10153SOL    HW231359   5.282   5.373   3.818
10154SOL     OW31360   6.631   5.934   5.717
10154SOL    HW131361   6.650   5.937   5.619
10154SOL    HW231362   6.620   6.028   5.751
10155SOL     OW31363   3.493   1.300   6.038
10155SOL    HW131364   3.430   1.227   6.014
10155SOL    HW231365   3.448   1.389   6.025
10156SOL     OW31366   5.570   0.144   2.381
10156SOL    HW131367   5.543   0.237   2.405
10156SOL    HW231368   5.599   0.141   2.286
10157SOL     OW31369   4.886   0.610   4.013
10157SOL    HW131370   4.918   0.639   3.923
10157SOL    HW231371   4.888   0.687   4.076
10158SOL     OW31372   4.637   3.145   5.904
10158SOL    HW131373   4.661   3.160   6.000
10158SOL    HW231374   4.671   3.221   5.849
10159SOL     OW31375   1.703   1.047   6.064
10159SOL    HW131376   1.719   1.091   6.152
10159SOL    HW231377   1.749   0.958   6.062
10160SOL     OW31378   0.370   5.849   3.867
10160SOL    HW131379   0.345   5.903   3.786
10160SOL    HW231380   0.457   5.883   3.903
10161SOL     OW31381   3.014   5.817   4.886
10161SOL    HW131382   3.103   5.810   4.929
10161SOL    HW231383   2.944   5.834   4.955
10162SOL     OW31384   3.189   2.731   6.396
10162SOL    HW131385   3.199   2.635   6.369
10162SOL    HW231386   3.220   2.790   6.321
10163SOL     OW31387   0.884   3.301   5.537
10163SOL    HW131388   0.808   3.337   5.482
10163SOL    HW231389   0.917   3.371   5.599
10164SOL     OW31390   1.398   2.436   6.386
10164SOL    HW131391   1.327   2.415   6.319
10164SOL    HW231392   1.389   2.531   6.416
10165SOL     OW31393   0.268   2.224   3.043
10165SOL    HW131394   0.274   2.228   3.143
10165SOL    HW231395   0.350   2.264   3.003
10166SOL     OW31396   0.605   1.000   2.300
10166SOL    HW131397   0.557   1.046   2.374
10166SOL    HW231398   0.539   0.974   2.229
10167SOL     OW31399   5.073   0.677   0.714
10167SOL    HW131400   5.102   0.669   0.619
10167SOL    HW231401   5.127   0.748   0.759
10168SOL     OW31402   6.639   4.741   4.518
10168SOL    HW131403   6.614   4.838   4.520
10168SOL    HW231404   6.556   4.685   4.519
10169SOL     OW31405   6.430   4.141   4.888
10169SOL    HW131406   6.349   4.199   4.896
10169SOL    HW231407   6.510   4.198   4.870
10170SOL     OW31408   1.357   4.466   4.928
10170SOL    HW131409   1.313   4.523   4.858
10170SOL    HW231410   1.431   4.413   4.887
10171SOL     OW31411   5.785   2.535   6.259
10171SOL    HW131412   5.711   2.511   6.322
10171SOL    HW231413   5.749   2.590   6.184
10172SOL     OW31414   4.822   0.485   4.592
10172SOL    HW131415   4.723   0.477   4.601
10172SOL    HW231416   4.858   0.542   4.666
10173SOL     OW31417   1.867   2.725   2.829
10173SOL    HW131418   1.769   2.726   2.848
10173SOL    HW231419   1.917   2.757   2.909
10174SOL     OW31420   6.574   4.527   1.184
10174SOL    HW131421   6.503   4.582   1.141
10174SOL    HW231422   6.546   4.431   1.186
10175SOL     OW31423   5.586   2.506   5.576
10175SOL    HW131424   5.617   2.598   5.549
10175SOL    HW231425   5.600   2.443   5.500
10176SOL     OW31426   2.180   3.361   0.766
10176SOL    HW131427   2.267   3.314   0.780
10176SOL    HW231428   2.189   3.457   0.792
10177SOL     OW31429   1.864   0.163   5.197
10177SOL    HW131430   1.908   0.190   5.283
10177SOL    HW231431   1.871   0.238   5.131
10178SOL     OW31432   5.675   2.769   4.928
10178SOL    HW131433   5.602   2.784   4.861
10178SOL    HW231434   5.677   2.672   4.953
10179SOL     OW31435   0.052   2.840   0.037
10179SOL    HW131436   6.975   2.840   0.071
10179SOL    HW231437   0.070   2.755   7.006
10180SOL     OW31438   1.930   6.434   6.116
10180SOL    HW131439   1.881   6.415   6.031
10180SOL    HW231440   1.914   6.529   6.144
10181SOL     OW31441   6.181   3.617   2.305
10181SOL    HW131442   6.113   3.545   2.294
10181SOL    HW231443   6.172   3.659   2.395
10182SOL     OW31444   4.323   1.611   0.755
10182SOL    HW131445   4.238   1.571   0.721
10182SOL    HW231446   4.358   1.676   0.688
10183SOL     OW31447   1.991   1.419   6.116
10183SOL    HW131448   2.034   1.380   6.034
10183SOL    HW231449   1.891   1.408   6.109
10184SOL     OW31450   4.849   0.377   0.051
10184SOL    HW131451   4.940   0.400   0.019
10184SOL    HW231452   4.806   0.312   7.005
10185SOL     OW31453   4.523   1.195   0.360
10185SOL    HW131454   4.548   1.188   0.263
10185SOL    HW231455   4.506   1.103   0.397
10186SOL     OW31456   4.761   2.311   3.022
10186SOL    HW131457   4.801   2.365   2.947
10186SOL    HW231458   4.691   2.250   2.985
10187SOL     OW31459   0.961   2.321   2.479
10187SOL    HW131460   0.953   2.337   2.577
10187SOL    HW231461   1.017   2.392   2.437
10188SOL     OW31462   4.129   5.274   0.413
10188SOL    HW131463   4.177   5.318   0.489
10188SOL    HW231464   4.069   5.340   0.368
10189SOL     OW31465   1.314   6.958   5.092
10189SOL    HW131466   1.376   6.944   5.170
10189SOL    HW231467   1.361   7.010   5.021
10190SOL     OW31468   5.553   2.811   6.949
10190SOL    HW131469   5.605   2.896   6.940
10190SOL    HW231470   5.506   2.791   6.863
10191SOL     OW31471   6.894   4.588   6.522
10191SOL    HW131472   6.947   4.571   6.606
10191SOL    HW231473   6.806   4.629   6.546
10192SOL     OW31474   3.578   1.711   0.139
10192SOL    HW131475   3.570   1.752   0.229
10192SOL    HW231476   3.667   1.735   0.099
10193SOL     OW31477   4.773   4.416   0.584
10193SOL    HW131478   4.685   4.420   0.632
10193SOL    HW231479   4.797   4.321   0.566
10194SOL     OW31480   5.126   2.555   5.011
10194SOL    HW131481   5.075   2.478   5.051
10194SOL    HW231482   5.154   2.617   5.084
10195SOL     OW31483   5.896   4.508   2.091
10195SOL    HW131484   5.874   4.442   2.018
10195SOL    HW231485   5.953   4.463   2.160
10196SOL     OW31486   0.447   1.981   4.298
10196SOL    HW131487   0.490   1.893   4.278
10196SOL    HW231488   0.476   2.048   4.229
10197SOL     OW31489   5.616   0.403   6.888
10197SOL    HW131490   5.551   0.448   6.827
10197SOL    HW231491   5.582   0.408   6.982
10198SOL     OW31492   4.212   6.995   3.034
10198SOL    HW131493   4.128   6.957   3.075
10198SOL    HW231494   4.237   6.941   2.954
10199SOL     OW31495   0.648   2.320   5.564
10199SOL    HW131496   0.548   2.316   5.572
10199SOL    HW231497   0.683   2.394   5.623
10200SOL     OW31498   5.360   2.364   1.965
10200SOL    HW131499   5.441   2.351   1.907
10200SOL    HW231500   5.278   2.354   1.909
10201SOL     OW31501   1.995   3.699   0.745
10201SOL    HW131502   2.046   3.642   0.681
10201SOL    HW231503   1.973   3.647   0.827
10202SOL     OW31504   4.966   0.608   3.748
10202SOL    HW131505   4.941   0.674   3.677
10202SOL    HW231506   5.018   0.534   3.708
10203SOL     OW31507   7.001   2.743   5.351
10203SOL    HW131508   6.996   2.842   5.366
10203SOL    HW231509   6.992   2.695   5.437
10204SOL     OW31510   5.220   4.514   6.371
10204SOL    HW131511   5.150   4.447   6.349
10204SOL    HW231512   5.247   4.564   6.289
10205SOL     OW31513   0.405   1.484   6.644
10205SOL    HW131514   0.469   1.471   6.568
10205SOL    HW231515   0.314   1.504   6.608
10206SOL     OW31516   1.872   1.836   4.520
10206SOL    HW131517   1.912   1.817   4.430
10206SOL    HW231518   1.900   1.927   4.550
10207SOL     OW31519   2.368   2.437   5.840
10207SOL    HW131520   2.365   2.503   5.765
10207SOL    HW231521   2.427   2.361   5.815
10208SOL     OW31522   6.768   0.112   5.856
10208SOL    HW131523   6.775   0.014   5.874
10208SOL    HW231524   6.821   0.163   5.924
10209SOL     OW31525   6.871   6.508   5.288
10209SOL    HW131526   6.914   6.418   5.274
10209SOL    HW231527   6.914   6.554   5.365
10210SOL     OW31528   3.777   0.723   1.818
10210SOL    HW131529   3.748   0.766   1.903
10210SOL    HW231530   3.835   0.785   1.767
10211SOL     OW31531   5.026   5.260   6.051
10211SOL    HW131532   4.977   5.188   6.001
10211SOL    HW231533   4.972   5.344   6.052
10212SOL     OW31534   0.371   0.789   6.721
10212SOL    HW131535   0.288   0.845   6.733
10212SOL    HW231536   0.376   0.722   6.795
10213SOL     OW31537   6.890   2.969   1.363
10213SOL    HW131538   6.880   2.973   1.264
10213SOL    HW231539   6.984   2.992   1.389
10214SOL     OW31540   1.354   2.816   0.127
10214SOL    HW131541   1.384   2.907   0.100
10214SOL    HW231542   1.403   2.788   0.210
10215SOL     OW31543   3.435   4.142   2.382
10215SOL    HW131544   3.419   4.238   2.358
10215SOL    HW231545   3.490   4.138   2.465
10216SOL     OW31546   0.083   6.595   1.925
10216SOL    HW131547   0.119   6.668   1.868
10216SOL    HW231548   0.038   6.635   2.005
10217SOL     OW31549   4.142   1.570   4.894
10217SOL    HW131550   4.121   1.635   4.967
10217SOL    HW231551   4.103   1.604   4.808
10218SOL     OW31552   1.044   2.841   2.938
10218SOL    HW131553   1.060   2.939   2.946
10218SOL    HW231554   1.019   2.819   2.844
10219SOL     OW31555   6.606   6.294   2.753
10219SOL    HW131556   6.549   6.243   2.689
10219SOL    HW231557   6.583   6.391   2.749
10220SOL     OW31558   3.566   3.522   6.900
10220SOL    HW131559   3.476   3.545   6.865
10220SOL    HW231560   3.563   3.513   6.999
10221SOL     OW31561   1.138   5.385   3.045
10221SOL    HW131562   1.164   5.332   3.126
10221SOL    HW231563   1.040   5.374   3.029
10222SOL     OW31564   3.008   3.887   3.557
10222SOL    HW131565   3.078   3.913   3.490
10222SOL    HW231566   2.954   3.811   3.521
10223SOL     OW31567   2.571   6.687   0.816
10223SOL    HW131568   2.500   6.743   0.860
10223SOL    HW231569   2.551   6.590   0.830
10224SOL     OW31570   6.801   3.287   2.918
10224SOL    HW131571   6.812   3.194   2.953
10224SOL    HW231572   6.890   3.332   2.914
10225SOL     OW31573   1.821   3.821   5.855
10225SOL    HW131574   1.815   3.904   5.799
10225SOL    HW231575   1.835   3.847   5.951
10226SOL     OW31576   4.247   4.381   0.070
10226SOL    HW131577   4.183   4.395   0.146
10226SOL    HW231578   4.320   4.449   0.073
10227SOL     OW31579   5.102   4.108   1.047
10227SOL    HW131580   5.162   4.174   1.001
10227SOL    HW231581   5.090   4.134   1.142
10228SOL     OW31582   5.511   0.470   0.395
10228SOL    HW131583   5.436   0.535   0.405
10228SOL    HW231584   5.517   0.414   0.478
10229SOL     OW31585   0.593   1.901   4.691
10229SOL    HW131586   0.585   1.805   4.717
10229SOL    HW231587   0.603   1.957   4.774
10230SOL     OW31588   6.708   6.111   1.650
10230SOL    HW131589   6.762   6.193   1.630
10230SOL    HW231590   6.752   6.059   1.724
10231SOL     OW31591   0.494   3.855   2.298
10231SOL    HW131592   0.404   3.899   2.309
10231SOL    HW231593   0.544   3.901   2.225
10232SOL     OW31594   4.632   4.697   2.397
10232SOL    HW131595   4.652   4.783   2.444
10232SOL    HW231596   4.717   4.657   2.363
10233SOL     OW31597   3.260   3.830   5.898
10233SOL    HW131598   3.239   3.733   5.892
10233SOL    HW231599   3.205   3.880   5.831
10234SOL     OW31600   0.709   0.745   2.258
10234SOL    HW131601   0.657   0.825   2.288
10234SOL    HW231602   0.679   0.665   2.310
10235SOL     OW31603   1.050   1.088   2.925
10235SOL    HW131604   1.142   1.123   2.945
10235SOL    HW231605   1.058   1.000   2.879
10236SOL     OW31606   0.684   0.754   2.923
10236SOL    HW131607   0.729   0.674   2.962
10236SOL    HW231608   0.720   0.771   2.831
10237SOL     OW31609   6.846   3.828   5.586
10237SOL    HW131610   6.907   3.854   5.510
10237SOL    HW231611   6.752   3.856   5.564
10238SOL     OW31612   2.948   6.877   1.481
10238SOL    HW131613   2.944   6.897   1.383
10238SOL    HW231614   2.886   6.938   1.530
10239SOL     OW31615   1.071   2.360   5.118
10239SOL    HW131616   1.081   2.378   5.216
10239SOL    HW231617   0.986   2.401   5.085
10240SOL     OW31618   2.048   5.945   1.479
10240SOL    HW131619   2.031   5.981   1.387
10240SOL    HW231620   1.961   5.925   1.523
10241SOL     OW31621   4.248   3.612   1.728
10241SOL    HW131622   4.214   3.670   1.654
10241SOL    HW231623   4.229   3.655   1.816
10242SOL     OW31624   0.266   3.618   1.090
10242SOL    HW131625   0.203   3.680   1.042
10242SOL    HW231626   0.321   3.670   1.155
10243SOL     OW31627   3.469   5.406   2.139
10243SOL    HW131628   3.561   5.368   2.151
10243SOL    HW231629   3.458   5.434   2.044
10244SOL     OW31630   2.449   5.038   1.547
10244SOL    HW131631   2.548   5.027   1.536
10244SOL    HW231632   2.428   5.053   1.644
10245SOL     OW31633   6.283   4.147   1.238
10245SOL    HW131634   6.263   4.237   1.277
10245SOL    HW231635   6.226   4.078   1.282
10246SOL     OW31636   3.569   3.277   3.568
10246SOL    HW131637   3.623   3.308   3.490
10246SOL    HW231638   3.476   3.313   3.562
10247SOL     OW31639   0.786   3.267   4.837
10247SOL    HW131640   0.824   3.358   4.855
10247SOL    HW231641   0.772   3.255   4.739
10248SOL     OW31642   0.408   1.460   4.487
10248SOL    HW131643   0.351   1.414   4.555
10248SOL    HW231644   0.444   1.392   4.423
10249SOL     OW31645   2.671   4.448   5.692
10249SOL    HW131646   2.690   4.545   5.709
10249SOL    HW231647   2.756   4.402   5.666
10250SOL     OW31648   3.082   2.992   0.298
10250SOL    HW131649   3.169   3.017   0.255
10250SOL    HW231650   3.057   3.062   0.365
10251SOL     OW31651   0.954   0.677   4.602
10251SOL    HW131652   1.018   0.600   4.598
10251SOL    HW231653   0.982   0.740   4.676
10252SOL     OW31654   4.896   4.356   5.970
10252SOL    HW131655   4.957   4.298   6.024
10252SOL    HW231656   4.883   4.316   5.879
10253SOL     OW31657   3.652   5.811   6.692
10253SOL    HW131658   3.643   5.716   6.719
10253SOL    HW231659   3.634   5.820   6.594
10254SOL     OW31660   6.457   1.327   6.414
10254SOL    HW131661   6.492   1.379   6.336
10254SOL    HW231662   6.530   1.271   6.454
10255SOL     OW31663   4.029   4.556   1.763
10255SOL    HW131664   4.023   4.601   1.852
10255SOL    HW231665   4.111   4.499   1.760
10256SOL     OW31666   2.901   1.391   4.571
10256SOL    HW131667   2.995   1.398   4.539
10256SOL    HW231668   2.841   1.441   4.508
10257SOL     OW31669   3.447   5.812   3.132
10257SOL    HW131670   3.400   5.802   3.219
10257SOL    HW231671   3.454   5.909   3.108
10258SOL     OW31672   2.892   1.716   2.280
10258SOL    HW131673   2.969   1.761   2.324
10258SOL    HW231674   2.925   1.638   2.226
10259SOL     OW31675   1.308   4.182   3.924
10259SOL    HW131676   1.336   4.256   3.864
10259SOL    HW231677   1.355   4.190   4.012
10260SOL     OW31678   0.603   0.577   3.330
10260SOL    HW131679   0.546   0.542   3.255
10260SOL    HW231680   0.564   0.548   3.417
10261SOL     OW31681   0.241   3.978   1.100
10261SOL    HW131682   0.157   3.958   1.051
10261SOL    HW231683   0.233   3.946   1.195
10262SOL     OW31684   3.736   0.801   0.218
10262SOL    HW131685   3.797   0.721   0.209
10262SOL    HW231686   3.675   0.788   0.296
10263SOL     OW31687   5.365   0.017   3.075
10263SOL    HW131688   5.414   6.967   3.132
10263SOL    HW231689   5.424   0.044   2.998
10264SOL     OW31690   6.658   0.436   6.258
10264SOL    HW131691   6.641   0.504   6.329
10264SOL    HW231692   6.749   0.396   6.270
10265SOL     OW31693   1.822   1.267   2.403
10265SOL    HW131694   1.876   1.232   2.479
10265SOL    HW231695   1.768   1.193   2.363
10266SOL     OW31696   2.724   3.771   1.298
10266SOL    HW131697   2.823   3.765   1.314
10266SOL    HW231698   2.685   3.840   1.359
10267SOL     OW31699   6.470   0.407   0.912
10267SOL    HW131700   6.470   0.350   0.829
10267SOL    HW231701   6.479   0.349   0.992
10268SOL     OW31702   3.076   5.480   2.549
10268SOL    HW131703   3.121   5.419   2.483
10268SOL    HW231704   3.094   5.575   2.524
10269SOL     OW31705   2.266   1.399   7.005
10269SOL    HW131706   2.353   1.351   7.012
10269SOL    HW231707   2.274   1.489   0.030
10270SOL     OW31708   2.570   0.253   3.953
10270SOL    HW131709   2.525   0.342   3.943
10270SOL    HW231710   2.634   0.240   3.877
10271SOL     OW31711   2.138   1.164   6.947
10271SOL    HW131712   2.172   1.099   7.015
10271SOL    HW231713   2.178   1.254   6.964
10272SOL     OW31714   5.823   6.479   5.013
10272SOL    HW131715   5.860   6.392   5.046
10272SOL    HW231716   5.857   6.497   4.920
10273SOL     OW31717   1.717   5.566   3.091
10273SOL    HW131718   1.655   5.488   3.101
10273SOL    HW231719   1.791   5.541   3.029
10274SOL     OW31720   0.923   3.809   5.289
10274SOL    HW131721   0.824   3.797   5.296
10274SOL    HW231722   0.947   3.835   5.196
10275SOL     OW31723   0.139   1.051   2.258
10275SOL    HW131724   0.107   1.071   2.165
10275SOL    HW231725   0.186   1.131   2.295
10276SOL     OW31726   3.167   5.075   5.368
10276SOL    HW131727   3.076   5.108   5.393
10276SOL    HW231728   3.167   5.045   5.273
10277SOL     OW31729   0.860   5.491   3.607
10277SOL    HW131730   0.857   5.434   3.690
10277SOL    HW231731   0.806   5.447   3.535
10278SOL     OW31732   6.423   0.010   4.642
10278SOL    HW131733   6.327   0.037   4.654
10278SOL    HW231734   6.442   7.015   4.545
10279SOL     OW31735   1.142   4.725   4.301
10279SOL    HW131736   1.111   4.660   4.231
10279SOL    HW231737   1.240   4.739   4.293
10280SOL     OW31738   6.349   5.264   0.779
10280SOL    HW131739   6.444   5.263   0.811
10280SOL    HW231740   6.300   5.337   0.826
10281SOL     OW31741   6.198   0.165   4.928
10281SOL    HW131742   6.245   0.251   4.907
10281SOL    HW231743   6.266   0.093   4.940
10282SOL     OW31744   4.607   2.569   3.166
10282SOL    HW131745   4.673   2.608   3.102
10282SOL    HW231746   4.618   2.610   3.256
10283SOL     OW31747   0.163   2.248   0.668
10283SOL    HW131748   0.181   2.193   0.749
10283SOL    HW231749   0.158   2.345   0.695
10284SOL     OW31750   0.623   4.946   4.955
10284SOL    HW131751   0.546   4.962   4.893
10284SOL    HW231752   0.677   4.868   4.923
10285SOL     OW31753   6.933   6.498   6.471
10285SOL    HW131754   6.980   6.562   6.532
10285SOL    HW231755   6.950   6.523   6.376
10286SOL     OW31756   2.990   0.978   2.113
10286SOL    HW131757   2.903   1.012   2.150
10286SOL    HW231758   3.064   1.038   2.143
10287SOL     OW31759   0.347   5.836   2.700
10287SOL    HW131760   0.323   5.820   2.605
10287SOL    HW231761   0.321   5.929   2.726
10288SOL     OW31762   4.026   5.739   4.237
10288SOL    HW131763   4.003   5.811   4.172
10288SOL    HW231764   4.107   5.690   4.205
10289SOL     OW31765   4.029   6.141   6.989
10289SOL    HW131766   4.122   6.157   6.955
10289SOL    HW231767   3.980   6.082   6.925
10290SOL     OW31768   3.229   3.422   2.466
10290SOL    HW131769   3.235   3.512   2.423
10290SOL    HW231770   3.284   3.356   2.415
10291SOL     OW31771   3.052   2.120   2.330
10291SOL    HW131772   3.148   2.129   2.354
10291SOL    HW231773   3.042   2.123   2.230
10292SOL     OW31774   0.160   0.213   5.860
10292SOL    HW131775   0.079   0.226   5.917
10292SOL    HW231776   0.242   0.213   5.918
10293SOL     OW31777   1.193   3.146   5.279
10293SOL    HW131778   1.164   3.099   5.363
10293SOL    HW231779   1.216   3.241   5.300
10294SOL     OW31780   1.737   6.747   1.791
10294SOL    HW131781   1.786   6.825   1.829
10294SOL    HW231782   1.718   6.764   1.694
10295SOL     OW31783   1.756   1.039   0.898
10295SOL    HW131784   1.833   1.009   0.842
10295SOL    HW231785   1.784   1.114   0.957
10296SOL     OW31786   6.389   2.593   5.362
10296SOL    HW131787   6.372   2.609   5.265
10296SOL    HW231788   6.476   2.635   5.389
10297SOL     OW31789   4.793   1.033   1.003
10297SOL    HW131790   4.733   0.953   0.996
10297SOL    HW231791   4.852   1.037   0.922
10298SOL     OW31792   1.053   1.904   1.714
10298SOL    HW131793   1.021   1.988   1.670
10298SOL    HW231794   1.015   1.825   1.667
10299SOL     OW31795   5.071   6.925   2.361
10299SOL    HW131796   5.035   6.871   2.285
10299SOL    HW231797   5.170   6.933   2.352
10300SOL     OW31798   1.299   2.819   0.793
10300SOL    HW131799   1.229   2.760   0.834
10300SOL    HW231800   1.285   2.913   0.824
10301SOL     OW31801   3.946   1.330   0.250
10301SOL    HW131802   3.972   1.337   0.153
10301SOL    HW231803   3.865   1.273   0.258
10302SOL     OW31804   3.421   6.133   5.755
10302SOL    HW131805   3.361   6.108   5.679
10302SOL    HW231806   3.515   6.107   5.734
10303SOL     OW31807   0.723   4.464   5.085
10303SOL    HW131808   0.640   4.472   5.030
10303SOL    HW231809   0.800   4.504   5.035
10304SOL     OW31810   5.204   6.284   1.536
10304SOL    HW131811   5.205   6.381   1.515
10304SOL    HW231812   5.230   6.232   1.454
10305SOL     OW31813   2.856   3.679   5.347
10305SOL    HW131814   2.846   3.616   5.424
10305SOL    HW231815   2.931   3.647   5.288
10306SOL     OW31816   4.274   0.837   1.001
10306SOL    HW131817   4.321   0.854   1.088
10306SOL    HW231818   4.315   0.893   0.929
10307SOL     OW31819   1.862   0.364   5.005
10307SOL    HW131820   1.891   0.309   4.927
10307SOL    HW231821   1.859   0.460   4.978
10308SOL     OW31822   2.813   4.606   1.589
10308SOL    HW131823   2.721   4.571   1.572
10308SOL    HW231824   2.851   4.563   1.671
10309SOL     OW31825   0.258   0.947   5.135
10309SOL    HW131826   0.158   0.957   5.127
10309SOL    HW231827   0.301   1.036   5.123
10310SOL     OW31828   3.504   4.038   6.404
10310SOL    HW131829   3.426   4.020   6.343
10310SOL    HW231830   3.556   3.954   6.417
10311SOL     OW31831   5.728   6.085   6.945
10311SOL    HW131832   5.709   6.173   6.902
10311SOL    HW231833   5.772   6.024   6.880
10312SOL     OW31834   3.101   6.901   2.382
10312SOL    HW131835   3.120   6.956   2.301
10312SOL    HW231836   3.136   6.808   2.368
10313SOL     OW31837   5.090   6.547   2.994
10313SOL    HW131838   5.061   6.533   3.088
10313SOL    HW231839   5.163   6.615   2.991
10314SOL     OW31840   1.027   6.615   0.904
10314SOL    HW131841   1.055   6.652   0.816
10314SOL    HW231842   1.041   6.516   0.905
10315SOL     OW31843   4.993   4.437   3.686
10315SOL    HW131844   4.922   4.491   3.731
10315SOL    HW231845   5.071   4.496   3.665
10316SOL     OW31846   1.346   1.894   0.404
10316SOL    HW131847   1.291   1.966   0.362
10316SOL    HW231848   1.443   1.913   0.390
10317SOL     OW31849   4.011   6.261   4.881
10317SOL    HW131850   3.976   6.252   4.975
10317SOL    HW231851   4.105   6.295   4.884
10318SOL     OW31852   6.325   0.219   0.262
10318SOL    HW131853   6.392   0.216   0.188
10318SOL    HW231854   6.341   0.143   0.326
10319SOL     OW31855   0.781   4.583   4.308
10319SOL    HW131856   0.874   4.559   4.335
10319SOL    HW231857   0.779   4.677   4.274
10320SOL     OW31858   6.420   0.037   2.692
10320SOL    HW131859   6.369   6.986   2.745
10320SOL    HW231860   6.366   0.121   2.686
10321SOL     OW31861   5.804   2.442   2.779
10321SOL    HW131862   5.766   2.426   2.688
10321SOL    HW231863   5.831   2.355   2.820
10322SOL     OW31864   4.625   4.509   5.048
10322SOL    HW131865   4.662   4.418   5.068
10322SOL    HW231866   4.526   4.505   5.043
10323SOL     OW31867   1.594   4.595   6.048
10323SOL    HW131868   1.504   4.637   6.030
10323SOL    HW231869   1.622   4.541   5.968
10324SOL     OW31870   2.951   3.562   2.987
10324SOL    HW131871   2.934   3.660   2.989
10324SOL    HW231872   3.013   3.539   2.913
10325SOL     OW31873   5.460   5.893   4.744
10325SOL    HW131874   5.434   5.825   4.813
10325SOL    HW231875   5.379   5.918   4.691
10326SOL     OW31876   5.420   3.500   0.189
10326SOL    HW131877   5.469   3.494   0.102
10326SOL    HW231878   5.339   3.441   0.186
10327SOL     OW31879   1.736   5.561   6.581
10327SOL    HW131880   1.784   5.646   6.604
10327SOL    HW231881   1.794   5.506   6.520
10328SOL     OW31882   5.744   2.524   2.312
10328SOL    HW131883   5.736   2.437   2.360
10328SOL    HW231884   5.667   2.583   2.338
10329SOL     OW31885   3.692   1.831   1.629
10329SOL    HW131886   3.720   1.925   1.650
10329SOL    HW231887   3.763   1.786   1.576
10330SOL     OW31888   5.151   6.951   1.520
10330SOL    HW131889   5.090   6.974   1.596
10330SOL    HW231890   5.230   7.013   1.521
10331SOL     OW31891   5.273   5.196   5.957
10331SOL    HW131892   5.190   5.241   5.989
10331SOL    HW231893   5.301   5.126   6.023
10332SOL     OW31894   1.759   1.910   6.323
10332SOL    HW131895   1.849   1.944   6.351
10332SOL    HW231896   1.698   1.906   6.402
10333SOL     OW31897   1.316   3.735   4.463
10333SOL    HW131898   1.415   3.736   4.478
10333SOL    HW231899   1.289   3.646   4.427
10334SOL     OW31900   3.494   1.184   4.406
10334SOL    HW131901   3.500   1.205   4.308
10334SOL    HW231902   3.432   1.106   4.420
10335SOL     OW31903   2.100   3.086   4.540
10335SOL    HW131904   2.150   3.092   4.626
10335SOL    HW231905   2.009   3.127   4.552
10336SOL     OW31906   5.683   6.524   3.888
10336SOL    HW131907   5.767   6.578   3.896
10336SOL    HW231908   5.603   6.583   3.899
10337SOL     OW31909   6.469   6.202   0.098
10337SOL    HW131910   6.447   6.210   0.001
10337SOL    HW231911   6.564   6.173   0.108
10338SOL     OW31912   0.994   6.366   1.785
10338SOL    HW131913   0.976   6.450   1.838
10338SOL    HW231914   0.928   6.360   1.711
10339SOL     OW31915   5.373   2.686   5.614
10339SOL    HW131916   5.342   2.760   5.554
10339SOL    HW231917   5.412   2.613   5.558
10340SOL     OW31918   2.708   4.271   6.408
10340SOL    HW131919   2.725   4.269   6.310
10340SOL    HW231920   2.719   4.365   6.442
10341SOL     OW31921   2.710   4.631   3.398
10341SOL    HW131922   2.732   4.716   3.350
10341SOL    HW231923   2.657   4.652   3.480
10342SOL     OW31924   0.773   1.150   3.744
10342SOL    HW131925   0.682   1.190   3.730
10342SOL    HW231926   0.769   1.051   3.728
10343SOL     OW31927   3.938   5.169   1.924
10343SOL    HW131928   3.883   5.087   1.909
10343SOL    HW231929   3.948   5.219   1.838
10344SOL     OW31930   5.093   6.717   6.485
10344SOL    HW131931   5.109   6.816   6.485
10344SOL    HW231932   5.001   6.698   6.521
10345SOL     OW31933   1.213   3.777   4.839
10345SOL    HW131934   1.219   3.858   4.781
10345SOL    HW231935   1.209   3.695   4.781
10346SOL     OW31936   0.521   5.953   0.179
10346SOL    HW131937   0.429   5.992   0.182
10346SOL    HW231938   0.518   5.859   0.213
10347SOL     OW31939   6.188   1.822   4.899
10347SOL    HW131940   6.242   1.815   4.983
10347SOL    HW231941   6.247   1.847   4.823
10348SOL     OW31942   0.602   4.999   0.955
10348SOL    HW131943   0.569   4.949   1.036
10348SOL    HW231944   0.588   5.097   0.968
10349SOL     OW31945   6.796   6.391   6.768
10349SOL    HW131946   6.864   6.331   6.727
10349SOL    HW231947   6.735   6.426   6.697
10350SOL     OW31948   3.820   0.541   6.193
10350SOL    HW131949   3.877   0.506   6.119
10350SOL    HW231950   3.794   0.465   6.254
10351SOL     OW31951   4.492   5.787   5.863
10351SOL    HW131952   4.582   5.745   5.879
10351SOL    HW231953   4.503   5.886   5.853
10352SOL     OW31954   4.081   5.068   5.996
10352SOL    HW131955   4.063   5.001   6.067
10352SOL    HW231956   4.018   5.145   6.006
10353SOL     OW31957   0.657   3.351   5.200
10353SOL    HW131958   0.681   3.267   5.152
10353SOL    HW231959   0.593   3.404   5.144
10354SOL     OW31960   5.362   1.789   0.568
10354SOL    HW131961   5.431   1.840   0.518
10354SOL    HW231962   5.272   1.828   0.549
10355SOL     OW31963   1.151   4.151   3.087
10355SOL    HW131964   1.237   4.135   3.039
10355SOL    HW231965   1.165   4.222   3.157
10356SOL     OW31966   0.289   2.760   4.834
10356SOL    HW131967   0.313   2.799   4.745
10356SOL    HW231968   0.370   2.721   4.876
10357SOL     OW31969   2.860   2.801   6.140
10357SOL    HW131970   2.857   2.796   6.240
10357SOL    HW231971   2.771   2.831   6.105
10358SOL     OW31972   0.544   0.570   2.390
10358SOL    HW131973   0.479   0.522   2.448
10358SOL    HW231974   0.586   0.504   2.327
10359SOL     OW31975   0.903   1.396   0.784
10359SOL    HW131976   0.883   1.374   0.688
10359SOL    HW231977   0.969   1.331   0.820
10360SOL     OW31978   0.070   4.668   3.706
10360SOL    HW131979   7.001   4.704   3.670
10360SOL    HW231980   0.052   4.612   3.787
10361SOL     OW31981   2.473   5.034   0.656
10361SOL    HW131982   2.476   5.091   0.574
10361SOL    HW231983   2.493   5.091   0.736
10362SOL     OW31984   0.975   4.564   5.278
10362SOL    HW131985   0.906   4.601   5.341
10362SOL    HW231986   0.998   4.470   5.306
10363SOL     OW31987   5.318   0.187   4.392
10363SOL    HW131988   5.356   0.270   4.351
10363SOL    HW231989   5.279   0.129   4.321
10364SOL     OW31990   1.359   4.243   0.670
10364SOL    HW131991   1.447   4.277   0.702
10364SOL    HW231992   1.350   4.262   0.572
10365SOL     OW31993   5.291   5.161   6.978
10365SOL    HW131994   5.362   5.104   6.938
10365SOL    HW231995   5.317   5.257   6.971
10366SOL     OW31996   4.091   6.955   4.237
10366SOL    HW131997   4.171   6.997   4.197
10366SOL    HW231998   4.100   6.855   4.234
10367SOL     OW31999   6.376   1.246   2.946
10367SOL    HW132000   6.442   1.176   2.920
10367SOL    HW232001   6.354   1.238   3.043
10368SOL     OW32002   2.282   0.245   1.193
10368SOL    HW132003   2.275   0.343   1.212
10368SOL    HW232004   2.198   0.200   1.224
10369SOL     OW32005   4.152   2.857   6.320
10369SOL    HW132006   4.247   2.884   6.339
10369SOL    HW232007   4.093   2.889   6.393
10370SOL     OW32008   3.141   0.770   5.572
10370SOL    HW132009   3.150   0.803   5.478
10370SOL    HW232010   3.168   0.674   5.576
10371SOL     OW32011   4.642   6.719   5.259
10371SOL    HW132012   4.608   6.782   5.329
10371SOL    HW232013   4.566   6.690   5.200
10372SOL     OW32014   0.583   0.832   3.481
10372SOL    HW132015   0.548   0.767   3.414
10372SOL    HW232016   0.585   0.924   3.441
10373SOL     OW32017   1.490   6.160   5.212
10373SOL    HW132018   1.497   6.061   5.201
10373SOL    HW232019   1.516   6.186   5.305
10374SOL     OW32020   3.599   1.657   3.205
10374SOL    HW132021   3.650   1.743   3.199
10374SOL    HW232022   3.580   1.636   3.301
10375SOL     OW32023   0.090   1.929   1.128
10375SOL    HW132024   0.064   1.960   1.219
10375SOL    HW232025   0.018   1.871   1.090
10376SOL     OW32026   5.976   0.372   4.106
10376SOL    HW132027   5.895   0.411   4.149
10376SOL    HW232028   5.971   0.383   4.007
10377SOL     OW32029   0.034   6.414   3.647
10377SOL    HW132030   0.062   6.451   3.558
10377SOL    HW232031   6.971   6.355   3.634
10378SOL     OW32032   6.133   6.494   5.696
10378SOL    HW132033   6.186   6.418   5.732
10378SOL    HW232034   6.142   6.498   5.597
10379SOL     OW32035   4.054   1.442   3.829
10379SOL    HW132036   4.086   1.522   3.879
10379SOL    HW232037   4.060   1.362   3.887
10380SOL     OW32038   3.342   0.296   4.286
10380SOL    HW132039   3.304   0.209   4.317
10380SOL    HW232040   3.268   0.364   4.278
10381SOL     OW32041   3.707   5.322   4.592
10381SOL    HW132042   3.692   5.248   4.658
10381SOL    HW232043   3.752   5.285   4.510
10382SOL     OW32044   0.119   5.386   1.649
10382SOL    HW132045   0.063   5.467   1.665
10382SOL    HW232046   0.205   5.395   1.699
10383SOL     OW32047   5.721   3.410   0.881
10383SOL    HW132048   5.763   3.495   0.850
10383SOL    HW232049   5.696   3.418   0.978
10384SOL     OW32050   5.691   0.842   6.924
10384SOL    HW132051   5.705   0.780   6.846
10384SOL    HW232052   5.748   0.813   7.001
10385SOL     OW32053   0.325   2.799   6.825
10385SOL    HW132054   0.268   2.743   6.885
10385SOL    HW232055   0.421   2.782   6.845
10386SOL     OW32056   0.065   1.923   6.123
10386SOL    HW132057   0.008   1.903   6.044
10386SOL    HW232058   0.124   1.844   6.143
10387SOL     OW32059   1.704   3.993   2.799
10387SOL    HW132060   1.743   3.916   2.850
10387SOL    HW232061   1.611   3.970   2.770
10388SOL     OW32062   1.532   4.547   2.340
10388SOL    HW132063   1.448   4.548   2.285
10388SOL    HW232064   1.540   4.633   2.390
10389SOL     OW32065   1.319   5.542   3.333
10389SOL    HW132066   1.280   5.593   3.410
10389SOL    HW232067   1.416   5.563   3.324
10390SOL     OW32068   2.052   3.229   3.262
10390SOL    HW132069   2.086   3.297   3.327
10390SOL    HW232070   2.092   3.246   3.172
10391SOL     OW32071   3.753   5.764   4.445
10391SOL    HW132072   3.847   5.789   4.468
10391SOL    HW232073   3.707   5.730   4.528
10392SOL     OW32074   6.638   5.414   6.067
10392SOL    HW132075   6.575   5.351   6.021
10392SOL    HW232076   6.659   5.490   6.006
10393SOL     OW32077   0.757   1.573   4.369
10393SOL    HW132078   0.822   1.588   4.294
10393SOL    HW232079   0.799   1.597   4.456
10394SOL     OW32080   2.930   0.200   0.990
10394SOL    HW132081   2.992   0.265   0.946
10394SOL    HW232082   2.840   0.205   0.946
10395SOL     OW32083   1.487   0.546   3.829
10395SOL    HW132084   1.568   0.510   3.781
10395SOL    HW232085   1.460   0.633   3.788
10396SOL     OW32086   0.344   0.482   5.010
10396SOL    HW132087   0.287   0.497   4.929
10396SOL    HW232088   0.341   0.564   5.068
10397SOL     OW32089   4.319   2.216   2.384
10397SOL    HW132090   4.383   2.166   2.325
10397SOL    HW232091   4.226   2.201   2.352
10398SOL     OW32092   0.003   2.804   2.266
10398SOL    HW132093   6.998   2.761   2.354
10398SOL    HW232094   0.055   2.741   2.210
10399SOL     OW32095   6.677   3.181   5.723
10399SOL    HW132096   6.603   3.225   5.672
10399SOL    HW232097   6.649   3.171   5.819
10400SOL     OW32098   1.920   5.149   2.434
10400SOL    HW132099   1.882   5.240   2.420
10400SOL    HW232100   2.017   5.156   2.458
10401SOL     OW32101   1.426   5.670   1.209
10401SOL    HW132102   1.363   5.606   1.166
10401SOL    HW232103   1.375   5.737   1.263
10402SOL     OW32104   1.242   2.044   4.479
10402SOL    HW132105   1.290   2.077   4.397
10402SOL    HW232106   1.291   1.964   4.515
10403SOL     OW32107   5.431   1.360   3.224
10403SOL    HW132108   5.352   1.340   3.167
10403SOL    HW232109   5.492   1.424   3.175
10404SOL     OW32110   6.246   0.367   4.493
10404SOL    HW132111   6.173   0.300   4.505
10404SOL    HW232112   6.238   0.438   4.563
10405SOL     OW32113   3.172   0.013   6.482
10405SOL    HW132114   3.252   0.014   6.542
10405SOL    HW232115   3.131   6.939   6.484
10406SOL     OW32116   1.042   6.446   4.731
10406SOL    HW132117   1.095   6.361   4.735
10406SOL    HW232118   1.089   6.518   4.782
10407SOL     OW32119   3.255   0.969   6.541
10407SOL    HW132120   3.182   1.033   6.565
10407SOL    HW232121   3.227   0.876   6.565
10408SOL     OW32122   3.374   0.162   2.952
10408SOL    HW132123   3.374   0.073   2.998
10408SOL    HW232124   3.416   0.230   3.011
10409SOL     OW32125   0.083   4.973   2.183
10409SOL    HW132126   0.178   5.003   2.186
10409SOL    HW232127   0.022   5.052   2.176
10410SOL     OW32128   5.344   5.789   0.695
10410SOL    HW132129   5.430   5.764   0.652
10410SOL    HW232130   5.362   5.828   0.786
10411SOL     OW32131   2.537   4.854   2.104
10411SOL    HW132132   2.513   4.912   2.182
10411SOL    HW232133   2.636   4.855   2.091
10412SOL     OW32134   0.586   3.457   6.250
10412SOL    HW132135   0.513   3.502   6.199
10412SOL    HW232136   0.621   3.380   6.197
10413SOL     OW32137   6.246   1.157   4.254
10413SOL    HW132138   6.150   1.133   4.263
10413SOL    HW232139   6.264   1.188   4.161
10414SOL     OW32140   5.645   6.137   5.413
10414SOL    HW132141   5.721   6.202   5.419
10414SOL    HW232142   5.641   6.082   5.496
10415SOL     OW32143   0.069   4.816   3.294
10415SOL    HW132144   0.085   4.747   3.364
10415SOL    HW232145   6.989   4.823   3.274
10416SOL     OW32146   5.092   0.631   0.449
10416SOL    HW132147   5.181   0.649   0.408
10416SOL    HW232148   5.064   0.537   0.428
10417SOL     OW32149   4.716   4.714   4.682
10417SOL    HW132150   4.734   4.767   4.600
10417SOL    HW232151   4.695   4.619   4.657
10418SOL     OW32152   6.087   3.277   0.285
10418SOL    HW132153   6.067   3.340   0.360
10418SOL    HW232154   6.141   3.201   0.319
10419SOL     OW32155   1.222   0.121   4.778
10419SOL    HW132156   1.159   0.043   4.780
10419SOL    HW232157   1.174   0.203   4.810
10420SOL     OW32158   6.418   4.196   3.731
10420SOL    HW132159   6.352   4.269   3.710
10420SOL    HW232160   6.380   4.108   3.703
10421SOL     OW32161   0.227   3.553   4.321
10421SOL    HW132162   0.173   3.473   4.293
10421SOL    HW232163   0.263   3.539   4.413
10422SOL     OW32164   5.899   3.101   5.743
10422SOL    HW132165   5.847   3.174   5.789
10422SOL    HW232166   5.980   3.078   5.797
10423SOL     OW32167   2.416   5.639   1.936
10423SOL    HW132168   2.460   5.599   2.017
10423SOL    HW232169   2.435   5.582   1.856
10424SOL     OW32170   4.848   0.912   1.779
10424SOL    HW132171   4.929   0.932   1.834
10424SOL    HW232172   4.766   0.933   1.832
10425SOL     OW32173   0.439   4.288   0.588
10425SOL    HW132174   0.469   4.250   0.501
10425SOL    HW232175   0.399   4.215   0.644
10426SOL     OW32176   6.600   1.834   6.747
10426SOL    HW132177   6.678   1.881   6.706
10426SOL    HW232178   6.586   1.867   6.840
10427SOL     OW32179   5.978   0.191   4.461
10427SOL    HW132180   5.915   0.268   4.450
10427SOL    HW232181   5.964   0.126   4.386
10428SOL     OW32182   1.646   0.615   4.693
10428SOL    HW132183   1.741   0.599   4.719
10428SOL    HW232184   1.589   0.621   4.775
10429SOL     OW32185   1.934   4.710   1.852
10429SOL    HW132186   2.008   4.769   1.820
10429SOL    HW232187   1.941   4.621   1.808
10430SOL     OW32188   3.248   0.862   4.189
10430SOL    HW132189   3.291   0.912   4.265
10430SOL    HW232190   3.150   0.857   4.203
10431SOL     OW32191   4.373   2.347   3.531
10431SOL    HW132192   4.432   2.427   3.544
10431SOL    HW232193   4.350   2.339   3.434
10432SOL     OW32194   1.163   4.414   0.985
10432SOL    HW132195   1.068   4.403   0.956
10432SOL    HW232196   1.210   4.327   0.978
10433SOL     OW32197   3.243   6.346   4.631
10433SOL    HW132198   3.220   6.409   4.557
10433SOL    HW232199   3.336   6.311   4.618
10434SOL     OW32200   4.466   2.095   0.556
10434SOL    HW132201   4.542   2.036   0.585
10434SOL    HW232202   4.379   2.055   0.586
10435SOL     OW32203   2.639   1.655   1.565
10435SOL    HW132204   2.542   1.663   1.590
10435SOL    HW232205   2.648   1.594   1.486
10436SOL     OW32206   1.379   3.949   5.475
10436SOL    HW132207   1.403   4.016   5.405
10436SOL    HW232208   1.291   3.907   5.453
10437SOL     OW32209   6.902   6.957   4.932
10437SOL    HW132210   6.857   6.949   4.843
10437SOL    HW232211   6.981   0.002   4.923
10438SOL     OW32212   6.962   5.816   6.549
10438SOL    HW132213   6.901   5.852   6.478
10438SOL    HW232214   7.001   5.729   6.520
10439SOL     OW32215   5.622   5.298   5.116
10439SOL    HW132216   5.676   5.361   5.060
10439SOL    HW232217   5.671   5.211   5.125
10440SOL     OW32218   6.198   2.664   1.487
10440SOL    HW132219   6.121   2.605   1.462
10440SOL    HW232220   6.195   2.684   1.585
10441SOL     OW32221   5.055   1.424   5.877
10441SOL    HW132222   4.963   1.387   5.889
10441SOL    HW232223   5.053   1.494   5.805
10442SOL     OW32224   1.988   0.652   5.785
10442SOL    HW132225   1.924   0.584   5.821
10442SOL    HW232226   2.046   0.609   5.716
10443SOL     OW32227   0.669   0.940   0.006
10443SOL    HW132228   0.759   0.955   6.981
10443SOL    HW232229   0.610   1.017   7.001
10444SOL     OW32230   4.482   5.256   3.713
10444SOL    HW132231   4.450   5.214   3.628
10444SOL    HW232232   4.493   5.185   3.783
10445SOL     OW32233   1.223   3.825   3.840
10445SOL    HW132234   1.278   3.816   3.923
10445SOL    HW232235   1.284   3.837   3.761
10446SOL     OW32236   2.840   4.835   4.885
10446SOL    HW132237   2.773   4.814   4.814
10446SOL    HW232238   2.850   4.756   4.945
10447SOL     OW32239   1.473   2.084   2.977
10447SOL    HW132240   1.571   2.096   2.960
10447SOL    HW232241   1.422   2.105   2.893
10448SOL     OW32242   0.967   4.869   2.572
10448SOL    HW132243   0.929   4.918   2.650
10448SOL    HW232244   1.054   4.910   2.546
10449SOL     OW32245   3.944   5.119   4.376
10449SOL    HW132246   3.895   5.182   4.316
10449SOL    HW232247   3.879   5.062   4.425
10450SOL     OW32248   0.197   2.299   4.419
10450SOL    HW132249   0.114   2.346   4.448
10450SOL    HW232250   0.193   2.281   4.321
10451SOL     OW32251   2.267   1.692   4.921
10451SOL    HW132252   2.349   1.660   4.969
10451SOL    HW232253   2.285   1.699   4.823
10452SOL     OW32254   6.967   2.421   4.463
10452SOL    HW132255   6.897   2.408   4.393
10452SOL    HW232256   6.941   2.498   4.522
10453SOL     OW32257   3.105   5.965   4.157
10453SOL    HW132258   3.157   6.034   4.206
10453SOL    HW232259   3.141   5.874   4.180
10454SOL     OW32260   6.941   1.470   6.852
10454SOL    HW132261   6.877   1.486   6.776
10454SOL    HW232262   6.926   1.540   6.923
10455SOL     OW32263   0.813   5.776   2.746
10455SOL    HW132264   0.719   5.761   2.777
10455SOL    HW232265   0.876   5.762   2.823
10456SOL     OW32266   1.003   5.474   5.913
10456SOL    HW132267   1.095   5.471   5.952
10456SOL    HW232268   0.937   5.495   5.985
10457SOL     OW32269   4.507   1.611   0.965
10457SOL    HW132270   4.489   1.699   1.009
10457SOL    HW232271   4.445   1.598   0.888
10458SOL     OW32272   1.646   6.862   0.102
10458SOL    HW132273   1.592   6.929   0.154
10458SOL    HW232274   1.735   6.901   0.080
10459SOL     OW32275   5.026   6.270   1.005
10459SOL    HW132276   4.994   6.322   0.926
10459SOL    HW232277   5.125   6.261   1.001
10460SOL     OW32278   6.573   1.035   6.241
10460SOL    HW132279   6.656   1.074   6.201
10460SOL    HW232280   6.551   0.949   6.196
10461SOL     OW32281   6.708   3.847   5.996
10461SOL    HW132282   6.730   3.784   5.921
10461SOL    HW232283   6.709   3.941   5.962
10462SOL     OW32284   4.448   3.836   0.194
10462SOL    HW132285   4.423   3.778   0.117
10462SOL    HW232286   4.395   3.920   0.190
10463SOL     OW32287   4.803   2.606   4.955
10463SOL    HW132288   4.854   2.527   4.989
10463SOL    HW232289   4.799   2.676   5.026
10464SOL     OW32290   6.452   4.668   1.813
10464SOL    HW132291   6.405   4.754   1.793
10464SOL    HW232292   6.387   4.605   1.856
10465SOL     OW32293   5.207   4.284   0.821
10465SOL    HW132294   5.272   4.327   0.758
10465SOL    HW232295   5.126   4.342   0.830
10466SOL     OW32296   6.122   3.961   5.800
10466SOL    HW132297   6.120   3.969   5.900
10466SOL    HW232298   6.205   4.005   5.765
10467SOL     OW32299   0.436   3.550   0.053
10467SOL    HW132300   0.512   3.598   0.009
10467SOL    HW232301   0.421   3.463   0.007
10468SOL     OW32302   1.083   4.322   3.776
10468SOL    HW132303   1.165   4.298   3.828
10468SOL    HW232304   1.109   4.374   3.695
10469SOL     OW32305   1.115   0.863   3.888
10469SOL    HW132306   1.133   0.807   3.969
10469SOL    HW232307   1.023   0.903   3.894
10470SOL     OW32308   2.645   3.927   1.513
10470SOL    HW132309   2.685   3.840   1.543
10470SOL    HW232310   2.545   3.921   1.517
10471SOL     OW32311   2.092   4.609   6.012
10471SOL    HW132312   2.185   4.634   6.041
10471SOL    HW232313   2.029   4.617   6.089
10472SOL     OW32314   3.616   5.161   5.902
10472SOL    HW132315   3.705   5.199   5.876
10472SOL    HW232316   3.629   5.072   5.945
10473SOL     OW32317   6.055   5.449   0.487
10473SOL    HW132318   6.015   5.357   0.485
10473SOL    HW232319   6.044   5.489   0.578
10474SOL     OW32320   6.300   6.111   4.961
10474SOL    HW132321   6.286   6.196   4.911
10474SOL    HW232322   6.251   6.037   4.914
10475SOL     OW32323   0.138   5.995   1.574
10475SOL    HW132324   0.104   6.077   1.620
10475SOL    HW232325   0.077   5.972   1.498
10476SOL     OW32326   5.171   6.541   1.463
10476SOL    HW132327   5.074   6.555   1.483
10476SOL    HW232328   5.226   6.595   1.526
10477SOL     OW32329   6.934   5.784   3.755
10477SOL    HW132330   6.969   5.819   3.668
10477SOL    HW232331   6.926   5.859   3.821
10478SOL     OW32332   6.861   0.841   6.968
10478SOL    HW132333   6.941   0.829   0.011
10478SOL    HW232334   6.840   0.754   6.924
10479SOL     OW32335   0.020   4.222   2.923
10479SOL    HW132336   6.984   4.242   3.006
10479SOL    HW232337   7.004   4.137   2.883
10480SOL     OW32338   2.517   0.909   3.147
10480SOL    HW132339   2.524   0.822   3.099
10480SOL    HW232340   2.481   0.894   3.239
10481SOL     OW32341   6.452   0.745   1.880
10481SOL    HW132342   6.380   0.774   1.943
10481SOL    HW232343   6.411   0.696   1.803
10482SOL     OW32344   4.763   4.297   4.545
10482SOL    HW132345   4.696   4.297   4.620
10482SOL    HW232346   4.844   4.246   4.573
10483SOL     OW32347   6.034   0.680   6.500
10483SOL    HW132348   5.994   0.767   6.529
10483SOL    HW232349   5.962   0.617   6.473
10484SOL     OW32350   6.339   0.476   1.958
10484SOL    HW132351   6.243   0.465   1.988
10484SOL    HW232352   6.397   0.485   2.039
10485SOL     OW32353   5.567   3.093   6.133
10485SOL    HW132354   5.646   3.153   6.144
10485SOL    HW232355   5.504   3.133   6.066
10486SOL     OW32356   6.177   3.202   2.644
10486SOL    HW132357   6.152   3.107   2.662
10486SOL    HW232358   6.267   3.205   2.600
10487SOL     OW32359   3.914   6.678   2.940
10487SOL    HW132360   3.894   6.743   2.867
10487SOL    HW232361   3.968   6.724   3.011
10488SOL     OW32362   3.967   4.180   6.330
10488SOL    HW132363   3.996   4.154   6.238
10488SOL    HW232364   4.041   4.163   6.394
10489SOL     OW32365   1.750   5.281   5.115
10489SOL    HW132366   1.722   5.292   5.210
10489SOL    HW232367   1.839   5.234   5.111
10490SOL     OW32368   5.922   0.104   4.924
10490SOL    HW132369   6.015   0.142   4.923
10490SOL    HW232370   5.917   0.028   4.988
10491SOL     OW32371   6.609   5.774   4.966
10491SOL    HW132372   6.555   5.691   4.981
10491SOL    HW232373   6.578   5.818   4.881
10492SOL     OW32374   5.307   4.041   5.775
10492SOL    HW132375   5.258   4.030   5.689
10492SOL    HW232376   5.394   3.991   5.770
10493SOL     OW32377   3.296   1.532   0.186
10493SOL    HW132378   3.326   1.572   0.099
10493SOL    HW232379   3.210   1.574   0.214
10494SOL     OW32380   5.133   1.693   5.150
10494SOL    HW132381   5.217   1.699   5.097
10494SOL    HW232382   5.093   1.784   5.161
10495SOL     OW32383   0.924   0.069   6.838
10495SOL    HW132384   1.020   0.058   6.810
10495SOL    HW232385   0.912   0.158   6.882
10496SOL     OW32386   6.663   6.751   5.368
10496SOL    HW132387   6.634   6.683   5.300
10496SOL    HW232388   6.699   6.832   5.322
10497SOL     OW32389   2.272   1.170   6.581
10497SOL    HW132390   2.251   1.264   6.554
10497SOL    HW232391   2.344   1.170   6.650
10498SOL     OW32392   3.055   5.396   5.457
10498SOL    HW132393   2.999   5.317   5.433
10498SOL    HW232394   3.059   5.459   5.379
10499SOL     OW32395   3.051   5.660   2.824
10499SOL    HW132396   2.998   5.662   2.909
10499SOL    HW232397   3.053   5.751   2.783
10500SOL     OW32398   2.207   1.764   0.018
10500SOL    HW132399   2.246   1.832   6.973
10500SOL    HW232400   2.278   1.730   0.079
10501SOL     OW32401   1.656   3.688   3.374
10501SOL    HW132402   1.673   3.593   3.398
10501SOL    HW232403   1.646   3.696   3.275
10502SOL     OW32404   3.113   6.788   4.887
10502SOL    HW132405   3.143   6.879   4.916
10502SOL    HW232406   3.017   6.775   4.913
10503SOL     OW32407   2.532   3.118   6.814
10503SOL    HW132408   2.568   3.048   6.877
10503SOL    HW232409   2.466   3.076   6.752
10504SOL     OW32410   2.092   3.564   0.510
10504SOL    HW132411   2.165   3.580   0.443
10504SOL    HW232412   2.083   3.466   0.527
10505SOL     OW32413   0.582   6.069   6.963
10505SOL    HW132414   0.499   6.040   6.916
10505SOL    HW232415   0.584   6.029   0.038
10506SOL     OW32416   6.921   5.041   5.372
10506SOL    HW132417   6.878   5.093   5.446
10506SOL    HW232418   7.013   5.014   5.400
10507SOL     OW32419   2.895   0.877   3.487
10507SOL    HW132420   2.898   0.915   3.395
10507SOL    HW232421   2.866   0.948   3.552
10508SOL     OW32422   5.436   5.143   3.053
10508SOL    HW132423   5.479   5.229   3.084
10508SOL    HW232424   5.380   5.106   3.127
10509SOL     OW32425   2.303   1.082   5.501
10509SOL    HW132426   2.351   1.088   5.589
10509SOL    HW232427   2.301   1.172   5.457
10510SOL     OW32428   5.787   0.557   6.434
10510SOL    HW132429   5.727   0.583   6.509
10510SOL    HW232430   5.745   0.583   6.347
10511SOL     OW32431   6.833   2.685   1.703
10511SOL    HW132432   6.921   2.695   1.656
10511SOL    HW232433   6.794   2.776   1.720
10512SOL     OW32434   2.155   0.232   6.747
10512SOL    HW132435   2.071   0.280   6.722
10512SOL    HW232436   2.232   0.297   6.747
10513SOL     OW32437   0.178   2.518   0.731
10513SOL    HW132438   0.211   2.542   0.822
10513SOL    HW232439   0.170   2.602   0.676
10514SOL     OW32440   1.629   2.958   1.389
10514SOL    HW132441   1.560   3.004   1.446
10514SOL    HW232442   1.697   2.916   1.449
10515SOL     OW32443   0.435   2.982   5.036
10515SOL    HW132444   0.464   2.909   4.974
10515SOL    HW232445   0.341   2.964   5.068
10516SOL     OW32446   2.781   6.699   0.610
10516SOL    HW132447   2.724   6.706   0.692
10516SOL    HW232448   2.801   6.791   0.576
10517SOL     OW32449   0.531   2.482   3.826
10517SOL    HW132450   0.626   2.504   3.849
10517SOL    HW232451   0.505   2.532   3.743
10518SOL     OW32452   0.644   6.456   3.149
10518SOL    HW132453   0.594   6.518   3.089
10518SOL    HW232454   0.661   6.500   3.237
10519SOL     OW32455   4.187   2.811   5.625
10519SOL    HW132456   4.164   2.821   5.528
10519SOL    HW232457   4.104   2.819   5.680
10520SOL     OW32458   3.176   4.753   6.590
10520SOL    HW132459   3.135   4.778   6.678
10520SOL    HW232460   3.172   4.654   6.579
10521SOL     OW32461   6.361   5.298   2.455
10521SOL    HW132462   6.381   5.394   2.434
10521SOL    HW232463   6.324   5.253   2.374
10522SOL     OW32464   6.208   6.734   2.523
10522SOL    HW132465   6.293   6.683   2.524
10522SOL    HW232466   6.198   6.783   2.610
10523SOL     OW32467   5.870   6.361   6.457
10523SOL    HW132468   5.916   6.394   6.375
10523SOL    HW232469   5.917   6.280   6.491
10524SOL     OW32470   4.728   1.066   4.958
10524SOL    HW132471   4.652   1.131   4.956
10524SOL    HW232472   4.694   0.974   4.938
10525SOL     OW32473   2.336   0.004   5.325
10525SOL    HW132474   2.270   6.984   5.390
10525SOL    HW232475   2.287   0.053   5.252
10526SOL     OW32476   4.517   5.823   2.687
10526SOL    HW132477   4.471   5.780   2.609
10526SOL    HW232478   4.462   5.811   2.769
10527SOL     OW32479   2.061   2.708   4.243
10527SOL    HW132480   1.984   2.671   4.190
10527SOL    HW232481   2.124   2.634   4.265
10528SOL     OW32482   6.006   4.765   5.982
10528SOL    HW132483   6.016   4.770   6.082
10528SOL    HW232484   6.035   4.852   5.942
10529SOL     OW32485   6.861   5.683   5.013
10529SOL    HW132486   6.770   5.718   4.992
10529SOL    HW232487   6.904   5.648   4.930
10530SOL     OW32488   1.447   1.669   4.961
10530SOL    HW132489   1.468   1.745   4.900
10530SOL    HW232490   1.501   1.589   4.934
10531SOL     OW32491   2.816   2.273   4.594
10531SOL    HW132492   2.793   2.277   4.497
10531SOL    HW232493   2.731   2.273   4.648
10532SOL     OW32494   3.257   3.336   4.472
10532SOL    HW132495   3.176   3.306   4.520
10532SOL    HW232496   3.232   3.406   4.405
10533SOL     OW32497   3.664   0.759   6.191
10533SOL    HW132498   3.647   0.774   6.288
10533SOL    HW232499   3.721   0.677   6.179
10534SOL     OW32500   5.806   4.365   1.854
10534SOL    HW132501   5.770   4.281   1.895
10534SOL    HW232502   5.757   4.385   1.770
10535SOL     OW32503   0.261   1.079   1.780
10535SOL    HW132504   0.345   1.122   1.745
10535SOL    HW232505   0.182   1.131   1.748
10536SOL     OW32506   5.709   5.775   3.207
10536SOL    HW132507   5.701   5.683   3.245
10536SOL    HW232508   5.680   5.774   3.111
10537SOL     OW32509   6.247   5.431   1.641
10537SOL    HW132510   6.241   5.465   1.547
10537SOL    HW232511   6.156   5.409   1.675
10538SOL     OW32512   4.477   3.341   6.827
10538SOL    HW132513   4.516   3.433   6.830
10538SOL    HW232514   4.441   3.324   6.735
10539SOL     OW32515   0.967   2.778   4.924
10539SOL    HW132516   1.051   2.730   4.948
10539SOL    HW232517   0.976   2.875   4.949
10540SOL     OW32518   3.580   0.755   0.443
10540SOL    HW132519   3.611   0.671   0.488
10540SOL    HW232520   3.482   0.748   0.423
10541SOL     OW32521   3.296   2.444   1.710
10541SOL    HW132522   3.277   2.359   1.759
10541SOL    HW232523   3.212   2.477   1.667
10542SOL     OW32524   1.748   2.166   0.380
10542SOL    HW132525   1.731   2.216   0.464
10542SOL    HW232526   1.720   2.071   0.391
10543SOL     OW32527   2.555   0.515   4.429
10543SOL    HW132528   2.533   0.530   4.526
10543SOL    HW232529   2.655   0.511   4.418
10544SOL     OW32530   0.349   1.852   1.076
10544SOL    HW132531   0.364   1.779   1.143
10544SOL    HW232532   0.256   1.888   1.085
10545SOL     OW32533   4.109   1.341   3.014
10545SOL    HW132534   4.075   1.367   2.924
10545SOL    HW232535   4.093   1.244   3.029
10546SOL     OW32536   4.910   0.830   5.775
10546SOL    HW132537   4.814   0.857   5.763
10546SOL    HW232538   4.965   0.870   5.702
10547SOL     OW32539   4.510   6.331   2.020
10547SOL    HW132540   4.598   6.288   2.041
10547SOL    HW232541   4.519   6.384   1.936
10548SOL     OW32542   4.800   3.984   5.236
10548SOL    HW132543   4.851   3.945   5.159
10548SOL    HW232544   4.825   4.080   5.247
10549SOL     OW32545   0.842   1.682   1.836
10549SOL    HW132546   0.788   1.701   1.753
10549SOL    HW232547   0.896   1.762   1.859
10550SOL     OW32548   4.583   7.000   5.164
10550SOL    HW132549   4.512   7.016   5.232
10550SOL    HW232550   4.582   6.904   5.136
10551SOL     OW32551   1.625   3.118   6.168
10551SOL    HW132552   1.596   3.065   6.248
10551SOL    HW232553   1.631   3.215   6.193
10552SOL     OW32554   3.213   1.436   5.337
10552SOL    HW132555   3.116   1.432   5.361
10552SOL    HW232556   3.267   1.459   5.418
10553SOL     OW32557   2.754   4.790   6.538
10553SOL    HW132558   2.675   4.781   6.477
10553SOL    HW232559   2.744   4.727   6.615
10554SOL     OW32560   6.102   3.261   6.117
10554SOL    HW132561   6.172   3.192   6.100
10554SOL    HW232562   6.088   3.316   6.034
10555SOL     OW32563   3.446   2.573   1.426
10555SOL    HW132564   3.460   2.475   1.408
10555SOL    HW232565   3.376   2.584   1.497
10556SOL     OW32566   1.490   4.534   4.110
10556SOL    HW132567   1.455   4.625   4.134
10556SOL    HW232568   1.525   4.489   4.193
10557SOL     OW32569   5.612   1.542   3.059
10557SOL    HW132570   5.672   1.497   2.994
10557SOL    HW232571   5.580   1.629   3.020
10558SOL     OW32572   5.729   5.770   5.544
10558SOL    HW132573   5.714   5.861   5.583
10558SOL    HW232574   5.822   5.739   5.565
10559SOL     OW32575   4.252   2.956   1.262
10559SOL    HW132576   4.344   2.920   1.278
10559SOL    HW232577   4.245   3.047   1.303
10560SOL     OW32578   0.073   2.033   4.213
10560SOL    HW132579   0.135   1.957   4.194
10560SOL    HW232580   7.004   1.997   4.250
10561SOL     OW32581   2.312   4.004   6.601
10561SOL    HW132582   2.391   3.956   6.563
10561SOL    HW232583   2.342   4.090   6.641
10562SOL     OW32584   4.686   1.954   0.678
10562SOL    HW132585   4.615   1.972   0.746
10562SOL    HW232586   4.759   1.899   0.720
10563SOL     OW32587   1.411   2.738   2.682
10563SOL    HW132588   1.480   2.742   2.610
10563SOL    HW232589   1.336   2.800   2.659
10564SOL     OW32590   6.847   1.844   2.529
10564SOL    HW132591   6.868   1.748   2.507
10564SOL    HW232592   6.924   1.885   2.577
10565SOL     OW32593   5.174   1.900   4.867
10565SOL    HW132594   5.169   1.801   4.878
10565SOL    HW232595   5.270   1.927   4.855
10566SOL     OW32596   5.183   5.457   6.810
10566SOL    HW132597   5.117   5.457   6.885
10566SOL    HW232598   5.181   5.369   6.763
10567SOL     OW32599   2.670   5.656   4.724
10567SOL    HW132600   2.648   5.635   4.628
10567SOL    HW232601   2.753   5.606   4.751
10568SOL     OW32602   3.385   0.856   3.468
10568SOL    HW132603   3.299   0.805   3.468
10568SOL    HW232604   3.411   0.878   3.562
10569SOL     OW32605   6.613   2.093   3.807
10569SOL    HW132606   6.541   2.062   3.869
10569SOL    HW232607   6.688   2.133   3.860
10570SOL     OW32608   0.880   3.774   1.015
10570SOL    HW132609   0.791   3.818   0.999
10570SOL    HW232610   0.932   3.772   0.930
10571SOL     OW32611   6.781   6.671   4.776
10571SOL    HW132612   6.846   6.681   4.700
10571SOL    HW232613   6.821   6.612   4.846
10572SOL     OW32614   6.453   3.803   2.187
10572SOL    HW132615   6.550   3.814   2.163
10572SOL    HW232616   6.430   3.706   2.187
10573SOL     OW32617   6.262   5.305   5.375
10573SOL    HW132618   6.221   5.357   5.300
10573SOL    HW232619   6.214   5.218   5.386
10574SOL     OW32620   0.952   1.943   2.382
10574SOL    HW132621   0.980   1.912   2.291
10574SOL    HW232622   0.979   1.875   2.450
10575SOL     OW32623   6.943   6.596   6.185
10575SOL    HW132624   6.980   6.554   6.103
10575SOL    HW232625   6.889   6.677   6.160
10576SOL     OW32626   0.812   5.798   3.233
10576SOL    HW132627   0.748   5.721   3.235
10576SOL    HW232628   0.844   5.816   3.326
10577SOL     OW32629   0.064   2.832   6.069
10577SOL    HW132630   6.991   2.812   6.031
10577SOL    HW232631   0.130   2.843   5.995
10578SOL     OW32632   4.983   0.576   5.243
10578SOL    HW132633   4.996   0.478   5.229
10578SOL    HW232634   5.037   0.627   5.176
10579SOL     OW32635   5.768   6.330   1.161
10579SOL    HW132636   5.778   6.287   1.251
10579SOL    HW232637   5.844   6.302   1.102
10580SOL     OW32638   0.844   5.420   0.118
10580SOL    HW132639   0.767   5.456   0.065
10580SOL    HW232640   0.881   5.492   0.176
10581SOL     OW32641   4.206   2.061   2.746
10581SOL    HW132642   4.290   2.096   2.704
10581SOL    HW232643   4.223   2.041   2.843
10582SOL     OW32644   3.597   4.548   6.777
10582SOL    HW132645   3.579   4.451   6.793
10582SOL    HW232646   3.527   4.603   6.822
10583SOL     OW32647   4.801   1.163   1.260
10583SOL    HW132648   4.805   1.138   1.163
10583SOL    HW232649   4.786   1.261   1.268
10584SOL     OW32650   5.655   6.797   1.430
10584SOL    HW132651   5.634   6.893   1.413
10584SOL    HW232652   5.573   6.751   1.464
10585SOL     OW32653   2.804   4.664   6.774
10585SOL    HW132654   2.885   4.699   6.822
10585SOL    HW232655   2.826   4.575   6.734
10586SOL     OW32656   5.150   2.363   1.553
10586SOL    HW132657   5.168   2.446   1.500
10586SOL    HW232658   5.096   2.387   1.634
10587SOL     OW32659   0.200   2.894   0.293
10587SOL    HW132660   0.240   2.984   0.311
10587SOL    HW232661   0.162   2.892   0.200
10588SOL     OW32662   1.350   5.118   3.448
10588SOL    HW132663   1.437   5.156   3.480
10588SOL    HW232664   1.349   5.019   3.466
10589SOL     OW32665   5.825   0.886   4.402
10589SOL    HW132666   5.924   0.897   4.411
10589SOL    HW232667   5.789   0.834   4.479
10590SOL     OW32668   1.461   0.334   5.234
10590SOL    HW132669   1.423   0.359   5.145
10590SOL    HW232670   1.387   0.314   5.298
10591SOL     OW32671   1.520   2.205   1.812
10591SOL    HW132672   1.492   2.111   1.793
10591SOL    HW232673   1.468   2.241   1.890
10592SOL     OW32674   5.082   1.176   6.318
10592SOL    HW132675   5.105   1.262   6.273
10592SOL    HW232676   5.064   1.105   6.249
10593SOL     OW32677   1.653   3.836   2.280
10593SOL    HW132678   1.708   3.771   2.228
10593SOL    HW232679   1.556   3.817   2.264
10594SOL     OW32680   1.183   1.444   4.417
10594SOL    HW132681   1.123   1.402   4.349
10594SOL    HW232682   1.128   1.475   4.495
10595SOL     OW32683   1.815   5.822   4.607
10595SOL    HW132684   1.744   5.821   4.537
10595SOL    HW232685   1.825   5.732   4.647
10596SOL     OW32686   2.790   1.103   1.293
10596SOL    HW132687   2.889   1.116   1.287
10596SOL    HW232688   2.763   1.024   1.238
10597SOL     OW32689   1.486   1.159   3.813
10597SOL    HW132690   1.455   1.170   3.718
10597SOL    HW232691   1.581   1.126   3.813
10598SOL     OW32692   2.619   0.754   0.861
10598SOL    HW132693   2.645   0.666   0.899
10598SOL    HW232694   2.610   0.747   0.761
10599SOL     OW32695   5.059   0.199   6.346
10599SOL    HW132696   4.996   0.124   6.328
10599SOL    HW232697   5.152   0.163   6.356
10600SOL     OW32698   1.824   3.076   5.137
10600SOL    HW132699   1.724   3.084   5.141
10600SOL    HW232700   1.864   3.165   5.119
10601SOL     OW32701   3.973   6.101   5.436
10601SOL    HW132702   4.025   6.016   5.437
10601SOL    HW232703   3.979   6.145   5.526
10602SOL     OW32704   4.636   2.364   1.805
10602SOL    HW132705   4.588   2.350   1.718
10602SOL    HW232706   4.628   2.460   1.832
10603SOL     OW32707   0.692   5.481   5.182
10603SOL    HW132708   0.750   5.401   5.200
10603SOL    HW232709   0.604   5.450   5.144
10604SOL     OW32710   0.301   4.286   6.240
10604SOL    HW132711   0.365   4.348   6.193
10604SOL    HW232712   0.227   4.340   6.280
10605SOL     OW32713   1.094   5.517   6.304
10605SOL    HW132714   1.039   5.450   6.353
10605SOL    HW232715   1.132   5.476   6.221
10606SOL     OW32716   1.143   1.238   1.944
10606SOL    HW132717   1.231   1.208   1.908
10606SOL    HW232718   1.157   1.294   2.025
10607SOL     OW32719   6.025   3.670   6.744
10607SOL    HW132720   5.935   3.648   6.782
10607SOL    HW232721   6.028   3.644   6.647
10608SOL     OW32722   5.721   6.119   2.640
10608SOL    HW132723   5.724   6.164   2.550
10608SOL    HW232724   5.681   6.028   2.630
10609SOL     OW32725   4.085   6.367   2.701
10609SOL    HW132726   4.081   6.336   2.606
10609SOL    HW232727   4.177   6.351   2.737
10610SOL     OW32728   2.185   4.444   4.883
10610SOL    HW132729   2.183   4.344   4.884
10610SOL    HW232730   2.179   4.478   4.976
10611SOL     OW32731   4.875   2.099   5.758
10611SOL    HW132732   4.872   2.082   5.857
10611SOL    HW232733   4.890   2.197   5.742
10612SOL     OW32734   2.536   0.379   1.746
10612SOL    HW132735   2.482   0.436   1.684
10612SOL    HW232736   2.632   0.382   1.718
10613SOL     OW32737   0.774   6.272   0.086
10613SOL    HW132738   0.794   6.366   0.056
10613SOL    HW232739   0.711   6.230   0.021
10614SOL     OW32740   0.416   0.966   2.852
10614SOL    HW132741   0.472   0.912   2.790
10614SOL    HW232742   0.327   0.922   2.863
10615SOL     OW32743   0.238   6.557   5.431
10615SOL    HW132744   0.252   6.519   5.340
10615SOL    HW232745   0.240   6.657   5.428
10616SOL     OW32746   3.752   5.820   1.672
10616SOL    HW132747   3.677   5.786   1.615
10616SOL    HW232748   3.723   5.901   1.722
10617SOL     OW32749   6.409   1.859   6.548
10617SOL    HW132750   6.464   1.829   6.626
10617SOL    HW232751   6.443   1.815   6.464
10618SOL     OW32752   6.437   3.881   0.807
10618SOL    HW132753   6.443   3.785   0.780
10618SOL    HW232754   6.511   3.903   0.870
10619SOL     OW32755   0.029   3.463   3.436
10619SOL    HW132756   0.127   3.479   3.426
10619SOL    HW232757   0.009   3.366   3.420
10620SOL     OW32758   1.441   5.167   4.022
10620SOL    HW132759   1.380   5.225   3.968
10620SOL    HW232760   1.404   5.074   4.024
10621SOL     OW32761   3.628   0.591   0.682
10621SOL    HW132762   3.723   0.564   0.700
10621SOL    HW232763   3.592   0.640   0.762
10622SOL     OW32764   3.777   1.979   0.502
10622SOL    HW132765   3.771   2.056   0.566
10622SOL    HW232766   3.834   2.005   0.424
10623SOL     OW32767   0.517   1.285   4.311
10623SOL    HW132768   0.491   1.331   4.226
10623SOL    HW232769   0.574   1.206   4.290
10624SOL     OW32770   2.557   1.312   4.396
10624SOL    HW132771   2.490   1.351   4.333
10624SOL    HW232772   2.648   1.350   4.376
10625SOL     OW32773   1.032   2.724   1.029
10625SOL    HW132774   1.062   2.698   1.120
10625SOL    HW232775   1.026   2.824   1.023
10626SOL     OW32776   0.758   2.551   3.060
10626SOL    HW132777   0.749   2.476   2.994
10626SOL    HW232778   0.854   2.558   3.089
10627SOL     OW32779   3.966   5.460   4.668
10627SOL    HW132780   3.882   5.444   4.617
10627SOL    HW232781   4.035   5.392   4.641
10628SOL     OW32782   6.841   6.521   5.025
10628SOL    HW132783   6.846   6.524   5.125
10628SOL    HW232784   6.929   6.549   4.986
10629SOL     OW32785   2.871   4.405   6.685
10629SOL    HW132786   2.920   4.332   6.637
10629SOL    HW232787   2.856   4.378   6.780
10630SOL     OW32788   5.554   1.375   1.870
10630SOL    HW132789   5.484   1.442   1.848
10630SOL    HW232790   5.522   1.283   1.846
10631SOL     OW32791   1.369   0.024   4.193
10631SOL    HW132792   1.451   7.010   4.146
10631SOL    HW232793   1.388   0.110   4.240
10632SOL     OW32794   6.698   2.627   7.005
10632SOL    HW132795   6.599   2.619   0.001
10632SOL    HW232796   6.718   2.713   6.958
10633SOL     OW32797   1.432   5.080   6.720
10633SOL    HW132798   1.356   5.145   6.710
10633SOL    HW232799   1.468   5.085   6.813
10634SOL     OW32800   3.587   6.792   2.114
10634SOL    HW132801   3.559   6.824   2.024
10634SOL    HW232802   3.656   6.720   2.104
10635SOL     OW32803   1.037   0.610   1.205
10635SOL    HW132804   1.098   0.549   1.256
10635SOL    HW232805   1.039   0.701   1.247
10636SOL     OW32806   5.110   1.969   6.832
10636SOL    HW132807   5.209   1.981   6.840
10636SOL    HW232808   5.066   1.992   6.919
10637SOL     OW32809   3.186   3.742   6.444
10637SOL    HW132810   3.181   3.792   6.358
10637SOL    HW232811   3.132   3.790   6.513
10638SOL     OW32812   6.484   1.187   5.748
10638SOL    HW132813   6.418   1.176   5.823
10638SOL    HW232814   6.452   1.259   5.686
10639SOL     OW32815   3.487   2.084   5.077
10639SOL    HW132816   3.470   2.083   4.979
10639SOL    HW232817   3.400   2.094   5.126
10640SOL     OW32818   4.627   6.570   0.530
10640SOL    HW132819   4.586   6.625   0.456
10640SOL    HW232820   4.726   6.571   0.520
10641SOL     OW32821   3.245   6.798   6.989
10641SOL    HW132822   3.339   6.808   0.003
10641SOL    HW232823   3.207   6.712   0.008
10642SOL     OW32824   0.639   6.078   1.725
10642SOL    HW132825   0.689   6.132   1.658
10642SOL    HW232826   0.623   6.132   1.807
10643SOL     OW32827   3.479   3.392   5.728
10643SOL    HW132828   3.488   3.404   5.629
10643SOL    HW232829   3.386   3.417   5.756
10644SOL     OW32830   3.992   1.428   5.930
10644SOL    HW132831   3.993   1.523   5.897
10644SOL    HW232832   4.052   1.372   5.873
10645SOL     OW32833   1.941   0.671   3.798
10645SOL    HW132834   1.895   0.651   3.885
10645SOL    HW232835   1.932   0.592   3.737
10646SOL     OW32836   6.614   5.118   6.463
10646SOL    HW132837   6.626   5.114   6.562
10646SOL    HW232838   6.633   5.211   6.431
10647SOL     OW32839   6.883   6.009   0.968
10647SOL    HW132840   6.929   5.951   1.035
10647SOL    HW232841   6.952   6.061   0.917
10648SOL     OW32842   5.090   4.028   6.251
10648SOL    HW132843   5.057   3.991   6.164
10648SOL    HW232844   5.019   4.022   6.320
10649SOL     OW32845   6.805   5.080   6.205
10649SOL    HW132846   6.739   5.118   6.270
10649SOL    HW232847   6.898   5.091   6.241
10650SOL     OW32848   1.928   6.891   5.865
10650SOL    HW132849   2.004   6.828   5.852
10650SOL    HW232850   1.906   6.899   5.962
10651SOL     OW32851   1.588   1.060   5.328
10651SOL    HW132852   1.561   1.153   5.305
10651SOL    HW232853   1.683   1.060   5.360
10652SOL     OW32854   5.013   0.037   0.209
10652SOL    HW132855   5.065   0.022   0.293
10652SOL    HW232856   5.076   0.059   0.134
10653SOL     OW32857   6.025   3.732   4.309
10653SOL    HW132858   6.122   3.738   4.331
10653SOL    HW232859   5.992   3.821   4.279
10654SOL     OW32860   4.650   0.226   1.154
10654SOL    HW132861   4.722   0.252   1.089
10654SOL    HW232862   4.561   0.249   1.115
10655SOL     OW32863   2.563   6.016   1.083
10655SOL    HW132864   2.648   6.037   1.131
10655SOL    HW232865   2.583   5.990   0.989
10656SOL     OW32866   6.800   2.703   6.106
10656SOL    HW132867   6.774   2.757   6.187
10656SOL    HW232868   6.872   2.638   6.131
10657SOL     OW32869   6.177   0.180   0.497
10657SOL    HW132870   6.145   0.237   0.572
10657SOL    HW232871   6.207   0.238   0.421
10658SOL     OW32872   6.994   6.408   3.937
10658SOL    HW132873   7.017   6.384   3.842
10658SOL    HW232874   6.903   6.373   3.959
10659SOL     OW32875   5.446   1.101   1.537
10659SOL    HW132876   5.425   1.018   1.485
10659SOL    HW232877   5.413   1.181   1.487
10660SOL     OW32878   4.736   5.013   5.500
10660SOL    HW132879   4.796   5.052   5.430
10660SOL    HW232880   4.687   4.935   5.462
10661SOL     OW32881   0.030   1.134   2.046
10661SOL    HW132882   6.979   1.208   2.043
10661SOL    HW232883   0.079   1.131   1.959
10662SOL     OW32884   0.665   1.882   0.764
10662SOL    HW132885   0.642   1.956   0.828
10662SOL    HW232886   0.602   1.806   0.777
10663SOL     OW32887   1.375   2.553   1.749
10663SOL    HW132888   1.292   2.598   1.716
10663SOL    HW232889   1.362   2.525   1.844
10664SOL     OW32890   2.333   5.320   6.183
10664SOL    HW132891   2.376   5.392   6.237
10664SOL    HW232892   2.402   5.274   6.127
10665SOL     OW32893   5.571   1.940   6.781
10665SOL    HW132894   5.496   1.989   6.825
10665SOL    HW232895   5.651   2.000   6.776
10666SOL     OW32896   0.531   6.595   0.431
10666SOL    HW132897   0.438   6.592   0.469
10666SOL    HW232898   0.535   6.661   0.357
10667SOL     OW32899   3.092   2.122   5.705
10667SOL    HW132900   3.026   2.054   5.673
10667SOL    HW232901   3.148   2.153   5.628
10668SOL     OW32902   1.512   0.382   6.361
10668SOL    HW132903   1.534   0.429   6.275
10668SOL    HW232904   1.415   0.394   6.381
10669SOL     OW32905   2.224   5.773   6.505
10669SOL    HW132906   2.296   5.767   6.574
10669SOL    HW232907   2.255   5.831   6.429
10670SOL     OW32908   5.886   4.117   4.970
10670SOL    HW132909   5.808   4.080   4.918
10670SOL    HW232910   5.958   4.143   4.907
10671SOL     OW32911   2.231   2.891   3.643
10671SOL    HW132912   2.269   2.803   3.671
10671SOL    HW232913   2.232   2.953   3.721
10672SOL     OW32914   6.695   2.211   0.549
10672SOL    HW132915   6.649   2.171   0.470
10672SOL    HW232916   6.787   2.170   0.558
10673SOL     OW32917   3.406   4.105   3.491
10673SOL    HW132918   3.392   4.009   3.517
10673SOL    HW232919   3.438   4.157   3.570
10674SOL     OW32920   4.296   1.599   2.429
10674SOL    HW132921   4.260   1.515   2.469
10674SOL    HW232922   4.250   1.616   2.341
10675SOL     OW32923   1.162   1.862   5.401
10675SOL    HW132924   1.174   1.961   5.407
10675SOL    HW232925   1.248   1.817   5.423
10676SOL     OW32926   6.234   0.767   6.771
10676SOL    HW132927   6.141   0.748   6.740
10676SOL    HW232928   6.236   0.776   6.870
10677SOL     OW32929   5.061   1.204   6.928
10677SOL    HW132930   5.023   1.194   0.003
10677SOL    HW232931   5.035   1.293   6.891
10678SOL     OW32932   1.914   5.026   3.698
10678SOL    HW132933   1.836   5.084   3.677
10678SOL    HW232934   1.886   4.930   3.691
10679SOL     OW32935   5.758   5.392   3.935
10679SOL    HW132936   5.774   5.393   3.836
10679SOL    HW232937   5.662   5.373   3.953
10680SOL     OW32938   0.181   2.728   3.765
10680SOL    HW132939   0.197   2.707   3.669
10680SOL    HW232940   0.083   2.736   3.781
10681SOL     OW32941   0.666   3.262   6.895
10681SOL    HW132942   0.665   3.353   6.853
10681SOL    HW232943   0.572   3.235   6.917
10682SOL     OW32944   6.251   2.027   3.950
10682SOL    HW132945   6.228   2.112   3.997
10682SOL    HW232946   6.325   1.980   3.999
10683SOL     OW32947   0.545   0.373   4.565
10683SOL    HW132948   0.479   0.378   4.640
10683SOL    HW232949   0.635   0.347   4.601
10684SOL     OW32950   5.068   5.750   0.533
10684SOL    HW132951   5.001   5.824   0.548
10684SOL    HW232952   5.138   5.753   0.604
10685SOL     OW32953   6.402   2.252   3.240
10685SOL    HW132954   6.473   2.214   3.179
10685SOL    HW232955   6.383   2.187   3.313
10686SOL     OW32956   4.933   4.346   1.234
10686SOL    HW132957   4.902   4.251   1.242
10686SOL    HW232958   4.910   4.396   1.317
10687SOL     OW32959   0.561   5.359   1.174
10687SOL    HW132960   0.530   5.414   1.252
10687SOL    HW232961   0.617   5.417   1.113
10688SOL     OW32962   1.201   4.657   0.888
10688SOL    HW132963   1.291   4.700   0.899
10688SOL    HW232964   1.199   4.571   0.939
10689SOL     OW32965   0.329   0.432   1.478
10689SOL    HW132966   0.387   0.405   1.555
10689SOL    HW232967   0.235   0.403   1.496
10690SOL     OW32968   3.611   0.591   3.132
10690SOL    HW132969   3.708   0.569   3.145
10690SOL    HW232970   3.571   0.622   3.218
10691SOL     OW32971   5.594   1.348   1.392
10691SOL    HW132972   5.650   1.420   1.350
10691SOL    HW232973   5.646   1.304   1.465
10692SOL     OW32974   5.776   6.222   3.806
10692SOL    HW132975   5.759   6.321   3.810
10692SOL    HW232976   5.716   6.180   3.739
10693SOL     OW32977   4.516   2.611   4.340
10693SOL    HW132978   4.569   2.533   4.373
10693SOL    HW232979   4.423   2.582   4.319
10694SOL     OW32980   3.105   6.145   0.161
10694SOL    HW132981   3.008   6.159   0.180
10694SOL    HW232982   3.145   6.089   0.235
10695SOL     OW32983   6.131   2.723   5.661
10695SOL    HW132984   6.196   2.716   5.736
10695SOL    HW232985   6.178   2.758   5.580
10696SOL     OW32986   6.233   0.466   0.644
10696SOL    HW132987   6.168   0.518   0.590
10696SOL    HW232988   6.316   0.451   0.591
10697SOL     OW32989   2.695   5.681   2.801
10697SOL    HW132990   2.734   5.692   2.710
10697SOL    HW232991   2.697   5.769   2.848
10698SOL     OW32992   3.955   0.003   4.014
10698SOL    HW132993   4.016   6.992   4.088
10698SOL    HW232994   4.005   0.003   3.928
10699SOL     OW32995   0.070   3.945   3.596
10699SOL    HW132996   0.039   3.987   3.511
10699SOL    HW232997   0.130   3.867   3.575
10700SOL     OW32998   0.874   3.222   2.752
10700SOL    HW132999   0.843   3.136   2.792
10700SOL    HW233000   0.968   3.241   2.782
10701SOL     OW33001   2.617   6.874   1.515
10701SOL    HW133002   2.639   6.970   1.494
10701SOL    HW233003   2.680   6.814   1.464
10702SOL     OW33004   4.916   2.174   0.904
10702SOL    HW133005   4.823   2.204   0.883
10702SOL    HW233006   4.921   2.146   1.000
10703SOL     OW33007   3.775   3.684   4.040
10703SOL    HW133008   3.734   3.732   3.962
10703SOL    HW233009   3.763   3.586   4.029
10704SOL     OW33010   5.602   5.419   1.312
10704SOL    HW133011   5.661   5.351   1.355
10704SOL    HW233012   5.621   5.509   1.352
10705SOL     OW33013   1.277   3.055   6.881
10705SOL    HW133014   1.233   3.133   6.836
10705SOL    HW233015   1.236   2.970   6.850
10706SOL     OW33016   3.187   3.496   0.716
10706SOL    HW133017   3.121   3.423   0.699
10706SOL    HW233018   3.139   3.580   0.739
10707SOL     OW33019   6.270   0.331   6.437
10707SOL    HW133020   6.193   0.270   6.420
10707SOL    HW233021   6.352   0.295   6.392
10708SOL     OW33022   4.700   3.034   1.431
10708SOL    HW133023   4.775   3.057   1.369
10708SOL    HW233024   4.737   2.995   1.516
10709SOL     OW33025   1.080   1.139   6.301
10709SOL    HW133026   1.050   1.147   6.396
10709SOL    HW233027   1.158   1.077   6.296
10710SOL     OW33028   6.923   6.901   3.639
10710SOL    HW133029   6.927   6.812   3.684
10710SOL    HW233030   7.005   6.954   3.662
10711SOL     OW33031   1.854   4.084   5.321
10711SOL    HW133032   1.782   4.019   5.348
10711SOL    HW233033   1.933   4.073   5.382
10712SOL     OW33034   3.884   1.918   6.044
10712SOL    HW133035   3.836   1.830   6.042
10712SOL    HW233036   3.912   1.943   5.952
10713SOL     OW33037   2.883   0.282   0.174
10713SOL    HW133038   2.867   0.272   0.272
10713SOL    HW233039   2.970   0.240   0.149
10714SOL     OW33040   5.017   5.861   4.362
10714SOL    HW133041   5.098   5.802   4.363
10714SOL    HW233042   4.988   5.878   4.457
10715SOL     OW33043   5.783   6.873   2.729
10715SOL    HW133044   5.753   6.902   2.638
10715SOL    HW233045   5.858   6.806   2.719
10716SOL     OW33046   6.960   1.954   2.266
10716SOL    HW133047   7.001   2.044   2.278
10716SOL    HW233048   6.917   1.924   2.352
10717SOL     OW33049   0.592   6.790   1.690
10717SOL    HW133050   0.573   6.865   1.752
10717SOL    HW233051   0.589   6.823   1.596
10718SOL     OW33052   6.513   4.988   5.246
10718SOL    HW133053   6.564   5.073   5.242
10718SOL    HW233054   6.569   4.917   5.288
10719SOL     OW33055   3.427   6.223   3.486
10719SOL    HW133056   3.462   6.267   3.569
10719SOL    HW233057   3.418   6.291   3.413
10720SOL     OW33058   0.698   3.181   6.046
10720SOL    HW133059   0.671   3.242   5.973
10720SOL    HW233060   0.751   3.105   6.008
10721SOL     OW33061   5.457   1.373   4.027
10721SOL    HW133062   5.411   1.335   4.108
10721SOL    HW233063   5.397   1.438   3.982
10722SOL     OW33064   0.776   5.236   0.845
10722SOL    HW133065   0.740   5.150   0.808
10722SOL    HW233066   0.875   5.239   0.833
10723SOL     OW33067   0.084   3.916   6.118
10723SOL    HW133068   0.035   3.864   6.048
10723SOL    HW233069   0.161   3.861   6.152
10724SOL     OW33070   3.768   6.489   5.849
10724SOL    HW133071   3.782   6.494   5.750
10724SOL    HW233072   3.843   6.535   5.896
10725SOL     OW33073   6.879   0.430   5.220
10725SOL    HW133074   6.979   0.430   5.226
10725SOL    HW233075   6.851   0.372   5.144
10726SOL     OW33076   6.567   0.599   3.560
10726SOL    HW133077   6.581   0.515   3.612
10726SOL    HW233078   6.497   0.654   3.604
10727SOL     OW33079   5.214   5.506   6.271
10727SOL    HW133080   5.280   5.537   6.203
10727SOL    HW233081   5.237   5.545   6.360
10728SOL     OW33082   5.214   6.201   4.480
10728SOL    HW133083   5.262   6.209   4.392
10728SOL    HW233084   5.271   6.240   4.552
10729SOL     OW33085   6.552   3.085   4.114
10729SOL    HW133086   6.556   3.048   4.206
10729SOL    HW233087   6.643   3.115   4.086
10730SOL     OW33088   1.244   6.027   3.998
10730SOL    HW133089   1.204   6.063   3.914
10730SOL    HW233090   1.183   6.045   4.075
10731SOL     OW33091   4.986   4.278   4.909
10731SOL    HW133092   5.076   4.321   4.905
10731SOL    HW233093   4.966   4.233   4.823
10732SOL     OW33094   5.652   5.860   2.647
10732SOL    HW133095   5.627   5.829   2.739
10732SOL    HW233096   5.577   5.841   2.584
10733SOL     OW33097   0.823   1.943   5.785
10733SOL    HW133098   0.764   1.994   5.847
10733SOL    HW233099   0.823   1.846   5.811
10734SOL     OW33100   0.392   0.639   4.604
10734SOL    HW133101   0.441   0.574   4.546
10734SOL    HW233102   0.457   0.685   4.665
10735SOL     OW33103   0.251   0.826   2.403
10735SOL    HW133104   0.224   0.732   2.382
10735SOL    HW233105   0.208   0.888   2.338
10736SOL     OW33106   5.429   5.951   4.125
10736SOL    HW133107   5.372   6.030   4.149
10736SOL    HW233108   5.376   5.887   4.070
10737SOL     OW33109   6.156   0.900   0.277
10737SOL    HW133110   6.222   0.969   0.306
10737SOL    HW233111   6.088   0.885   0.349
10738SOL     OW33112   0.539   6.289   2.043
10738SOL    HW133113   0.444   6.310   2.018
10738SOL    HW233114   0.594   6.372   2.033
10739SOL     OW33115   5.353   2.520   3.945
10739SOL    HW133116   5.289   2.465   3.891
10739SOL    HW233117   5.305   2.597   3.986
10740SOL     OW33118   3.026   0.915   6.290
10740SOL    HW133119   3.017   0.902   6.192
10740SOL    HW233120   3.121   0.899   6.318
10741SOL     OW33121   2.327   2.786   4.120
10741SOL    HW133122   2.310   2.866   4.177
10741SOL    HW233123   2.261   2.714   4.142
10742SOL     OW33124   6.987   0.373   2.358
10742SOL    HW133125   6.951   0.338   2.444
10742SOL    HW233126   7.017   0.297   2.301
10743SOL     OW33127   3.863   2.654   5.675
10743SOL    HW133128   3.917   2.701   5.745
10743SOL    HW233129   3.779   2.706   5.658
10744SOL     OW33130   1.584   1.257   0.578
10744SOL    HW133131   1.527   1.336   0.599
10744SOL    HW233132   1.680   1.278   0.598
10745SOL     OW33133   3.756   5.509   2.077
10745SOL    HW133134   3.756   5.409   2.080
10745SOL    HW233135   3.774   5.539   1.983
10746SOL     OW33136   2.647   5.755   6.132
10746SOL    HW133137   2.615   5.661   6.118
10746SOL    HW233138   2.687   5.789   6.046
10747SOL     OW33139   6.560   0.300   4.756
10747SOL    HW133140   6.518   0.210   4.767
10747SOL    HW233141   6.600   0.308   4.665
10748SOL     OW33142   3.767   6.205   2.550
10748SOL    HW133143   3.701   6.280   2.539
10748SOL    HW233144   3.859   6.241   2.538
10749SOL     OW33145   5.092   2.703   2.489
10749SOL    HW133146   5.118   2.777   2.427
10749SOL    HW233147   5.172   2.646   2.508
10750SOL     OW33148   3.160   1.362   4.480
10750SOL    HW133149   3.133   1.302   4.405
10750SOL    HW233150   3.220   1.433   4.445
10751SOL     OW33151   5.952   5.985   3.754
10751SOL    HW133152   5.915   6.077   3.767
10751SOL    HW233153   5.968   5.970   3.657
10752SOL     OW33154   0.278   5.939   6.477
10752SOL    HW133155   0.216   5.939   6.398
10752SOL    HW233156   0.226   5.964   6.559
10753SOL     OW33157   4.979   6.746   5.185
10753SOL    HW133158   5.008   6.838   5.212
10753SOL    HW233159   4.879   6.741   5.191
10754SOL     OW33160   6.779   5.627   2.212
10754SOL    HW133161   6.747   5.538   2.180
10754SOL    HW233162   6.721   5.659   2.286
10755SOL     OW33163   1.012   1.821   2.167
10755SOL    HW133164   1.010   1.722   2.152
10755SOL    HW233165   0.957   1.867   2.097
10756SOL     OW33166   0.607   0.235   6.813
10756SOL    HW133167   0.705   0.255   6.819
10756SOL    HW233168   0.562   0.307   6.759
10757SOL     OW33169   0.041   2.455   1.970
10757SOL    HW133170   6.992   2.401   2.023
10757SOL    HW233171   0.019   2.447   1.873
10758SOL     OW33172   0.198   1.426   0.984
10758SOL    HW133173   0.119   1.386   1.032
10758SOL    HW233174   0.168   1.508   0.934
10759SOL     OW33175   3.390   5.245   5.227
10759SOL    HW133176   3.343   5.196   5.154
10759SOL    HW233177   3.387   5.191   5.311
10760SOL     OW33178   0.990   4.761   6.903
10760SOL    HW133179   1.031   4.682   6.950
10760SOL    HW233180   0.907   4.789   6.952
10761SOL     OW33181   1.679   1.577   6.390
10761SOL    HW133182   1.742   1.639   6.342
10761SOL    HW233183   1.730   1.498   6.424
10762SOL     OW33184   1.642   6.038   1.271
10762SOL    HW133185   1.606   5.987   1.348
10762SOL    HW233186   1.567   6.069   1.213
10763SOL     OW33187   4.969   1.489   2.349
10763SOL    HW133188   4.965   1.502   2.448
10763SOL    HW233189   4.896   1.542   2.306
10764SOL     OW33190   5.122   6.285   4.074
10764SOL    HW133191   5.094   6.200   4.031
10764SOL    HW233192   5.055   6.357   4.053
10765SOL     OW33193   6.900   3.136   1.747
10765SOL    HW133194   6.846   3.193   1.685
10765SOL    HW233195   6.997   3.149   1.728
10766SOL     OW33196   3.327   5.545   6.738
10766SOL    HW133197   3.242   5.515   6.781
10766SOL    HW233198   3.322   5.644   6.720
10767SOL     OW33199   1.561   5.345   6.442
10767SOL    HW133200   1.604   5.431   6.471
10767SOL    HW233201   1.632   5.280   6.414
10768SOL     OW33202   5.861   5.969   0.131
10768SOL    HW133203   5.945   5.937   0.088
10768SOL    HW233204   5.824   6.046   0.079
10769SOL     OW33205   3.245   3.773   4.514
10769SOL    HW133206   3.330   3.779   4.461
10769SOL    HW233207   3.252   3.834   4.594
10770SOL     OW33208   4.456   0.385   4.369
10770SOL    HW133209   4.427   0.291   4.388
10770SOL    HW233210   4.518   0.385   4.291
10771SOL     OW33211   5.055   6.217   5.568
10771SOL    HW133212   5.117   6.237   5.492
10771SOL    HW233213   5.043   6.300   5.623
10772SOL     OW33214   5.106   3.078   4.006
10772SOL    HW133215   5.109   3.152   4.073
10772SOL    HW233216   5.016   3.074   3.965
10773SOL     OW33217   1.112   4.066   0.531
10773SOL    HW133218   1.173   4.137   0.496
10773SOL    HW233219   1.124   4.058   0.630
10774SOL     OW33220   6.468   2.989   0.591
10774SOL    HW133221   6.432   3.059   0.653
10774SOL    HW233222   6.462   2.900   0.634
10775SOL     OW33223   1.931   4.620   6.220
10775SOL    HW133224   1.845   4.574   6.240
10775SOL    HW233225   1.994   4.607   6.297
10776SOL     OW33226   6.946   3.696   3.122
10776SOL    HW133227   6.935   3.777   3.064
10776SOL    HW233228   6.884   3.702   3.200
10777SOL     OW33229   0.872   6.277   2.197
10777SOL    HW133230   0.840   6.192   2.157
10777SOL    HW233231   0.833   6.354   2.146
10778SOL     OW33232   5.085   6.884   3.595
10778SOL    HW133233   5.025   6.832   3.534
10778SOL    HW233234   5.097   6.834   3.680
10779SOL     OW33235   5.753   2.906   5.373
10779SOL    HW133236   5.784   2.935   5.282
10779SOL    HW233237   5.833   2.891   5.431
10780SOL     OW33238   1.051   5.697   4.879
10780SOL    HW133239   1.099   5.660   4.799
10780SOL    HW233240   0.957   5.661   4.882
10781SOL     OW33241   5.951   2.181   5.704
10781SOL    HW133242   5.993   2.272   5.701
10781SOL    HW233243   5.950   2.148   5.799
10782SOL     OW33244   1.321   3.324   5.025
10782SOL    HW133245   1.323   3.231   5.062
10782SOL    HW233246   1.284   3.386   5.094
10783SOL     OW33247   1.527   3.669   4.127
10783SOL    HW133248   1.443   3.723   4.126
10783SOL    HW233249   1.517   3.591   4.065
10784SOL     OW33250   4.975   5.215   4.083
10784SOL    HW133251   5.032   5.136   4.060
10784SOL    HW233252   4.886   5.183   4.118
10785SOL     OW33253   1.863   5.658   1.895
10785SOL    HW133254   1.899   5.594   1.827
10785SOL    HW233255   1.763   5.660   1.890
10786SOL     OW33256   4.893   1.259   2.570
10786SOL    HW133257   4.793   1.260   2.568
10786SOL    HW233258   4.927   1.230   2.481
10787SOL     OW33259   3.102   1.204   3.840
10787SOL    HW133260   3.134   1.295   3.814
10787SOL    HW233261   3.083   1.151   3.757
10788SOL     OW33262   1.589   2.948   6.743
10788SOL    HW133263   1.503   2.991   6.769
10788SOL    HW233264   1.661   3.018   6.741
10789SOL     OW33265   6.744   2.250   2.884
10789SOL    HW133266   6.706   2.295   2.965
10789SOL    HW233267   6.669   2.208   2.832
10790SOL     OW33268   6.780   2.782   5.065
10790SOL    HW133269   6.740   2.873   5.063
10790SOL    HW233270   6.879   2.788   5.052
10791SOL     OW33271   2.238   3.026   3.085
10791SOL    HW133272   2.275   3.016   3.178
10791SOL    HW233273   2.144   2.993   3.084
10792SOL     OW33274   3.849   0.990   2.438
10792SOL    HW133275   3.946   0.966   2.432
10792SOL    HW233276   3.833   1.078   2.392
10793SOL     OW33277   3.727   2.147   3.782
10793SOL    HW133278   3.646   2.099   3.815
10793SOL    HW233279   3.777   2.185   3.859
10794SOL     OW33280   4.303   2.974   0.074
10794SOL    HW133281   4.278   3.063   0.113
10794SOL    HW233282   4.396   2.978   0.040
10795SOL     OW33283   6.280   2.495   3.221
10795SOL    HW133284   6.331   2.411   3.239
10795SOL    HW233285   6.189   2.488   3.262
10796SOL     OW33286   6.534   2.112   6.498
10796SOL    HW133287   6.486   2.029   6.528
10796SOL    HW233288   6.612   2.129   6.557
10797SOL     OW33289   5.736   4.377   6.737
10797SOL    HW133290   5.640   4.403   6.725
10797SOL    HW233291   5.794   4.432   6.678
10798SOL     OW33292   2.335   5.715   0.583
10798SOL    HW133293   2.271   5.714   0.660
10798SOL    HW233294   2.307   5.647   0.515
10799SOL     OW33295   1.943   1.344   3.242
10799SOL    HW133296   1.855   1.388   3.228
10799SOL    HW233297   2.016   1.410   3.225
10800SOL     OW33298   1.181   0.351   5.264
10800SOL    HW133299   1.129   0.290   5.324
10800SOL    HW233300   1.149   0.342   5.170
10801SOL     OW33301   3.146   6.352   7.004
10801SOL    HW133302   3.141   6.271   0.045
10801SOL    HW233303   3.087   6.339   6.924
10802SOL     OW33304   0.605   4.842   3.436
10802SOL    HW133305   0.543   4.790   3.495
10802SOL    HW233306   0.589   4.940   3.449
10803SOL     OW33307   0.405   3.926   4.761
10803SOL    HW133308   0.347   3.981   4.821
10803SOL    HW233309   0.489   3.976   4.741
10804SOL     OW33310   4.434   5.177   6.512
10804SOL    HW133311   4.351   5.172   6.457
10804SOL    HW233312   4.499   5.107   6.480
10805SOL     OW33313   5.432   5.669   0.113
10805SOL    HW133314   5.409   5.729   0.190
10805SOL    HW233315   5.519   5.698   0.073
10806SOL     OW33316   6.224   3.094   5.281
10806SOL    HW133317   6.196   3.164   5.346
10806SOL    HW233318   6.317   3.113   5.250
10807SOL     OW33319   4.475   2.477   5.080
10807SOL    HW133320   4.455   2.505   5.174
10807SOL    HW233321   4.475   2.558   5.021
10808SOL     OW33322   0.762   2.573   1.052
10808SOL    HW133323   0.838   2.614   1.001
10808SOL    HW233324   0.691   2.641   1.067
10809SOL     OW33325   0.646   1.120   2.876
10809SOL    HW133326   0.712   1.093   2.946
10809SOL    HW233327   0.563   1.064   2.885
10810SOL     OW33328   1.937   2.286   6.439
10810SOL    HW133329   1.936   2.380   6.472
10810SOL    HW233330   1.891   2.282   6.350
10811SOL     OW33331   4.230   5.232   6.324
10811SOL    HW133332   4.187   5.142   6.310
10811SOL    HW233333   4.179   5.281   6.395
10812SOL     OW33334   6.855   3.253   2.129
10812SOL    HW133335   6.781   3.254   2.062
10812SOL    HW233336   6.830   3.310   2.207
10813SOL     OW33337   3.400   6.576   2.131
10813SOL    HW133338   3.451   6.646   2.180
10813SOL    HW233339   3.454   6.544   2.053
10814SOL     OW33340   1.843   5.992   4.204
10814SOL    HW133341   1.757   6.037   4.180
10814SOL    HW233342   1.832   5.893   4.192
10815SOL     OW33343   5.523   2.845   5.802
10815SOL    HW133344   5.521   2.789   5.884
10815SOL    HW233345   5.480   2.795   5.726
10816SOL     OW33346   2.437   2.684   1.049
10816SOL    HW133347   2.438   2.703   1.148
10816SOL    HW233348   2.415   2.768   0.999
10817SOL     OW33349   3.610   1.384   1.617
10817SOL    HW133350   3.523   1.433   1.613
10817SOL    HW233351   3.685   1.450   1.626
10818SOL     OW33352   4.359   3.793   5.479
10818SOL    HW133353   4.289   3.819   5.413
10818SOL    HW233354   4.402   3.707   5.451
10819SOL     OW33355   2.112   3.245   5.207
10819SOL    HW133356   2.202   3.221   5.245
10819SOL    HW233357   2.119   3.334   5.162
10820SOL     OW33358   0.531   6.311   5.042
10820SOL    HW133359   0.564   6.404   5.056
10820SOL    HW233360   0.522   6.265   5.130
10821SOL     OW33361   6.999   0.508   6.763
10821SOL    HW133362   6.923   0.572   6.778
10821SOL    HW233363   0.007   0.465   6.850
10822SOL     OW33364   0.090   5.340   5.597
10822SOL    HW133365   0.149   5.299   5.666
10822SOL    HW233366   0.129   5.322   5.506
10823SOL     OW33367   2.789   2.503   0.617
10823SOL    HW133368   2.775   2.417   0.568
10823SOL    HW233369   2.788   2.486   0.715
10824SOL     OW33370   4.853   1.455   4.549
10824SOL    HW133371   4.804   1.442   4.636
10824SOL    HW233372   4.912   1.536   4.556
10825SOL     OW33373   4.624   1.466   1.692
10825SOL    HW133374   4.554   1.447   1.624
10825SOL    HW233375   4.585   1.456   1.784
10826SOL     OW33376   0.595   3.402   0.861
10826SOL    HW133377   0.639   3.438   0.943
10826SOL    HW233378   0.509   3.451   0.846
10827SOL     OW33379   6.828   2.521   5.112
10827SOL    HW133380   6.798   2.615   5.098
10827SOL    HW233381   6.928   2.516   5.105
10828SOL     OW33382   3.003   4.478   0.005
10828SOL    HW133383   3.024   4.575   0.016
10828SOL    HW233384   2.962   4.442   0.089
10829SOL     OW33385   1.815   3.765   1.037
10829SOL    HW133386   1.729   3.773   0.987
10829SOL    HW233387   1.813   3.684   1.096
10830SOL     OW33388   5.962   0.064   4.199
10830SOL    HW133389   5.992   0.134   4.134
10830SOL    HW233390   5.869   0.035   4.176
10831SOL     OW33391   5.828   2.860   2.520
10831SOL    HW133392   5.761   2.822   2.456
10831SOL    HW233393   5.874   2.785   2.568
10832SOL     OW33394   1.609   3.066   2.216
10832SOL    HW133395   1.699   3.046   2.254
10832SOL    HW233396   1.603   3.030   2.123
10833SOL     OW33397   3.292   7.002   4.603
10833SOL    HW133398   3.214   6.958   4.558
10833SOL    HW233399   3.366   6.936   4.611
10834SOL     OW33400   6.882   2.295   5.642
10834SOL    HW133401   6.792   2.337   5.632
10834SOL    HW233402   6.930   2.295   5.554
10835SOL     OW33403   0.676   1.128   0.786
10835SOL    HW133404   0.643   1.067   0.714
10835SOL    HW233405   0.620   1.211   0.788
10836SOL     OW33406   6.894   1.345   1.274
10836SOL    HW133407   6.800   1.327   1.303
10836SOL    HW233408   6.913   1.296   1.188
10837SOL     OW33409   1.510   5.547   0.577
10837SOL    HW133410   1.607   5.530   0.593
10837SOL    HW233411   1.457   5.465   0.602
10838SOL     OW33412   6.534   6.229   1.258
10838SOL    HW133413   6.623   6.254   1.220
10838SOL    HW233414   6.469   6.213   1.184
10839SOL     OW33415   2.559   1.558   6.609
10839SOL    HW133416   2.556   1.641   6.665
10839SOL    HW233417   2.654   1.534   6.590
10840SOL     OW33418   0.830   1.100   3.074
10840SOL    HW133419   0.911   1.107   3.017
10840SOL    HW233420   0.832   1.171   3.144
10841SOL     OW33421   4.771   4.601   0.370
10841SOL    HW133422   4.783   4.547   0.454
10841SOL    HW233423   4.674   4.614   0.352
10842SOL     OW33424   5.739   1.798   1.601
10842SOL    HW133425   5.649   1.799   1.557
10842SOL    HW233426   5.743   1.723   1.666
10843SOL     OW33427   0.806   2.050   1.500
10843SOL    HW133428   0.727   2.022   1.446
10843SOL    HW233429   0.889   2.011   1.460
10844SOL     OW33430   4.529   6.799   3.831
10844SOL    HW133431   4.540   6.865   3.905
10844SOL    HW233432   4.452   6.825   3.773
10845SOL     OW33433   2.373   3.708   1.250
10845SOL    HW133434   2.411   3.800   1.254
10845SOL    HW233435   2.324   3.697   1.163
10846SOL     OW33436   3.252   2.232   1.497
10846SOL    HW133437   3.328   2.187   1.450
10846SOL    HW233438   3.166   2.188   1.471
10847SOL     OW33439   5.121   1.804   5.457
10847SOL    HW133440   5.189   1.748   5.504
10847SOL    HW233441   5.160   1.893   5.435
10848SOL     OW33442   2.106   0.462   6.573
10848SOL    HW133443   2.129   0.484   6.667
10848SOL    HW233444   2.186   0.426   6.526
10849SOL     OW33445   0.600   4.035   5.100
10849SOL    HW133446   0.645   4.116   5.138
10849SOL    HW233447   0.637   3.953   5.143
10850SOL     OW33448   5.662   0.698   3.075
10850SOL    HW133449   5.670   0.774   3.140
10850SOL    HW233450   5.705   0.723   2.989
10851SOL     OW33451   4.781   2.913   0.449
10851SOL    HW133452   4.818   2.835   0.499
10851SOL    HW233453   4.729   2.971   0.511
10852SOL     OW33454   5.852   1.607   5.973
10852SOL    HW133455   5.825   1.549   5.896
10852SOL    HW233456   5.787   1.595   6.048
10853SOL     OW33457   1.854   6.813   5.552
10853SOL    HW133458   1.784   6.885   5.557
10853SOL    HW233459   1.930   6.837   5.612
10854SOL     OW33460   5.588   6.847   6.806
10854SOL    HW133461   5.554   6.936   6.839
10854SOL    HW233462   5.686   6.854   6.786
10855SOL     OW33463   0.929   5.929   6.978
10855SOL    HW133464   0.951   5.893   0.051
10855SOL    HW233465   0.992   6.003   6.955
10856SOL     OW33466   4.705   6.959   6.398
10856SOL    HW133467   4.787   6.978   6.345
10856SOL    HW233468   4.625   6.996   6.351
10857SOL     OW33469   5.936   6.576   4.759
10857SOL    HW133470   5.928   6.494   4.702
10857SOL    HW233471   6.033   6.594   4.777
10858SOL     OW33472   1.987   2.873   1.049
10858SOL    HW133473   2.042   2.917   1.120
10858SOL    HW233474   2.031   2.789   1.018
10859SOL     OW33475   2.361   5.162   1.800
10859SOL    HW133476   2.419   5.137   1.878
10859SOL    HW233477   2.270   5.187   1.832
10860SOL     OW33478   5.566   1.527   2.127
10860SOL    HW133479   5.565   1.467   2.048
10860SOL    HW233480   5.477   1.522   2.174
10861SOL     OW33481   2.721   4.708   0.832
10861SOL    HW133482   2.635   4.727   0.783
10861SOL    HW233483   2.783   4.786   0.821
10862SOL     OW33484   3.880   4.716   5.403
10862SOL    HW133485   3.790   4.683   5.375
10862SOL    HW233486   3.920   4.652   5.468
10863SOL     OW33487   0.179   6.858   4.183
10863SOL    HW133488   0.180   6.847   4.084
10863SOL    HW233489   0.250   6.800   4.224
10864SOL     OW33490   3.012   3.660   2.713
10864SOL    HW133491   2.994   3.702   2.624
10864SOL    HW233492   2.961   3.709   2.784
10865SOL     OW33493   3.473   2.042   2.185
10865SOL    HW133494   3.540   2.114   2.168
10865SOL    HW233495   3.520   1.955   2.199
10866SOL     OW33496   0.483   3.482   5.031
10866SOL    HW133497   0.385   3.472   5.047
10866SOL    HW233498   0.502   3.572   4.992
10867SOL     OW33499   5.025   3.334   0.451
10867SOL    HW133500   5.057   3.416   0.403
10867SOL    HW233501   5.104   3.281   0.481
10868SOL     OW33502   6.953   0.247   6.043
10868SOL    HW133503   7.008   0.182   6.097
10868SOL    HW233504   6.959   0.338   6.085
10869NA      NA33505   6.666   1.032   6.968
10870NA      NA33506   4.701   4.726   4.920
10871NA      NA33507   0.930   4.574   2.942
10872NA      NA33508   6.692   3.322   3.652
10873NA      NA33509   4.331   2.292   5.167
10874NA      NA33510   2.499   3.351   6.762
10875NA      NA33511   1.637   5.487   0.124
10876NA      NA33512   4.234   4.818   2.027
10877NA      NA33513   5.310   3.719   1.120
10878NA      NA33514   3.365   2.080   0.448
10879NA      NA33515   5.035   6.243   1.699
10880NA      NA33516   2.601   6.429   4.542
10881NA      NA33517   3.102   5.418   2.770
10882NA      NA33518   4.460   4.958   5.828
   7.01695   7.01695   7.01695
