Generated by trjconv : CNT in water t= 426.00000
33518
    1C        C    1   2.844   2.769   4.747
    1C        C    2   2.897   2.716   4.867
    1C        C    3   2.841   2.772   4.983
    1C        C    4   2.850   2.772   4.258
    1C        C    5   2.899   2.723   4.381
    1C        C    6   2.847   2.771   4.504
    1C        C    7   3.011   2.638   4.625
    1C        C    8   2.893   2.716   4.625
    1C        C    9   3.078   2.608   4.745
    1C        C   10   3.011   2.633   4.867
    1C        C   11   3.179   2.492   4.977
    1C        C   12   3.054   2.557   4.976
    1C        C   13   2.849   2.768   3.770
    1C        C   14   2.901   2.719   3.892
    1C        C   15   2.851   2.773   4.013
    1C        C   16   3.019   2.646   4.136
    1C        C   17   2.903   2.727   4.136
    1C        C   18   3.079   2.611   4.260
    1C        C   19   3.015   2.642   4.382
    1C        C   20   3.207   2.554   4.503
    1C        C   21   3.074   2.603   4.504
    1C        C   22   3.275   2.528   4.624
    1C        C   23   3.206   2.546   4.746
    1C        C   24   3.410   2.488   4.864
    1C        C   25   3.268   2.500   4.865
    1C        C   26   3.488   2.478   4.980
    1C        C   27   2.848   2.766   3.280
    1C        C   28   2.902   2.720   3.402
    1C        C   29   2.848   2.765   3.525
    1C        C   30   3.015   2.636   3.647
    1C        C   31   2.901   2.720   3.648
    1C        C   32   3.075   2.600   3.770
    1C        C   33   3.014   2.635   3.893
    1C        C   34   3.207   2.546   4.014
    1C        C   35   3.078   2.603   4.015
    1C        C   36   3.275   2.535   4.137
    1C        C   37   3.208   2.555   4.260
    1C        C   38   3.415   2.509   4.380
    1C        C   39   3.275   2.529   4.382
    1C        C   40   3.485   2.506   4.502
    1C        C   41   3.414   2.504   4.625
    1C        C   42   3.629   2.486   4.744
    1C        C   43   3.487   2.485   4.744
    1C        C   44   3.705   2.485   4.864
    1C        C   45   3.627   2.476   4.980
    1C        C   46   2.835   2.748   2.791
    1C        C   47   2.893   2.710   2.914
    1C        C   48   2.842   2.759   3.037
    1C        C   49   3.016   2.636   3.158
    1C        C   50   2.901   2.717   3.158
    1C        C   51   3.080   2.605   3.280
    1C        C   52   3.018   2.639   3.402
    1C        C   53   3.208   2.549   3.523
    1C        C   54   3.075   2.599   3.525
    1C        C   55   3.271   2.526   3.648
    1C        C   56   3.204   2.544   3.771
    1C        C   57   3.416   2.509   3.892
    1C        C   58   3.275   2.527   3.892
    1C        C   59   3.486   2.502   4.014
    1C        C   60   3.414   2.510   4.136
    1C        C   61   3.626   2.506   4.256
    1C        C   62   3.485   2.501   4.258
    1C        C   63   3.698   2.507   4.378
    1C        C   64   3.626   2.500   4.500
    1C        C   65   3.835   2.538   4.619
    1C        C   66   3.698   2.502   4.622
    1C        C   67   3.903   2.562   4.741
    1C        C   68   3.841   2.523   4.861
    1C        C   69   4.053   2.585   4.977
    1C        C   70   3.922   2.537   4.974
    1C        C   71   2.819   2.729   2.305
    1C        C   72   2.878   2.687   2.426
    1C        C   73   2.831   2.745   2.546
    1C        C   74   3.004   2.622   2.669
    1C        C   75   2.888   2.702   2.668
    1C        C   76   3.072   2.598   2.790
    1C        C   77   3.010   2.631   2.913
    1C        C   78   3.202   2.541   3.033
    1C        C   79   3.071   2.593   3.034
    1C        C   80   3.273   2.527   3.154
    1C        C   81   3.210   2.550   3.279
    1C        C   82   3.414   2.497   3.400
    1C        C   83   3.276   2.526   3.402
    1C        C   84   3.480   2.493   3.525
    1C        C   85   3.410   2.499   3.647
    1C        C   86   3.624   2.504   3.767
    1C        C   87   3.483   2.499   3.768
    1C        C   88   3.694   2.513   3.889
    1C        C   89   3.627   2.508   4.014
    1C        C   90   3.835   2.551   4.133
    1C        C   91   3.699   2.513   4.135
    1C        C   92   3.900   2.573   4.257
    1C        C   93   3.835   2.540   4.378
    1C        C   94   4.027   2.631   4.497
    1C        C   95   3.904   2.561   4.499
    1C        C   96   4.090   2.668   4.618
    1C        C   97   4.029   2.629   4.740
    1C        C   98   4.194   2.763   4.861
    1C        C   99   4.096   2.658   4.862
    1C        C  100   4.213   2.841   4.975
    1C        C  101   2.826   2.737   2.069
    1C        C  102   2.988   2.588   2.187
    1C        C  103   2.877   2.678   2.185
    1C        C  104   3.057   2.564   2.308
    1C        C  105   2.997   2.611   2.427
    1C        C  106   3.194   2.528   2.547
    1C        C  107   3.063   2.580   2.548
    1C        C  108   3.267   2.516   2.667
    1C        C  109   3.201   2.540   2.790
    1C        C  110   3.410   2.498   2.911
    1C        C  111   3.270   2.517   2.911
    1C        C  112   3.480   2.489   3.034
    1C        C  113   3.412   2.502   3.156
    1C        C  114   3.625   2.498   3.278
    1C        C  115   3.484   2.492   3.277
    1C        C  116   3.691   2.515   3.402
    1C        C  117   3.621   2.504   3.524
    1C        C  118   3.832   2.547   3.645
    1C        C  119   3.694   2.516   3.645
    1C        C  120   3.897   2.571   3.768
    1C        C  121   3.831   2.548   3.890
    1C        C  122   4.027   2.636   4.010
    1C        C  123   3.901   2.573   4.010
    1C        C  124   4.084   2.673   4.134
    1C        C  125   4.026   2.637   4.257
    1C        C  126   4.197   2.766   4.375
    1C        C  127   4.091   2.672   4.378
    1C        C  128   4.242   2.817   4.498
    1C        C  129   4.195   2.761   4.619
    1C        C  130   4.325   2.933   4.736
    1C        C  131   4.243   2.817   4.740
    1C        C  132   4.356   3.001   4.856
    1C        C  133   4.289   2.958   4.971
    1C        C  134   3.171   2.464   2.079
    1C        C  135   3.039   2.508   2.079
    1C        C  136   3.259   2.479   2.188
    1C        C  137   3.190   2.513   2.307
    1C        C  138   3.403   2.476   2.426
    1C        C  139   3.263   2.498   2.427
    1C        C  140   3.478   2.479   2.545
    1C        C  141   3.406   2.492   2.666
    1C        C  142   3.619   2.501   2.790
    1C        C  143   3.478   2.489   2.788
    1C        C  144   3.690   2.510   2.911
    1C        C  145   3.622   2.493   3.033
    1C        C  146   3.830   2.536   3.156
    1C        C  147   3.694   2.501   3.155
    1C        C  148   3.896   2.566   3.277
    1C        C  149   3.828   2.548   3.400
    1C        C  150   4.026   2.626   3.521
    1C        C  151   3.898   2.568   3.521
    1C        C  152   4.085   2.666   3.643
    1C        C  153   4.022   2.639   3.767
    1C        C  154   4.196   2.764   3.888
    1C        C  155   4.087   2.674   3.887
    1C        C  156   4.249   2.810   4.011
    1C        C  157   4.197   2.759   4.131
    1C        C  158   4.339   2.920   4.251
    1C        C  159   4.250   2.810   4.252
    1C        C  160   4.374   2.982   4.373
    1C        C  161   4.330   2.928   4.495
    1C        C  162   4.439   3.115   4.616
    1C        C  163   4.368   2.993   4.615
    1C        C  164   4.473   3.182   4.735
    1C        C  165   4.430   3.121   4.855
    1C        C  166   4.512   3.316   4.970
    1C        C  167   4.470   3.184   4.973
    1C        C  168   3.475   2.425   2.072
    1C        C  169   3.398   2.454   2.185
    1C        C  170   3.615   2.469   2.303
    1C        C  171   3.473   2.458   2.305
    1C        C  172   3.689   2.485   2.422
    1C        C  173   3.619   2.486   2.545
    1C        C  174   3.825   2.542   2.666
    1C        C  175   3.688   2.505   2.667
    1C        C  176   3.894   2.563   2.788
    1C        C  177   3.827   2.546   2.911
    1C        C  178   4.024   2.622   3.030
    1C        C  179   3.896   2.563   3.033
    1C        C  180   4.083   2.663   3.152
    1C        C  181   4.022   2.631   3.275
    1C        C  182   4.196   2.749   3.395
    1C        C  183   4.085   2.663   3.398
    1C        C  184   4.247   2.799   3.517
    1C        C  185   4.197   2.752   3.640
    1C        C  186   4.332   2.916   3.764
    1C        C  187   4.244   2.805   3.762
    1C        C  188   4.379   2.974   3.884
    1C        C  189   4.341   2.917   4.007
    1C        C  190   4.444   3.104   4.127
    1C        C  191   4.379   2.978   4.129
    1C        C  192   4.468   3.171   4.249
    1C        C  193   4.435   3.110   4.372
    1C        C  194   4.501   3.315   4.489
    1C        C  195   4.466   3.178   4.492
    1C        C  196   4.517   3.386   4.610
    1C        C  197   4.509   3.320   4.734
    1C        C  198   4.547   3.536   4.851
    1C        C  199   4.530   3.394   4.854
    1C        C  200   4.583   3.621   4.960
    1C        C  201   3.614   2.414   2.070
    1C        C  202   3.824   2.513   2.180
    1C        C  203   3.687   2.469   2.181
    1C        C  204   3.895   2.540   2.300
    1C        C  205   3.825   2.522   2.421
    1C        C  206   4.019   2.614   2.542
    1C        C  207   3.891   2.554   2.542
    1C        C  208   4.082   2.656   2.661
    1C        C  209   4.022   2.622   2.785
    1C        C  210   4.197   2.741   2.906
    1C        C  211   4.083   2.658   2.907
    1C        C  212   4.252   2.791   3.026
    1C        C  213   4.196   2.748   3.149
    1C        C  214   4.334   2.907   3.274
    1C        C  215   4.247   2.796   3.272
    1C        C  216   4.365   2.972   3.395
    1C        C  217   4.333   2.911   3.519
    1C        C  218   4.432   3.099   3.637
    1C        C  219   4.374   2.971   3.641
    1C        C  220   4.459   3.167   3.758
    1C        C  221   4.442   3.101   3.882
    1C        C  222   4.500   3.306   4.002
    1C        C  223   4.468   3.168   4.004
    1C        C  224   4.516   3.376   4.123
    1C        C  225   4.505   3.308   4.246
    1C        C  226   4.515   3.524   4.366
    1C        C  227   4.512   3.382   4.366
    1C        C  228   4.521   3.598   4.486
    1C        C  229   4.527   3.527   4.608
    1C        C  230   4.502   3.743   4.725
    1C        C  231   4.528   3.603   4.727
    1C        C  232   4.495   3.819   4.844
    1C        C  233   4.549   3.757   4.957
    1C        C  234   4.017   2.607   2.064
    1C        C  235   3.889   2.552   2.063
    1C        C  236   4.082   2.649   2.180
    1C        C  237   4.023   2.603   2.300
    1C        C  238   4.196   2.733   2.419
    1C        C  239   4.084   2.645   2.420
    1C        C  240   4.252   2.781   2.539
    1C        C  241   4.196   2.739   2.662
    1C        C  242   4.334   2.901   2.782
    1C        C  243   4.246   2.791   2.783
    1C        C  244   4.377   2.957   2.905
    1C        C  245   4.338   2.902   3.029
    1C        C  246   4.435   3.091   3.147
    1C        C  247   4.377   2.962   3.151
    1C        C  248   4.457   3.160   3.268
    1C        C  249   4.430   3.098   3.392
    1C        C  250   4.500   3.298   3.513
    1C        C  251   4.453   3.165   3.514
    1C        C  252   4.509   3.369   3.634
    1C        C  253   4.496   3.303   3.759
    1C        C  254   4.517   3.516   3.875
    1C        C  255   4.513   3.375   3.879
    1C        C  256   4.516   3.585   3.998
    1C        C  257   4.523   3.518   4.122
    1C        C  258   4.493   3.731   4.241
    1C        C  259   4.514   3.592   4.242
    1C        C  260   4.467   3.801   4.361
    1C        C  261   4.490   3.736   4.485
    1C        C  262   4.426   3.943   4.601
    1C        C  263   4.477   3.811   4.603
    1C        C  264   4.396   4.008   4.723
    1C        C  265   4.434   3.946   4.844
    1C        C  266   4.319   4.132   4.959
    1C        C  267   4.390   4.012   4.959
    1C        C  268   4.258   2.778   2.062
    1C        C  269   4.198   2.730   2.179
    1C        C  270   4.345   2.888   2.297
    1C        C  271   4.255   2.778   2.299
    1C        C  272   4.380   2.952   2.418
    1C        C  273   4.342   2.890   2.539
    1C        C  274   4.442   3.081   2.660
    1C        C  275   4.376   2.956   2.659
    1C        C  276   4.471   3.149   2.780
    1C        C  277   4.444   3.082   2.902
    1C        C  278   4.500   3.289   3.024
    1C        C  279   4.464   3.152   3.023
    1C        C  280   4.508   3.363   3.144
    1C        C  281   4.493   3.296   3.267
    1C        C  282   4.508   3.507   3.387
    1C        C  283   4.509   3.366   3.389
    1C        C  284   4.511   3.580   3.508
    1C        C  285   4.513   3.510   3.631
    1C        C  286   4.484   3.723   3.752
    1C        C  287   4.512   3.584   3.751
    1C        C  288   4.469   3.791   3.875
    1C        C  289   4.492   3.724   3.997
    1C        C  290   4.430   3.930   4.114
    1C        C  291   4.478   3.798   4.117
    1C        C  292   4.398   3.998   4.234
    1C        C  293   4.421   3.935   4.358
    1C        C  294   4.323   4.127   4.477
    1C        C  295   4.391   4.003   4.478
    1C        C  296   4.285   4.190   4.598
    1C        C  297   4.323   4.130   4.720
    1C        C  298   4.193   4.308   4.835
    1C        C  299   4.280   4.194   4.840
    1C        C  300   4.166   4.394   4.945
    1C        C  301   4.347   2.886   2.061
    1C        C  302   4.472   3.066   2.175
    1C        C  303   4.399   2.943   2.178
    1C        C  304   4.482   3.141   2.295
    1C        C  305   4.451   3.074   2.416
    1C        C  306   4.508   3.280   2.536
    1C        C  307   4.476   3.142   2.537
    1C        C  308   4.517   3.354   2.656
    1C        C  309   4.501   3.287   2.780
    1C        C  310   4.520   3.499   2.899
    1C        C  311   4.510   3.358   2.901
    1C        C  312   4.514   3.572   3.019
    1C        C  313   4.509   3.504   3.143
    1C        C  314   4.484   3.716   3.261
    1C        C  315   4.507   3.577   3.264
    1C        C  316   4.473   3.786   3.383
    1C        C  317   4.492   3.720   3.507
    1C        C  318   4.427   3.923   3.626
    1C        C  319   4.471   3.789   3.628
    1C        C  320   4.393   3.987   3.748
    1C        C  321   4.423   3.925   3.872
    1C        C  322   4.319   4.112   3.991
    1C        C  323   4.393   3.992   3.992
    1C        C  324   4.279   4.174   4.112
    1C        C  325   4.322   4.117   4.234
    1C        C  326   4.192   4.289   4.350
    1C        C  327   4.283   4.181   4.353
    1C        C  328   4.137   4.340   4.471
    1C        C  329   4.185   4.289   4.593
    1C        C  330   4.026   4.440   4.710
    1C        C  331   4.136   4.350   4.711
    1C        C  332   3.969   4.491   4.829
    1C        C  333   4.051   4.474   4.941
    1C        C  334   4.548   3.268   2.057
    1C        C  335   4.538   3.128   2.064
    1C        C  336   4.538   3.349   2.171
    1C        C  337   4.513   3.279   2.291
    1C        C  338   4.513   3.491   2.411
    1C        C  339   4.514   3.350   2.413
    1C        C  340   4.518   3.565   2.532
    1C        C  341   4.523   3.495   2.654
    1C        C  342   4.486   3.706   2.771
    1C        C  343   4.514   3.568   2.775
    1C        C  344   4.473   3.776   2.893
    1C        C  345   4.496   3.713   3.017
    1C        C  346   4.425   3.916   3.136
    1C        C  347   4.471   3.783   3.137
    1C        C  348   4.398   3.982   3.257
    1C        C  349   4.425   3.919   3.380
    1C        C  350   4.318   4.101   3.500
    1C        C  351   4.396   3.984   3.503
    1C        C  352   4.277   4.162   3.621
    1C        C  353   4.316   4.105   3.744
    1C        C  354   4.180   4.268   3.866
    1C        C  355   4.276   4.163   3.866
    1C        C  356   4.128   4.322   3.986
    1C        C  357   4.181   4.275   4.108
    1C        C  358   4.013   4.405   4.227
    1C        C  359   4.134   4.332   4.229
    1C        C  360   3.956   4.449   4.349
    1C        C  361   4.024   4.424   4.470
    1C        C  362   3.827   4.515   4.589
    1C        C  363   3.960   4.466   4.588
    1C        C  364   3.761   4.543   4.710
    1C        C  365   3.836   4.538   4.830
    1C        C  366   3.628   4.589   4.948
    1C        C  367   3.765   4.569   4.947
    1C        C  368   4.500   3.563   2.053
    1C        C  369   4.519   3.489   2.171
    1C        C  370   4.496   3.704   2.286
    1C        C  371   4.511   3.564   2.290
    1C        C  372   4.477   3.774   2.407
    1C        C  373   4.497   3.704   2.529
    1C        C  374   4.426   3.907   2.647
    1C        C  375   4.478   3.776   2.649
    1C        C  376   4.393   3.970   2.769
    1C        C  377   4.426   3.909   2.892
    1C        C  378   4.318   4.096   3.009
    1C        C  379   4.394   3.977   3.012
    1C        C  380   4.280   4.156   3.131
    1C        C  381   4.320   4.101   3.255
    1C        C  382   4.176   4.256   3.377
    1C        C  383   4.276   4.156   3.377
    1C        C  384   4.122   4.304   3.499
    1C        C  385   4.178   4.263   3.622
    1C        C  386   4.012   4.394   3.740
    1C        C  387   4.129   4.314   3.744
    1C        C  388   3.944   4.428   3.859
    1C        C  389   4.007   4.395   3.982
    1C        C  390   3.816   4.483   4.103
    1C        C  391   3.949   4.434   4.104
    1C        C  392   3.754   4.514   4.226
    1C        C  393   3.824   4.500   4.348
    1C        C  394   3.614   4.543   4.471
    1C        C  395   3.754   4.523   4.468
    1C        C  396   3.547   4.556   4.595
    1C        C  397   3.620   4.559   4.715
    1C        C  398   3.408   4.549   4.836
    1C        C  399   3.547   4.573   4.835
    1C        C  400   3.337   4.525   4.954
    1C        C  401   4.502   3.702   2.050
    1C        C  402   4.453   3.915   2.163
    1C        C  403   4.490   3.779   2.166
    1C        C  404   4.413   3.976   2.283
    1C        C  405   4.437   3.909   2.405
    1C        C  406   4.327   4.094   2.524
    1C        C  407   4.402   3.975   2.525
    1C        C  408   4.280   4.151   2.644
    1C        C  409   4.320   4.091   2.766
    1C        C  410   4.176   4.251   2.887
    1C        C  411   4.274   4.149   2.886
    1C        C  412   4.124   4.298   3.009
    1C        C  413   4.179   4.255   3.132
    1C        C  414   4.001   4.372   3.251
    1C        C  415   4.122   4.300   3.254
    1C        C  416   3.943   4.410   3.374
    1C        C  417   4.007   4.386   3.498
    1C        C  418   3.813   4.474   3.617
    1C        C  419   3.944   4.421   3.619
    1C        C  420   3.745   4.502   3.737
    1C        C  421   3.814   4.482   3.859
    1C        C  422   3.609   4.533   3.983
    1C        C  423   3.747   4.503   3.982
    1C        C  424   3.541   4.532   4.107
    1C        C  425   3.614   4.537   4.227
    1C        C  426   3.402   4.544   4.354
    1C        C  427   3.543   4.547   4.349
    1C        C  428   3.332   4.540   4.477
    1C        C  429   3.405   4.550   4.597
    1C        C  430   3.193   4.510   4.720
    1C        C  431   3.332   4.541   4.717
    1C        C  432   3.124   4.487   4.842
    1C        C  433   3.201   4.496   4.959
    1C        C  434   4.380   4.120   2.051
    1C        C  435   4.446   3.996   2.048
    1C        C  436   4.300   4.161   2.162
    1C        C  437   4.334   4.094   2.283
    1C        C  438   4.185   4.252   2.399
    1C        C  439   4.281   4.149   2.402
    1C        C  440   4.128   4.298   2.520
    1C        C  441   4.180   4.251   2.642
    1C        C  442   4.006   4.375   2.764
    1C        C  443   4.124   4.297   2.764
    1C        C  444   3.942   4.409   2.886
    1C        C  445   4.004   4.372   3.008
    1C        C  446   3.809   4.461   3.129
    1C        C  447   3.941   4.410   3.128
    1C        C  448   3.743   4.482   3.252
    1C        C  449   3.812   4.463   3.374
    1C        C  450   3.605   4.517   3.495
    1C        C  451   3.744   4.490   3.494
    1C        C  452   3.536   4.532   3.617
    1C        C  453   3.606   4.530   3.740
    1C        C  454   3.395   4.538   3.862
    1C        C  455   3.537   4.542   3.862
    1C        C  456   3.330   4.531   3.987
    1C        C  457   3.399   4.528   4.110
    1C        C  458   3.193   4.496   4.233
    1C        C  459   3.331   4.526   4.234
    1C        C  460   3.128   4.477   4.356
    1C        C  461   3.195   4.506   4.477
    1C        C  462   2.994   4.433   4.601
    1C        C  463   3.124   4.489   4.598
    1C        C  464   2.928   4.399   4.721
    1C        C  465   2.987   4.443   4.842
    1C        C  466   2.798   4.338   4.956
    1C        C  467   2.904   4.430   4.958
    1C        C  468   4.123   4.285   2.039
    1C        C  469   4.185   4.246   2.159
    1C        C  470   4.003   4.367   2.274
    1C        C  471   4.126   4.295   2.278
    1C        C  472   3.941   4.398   2.397
    1C        C  473   4.007   4.372   2.519
    1C        C  474   3.814   4.460   2.643
    1C        C  475   3.944   4.405   2.641
    1C        C  476   3.745   4.484   2.764
    1C        C  477   3.812   4.463   2.886
    1C        C  478   3.604   4.512   3.007
    1C        C  479   3.743   4.487   3.007
    1C        C  480   3.533   4.519   3.129
    1C        C  481   3.605   4.513   3.250
    1C        C  482   3.395   4.523   3.374
    1C        C  483   3.536   4.526   3.372
    1C        C  484   3.323   4.521   3.496
    1C        C  485   3.394   4.535   3.617
    1C        C  486   3.188   4.496   3.744
    1C        C  487   3.324   4.533   3.740
    1C        C  488   3.126   4.469   3.868
    1C        C  489   3.193   4.497   3.989
    1C        C  490   2.998   4.413   4.113
    1C        C  491   3.125   4.474   4.111
    1C        C  492   2.936   4.383   4.237
    1C        C  493   2.997   4.422   4.358
    1C        C  494   2.826   4.299   4.480
    1C        C  495   2.934   4.391   4.480
    1C        C  496   2.769   4.256   4.602
    1C        C  497   2.815   4.313   4.722
    1C        C  498   2.663   4.162   4.842
    1C        C  499   2.753   4.271   4.842
    1C        C  500   2.597   4.112   4.955
    1C        C  501   4.000   4.350   2.037
    1C        C  502   3.810   4.459   2.153
    1C        C  503   3.936   4.395   2.153
    1C        C  504   3.744   4.478   2.277
    1C        C  505   3.811   4.452   2.398
    1C        C  506   3.605   4.495   2.518
    1C        C  507   3.745   4.477   2.521
    1C        C  508   3.533   4.504   2.640
    1C        C  509   3.606   4.509   2.761
    1C        C  510   3.394   4.517   2.885
    1C        C  511   3.535   4.511   2.883
    1C        C  512   3.321   4.519   3.006
    1C        C  513   3.391   4.521   3.128
    1C        C  514   3.185   4.487   3.254
    1C        C  515   3.324   4.514   3.252
    1C        C  516   3.118   4.460   3.375
    1C        C  517   3.186   4.489   3.496
    1C        C  518   2.995   4.411   3.623
    1C        C  519   3.122   4.474   3.621
    1C        C  520   2.937   4.374   3.746
    1C        C  521   2.997   4.410   3.868
    1C        C  522   2.831   4.283   3.993
    1C        C  523   2.937   4.376   3.991
    1C        C  524   2.781   4.238   4.118
    1C        C  525   2.827   4.293   4.239
    1C        C  526   2.685   4.137   4.360
    1C        C  527   2.769   4.250   4.361
    1C        C  528   2.647   4.078   4.483
    1C        C  529   2.677   4.148   4.602
    1C        C  530   2.580   3.958   4.729
    1C        C  531   2.636   4.089   4.724
    1C        C  532   2.533   3.901   4.850
    1C        C  533   2.521   3.995   4.958
    1C        C  534   3.616   4.556   2.040
    1C        C  535   3.749   4.513   2.039
    1C        C  536   3.534   4.532   2.155
    1C        C  537   3.605   4.509   2.276
    1C        C  538   3.392   4.510   2.399
    1C        C  539   3.533   4.510   2.398
    1C        C  540   3.320   4.502   2.520
    1C        C  541   3.392   4.503   2.642
    1C        C  542   3.183   4.481   2.765
    1C        C  543   3.322   4.506   2.765
    1C        C  544   3.116   4.460   2.887
    1C        C  545   3.184   4.484   3.009
    1C        C  546   2.990   4.403   3.133
    1C        C  547   3.117   4.466   3.132
    1C        C  548   2.929   4.367   3.255
    1C        C  549   2.989   4.402   3.378
    1C        C  550   2.823   4.280   3.505
    1C        C  551   2.931   4.371   3.503
    1C        C  552   2.775   4.232   3.628
    1C        C  553   2.827   4.285   3.748
    1C        C  554   2.689   4.126   3.871
    1C        C  555   2.778   4.235   3.871
    1C        C  556   2.652   4.067   3.994
    1C        C  557   2.689   4.131   4.115
    1C        C  558   2.592   3.945   4.242
    1C        C  559   2.653   4.073   4.239
    1C        C  560   2.562   3.881   4.365
    1C        C  561   2.588   3.950   4.486
    1C        C  562   2.536   3.747   4.611
    1C        C  563   2.562   3.886   4.609
    1C        C  564   2.521   3.678   4.733
    1C        C  565   2.519   3.758   4.851
    1C        C  566   2.523   3.544   4.976
    1C        C  567   2.522   3.683   4.969
    1C        C  568   3.324   4.480   2.038
    1C        C  569   3.395   4.504   2.156
    1C        C  570   3.183   4.468   2.279
    1C        C  571   3.321   4.500   2.277
    1C        C  572   3.114   4.447   2.401
    1C        C  573   3.181   4.475   2.522
    1C        C  574   2.985   4.400   2.646
    1C        C  575   3.112   4.462   2.644
    1C        C  576   2.924   4.361   2.768
    1C        C  577   2.990   4.396   2.888
    1C        C  578   2.819   4.275   3.015
    1C        C  579   2.932   4.360   3.012
    1C        C  580   2.763   4.229   3.136
    1C        C  581   2.818   4.280   3.256
    1C        C  582   2.689   4.118   3.384
    1C        C  583   2.777   4.229   3.381
    1C        C  584   2.652   4.059   3.506
    1C        C  585   2.693   4.117   3.629
    1C        C  586   2.586   3.935   3.756
    1C        C  587   2.649   4.062   3.751
    1C        C  588   2.564   3.870   3.879
    1C        C  589   2.598   3.937   3.999
    1C        C  590   2.534   3.738   4.127
    1C        C  591   2.571   3.874   4.122
    1C        C  592   2.521   3.670   4.250
    1C        C  593   2.530   3.744   4.370
    1C        C  594   2.515   3.532   4.494
    1C        C  595   2.521   3.673   4.492
    1C        C  596   2.519   3.462   4.617
    1C        C  597   2.520   3.536   4.737
    1C        C  598   2.531   3.325   4.860
    1C        C  599   2.520   3.466   4.860
    1C        C  600   2.529   3.247   4.976
    1C        C  601   3.193   4.436   2.040
    1C        C  602   2.978   4.399   2.157
    1C        C  603   3.116   4.435   2.158
    1C        C  604   2.922   4.355   2.279
    1C        C  605   2.987   4.387   2.401
    1C        C  606   2.817   4.268   2.526
    1C        C  607   2.926   4.358   2.525
    1C        C  608   2.767   4.219   2.649
    1C        C  609   2.813   4.274   2.771
    1C        C  610   2.680   4.112   2.895
    1C        C  611   2.768   4.222   2.894
    1C        C  612   2.647   4.052   3.019
    1C        C  613   2.679   4.115   3.141
    1C        C  614   2.590   3.926   3.266
    1C        C  615   2.646   4.056   3.265
    1C        C  616   2.555   3.865   3.389
    1C        C  617   2.588   3.933   3.509
    1C        C  618   2.528   3.732   3.636
    1C        C  619   2.564   3.869   3.633
    1C        C  620   2.516   3.664   3.759
    1C        C  621   2.527   3.734   3.881
    1C        C  622   2.512   3.526   4.008
    1C        C  623   2.520   3.667   4.006
    1C        C  624   2.519   3.455   4.130
    1C        C  625   2.519   3.528   4.251
    1C        C  626   2.538   3.318   4.376
    1C        C  627   2.521   3.458   4.374
    1C        C  628   2.561   3.250   4.498
    1C        C  629   2.537   3.322   4.618
    1C        C  630   2.591   3.117   4.742
    1C        C  631   2.545   3.252   4.740
    1C        C  632   2.614   3.048   4.864
    1C        C  633   2.562   3.111   4.982
    1C        C  634   2.782   4.302   2.049
    1C        C  635   2.887   4.394   2.046
    1C        C  636   2.745   4.233   2.165
    1C        C  637   2.807   4.271   2.286
    1C        C  638   2.670   4.109   2.407
    1C        C  639   2.756   4.221   2.408
    1C        C  640   2.634   4.049   2.530
    1C        C  641   2.679   4.109   2.649
    1C        C  642   2.580   3.925   2.772
    1C        C  643   2.641   4.052   2.773
    1C        C  644   2.561   3.858   2.895
    1C        C  645   2.588   3.924   3.017
    1C        C  646   2.532   3.725   3.145
    1C        C  647   2.568   3.862   3.142
    1C        C  648   2.518   3.655   3.267
    1C        C  649   2.525   3.727   3.389
    1C        C  650   2.513   3.521   3.518
    1C        C  651   2.517   3.662   3.514
    1C        C  652   2.518   3.451   3.641
    1C        C  653   2.516   3.523   3.763
    1C        C  654   2.530   3.314   3.884
    1C        C  655   2.512   3.454   3.886
    1C        C  656   2.552   3.249   4.007
    1C        C  657   2.542   3.316   4.131
    1C        C  658   2.606   3.117   4.255
    1C        C  659   2.553   3.248   4.254
    1C        C  660   2.638   3.053   4.377
    1C        C  661   2.606   3.117   4.499
    1C        C  662   2.709   2.935   4.625
    1C        C  663   2.629   3.052   4.622
    1C        C  664   2.751   2.877   4.747
    1C        C  665   2.694   2.930   4.866
    1C        C  666   2.742   2.869   4.983
    1C        C  667   2.683   4.021   2.053
    1C        C  668   2.679   4.108   2.162
    1C        C  669   2.584   3.916   2.287
    1C        C  670   2.637   4.048   2.283
    1C        C  671   2.553   3.851   2.408
    1C        C  672   2.576   3.920   2.529
    1C        C  673   2.522   3.717   2.658
    1C        C  674   2.554   3.855   2.652
    1C        C  675   2.516   3.648   2.781
    1C        C  676   2.535   3.719   2.902
    1C        C  677   2.509   3.511   3.029
    1C        C  678   2.519   3.652   3.025
    1C        C  679   2.511   3.440   3.151
    1C        C  680   2.509   3.514   3.271
    1C        C  681   2.536   3.309   3.398
    1C        C  682   2.516   3.449   3.397
    1C        C  683   2.555   3.241   3.521
    1C        C  684   2.539   3.311   3.642
    1C        C  685   2.602   3.110   3.766
    1C        C  686   2.552   3.242   3.764
    1C        C  687   2.635   3.051   3.891
    1C        C  688   2.601   3.116   4.011
    1C        C  689   2.712   2.934   4.137
    1C        C  690   2.635   3.053   4.133
    1C        C  691   2.757   2.879   4.259
    1C        C  692   2.712   2.933   4.381
    1C        C  693   2.757   2.880   4.505
    1C        C  694   2.622   3.894   2.052
    1C        C  695   2.521   3.706   2.173
    1C        C  696   2.574   3.837   2.171
    1C        C  697   2.500   3.641   2.296
    1C        C  698   2.517   3.714   2.415
    1C        C  699   2.491   3.505   2.541
    1C        C  700   2.499   3.646   2.538
    1C        C  701   2.504   3.436   2.664
    1C        C  702   2.504   3.508   2.786
    1C        C  703   2.527   3.298   2.908
    1C        C  704   2.504   3.437   2.909
    1C        C  705   2.545   3.230   3.030
    1C        C  706   2.533   3.300   3.152
    1C        C  707   2.600   3.105   3.276
    1C        C  708   2.553   3.238   3.278
    1C        C  709   2.633   3.045   3.400
    1C        C  710   2.608   3.110   3.523
    1C        C  711   2.713   2.927   3.648
    1C        C  712   2.637   3.046   3.645
    1C        C  713   2.756   2.874   3.772
    1C        C  714   2.711   2.932   3.893
    1C        C  715   2.757   2.879   4.015
    1C        C  716   2.453   3.497   2.060
    1C        C  717   2.488   3.633   2.059
    1C        C  718   2.471   3.423   2.181
    1C        C  719   2.483   3.500   2.301
    1C        C  720   2.515   3.290   2.424
    1C        C  721   2.490   3.429   2.423
    1C        C  722   2.536   3.223   2.546
    1C        C  723   2.523   3.297   2.666
    1C        C  724   2.590   3.093   2.789
    1C        C  725   2.543   3.226   2.787
    1C        C  726   2.624   3.032   2.911
    1C        C  727   2.595   3.098   3.032
    1C        C  728   2.700   2.915   3.157
    1C        C  729   2.628   3.037   3.155
    1C        C  730   2.751   2.868   3.281
    1C        C  731   2.710   2.926   3.403
    1C        C  732   2.754   2.871   3.525
    1C        C  733   2.498   3.203   2.067
    1C        C  734   2.492   3.281   2.183
    1C        C  735   2.586   3.086   2.303
    1C        C  736   2.529   3.217   2.304
    1C        C  737   2.613   3.021   2.425
    1C        C  738   2.591   3.093   2.545
    1C        C  739   2.699   2.910   2.669
    1C        C  740   2.622   3.028   2.667
    1C        C  741   2.738   2.850   2.791
    1C        C  742   2.694   2.909   2.912
    1C        C  743   2.739   2.856   3.035
    1C        C  744   2.540   3.070   2.072
    1C        C  745   2.680   2.896   2.184
    1C        C  746   2.605   3.015   2.183
    1C        C  747   2.728   2.838   2.304
    1C        C  748   2.690   2.903   2.424
    1C        C  749   2.739   2.852   2.546
    1C        C  750   2.732   2.840   2.067
    1C        C  751   3.664   2.282   2.028
    1C        O  752   3.679   2.180   2.102
    1C        O  753   3.731   2.260   1.907
    1C        C  754   4.639   3.053   1.986
    1C        O  755   4.605   3.010   1.872
    1C        O  756   4.776   3.081   1.976
    1C        C  757   4.445   4.206   1.950
    1C        O  758   4.528   4.293   1.989
    1C        O  759   4.392   4.212   1.820
    1C        C  760   3.594   4.676   1.956
    1C        O  761   3.639   4.788   1.991
    1C        O  762   3.561   4.679   1.820
    1C        C  763   2.874   4.501   1.944
    1C        O  764   2.863   4.468   1.823
    1C        O  765   2.823   4.628   1.973
    1C        C  766   2.331   3.472   1.981
    1C        O  767   2.343   3.424   1.865
    1C        O  768   2.202   3.469   2.036
    1C        C  769   4.695   3.584   5.048
    1C        O  770   4.665   3.577   5.170
    1C        O  771   4.829   3.603   5.011
    1C        C  772   4.265   4.442   5.045
    1C        O  773   4.236   4.415   5.165
    1C        O  774   4.347   4.551   5.016
    1C        C  775   4.145   2.488   5.041
    1C        O  776   4.212   2.407   4.972
    1C        O  777   4.229   2.519   5.149
    1C        C  778   2.889   4.543   5.052
    1C        O  779   2.843   4.654   5.013
    1C        O  780   2.963   4.559   5.170
    1C        C  781   2.473   3.043   5.078
    1C        O  782   2.368   2.977   5.055
    1C        O  783   2.496   3.056   5.215
    1C        C  784   2.399   4.004   5.041
    1C        O  785   2.312   4.091   5.017
    1C        O  786   2.394   3.942   5.166
    1C        C  787   2.949   2.433   1.988
    1C        O  788   2.951   2.466   1.866
    1C        O  789   2.910   2.301   2.008
    1C        C  790   3.191   2.404   5.095
    1C        O  791   3.162   2.281   5.098
    1C        O  792   3.202   2.459   5.223
    1C        H  793   4.286   3.025   5.055
    1C        H  794   4.125   2.854   5.035
    1C        H  795   4.520   3.120   5.044
    1C        H  796   4.513   3.363   5.066
    1C        H  797   4.574   3.806   5.049
    1C        H  798   4.415   3.970   5.054
    1C        H  799   4.272   4.169   5.048
    1C        H  800   4.014   4.508   5.036
    1C        H  801   3.822   4.599   5.032
    1C        H  802   3.603   4.668   5.016
    1C        H  803   3.375   4.576   5.040
    1C        H  804   3.157   4.492   5.056
    1C        H  805   3.870   2.535   5.068
    1C        H  806   3.670   2.418   5.058
    1C        H  807   2.994   2.554   5.064
    1C        H  808   3.449   2.507   5.076
    1C        H  809   2.886   2.747   5.077
    1C        H  810   2.669   2.854   5.060
    1C        H  811   2.505   3.297   5.068
    1C        H  812   2.492   3.503   5.070
    1C        H  813   2.581   3.722   5.049
    1C        H  814   2.605   4.161   5.050
    1C        H  815   2.735   4.331   5.042
    1C        H  816   2.721   2.894   1.974
    1C        H  817   2.875   2.726   1.974
    1C        H  818   3.203   2.395   2.003
    1C        H  819   3.427   2.413   1.977
    1C        H  820   3.871   2.485   1.982
    1C        H  821   4.075   2.556   1.990
    1C        H  822   4.238   2.733   1.967
    1C        H  823   4.350   2.948   1.974
    1C        H  824   4.544   3.310   1.959
    1C        H  825   4.467   3.518   1.961
    1C        H  826   4.523   3.750   1.957
    1C        H  827   3.772   4.465   1.946
    1C        H  828   3.952   4.357   1.942
    1C        H  829   4.179   4.292   1.948
    1C        H  830   4.467   3.948   1.955
    1C        H  831   2.562   3.879   1.965
    1C        H  832   2.725   4.047   1.958
    1C        H  833   2.724   4.285   1.960
    1C        H  834   3.375   4.493   1.944
    1C        H  835   3.152   4.377   1.961
    1C        H  836   2.485   3.003   2.010
    1C        H  837   2.445   3.236   1.980
    1C        H  838   2.519   3.669   1.963
    2V3OU   H29  839   2.800   3.547   5.068
    2V3OU   C27  840   2.784   3.501   5.168
    2V3OU   H27  841   2.721   3.568   5.231
    2V3OU   H28  842   2.725   3.406   5.154
    2V3OU   O11  843   2.911   3.474   5.228
    2V3OU   C15  844   2.922   3.396   5.342
    2V3OU   C13  845   3.050   3.377   5.398
    2V3OU   C14  846   3.069   3.270   5.485
    2V3OU   C16  847   2.963   3.188   5.522
    2V3OU    H6  848   2.986   3.102   5.586
    2V3OU   C12  849   3.210   3.227   5.498
    2V3OU    O2  850   3.238   3.116   5.548
    2V3OU   C10  851   3.326   3.304   5.451
    2V3OU    C8  852   3.458   3.264   5.468
    2V3OU   O10  853   3.487   3.152   5.540
    2V3OU   H26  854   3.399   3.113   5.550
    2V3OU    C6  855   3.565   3.345   5.419
    2V3OU    C5  856   3.535   3.463   5.353
    2V3OU    C4  857   3.704   3.291   5.417
    2V3OU    H4  858   3.724   3.222   5.505
    2V3OU    H5  859   3.706   3.226   5.325
    2V3OU    C2  860   3.815   3.396   5.410
    2V3OU    O6  861   3.806   3.469   5.533
    2V3OU   H21  862   3.765   3.553   5.504
    2V3OU    C3  863   3.776   3.491   5.297
    2V3OU    H2  864   3.857   3.564   5.275
    2V3OU    H3  865   3.769   3.434   5.201
    2V3OU   C25  866   3.952   3.329   5.397
    2V3OU    O7  867   3.995   3.291   5.288
    2V3OU   C26  868   4.026   3.280   5.520
    2V3OU   H22  869   4.064   3.378   5.560
    2V3OU   H23  870   4.117   3.222   5.489
    2V3OU    O8  871   3.957   3.200   5.613
    2V3OU   H24  872   3.927   3.265   5.678
    2V3OU    C1  873   3.643   3.562   5.318
    2V3OU    H1  874   3.620   3.613   5.221
    2V3OU    O3  875   3.658   3.655   5.426
    2V3OU   C19  876   3.617   3.792   5.419
    2V3OU    H9  877   3.520   3.805   5.362
    2V3OU    O4  878   3.713   3.854   5.336
    2V3OU   C20  879   3.844   3.876   5.389
    2V3OU   H10  880   3.888   3.773   5.407
    2V3OU   C24  881   3.609   3.857   5.557
    2V3OU   H16  882   3.542   3.793   5.619
    2V3OU   H17  883   3.570   3.962   5.546
    2V3OU   C23  884   3.746   3.872   5.623
    2V3OU   H15  885   3.787   3.767   5.640
    2V3OU    N1  886   3.733   3.955   5.742
    2V3OU   H19  887   3.809   3.922   5.799
    2V3OU   H20  888   3.645   3.933   5.783
    2V3OU   C21  889   3.844   3.944   5.526
    2V3OU   H11  890   3.947   3.927   5.570
    2V3OU    O5  891   3.821   4.084   5.524
    2V3OU   H18  892   3.784   4.098   5.612
    2V3OU   C22  893   3.912   3.947   5.273
    2V3OU   H12  894   3.864   4.047   5.257
    2V3OU   H13  895   3.900   3.888   5.179
    2V3OU   H14  896   4.022   3.957   5.291
    2V3OU   C11  897   3.158   3.477   5.388
    2V3OU    O1  898   3.135   3.583   5.326
    2V3OU    C9  899   3.297   3.427   5.385
    2V3OU    C7  900   3.400   3.508   5.339
    2V3OU    O9  901   3.376   3.619   5.260
    2V3OU   H25  902   3.280   3.628   5.269
    2V3OU   C17  903   2.815   3.313   5.382
    2V3OU    H7  904   2.715   3.340   5.349
    2V3OU   C18  905   2.835   3.206   5.468
    2V3OU    H8  906   2.753   3.143   5.506
    3SOL     OW  907   3.810   4.053   4.297
    3SOL    HW1  908   3.810   4.072   4.395
    3SOL    HW2  909   3.899   4.017   4.269
    4SOL     OW  910   6.201   0.090   0.246
    4SOL    HW1  911   6.145   0.057   0.171
    4SOL    HW2  912   6.257   0.168   0.216
    5SOL     OW  913   4.415   1.354   1.247
    5SOL    HW1  914   4.448   1.272   1.201
    5SOL    HW2  915   4.372   1.414   1.180
    6SOL     OW  916   5.561   0.331   1.927
    6SOL    HW1  917   5.592   0.373   1.842
    6SOL    HW2  918   5.497   0.393   1.973
    7SOL     OW  919   2.419   4.310   3.471
    7SOL    HW1  920   2.396   4.402   3.438
    7SOL    HW2  921   2.421   4.310   3.571
    8SOL     OW  922   1.757   3.297   5.620
    8SOL    HW1  923   1.724   3.299   5.714
    8SOL    HW2  924   1.741   3.206   5.582
    9SOL     OW  925   5.907   1.146   6.677
    9SOL    HW1  926   5.948   1.060   6.645
    9SOL    HW2  927   5.977   1.218   6.677
   10SOL     OW  928   4.493   5.157   3.377
   10SOL    HW1  929   4.525   5.133   3.469
   10SOL    HW2  930   4.533   5.094   3.311
   11SOL     OW  931   2.055   0.775   0.484
   11SOL    HW1  932   2.072   0.873   0.495
   11SOL    HW2  933   2.116   0.724   0.545
   12SOL     OW  934   3.047   5.166   3.471
   12SOL    HW1  935   3.078   5.087   3.524
   12SOL    HW2  936   3.125   5.214   3.433
   13SOL     OW  937   4.363   6.296   1.609
   13SOL    HW1  938   4.400   6.377   1.655
   13SOL    HW2  939   4.406   6.214   1.646
   14SOL     OW  940   4.299   5.302   4.889
   14SOL    HW1  941   4.279   5.241   4.812
   14SOL    HW2  942   4.398   5.318   4.893
   15SOL     OW  943   6.843   5.559   6.289
   15SOL    HW1  944   6.859   5.652   6.322
   15SOL    HW2  945   6.748   5.550   6.261
   16SOL     OW  946   0.344   3.809   5.350
   16SOL    HW1  947   0.271   3.746   5.375
   16SOL    HW2  948   0.431   3.760   5.345
   17SOL     OW  949   6.067   1.145   5.282
   17SOL    HW1  950   6.006   1.213   5.322
   17SOL    HW2  951   6.161   1.166   5.306
   18SOL     OW  952   3.477   0.918   5.714
   18SOL    HW1  953   3.502   0.964   5.799
   18SOL    HW2  954   3.548   0.851   5.690
   19SOL     OW  955   1.431   1.388   3.166
   19SOL    HW1  956   1.337   1.394   3.132
   19SOL    HW2  957   1.488   1.343   3.097
   20SOL     OW  958   5.751   2.112   5.503
   20SOL    HW1  959   5.660   2.072   5.502
   20SOL    HW2  960   5.747   2.204   5.464
   21SOL     OW  961   2.449   5.189   2.548
   21SOL    HW1  962   2.451   5.194   2.448
   21SOL    HW2  963   2.377   5.249   2.583
   22SOL     OW  964   2.026   5.976   5.642
   22SOL    HW1  965   2.061   5.936   5.558
   22SOL    HW2  966   2.035   6.075   5.639
   23SOL     OW  967   5.215   4.173   1.915
   23SOL    HW1  968   5.125   4.163   1.871
   23SOL    HW2  969   5.203   4.181   2.014
   24SOL     OW  970   4.457   1.061   1.781
   24SOL    HW1  971   4.363   1.088   1.758
   24SOL    HW2  972   4.455   0.972   1.827
   25SOL     OW  973   2.213   0.486   4.118
   25SOL    HW1  974   2.180   0.400   4.079
   25SOL    HW2  975   2.282   0.466   4.188
   26SOL     OW  976   1.001   3.258   6.857
   26SOL    HW1  977   0.947   3.267   6.774
   26SOL    HW2  978   1.074   3.327   6.858
   27SOL     OW  979   6.674   1.456   0.811
   27SOL    HW1  980   6.575   1.469   0.811
   27SOL    HW2  981   6.710   1.474   0.903
   28SOL     OW  982   2.849   0.863   4.753
   28SOL    HW1  983   2.818   0.800   4.682
   28SOL    HW2  984   2.899   0.813   4.824
   29SOL     OW  985   6.828   0.462   0.856
   29SOL    HW1  986   6.815   0.554   0.893
   29SOL    HW2  987   6.781   0.454   0.768
   30SOL     OW  988   3.948   0.334   5.149
   30SOL    HW1  989   4.008   0.261   5.117
   30SOL    HW2  990   3.924   0.318   5.245
   31SOL     OW  991   1.087   3.257   4.656
   31SOL    HW1  992   0.989   3.265   4.639
   31SOL    HW2  993   1.137   3.310   4.588
   32SOL     OW  994   2.140   0.137   1.108
   32SOL    HW1  995   2.100   0.203   1.172
   32SOL    HW2  996   2.124   0.168   1.014
   33SOL     OW  997   0.624   5.007   5.870
   33SOL    HW1  998   0.620   5.105   5.848
   33SOL    HW2  999   0.640   4.996   5.968
   34SOL     OW 1000   2.412   5.227   5.244
   34SOL    HW1 1001   2.351   5.227   5.324
   34SOL    HW2 1002   2.497   5.181   5.267
   35SOL     OW 1003   3.442   2.948   0.623
   35SOL    HW1 1004   3.412   2.865   0.670
   35SOL    HW2 1005   3.524   2.928   0.569
   36SOL     OW 1006   4.821   0.662   4.181
   36SOL    HW1 1007   4.797   0.565   4.175
   36SOL    HW2 1008   4.739   0.715   4.205
   37SOL     OW 1009   2.558   0.931   3.592
   37SOL    HW1 1010   2.646   0.937   3.640
   37SOL    HW2 1011   2.556   0.998   3.519
   38SOL     OW 1012   0.287   4.731   2.383
   38SOL    HW1 1013   0.304   4.741   2.481
   38SOL    HW2 1014   0.316   4.640   2.353
   39SOL     OW 1015   6.673   5.439   5.905
   39SOL    HW1 1016   6.686   5.524   5.854
   39SOL    HW2 1017   6.762   5.402   5.931
   40SOL     OW 1018   4.150   0.720   6.041
   40SOL    HW1 1019   4.077   0.652   6.050
   40SOL    HW2 1020   4.122   0.806   6.083
   41SOL     OW 1021   6.210   3.825   1.618
   41SOL    HW1 1022   6.143   3.752   1.630
   41SOL    HW2 1023   6.218   3.848   1.521
   42SOL     OW 1024   2.296   6.058   6.118
   42SOL    HW1 1025   2.208   6.092   6.086
   42SOL    HW2 1026   2.283   5.973   6.168
   43SOL     OW 1027   4.767   6.753   4.326
   43SOL    HW1 1028   4.844   6.712   4.375
   43SOL    HW2 1029   4.686   6.753   4.385
   44SOL     OW 1030   6.254   1.744   5.844
   44SOL    HW1 1031   6.296   1.829   5.877
   44SOL    HW2 1032   6.160   1.739   5.876
   45SOL     OW 1033   3.489   4.748   0.329
   45SOL    HW1 1034   3.508   4.775   0.235
   45SOL    HW2 1035   3.391   4.733   0.341
   46SOL     OW 1036   0.569   2.773   4.597
   46SOL    HW1 1037   0.511   2.851   4.573
   46SOL    HW2 1038   0.631   2.799   4.671
   47SOL     OW 1039   5.758   3.126   1.414
   47SOL    HW1 1040   5.819   3.072   1.357
   47SOL    HW2 1041   5.722   3.069   1.488
   48SOL     OW 1042   6.665   3.774   0.579
   48SOL    HW1 1043   6.612   3.821   0.509
   48SOL    HW2 1044   6.723   3.705   0.535
   49SOL     OW 1045   4.096   3.187   6.977
   49SOL    HW1 1046   4.121   3.218   6.885
   49SOL    HW2 1047   4.000   3.207   6.995
   50SOL     OW 1048   6.566   3.585   6.308
   50SOL    HW1 1049   6.662   3.610   6.293
   50SOL    HW2 1050   6.512   3.615   6.229
   51SOL     OW 1051   2.497   5.904   2.884
   51SOL    HW1 1052   2.562   5.843   2.840
   51SOL    HW2 1053   2.421   5.851   2.923
   52SOL     OW 1054   5.719   2.823   1.520
   52SOL    HW1 1055   5.816   2.827   1.541
   52SOL    HW2 1056   5.666   2.841   1.604
   53SOL     OW 1057   3.803   0.611   2.380
   53SOL    HW1 1058   3.820   0.696   2.331
   53SOL    HW2 1059   3.870   0.542   2.351
   54SOL     OW 1060   5.438   6.773   0.621
   54SOL    HW1 1061   5.475   6.763   0.713
   54SOL    HW2 1062   5.339   6.761   0.623
   55SOL     OW 1063   1.232   3.501   6.313
   55SOL    HW1 1064   1.271   3.450   6.236
   55SOL    HW2 1065   1.266   3.595   6.312
   56SOL     OW 1066   1.235   2.362   6.769
   56SOL    HW1 1067   1.212   2.265   6.758
   56SOL    HW2 1068   1.304   2.372   6.841
   57SOL     OW 1069   4.676   0.699   6.676
   57SOL    HW1 1070   4.605   0.635   6.646
   57SOL    HW2 1071   4.643   0.750   6.756
   58SOL     OW 1072   0.639   0.362   6.249
   58SOL    HW1 1073   0.711   0.335   6.313
   58SOL    HW2 1074   0.575   0.286   6.238
   59SOL     OW 1075   5.438   3.409   5.919
   59SOL    HW1 1076   5.429   3.472   5.996
   59SOL    HW2 1077   5.436   3.460   5.833
   60SOL     OW 1078   5.400   0.263   2.669
   60SOL    HW1 1079   5.398   0.341   2.605
   60SOL    HW2 1080   5.494   0.251   2.703
   61SOL     OW 1081   6.817   0.005   5.166
   61SOL    HW1 1082   6.890   0.012   5.099
   61SOL    HW2 1083   6.844   0.051   5.250
   62SOL     OW 1084   0.056   2.220   2.437
   62SOL    HW1 1085   0.130   2.270   2.482
   62SOL    HW2 1086   0.029   2.268   2.354
   63SOL     OW 1087   4.344   6.031   4.874
   63SOL    HW1 1088   4.260   6.083   4.861
   63SOL    HW2 1089   4.407   6.049   4.798
   64SOL     OW 1090   0.943   4.495   0.157
   64SOL    HW1 1091   1.028   4.457   0.119
   64SOL    HW2 1092   0.916   4.441   0.237
   65SOL     OW 1093   0.625   0.133   5.391
   65SOL    HW1 1094   0.642   0.035   5.384
   65SOL    HW2 1095   0.649   0.165   5.482
   66SOL     OW 1096   4.362   0.601   2.314
   66SOL    HW1 1097   4.284   0.664   2.305
   66SOL    HW2 1098   4.385   0.590   2.410
   67SOL     OW 1099   0.894   2.371   0.844
   67SOL    HW1 1100   0.880   2.361   0.942
   67SOL    HW2 1101   0.945   2.292   0.810
   68SOL     OW 1102   6.783   2.233   5.785
   68SOL    HW1 1103   6.845   2.197   5.715
   68SOL    HW2 1104   6.815   2.323   5.816
   69SOL     OW 1105   0.575   4.893   6.203
   69SOL    HW1 1106   0.554   4.799   6.231
   69SOL    HW2 1107   0.666   4.894   6.159
   70SOL     OW 1108   5.357   3.262   4.411
   70SOL    HW1 1109   5.277   3.212   4.376
   70SOL    HW2 1110   5.401   3.311   4.335
   71SOL     OW 1111   4.608   1.691   4.097
   71SOL    HW1 1112   4.664   1.758   4.147
   71SOL    HW2 1113   4.662   1.609   4.080
   72SOL     OW 1114   0.472   0.666   3.553
   72SOL    HW1 1115   0.505   0.644   3.645
   72SOL    HW2 1116   0.491   0.763   3.534
   73SOL     OW 1117   2.818   0.663   1.096
   73SOL    HW1 1118   2.781   0.751   1.066
   73SOL    HW2 1119   2.763   0.589   1.059
   74SOL     OW 1120   1.724   2.298   0.359
   74SOL    HW1 1121   1.777   2.347   0.428
   74SOL    HW2 1122   1.772   2.215   0.332
   75SOL     OW 1123   4.146   2.627   0.361
   75SOL    HW1 1124   4.180   2.707   0.412
   75SOL    HW2 1125   4.218   2.557   0.357
   76SOL     OW 1126   3.445   4.781   5.449
   76SOL    HW1 1127   3.399   4.827   5.525
   76SOL    HW2 1128   3.455   4.844   5.372
   77SOL     OW 1129   1.680   4.187   4.388
   77SOL    HW1 1130   1.602   4.124   4.394
   77SOL    HW2 1131   1.705   4.201   4.292
   78SOL     OW 1132   4.804   1.863   0.889
   78SOL    HW1 1133   4.724   1.913   0.922
   78SOL    HW2 1134   4.814   1.778   0.940
   79SOL     OW 1135   1.833   5.165   2.554
   79SOL    HW1 1136   1.760   5.097   2.549
   79SOL    HW2 1137   1.922   5.119   2.546
   80SOL     OW 1138   4.731   2.009   4.478
   80SOL    HW1 1139   4.753   1.965   4.565
   80SOL    HW2 1140   4.691   2.099   4.495
   81SOL     OW 1141   2.999   5.655   1.477
   81SOL    HW1 1142   2.956   5.684   1.562
   81SOL    HW2 1143   2.994   5.729   1.410
   82SOL     OW 1144   1.290   6.026   1.276
   82SOL    HW1 1145   1.372   6.046   1.221
   82SOL    HW2 1146   1.266   6.106   1.330
   83SOL     OW 1147   5.069   1.186   4.696
   83SOL    HW1 1148   5.020   1.137   4.624
   83SOL    HW2 1149   5.042   1.149   4.785
   84SOL     OW 1150   5.699   2.487   2.770
   84SOL    HW1 1151   5.706   2.389   2.754
   84SOL    HW2 1152   5.625   2.505   2.835
   85SOL     OW 1153   1.962   0.581   4.092
   85SOL    HW1 1154   2.054   0.542   4.095
   85SOL    HW2 1155   1.937   0.615   4.183
   86SOL     OW 1156   5.476   0.606   6.829
   86SOL    HW1 1157   5.378   0.625   6.840
   86SOL    HW2 1158   5.528   0.674   6.881
   87SOL     OW 1159   2.922   4.299   0.187
   87SOL    HW1 1160   2.831   4.259   0.192
   87SOL    HW2 1161   2.990   4.227   0.180
   88SOL     OW 1162   3.011   3.657   6.914
   88SOL    HW1 1163   3.023   3.746   6.958
   88SOL    HW2 1164   3.089   3.599   6.936
   89SOL     OW 1165   2.896   3.510   2.911
   89SOL    HW1 1166   2.864   3.442   2.845
   89SOL    HW2 1167   2.938   3.463   2.988
   90SOL     OW 1168   5.041   3.975   3.195
   90SOL    HW1 1169   4.955   3.957   3.147
   90SOL    HW2 1170   5.022   4.016   3.284
   91SOL     OW 1171   4.941   5.328   5.681
   91SOL    HW1 1172   4.868   5.369   5.627
   91SOL    HW2 1173   5.023   5.384   5.673
   92SOL     OW 1174   5.655   4.451   6.438
   92SOL    HW1 1175   5.614   4.541   6.434
   92SOL    HW2 1176   5.596   4.390   6.492
   93SOL     OW 1177   2.981   3.216   2.190
   93SOL    HW1 1178   3.060   3.160   2.216
   93SOL    HW2 1179   2.897   3.169   2.215
   94SOL     OW 1180   3.302   1.624   5.807
   94SOL    HW1 1181   3.346   1.659   5.724
   94SOL    HW2 1182   3.203   1.623   5.793
   95SOL     OW 1183   0.472   0.716   4.731
   95SOL    HW1 1184   0.411   0.735   4.809
   95SOL    HW2 1185   0.513   0.626   4.742
   96SOL     OW 1186   4.766   5.043   0.168
   96SOL    HW1 1187   4.681   4.991   0.175
   96SOL    HW2 1188   4.844   4.983   0.187
   97SOL     OW 1189   2.288   5.236   5.501
   97SOL    HW1 1190   2.328   5.248   5.592
   97SOL    HW2 1191   2.262   5.326   5.464
   98SOL     OW 1192   1.001   2.926   3.100
   98SOL    HW1 1193   0.982   2.881   3.188
   98SOL    HW2 1194   1.062   3.004   3.115
   99SOL     OW 1195   3.923   3.120   4.880
   99SOL    HW1 1196   3.881   3.050   4.822
   99SOL    HW2 1197   4.002   3.081   4.927
  100SOL     OW 1198   0.244   0.125   3.444
  100SOL    HW1 1199   0.323   0.071   3.475
  100SOL    HW2 1200   0.203   0.171   3.522
  101SOL     OW 1201   6.982   3.660   2.489
  101SOL    HW1 1202   6.987   3.603   2.571
  101SOL    HW2 1203   0.006   3.613   2.413
  102SOL     OW 1204   2.794   0.142   0.521
  102SOL    HW1 1205   2.826   0.047   0.520
  102SOL    HW2 1206   2.715   0.151   0.581
  103SOL     OW 1207   2.255   0.816   1.708
  103SOL    HW1 1208   2.335   0.812   1.768
  103SOL    HW2 1209   2.172   0.805   1.763
  104SOL     OW 1210   1.039   4.713   1.500
  104SOL    HW1 1211   1.023   4.779   1.574
  104SOL    HW2 1212   0.974   4.731   1.425
  105SOL     OW 1213   5.318   1.561   5.758
  105SOL    HW1 1214   5.275   1.615   5.686
  105SOL    HW2 1215   5.274   1.580   5.845
  106SOL     OW 1216   5.688   5.438   2.222
  106SOL    HW1 1217   5.690   5.397   2.131
  106SOL    HW2 1218   5.760   5.398   2.278
  107SOL     OW 1219   5.873   0.534   0.857
  107SOL    HW1 1220   5.779   0.499   0.865
  107SOL    HW2 1221   5.886   0.609   0.922
  108SOL     OW 1222   1.952   0.714   5.873
  108SOL    HW1 1223   1.869   0.769   5.868
  108SOL    HW2 1224   2.012   0.739   5.797
  109SOL     OW 1225   2.213   0.937   3.855
  109SOL    HW1 1226   2.286   0.892   3.803
  109SOL    HW2 1227   2.199   0.888   3.941
  110SOL     OW 1228   2.956   4.576   5.575
  110SOL    HW1 1229   2.951   4.496   5.635
  110SOL    HW2 1230   2.900   4.560   5.493
  111SOL     OW 1231   6.925   1.986   1.668
  111SOL    HW1 1232   6.864   1.911   1.642
  111SOL    HW2 1233   6.967   1.966   1.756
  112SOL     OW 1234   4.841   0.310   6.751
  112SOL    HW1 1235   4.906   0.241   6.783
  112SOL    HW2 1236   4.880   0.401   6.764
  113SOL     OW 1237   6.604   5.901   1.537
  113SOL    HW1 1238   6.628   5.993   1.508
  113SOL    HW2 1239   6.512   5.878   1.503
  114SOL     OW 1240   0.272   3.914   3.198
  114SOL    HW1 1241   0.342   3.860   3.245
  114SOL    HW2 1242   0.183   3.897   3.239
  115SOL     OW 1243   6.077   0.736   3.487
  115SOL    HW1 1244   6.057   0.676   3.564
  115SOL    HW2 1245   6.086   0.830   3.520
  116SOL     OW 1246   1.060   4.944   0.834
  116SOL    HW1 1247   1.112   5.009   0.779
  116SOL    HW2 1248   1.111   4.921   0.917
  117SOL     OW 1249   2.323   1.505   0.032
  117SOL    HW1 1250   2.265   1.566   6.996
  117SOL    HW2 1251   2.384   1.560   0.088
  118SOL     OW 1252   1.245   1.670   4.527
  118SOL    HW1 1253   1.263   1.646   4.431
  118SOL    HW2 1254   1.158   1.631   4.555
  119SOL     OW 1255   6.560   6.025   6.599
  119SOL    HW1 1256   6.573   5.926   6.594
  119SOL    HW2 1257   6.462   6.046   6.591
  120SOL     OW 1258   4.624   2.284   4.567
  120SOL    HW1 1259   4.556   2.354   4.547
  120SOL    HW2 1260   4.658   2.295   4.660
  121SOL     OW 1261   1.426   3.773   6.847
  121SOL    HW1 1262   1.505   3.719   6.820
  121SOL    HW2 1263   1.435   3.802   6.943
  122SOL     OW 1264   0.719   3.845   6.903
  122SOL    HW1 1265   0.638   3.883   6.948
  122SOL    HW2 1266   0.732   3.750   6.932
  123SOL     OW 1267   1.090   1.136   1.613
  123SOL    HW1 1268   1.117   1.224   1.652
  123SOL    HW2 1269   1.069   1.072   1.687
  124SOL     OW 1270   2.212   2.805   0.545
  124SOL    HW1 1271   2.292   2.751   0.573
  124SOL    HW2 1272   2.239   2.900   0.533
  125SOL     OW 1273   3.787   3.801   0.288
  125SOL    HW1 1274   3.787   3.819   0.190
  125SOL    HW2 1275   3.742   3.714   0.306
  126SOL     OW 1276   3.657   3.120   4.572
  126SOL    HW1 1277   3.719   3.199   4.562
  126SOL    HW2 1278   3.596   3.135   4.649
  127SOL     OW 1279   0.539   5.675   6.215
  127SOL    HW1 1280   0.500   5.660   6.306
  127SOL    HW2 1281   0.634   5.704   6.224
  128SOL     OW 1282   4.872   3.609   0.623
  128SOL    HW1 1283   4.945   3.580   0.561
  128SOL    HW2 1284   4.880   3.560   0.710
  129SOL     OW 1285   1.904   5.829   1.142
  129SOL    HW1 1286   1.855   5.916   1.140
  129SOL    HW2 1287   1.840   5.755   1.121
  130SOL     OW 1288   5.324   2.399   5.032
  130SOL    HW1 1289   5.391   2.472   5.021
  130SOL    HW2 1290   5.250   2.429   5.092
  131SOL     OW 1291   6.985   2.410   3.775
  131SOL    HW1 1292   6.990   2.313   3.751
  131SOL    HW2 1293   0.008   2.465   3.703
  132SOL     OW 1294   3.794   3.622   2.406
  132SOL    HW1 1295   3.741   3.672   2.475
  132SOL    HW2 1296   3.837   3.687   2.343
  133SOL     OW 1297   5.606   6.446   6.054
  133SOL    HW1 1298   5.650   6.482   6.136
  133SOL    HW2 1299   5.626   6.348   6.045
  134SOL     OW 1300   5.246   1.163   1.623
  134SOL    HW1 1301   5.164   1.186   1.674
  134SOL    HW2 1302   5.222   1.148   1.527
  135SOL     OW 1303   4.943   3.785   4.350
  135SOL    HW1 1304   4.958   3.821   4.258
  135SOL    HW2 1305   4.930   3.861   4.414
  136SOL     OW 1306   3.375   6.978   5.502
  136SOL    HW1 1307   3.364   6.928   5.588
  136SOL    HW2 1308   3.467   6.962   5.466
  137SOL     OW 1309   3.091   2.315   5.428
  137SOL    HW1 1310   3.035   2.246   5.384
  137SOL    HW2 1311   3.139   2.369   5.359
  138SOL     OW 1312   0.823   6.037   5.890
  138SOL    HW1 1313   0.779   6.115   5.846
  138SOL    HW2 1314   0.783   5.952   5.855
  139SOL     OW 1315   1.960   5.754   0.035
  139SOL    HW1 1316   2.047   5.790   0.069
  139SOL    HW2 1317   1.924   5.815   6.984
  140SOL     OW 1318   2.306   0.359   2.266
  140SOL    HW1 1319   2.381   0.380   2.202
  140SOL    HW2 1320   2.239   0.301   2.221
  141SOL     OW 1321   6.744   3.986   0.135
  141SOL    HW1 1322   6.801   4.055   0.181
  141SOL    HW2 1323   6.651   3.991   0.171
  142SOL     OW 1324   1.520   4.254   2.511
  142SOL    HW1 1325   1.521   4.174   2.451
  142SOL    HW2 1326   1.607   4.301   2.505
  143SOL     OW 1327   4.451   6.505   1.773
  143SOL    HW1 1328   4.509   6.484   1.852
  143SOL    HW2 1329   4.506   6.551   1.703
  144SOL     OW 1330   3.575   4.978   3.452
  144SOL    HW1 1331   3.605   4.999   3.545
  144SOL    HW2 1332   3.654   4.947   3.398
  145SOL     OW 1333   7.019   4.864   3.104
  145SOL    HW1 1334   0.024   4.904   3.192
  145SOL    HW2 1335   0.008   4.764   3.109
  146SOL     OW 1336   5.598   1.491   6.357
  146SOL    HW1 1337   5.631   1.498   6.451
  146SOL    HW2 1338   5.582   1.583   6.320
  147SOL     OW 1339   4.721   1.054   5.017
  147SOL    HW1 1340   4.656   0.981   4.996
  147SOL    HW2 1341   4.802   1.014   5.060
  148SOL     OW 1342   1.357   5.363   0.524
  148SOL    HW1 1343   1.438   5.393   0.573
  148SOL    HW2 1344   1.276   5.404   0.565
  149SOL     OW 1345   1.742   3.020   5.582
  149SOL    HW1 1346   1.787   2.985   5.664
  149SOL    HW2 1347   1.766   2.961   5.504
  150SOL     OW 1348   4.146   1.813   4.512
  150SOL    HW1 1349   4.238   1.776   4.527
  150SOL    HW2 1350   4.115   1.788   4.420
  151SOL     OW 1351   4.362   2.612   0.697
  151SOL    HW1 1352   4.295   2.551   0.740
  151SOL    HW2 1353   4.422   2.651   0.767
  152SOL     OW 1354   1.046   1.220   0.292
  152SOL    HW1 1355   1.112   1.157   0.252
  152SOL    HW2 1356   1.092   1.303   0.322
  153SOL     OW 1357   3.265   1.065   3.875
  153SOL    HW1 1358   3.353   1.109   3.894
  153SOL    HW2 1359   3.268   0.970   3.905
  154SOL     OW 1360   5.967   1.597   1.297
  154SOL    HW1 1361   5.996   1.673   1.239
  154SOL    HW2 1362   6.007   1.608   1.389
  155SOL     OW 1363   1.777   0.001   1.892
  155SOL    HW1 1364   1.686   6.997   1.928
  155SOL    HW2 1365   1.817   0.074   1.948
  156SOL     OW 1366   5.366   2.320   0.376
  156SOL    HW1 1367   5.275   2.339   0.338
  156SOL    HW2 1368   5.424   2.281   0.304
  157SOL     OW 1369   4.575   5.315   6.947
  157SOL    HW1 1370   4.503   5.247   6.947
  157SOL    HW2 1371   4.658   5.276   6.988
  158SOL     OW 1372   0.332   2.923   3.086
  158SOL    HW1 1373   0.274   2.948   3.009
  158SOL    HW2 1374   0.428   2.920   3.057
  159SOL     OW 1375   5.507   5.486   0.431
  159SOL    HW1 1376   5.495   5.457   0.526
  159SOL    HW2 1377   5.552   5.413   0.380
  160SOL     OW 1378   5.860   6.652   1.262
  160SOL    HW1 1379   5.888   6.709   1.339
  160SOL    HW2 1380   5.835   6.710   1.185
  161SOL     OW 1381   0.054   6.343   0.233
  161SOL    HW1 1382   0.138   6.292   0.249
  161SOL    HW2 1383   0.060   6.391   0.146
  162SOL     OW 1384   3.990   7.002   6.981
  162SOL    HW1 1385   3.906   0.036   6.974
  162SOL    HW2 1386   4.060   0.021   6.920
  163SOL     OW 1387   6.638   3.723   3.439
  163SOL    HW1 1388   6.720   3.693   3.488
  163SOL    HW2 1389   6.650   3.708   3.341
  164SOL     OW 1390   2.014   1.768   3.154
  164SOL    HW1 1391   2.105   1.785   3.117
  164SOL    HW2 1392   2.018   1.762   3.254
  165SOL     OW 1393   0.712   6.208   3.400
  165SOL    HW1 1394   0.740   6.131   3.342
  165SOL    HW2 1395   0.660   6.273   3.346
  166SOL     OW 1396   6.877   3.569   2.914
  166SOL    HW1 1397   6.907   3.552   3.008
  166SOL    HW2 1398   6.787   3.614   2.916
  167SOL     OW 1399   4.792   2.068   6.690
  167SOL    HW1 1400   4.753   2.096   6.602
  167SOL    HW2 1401   4.770   1.972   6.707
  168SOL     OW 1402   4.983   4.270   2.149
  168SOL    HW1 1403   5.052   4.231   2.209
  168SOL    HW2 1404   4.936   4.197   2.100
  169SOL     OW 1405   6.316   2.452   1.338
  169SOL    HW1 1406   6.368   2.534   1.364
  169SOL    HW2 1407   6.356   2.412   1.255
  170SOL     OW 1408   0.554   5.290   2.866
  170SOL    HW1 1409   0.535   5.330   2.777
  170SOL    HW2 1410   0.635   5.332   2.906
  171SOL     OW 1411   2.909   3.695   0.401
  171SOL    HW1 1412   2.884   3.766   0.467
  171SOL    HW2 1413   3.008   3.695   0.388
  172SOL     OW 1414   6.395   1.811   0.329
  172SOL    HW1 1415   6.296   1.796   0.333
  172SOL    HW2 1416   6.437   1.782   0.415
  173SOL     OW 1417   0.031   2.052   5.235
  173SOL    HW1 1418   6.957   2.039   5.269
  173SOL    HW2 1419   0.027   2.096   5.145
  174SOL     OW 1420   6.231   5.219   5.460
  174SOL    HW1 1421   6.317   5.257   5.427
  174SOL    HW2 1422   6.169   5.294   5.486
  175SOL     OW 1423   1.016   6.983   0.896
  175SOL    HW1 1424   0.995   0.034   0.964
  175SOL    HW2 1425   0.981   6.895   0.927
  176SOL     OW 1426   5.473   4.553   2.428
  176SOL    HW1 1427   5.435   4.618   2.493
  176SOL    HW2 1428   5.555   4.511   2.467
  177SOL     OW 1429   5.861   2.412   4.226
  177SOL    HW1 1430   5.880   2.451   4.316
  177SOL    HW2 1431   5.826   2.319   4.236
  178SOL     OW 1432   1.926   6.520   5.014
  178SOL    HW1 1433   1.982   6.565   5.084
  178SOL    HW2 1434   1.848   6.476   5.057
  179SOL     OW 1435   3.909   4.643   1.158
  179SOL    HW1 1436   3.823   4.591   1.159
  179SOL    HW2 1437   3.943   4.648   1.064
  180SOL     OW 1438   4.350   1.741   0.757
  180SOL    HW1 1439   4.432   1.694   0.726
  180SOL    HW2 1440   4.272   1.678   0.753
  181SOL     OW 1441   3.253   2.142   5.600
  181SOL    HW1 1442   3.306   2.126   5.517
  181SOL    HW2 1443   3.178   2.205   5.580
  182SOL     OW 1444   4.846   2.495   6.619
  182SOL    HW1 1445   4.883   2.490   6.526
  182SOL    HW2 1446   4.775   2.426   6.630
  183SOL     OW 1447   3.363   1.626   3.507
  183SOL    HW1 1448   3.280   1.636   3.562
  183SOL    HW2 1449   3.340   1.590   3.417
  184SOL     OW 1450   6.159   6.127   3.578
  184SOL    HW1 1451   6.120   6.116   3.670
  184SOL    HW2 1452   6.087   6.117   3.510
  185SOL     OW 1453   0.392   1.123   4.206
  185SOL    HW1 1454   0.446   1.199   4.243
  185SOL    HW2 1455   0.395   1.125   4.106
  186SOL     OW 1456   4.684   5.933   3.781
  186SOL    HW1 1457   4.765   5.987   3.804
  186SOL    HW2 1458   4.707   5.868   3.709
  187SOL     OW 1459   4.183   6.405   1.802
  187SOL    HW1 1460   4.275   6.442   1.811
  187SOL    HW2 1461   4.154   6.409   1.707
  188SOL     OW 1462   1.620   2.809   3.054
  188SOL    HW1 1463   1.678   2.890   3.058
  188SOL    HW2 1464   1.611   2.778   2.960
  189SOL     OW 1465   6.166   5.389   6.297
  189SOL    HW1 1466   6.115   5.399   6.382
  189SOL    HW2 1467   6.103   5.374   6.221
  190SOL     OW 1468   6.413   0.277   0.185
  190SOL    HW1 1469   6.497   0.291   0.238
  190SOL    HW2 1470   6.436   0.235   0.097
  191SOL     OW 1471   6.356   1.069   5.588
  191SOL    HW1 1472   6.288   1.115   5.645
  191SOL    HW2 1473   6.447   1.087   5.624
  192SOL     OW 1474   0.797   5.380   0.364
  192SOL    HW1 1475   0.728   5.444   0.327
  192SOL    HW2 1476   0.780   5.366   0.461
  193SOL     OW 1477   2.767   5.641   6.146
  193SOL    HW1 1478   2.810   5.727   6.174
  193SOL    HW2 1479   2.838   5.578   6.112
  194SOL     OW 1480   3.858   0.144   2.143
  194SOL    HW1 1481   3.945   0.164   2.097
  194SOL    HW2 1482   3.849   0.204   2.223
  195SOL     OW 1483   3.050   1.017   1.622
  195SOL    HW1 1484   3.113   0.961   1.675
  195SOL    HW2 1485   2.956   0.989   1.641
  196SOL     OW 1486   1.972   1.083   0.317
  196SOL    HW1 1487   2.026   1.078   0.401
  196SOL    HW2 1488   1.950   1.178   0.297
  197SOL     OW 1489   2.276   5.872   0.660
  197SOL    HW1 1490   2.192   5.925   0.654
  197SOL    HW2 1491   2.255   5.781   0.696
  198SOL     OW 1492   4.511   6.854   6.804
  198SOL    HW1 1493   4.521   6.903   6.890
  198SOL    HW2 1494   4.416   6.858   6.774
  199SOL     OW 1495   6.415   6.394   3.041
  199SOL    HW1 1496   6.380   6.336   2.968
  199SOL    HW2 1497   6.419   6.343   3.127
  200SOL     OW 1498   0.384   4.151   3.274
  200SOL    HW1 1499   0.470   4.153   3.222
  200SOL    HW2 1500   0.337   4.065   3.255
  201SOL     OW 1501   3.089   0.840   6.803
  201SOL    HW1 1502   3.188   0.852   6.801
  201SOL    HW2 1503   3.044   0.926   6.777
  202SOL     OW 1504   3.810   6.981   3.292
  202SOL    HW1 1505   3.713   6.999   3.274
  202SOL    HW2 1506   3.818   6.906   3.357
  203SOL     OW 1507   5.285   3.890   6.019
  203SOL    HW1 1508   5.276   3.925   6.113
  203SOL    HW2 1509   5.328   3.960   5.962
  204SOL     OW 1510   2.475   6.628   0.539
  204SOL    HW1 1511   2.571   6.610   0.563
  204SOL    HW2 1512   2.448   6.569   0.464
  205SOL     OW 1513   6.309   1.796   0.884
  205SOL    HW1 1514   6.268   1.878   0.844
  205SOL    HW2 1515   6.240   1.724   0.892
  206SOL     OW 1516   0.710   4.566   2.237
  206SOL    HW1 1517   0.787   4.608   2.190
  206SOL    HW2 1518   0.669   4.496   2.178
  207SOL     OW 1519   4.638   0.795   5.583
  207SOL    HW1 1520   4.711   0.729   5.602
  207SOL    HW2 1521   4.614   0.790   5.486
  208SOL     OW 1522   4.895   5.754   6.004
  208SOL    HW1 1523   4.906   5.852   6.020
  208SOL    HW2 1524   4.829   5.716   6.070
  209SOL     OW 1525   6.498   5.267   5.477
  209SOL    HW1 1526   6.551   5.217   5.546
  209SOL    HW2 1527   6.556   5.288   5.398
  210SOL     OW 1528   4.251   2.620   1.329
  210SOL    HW1 1529   4.231   2.673   1.246
  210SOL    HW2 1530   4.312   2.544   1.306
  211SOL     OW 1531   1.249   1.244   0.588
  211SOL    HW1 1532   1.211   1.322   0.638
  211SOL    HW2 1533   1.265   1.168   0.651
  212SOL     OW 1534   0.768   5.112   4.156
  212SOL    HW1 1535   0.770   5.029   4.212
  212SOL    HW2 1536   0.860   5.131   4.122
  213SOL     OW 1537   5.529   2.142   6.888
  213SOL    HW1 1538   5.492   2.141   6.795
  213SOL    HW2 1539   5.629   2.151   6.884
  214SOL     OW 1540   0.760   6.991   2.537
  214SOL    HW1 1541   0.716   6.902   2.523
  214SOL    HW2 1542   0.699   0.031   2.590
  215SOL     OW 1543   3.316   3.175   2.824
  215SOL    HW1 1544   3.362   3.162   2.912
  215SOL    HW2 1545   3.310   3.088   2.777
  216SOL     OW 1546   0.899   0.181   5.797
  216SOL    HW1 1547   0.895   0.228   5.885
  216SOL    HW2 1548   0.963   0.229   5.737
  217SOL     OW 1549   1.064   3.014   3.461
  217SOL    HW1 1550   1.002   3.064   3.401
  217SOL    HW2 1551   1.031   2.920   3.473
  218SOL     OW 1552   1.177   3.487   5.526
  218SOL    HW1 1553   1.194   3.573   5.478
  218SOL    HW2 1554   1.252   3.423   5.510
  219SOL     OW 1555   4.655   4.985   0.538
  219SOL    HW1 1556   4.685   4.899   0.496
  219SOL    HW2 1557   4.725   5.019   0.599
  220SOL     OW 1558   2.520   5.300   0.540
  220SOL    HW1 1559   2.501   5.237   0.616
  220SOL    HW2 1560   2.448   5.291   0.471
  221SOL     OW 1561   5.470   2.327   4.041
  221SOL    HW1 1562   5.386   2.275   4.057
  221SOL    HW2 1563   5.543   2.265   4.013
  222SOL     OW 1564   0.494   5.950   5.804
  222SOL    HW1 1565   0.451   5.859   5.808
  222SOL    HW2 1566   0.455   6.002   5.729
  223SOL     OW 1567   0.042   3.806   2.023
  223SOL    HW1 1568   0.008   3.739   1.957
  223SOL    HW2 1569   7.008   3.890   2.016
  224SOL     OW 1570   2.757   2.220   1.830
  224SOL    HW1 1571   2.836   2.240   1.887
  224SOL    HW2 1572   2.756   2.282   1.752
  225SOL     OW 1573   5.602   0.951   6.955
  225SOL    HW1 1574   5.561   0.965   0.025
  225SOL    HW2 1575   5.695   0.987   6.954
  226SOL     OW 1576   0.357   5.734   0.681
  226SOL    HW1 1577   0.372   5.831   0.696
  226SOL    HW2 1578   0.338   5.718   0.584
  227SOL     OW 1579   1.385   3.509   3.539
  227SOL    HW1 1580   1.355   3.437   3.476
  227SOL    HW2 1581   1.474   3.484   3.578
  228SOL     OW 1582   4.794   0.238   3.565
  228SOL    HW1 1583   4.835   0.249   3.474
  228SOL    HW2 1584   4.829   0.310   3.626
  229SOL     OW 1585   6.267   6.160   2.303
  229SOL    HW1 1586   6.244   6.140   2.398
  229SOL    HW2 1587   6.294   6.256   2.294
  230SOL     OW 1588   2.217   4.344   4.999
  230SOL    HW1 1589   2.272   4.377   4.922
  230SOL    HW2 1590   2.245   4.252   5.024
  231SOL     OW 1591   0.881   2.806   6.119
  231SOL    HW1 1592   0.976   2.826   6.093
  231SOL    HW2 1593   0.874   2.805   6.218
  232SOL     OW 1594   1.857   4.127   6.751
  232SOL    HW1 1595   1.805   4.113   6.667
  232SOL    HW2 1596   1.927   4.197   6.736
  233SOL     OW 1597   2.466   1.079   5.871
  233SOL    HW1 1598   2.428   1.161   5.828
  233SOL    HW2 1599   2.524   1.106   5.948
  234SOL     OW 1600   2.621   5.257   6.776
  234SOL    HW1 1601   2.653   5.191   6.708
  234SOL    HW2 1602   2.559   5.212   6.840
  235SOL     OW 1603   3.092   3.748   4.509
  235SOL    HW1 1604   3.045   3.690   4.575
  235SOL    HW2 1605   3.028   3.778   4.438
  236SOL     OW 1606   6.612   2.220   5.402
  236SOL    HW1 1607   6.580   2.218   5.497
  236SOL    HW2 1608   6.693   2.277   5.394
  237SOL     OW 1609   0.417   6.847   0.978
  237SOL    HW1 1610   0.321   6.837   0.954
  237SOL    HW2 1611   0.474   6.826   0.898
  238SOL     OW 1612   5.677   2.999   2.698
  238SOL    HW1 1613   5.775   2.998   2.677
  238SOL    HW2 1614   5.639   3.089   2.676
  239SOL     OW 1615   6.434   5.778   6.709
  239SOL    HW1 1616   6.493   5.776   6.790
  239SOL    HW2 1617   6.386   5.690   6.702
  240SOL     OW 1618   0.217   4.243   6.125
  240SOL    HW1 1619   0.256   4.253   6.033
  240SOL    HW2 1620   0.196   4.147   6.141
  241SOL     OW 1621   0.156   0.676   3.002
  241SOL    HW1 1622   0.154   0.684   3.101
  241SOL    HW2 1623   0.207   0.753   2.963
  242SOL     OW 1624   1.561   3.784   4.437
  242SOL    HW1 1625   1.598   3.777   4.530
  242SOL    HW2 1626   1.562   3.694   4.394
  243SOL     OW 1627   5.815   6.749   5.203
  243SOL    HW1 1628   5.731   6.710   5.241
  243SOL    HW2 1629   5.796   6.789   5.114
  244SOL     OW 1630   5.628   2.337   5.278
  244SOL    HW1 1631   5.691   2.337   5.200
  244SOL    HW2 1632   5.549   2.280   5.258
  245SOL     OW 1633   5.997   2.564   3.983
  245SOL    HW1 1634   6.035   2.507   4.057
  245SOL    HW2 1635   5.919   2.517   3.942
  246SOL     OW 1636   4.999   3.665   3.302
  246SOL    HW1 1637   5.078   3.708   3.258
  246SOL    HW2 1638   4.962   3.726   3.372
  247SOL     OW 1639   2.436   1.427   3.342
  247SOL    HW1 1640   2.388   1.463   3.263
  247SOL    HW2 1641   2.519   1.481   3.358
  248SOL     OW 1642   6.166   1.540   3.378
  248SOL    HW1 1643   6.218   1.475   3.433
  248SOL    HW2 1644   6.223   1.577   3.305
  249SOL     OW 1645   3.687   6.789   3.935
  249SOL    HW1 1646   3.626   6.832   3.868
  249SOL    HW2 1647   3.681   6.839   4.022
  250SOL     OW 1648   5.714   3.437   5.814
  250SOL    HW1 1649   5.705   3.468   5.909
  250SOL    HW2 1650   5.692   3.512   5.752
  251SOL     OW 1651   4.369   2.434   0.079
  251SOL    HW1 1652   4.340   2.343   0.109
  251SOL    HW2 1653   4.353   2.443   7.000
  252SOL     OW 1654   0.244   0.343   5.857
  252SOL    HW1 1655   0.226   0.442   5.857
  252SOL    HW2 1656   0.324   0.324   5.800
  253SOL     OW 1657   3.295   3.192   0.108
  253SOL    HW1 1658   3.300   3.166   0.012
  253SOL    HW2 1659   3.227   3.264   0.120
  254SOL     OW 1660   5.845   2.573   5.261
  254SOL    HW1 1661   5.854   2.652   5.201
  254SOL    HW2 1662   5.778   2.510   5.222
  255SOL     OW 1663   2.717   1.883   3.073
  255SOL    HW1 1664   2.754   1.945   3.004
  255SOL    HW2 1665   2.703   1.934   3.158
  256SOL     OW 1666   5.446   5.070   0.224
  256SOL    HW1 1667   5.346   5.071   0.224
  256SOL    HW2 1668   5.480   5.153   0.268
  257SOL     OW 1669   2.860   5.949   6.196
  257SOL    HW1 1670   2.796   5.975   6.267
  257SOL    HW2 1671   2.839   5.998   6.111
  258SOL     OW 1672   5.514   4.461   4.613
  258SOL    HW1 1673   5.609   4.436   4.594
  258SOL    HW2 1674   5.494   4.445   4.710
  259SOL     OW 1675   1.567   1.933   2.597
  259SOL    HW1 1676   1.580   1.891   2.687
  259SOL    HW2 1677   1.607   1.875   2.527
  260SOL     OW 1678   5.337   0.285   5.786
  260SOL    HW1 1679   5.332   0.189   5.813
  260SOL    HW2 1680   5.433   0.313   5.782
  261SOL     OW 1681   0.823   4.075   2.347
  261SOL    HW1 1682   0.853   4.166   2.317
  261SOL    HW2 1683   0.753   4.041   2.283
  262SOL     OW 1684   0.639   4.339   2.037
  262SOL    HW1 1685   0.708   4.406   2.011
  262SOL    HW2 1686   0.574   4.328   1.962
  263SOL     OW 1687   0.995   1.899   4.231
  263SOL    HW1 1688   0.929   1.859   4.167
  263SOL    HW2 1689   0.948   1.965   4.290
  264SOL     OW 1690   2.405   4.781   6.438
  264SOL    HW1 1691   2.365   4.718   6.371
  264SOL    HW2 1692   2.412   4.735   6.527
  265SOL     OW 1693   5.123   4.192   4.761
  265SOL    HW1 1694   5.091   4.128   4.692
  265SOL    HW2 1695   5.223   4.202   4.753
  266SOL     OW 1696   4.170   1.863   0.592
  266SOL    HW1 1697   4.167   1.800   0.514
  266SOL    HW2 1698   4.228   1.825   0.664
  267SOL     OW 1699   1.630   1.909   6.040
  267SOL    HW1 1700   1.550   1.967   6.051
  267SOL    HW2 1701   1.618   1.826   6.095
  268SOL     OW 1702   4.072   4.848   4.758
  268SOL    HW1 1703   4.093   4.785   4.683
  268SOL    HW2 1704   4.139   4.835   4.832
  269SOL     OW 1705   0.736   1.760   5.672
  269SOL    HW1 1706   0.797   1.778   5.748
  269SOL    HW2 1707   0.778   1.694   5.610
  270SOL     OW 1708   5.355   1.135   2.909
  270SOL    HW1 1709   5.386   1.052   2.863
  270SOL    HW2 1710   5.433   1.183   2.949
  271SOL     OW 1711   1.503   0.749   6.770
  271SOL    HW1 1712   1.481   0.776   6.864
  271SOL    HW2 1713   1.420   0.749   6.715
  272SOL     OW 1714   3.496   6.046   3.411
  272SOL    HW1 1715   3.546   6.133   3.407
  272SOL    HW2 1716   3.450   6.029   3.324
  273SOL     OW 1717   2.339   6.258   5.131
  273SOL    HW1 1718   2.281   6.290   5.056
  273SOL    HW2 1719   2.307   6.169   5.163
  274SOL     OW 1720   6.359   2.332   2.055
  274SOL    HW1 1721   6.317   2.362   1.969
  274SOL    HW2 1722   6.347   2.403   2.125
  275SOL     OW 1723   6.706   5.955   5.130
  275SOL    HW1 1724   6.701   6.027   5.061
  275SOL    HW2 1725   6.614   5.920   5.149
  276SOL     OW 1726   6.836   6.496   3.777
  276SOL    HW1 1727   6.748   6.450   3.766
  276SOL    HW2 1728   6.873   6.519   3.687
  277SOL     OW 1729   4.347   1.336   5.370
  277SOL    HW1 1730   4.356   1.337   5.469
  277SOL    HW2 1731   4.406   1.265   5.331
  278SOL     OW 1732   6.057   3.478   2.485
  278SOL    HW1 1733   6.054   3.574   2.510
  278SOL    HW2 1734   5.990   3.460   2.414
  279SOL     OW 1735   0.131   2.788   4.050
  279SOL    HW1 1736   0.054   2.727   4.033
  279SOL    HW2 1737   0.216   2.747   4.017
  280SOL     OW 1738   3.534   0.297   4.063
  280SOL    HW1 1739   3.529   0.297   4.163
  280SOL    HW2 1740   3.442   0.295   4.025
  281SOL     OW 1741   4.948   6.060   3.796
  281SOL    HW1 1742   4.940   6.102   3.886
  281SOL    HW2 1743   5.006   5.978   3.803
  282SOL     OW 1744   4.447   2.046   0.328
  282SOL    HW1 1745   4.381   2.043   0.403
  282SOL    HW2 1746   4.403   2.082   0.246
  283SOL     OW 1747   6.207   2.049   4.850
  283SOL    HW1 1748   6.137   2.053   4.921
  283SOL    HW2 1749   6.198   1.964   4.799
  284SOL     OW 1750   5.794   5.494   3.947
  284SOL    HW1 1751   5.732   5.558   3.903
  284SOL    HW2 1752   5.888   5.514   3.918
  285SOL     OW 1753   4.286   0.510   6.251
  285SOL    HW1 1754   4.279   0.432   6.188
  285SOL    HW2 1755   4.218   0.578   6.227
  286SOL     OW 1756   3.424   4.994   4.989
  286SOL    HW1 1757   3.328   5.017   4.979
  286SOL    HW2 1758   3.470   5.000   4.901
  287SOL     OW 1759   2.660   6.712   5.740
  287SOL    HW1 1760   2.625   6.785   5.799
  287SOL    HW2 1761   2.709   6.753   5.663
  288SOL     OW 1762   3.266   0.925   0.793
  288SOL    HW1 1763   3.352   0.875   0.798
  288SOL    HW2 1764   3.277   1.015   0.835
  289SOL     OW 1765   0.116   6.281   4.207
  289SOL    HW1 1766   0.053   6.308   4.134
  289SOL    HW2 1767   0.095   6.333   4.290
  290SOL     OW 1768   3.226   0.900   4.939
  290SOL    HW1 1769   3.273   0.915   5.027
  290SOL    HW2 1770   3.136   0.861   4.956
  291SOL     OW 1771   4.135   0.133   5.087
  291SOL    HW1 1772   4.142   0.157   4.990
  291SOL    HW2 1773   4.115   0.036   5.096
  292SOL     OW 1774   3.942   0.373   3.868
  292SOL    HW1 1775   3.926   0.468   3.842
  292SOL    HW2 1776   3.976   0.322   3.789
  293SOL     OW 1777   6.075   6.931   2.521
  293SOL    HW1 1778   6.083   6.929   2.621
  293SOL    HW2 1779   5.979   6.933   2.495
  294SOL     OW 1780   6.313   0.905   5.899
  294SOL    HW1 1781   6.270   0.818   5.920
  294SOL    HW2 1782   6.412   0.896   5.905
  295SOL     OW 1783   1.110   1.809   5.017
  295SOL    HW1 1784   1.100   1.732   5.080
  295SOL    HW2 1785   1.182   1.871   5.051
  296SOL     OW 1786   0.323   2.107   1.849
  296SOL    HW1 1787   0.266   2.166   1.793
  296SOL    HW2 1788   0.410   2.089   1.803
  297SOL     OW 1789   5.680   3.726   3.575
  297SOL    HW1 1790   5.659   3.635   3.538
  297SOL    HW2 1791   5.641   3.795   3.514
  298SOL     OW 1792   3.373   0.845   6.834
  298SOL    HW1 1793   3.456   0.878   6.879
  298SOL    HW2 1794   3.395   0.762   6.782
  299SOL     OW 1795   2.535   1.799   6.472
  299SOL    HW1 1796   2.436   1.808   6.464
  299SOL    HW2 1797   2.563   1.708   6.441
  300SOL     OW 1798   3.860   0.472   2.795
  300SOL    HW1 1799   3.820   0.560   2.767
  300SOL    HW2 1800   3.958   0.472   2.772
  301SOL     OW 1801   6.317   5.397   0.931
  301SOL    HW1 1802   6.234   5.452   0.931
  301SOL    HW2 1803   6.300   5.310   0.886
  302SOL     OW 1804   5.990   5.712   0.810
  302SOL    HW1 1805   5.941   5.735   0.726
  302SOL    HW2 1806   6.086   5.740   0.801
  303SOL     OW 1807   5.914   5.801   2.530
  303SOL    HW1 1808   5.868   5.718   2.560
  303SOL    HW2 1809   5.999   5.813   2.582
  304SOL     OW 1810   1.648   6.953   5.406
  304SOL    HW1 1811   1.679   6.861   5.429
  304SOL    HW2 1812   1.579   6.983   5.472
  305SOL     OW 1813   1.413   2.839   2.465
  305SOL    HW1 1814   1.392   2.873   2.557
  305SOL    HW2 1815   1.441   2.915   2.407
  306SOL     OW 1816   6.616   0.366   2.616
  306SOL    HW1 1817   6.654   0.282   2.656
  306SOL    HW2 1818   6.683   0.439   2.623
  307SOL     OW 1819   3.539   3.084   3.286
  307SOL    HW1 1820   3.630   3.122   3.267
  307SOL    HW2 1821   3.471   3.157   3.281
  308SOL     OW 1822   5.972   1.702   3.932
  308SOL    HW1 1823   5.877   1.699   3.962
  308SOL    HW2 1824   5.981   1.655   3.844
  309SOL     OW 1825   0.938   6.115   6.320
  309SOL    HW1 1826   0.939   6.189   6.253
  309SOL    HW2 1827   0.987   6.036   6.284
  310SOL     OW 1828   5.367   6.481   4.883
  310SOL    HW1 1829   5.412   6.391   4.881
  310SOL    HW2 1830   5.344   6.504   4.977
  311SOL     OW 1831   1.933   5.616   2.756
  311SOL    HW1 1832   1.856   5.619   2.819
  311SOL    HW2 1833   1.937   5.526   2.712
  312SOL     OW 1834   4.589   2.066   2.944
  312SOL    HW1 1835   4.567   1.995   3.012
  312SOL    HW2 1836   4.511   2.080   2.884
  313SOL     OW 1837   4.108   3.457   3.828
  313SOL    HW1 1838   4.094   3.482   3.732
  313SOL    HW2 1839   4.103   3.358   3.837
  314SOL     OW 1840   2.429   6.484   5.426
  314SOL    HW1 1841   2.452   6.507   5.331
  314SOL    HW2 1842   2.409   6.568   5.477
  315SOL     OW 1843   6.679   1.412   3.477
  315SOL    HW1 1844   6.596   1.377   3.434
  315SOL    HW2 1845   6.722   1.480   3.418
  316SOL     OW 1846   3.782   1.287   5.067
  316SOL    HW1 1847   3.873   1.245   5.064
  316SOL    HW2 1848   3.735   1.258   5.151
  317SOL     OW 1849   0.830   1.229   1.540
  317SOL    HW1 1850   0.861   1.319   1.508
  317SOL    HW2 1851   0.905   1.163   1.534
  318SOL     OW 1852   6.933   0.575   5.257
  318SOL    HW1 1853   7.017   0.531   5.227
  318SOL    HW2 1854   6.941   0.674   5.247
  319SOL     OW 1855   1.677   2.420   2.464
  319SOL    HW1 1856   1.641   2.389   2.552
  319SOL    HW2 1857   1.630   2.372   2.390
  320SOL     OW 1858   6.296   3.005   6.844
  320SOL    HW1 1859   6.232   2.929   6.845
  320SOL    HW2 1860   6.313   3.033   6.749
  321SOL     OW 1861   4.217   3.055   1.353
  321SOL    HW1 1862   4.154   3.101   1.416
  321SOL    HW2 1863   4.184   3.067   1.259
  322SOL     OW 1864   3.923   3.905   5.964
  322SOL    HW1 1865   3.879   3.883   6.050
  322SOL    HW2 1866   3.932   4.004   5.955
  323SOL     OW 1867   0.219   3.269   3.699
  323SOL    HW1 1868   0.188   3.190   3.751
  323SOL    HW2 1869   0.264   3.335   3.760
  324SOL     OW 1870   0.937   6.921   3.784
  324SOL    HW1 1871   0.970   7.013   3.762
  324SOL    HW2 1872   0.993   6.882   3.857
  325SOL     OW 1873   0.568   3.544   2.653
  325SOL    HW1 1874   0.634   3.471   2.674
  325SOL    HW2 1875   0.611   3.612   2.594
  326SOL     OW 1876   1.478   6.453   6.550
  326SOL    HW1 1877   1.403   6.468   6.485
  326SOL    HW2 1878   1.537   6.379   6.516
  327SOL     OW 1879   4.158   5.084   3.400
  327SOL    HW1 1880   4.230   5.054   3.462
  327SOL    HW2 1881   4.081   5.120   3.454
  328SOL     OW 1882   2.409   4.361   2.165
  328SOL    HW1 1883   2.395   4.264   2.184
  328SOL    HW2 1884   2.445   4.406   2.247
  329SOL     OW 1885   3.340   3.761   2.029
  329SOL    HW1 1886   3.385   3.846   2.058
  329SOL    HW2 1887   3.241   3.771   2.039
  330SOL     OW 1888   3.928   4.924   0.484
  330SOL    HW1 1889   3.912   4.980   0.403
  330SOL    HW2 1890   3.885   4.967   0.563
  331SOL     OW 1891   5.522   5.775   6.846
  331SOL    HW1 1892   5.572   5.740   6.767
  331SOL    HW2 1893   5.534   5.712   6.923
  332SOL     OW 1894   5.446   2.274   3.107
  332SOL    HW1 1895   5.413   2.325   3.028
  332SOL    HW2 1896   5.442   2.176   3.087
  333SOL     OW 1897   3.993   1.271   6.174
  333SOL    HW1 1898   3.918   1.309   6.121
  333SOL    HW2 1899   3.976   1.174   6.191
  334SOL     OW 1900   3.335   3.959   3.773
  334SOL    HW1 1901   3.351   3.864   3.747
  334SOL    HW2 1902   3.417   4.013   3.754
  335SOL     OW 1903   3.289   0.648   6.091
  335SOL    HW1 1904   3.380   0.627   6.055
  335SOL    HW2 1905   3.249   0.565   6.129
  336SOL     OW 1906   3.022   1.794   3.057
  336SOL    HW1 1907   2.940   1.738   3.047
  336SOL    HW2 1908   3.080   1.756   3.128
  337SOL     OW 1909   1.976   0.824   6.217
  337SOL    HW1 1910   1.937   0.903   6.170
  337SOL    HW2 1911   2.037   0.775   6.154
  338SOL     OW 1912   4.551   1.869   1.945
  338SOL    HW1 1913   4.565   1.771   1.930
  338SOL    HW2 1914   4.477   1.901   1.886
  339SOL     OW 1915   3.886   5.050   4.842
  339SOL    HW1 1916   3.933   5.003   4.767
  339SOL    HW2 1917   3.899   5.149   4.832
  340SOL     OW 1918   4.334   1.866   3.768
  340SOL    HW1 1919   4.246   1.825   3.792
  340SOL    HW2 1920   4.384   1.889   3.852
  341SOL     OW 1921   6.058   6.848   3.953
  341SOL    HW1 1922   6.111   6.811   3.876
  341SOL    HW2 1923   6.060   6.783   4.029
  342SOL     OW 1924   4.885   2.284   1.732
  342SOL    HW1 1925   4.868   2.295   1.634
  342SOL    HW2 1926   4.949   2.208   1.746
  343SOL     OW 1927   0.995   5.660   3.529
  343SOL    HW1 1928   0.903   5.654   3.569
  343SOL    HW2 1929   1.002   5.744   3.475
  344SOL     OW 1930   1.712   1.256   1.640
  344SOL    HW1 1931   1.623   1.281   1.602
  344SOL    HW2 1932   1.760   1.338   1.671
  345SOL     OW 1933   6.227   3.248   4.227
  345SOL    HW1 1934   6.256   3.333   4.183
  345SOL    HW2 1935   6.191   3.185   4.157
  346SOL     OW 1936   1.873   0.091   2.683
  346SOL    HW1 1937   1.914   0.160   2.624
  346SOL    HW2 1938   1.835   0.134   2.765
  347SOL     OW 1939   2.774   4.945   0.584
  347SOL    HW1 1940   2.727   4.931   0.498
  347SOL    HW2 1941   2.840   5.020   0.575
  348SOL     OW 1942   5.016   5.662   2.505
  348SOL    HW1 1943   4.939   5.602   2.525
  348SOL    HW2 1944   4.986   5.737   2.446
  349SOL     OW 1945   0.019   3.856   1.104
  349SOL    HW1 1946   7.006   3.950   1.093
  349SOL    HW2 1947   6.963   3.792   1.086
  350SOL     OW 1948   3.528   2.926   0.153
  350SOL    HW1 1949   3.591   2.870   0.099
  350SOL    HW2 1950   3.539   3.022   0.128
  351SOL     OW 1951   3.463   4.367   1.353
  351SOL    HW1 1952   3.545   4.401   1.398
  351SOL    HW2 1953   3.449   4.271   1.379
  352SOL     OW 1954   4.224   6.536   3.186
  352SOL    HW1 1955   4.272   6.491   3.261
  352SOL    HW2 1956   4.166   6.609   3.222
  353SOL     OW 1957   2.408   6.175   6.438
  353SOL    HW1 1958   2.324   6.208   6.395
  353SOL    HW2 1959   2.464   6.253   6.466
  354SOL     OW 1960   6.465   2.829   0.683
  354SOL    HW1 1961   6.405   2.852   0.760
  354SOL    HW2 1962   6.412   2.784   0.612
  355SOL     OW 1963   1.984   2.457   2.253
  355SOL    HW1 1964   1.918   2.516   2.299
  355SOL    HW2 1965   1.974   2.363   2.285
  356SOL     OW 1966   1.289   0.166   5.987
  356SOL    HW1 1967   1.308   0.087   5.929
  356SOL    HW2 1968   1.191   0.185   5.987
  357SOL     OW 1969   5.790   6.831   4.515
  357SOL    HW1 1970   5.846   6.884   4.579
  357SOL    HW2 1971   5.825   6.844   4.422
  358SOL     OW 1972   5.167   5.746   0.900
  358SOL    HW1 1973   5.218   5.787   0.824
  358SOL    HW2 1974   5.223   5.750   0.983
  359SOL     OW 1975   3.265   2.040   2.151
  359SOL    HW1 1976   3.347   2.048   2.094
  359SOL    HW2 1977   3.208   2.121   2.140
  360SOL     OW 1978   1.060   4.770   4.044
  360SOL    HW1 1979   1.146   4.731   4.013
  360SOL    HW2 1980   1.010   4.808   3.967
  361SOL     OW 1981   6.741   6.117   3.343
  361SOL    HW1 1982   6.838   6.093   3.343
  361SOL    HW2 1983   6.731   6.216   3.327
  362SOL     OW 1984   4.069   4.139   0.972
  362SOL    HW1 1985   4.039   4.135   1.068
  362SOL    HW2 1986   4.036   4.059   0.923
  363SOL     OW 1987   6.147   4.984   2.540
  363SOL    HW1 1988   6.129   5.082   2.549
  363SOL    HW2 1989   6.188   4.965   2.451
  364SOL     OW 1990   0.773   5.337   6.956
  364SOL    HW1 1991   0.869   5.322   6.981
  364SOL    HW2 1992   0.714   5.281   7.014
  365SOL     OW 1993   3.629   1.528   2.333
  365SOL    HW1 1994   3.578   1.445   2.355
  365SOL    HW2 1995   3.572   1.590   2.280
  366SOL     OW 1996   5.789   2.978   0.624
  366SOL    HW1 1997   5.805   3.039   0.546
  366SOL    HW2 1998   5.860   2.993   0.693
  367SOL     OW 1999   4.482   1.981   6.085
  367SOL    HW1 2000   4.451   2.059   6.140
  367SOL    HW2 2001   4.571   2.002   6.045
  368SOL     OW 2002   6.362   1.898   6.291
  368SOL    HW1 2003   6.411   1.972   6.245
  368SOL    HW2 2004   6.277   1.933   6.330
  369SOL     OW 2005   5.789   3.365   2.635
  369SOL    HW1 2006   5.705   3.349   2.584
  369SOL    HW2 2007   5.837   3.444   2.596
  370SOL     OW 2008   2.265   2.913   4.325
  370SOL    HW1 2009   2.259   2.859   4.408
  370SOL    HW2 2010   2.206   2.994   4.334
  371SOL     OW 2011   2.136   4.224   0.026
  371SOL    HW1 2012   2.098   4.133   0.009
  371SOL    HW2 2013   2.235   4.216   0.039
  372SOL     OW 2014   2.825   6.746   5.510
  372SOL    HW1 2015   2.770   6.803   5.448
  372SOL    HW2 2016   2.887   6.805   5.562
  373SOL     OW 2017   6.334   6.470   4.567
  373SOL    HW1 2018   6.280   6.387   4.555
  373SOL    HW2 2019   6.413   6.452   4.626
  374SOL     OW 2020   2.713   1.686   2.490
  374SOL    HW1 2021   2.756   1.761   2.542
  374SOL    HW2 2022   2.684   1.720   2.401
  375SOL     OW 2023   0.905   4.788   5.084
  375SOL    HW1 2024   0.848   4.706   5.079
  375SOL    HW2 2025   0.989   4.774   5.032
  376SOL     OW 2026   2.503   1.015   4.083
  376SOL    HW1 2027   2.569   1.067   4.029
  376SOL    HW2 2028   2.510   0.918   4.059
  377SOL     OW 2029   1.795   2.003   6.699
  377SOL    HW1 2030   1.697   1.997   6.719
  377SOL    HW2 2031   1.826   2.096   6.717
  378SOL     OW 2032   2.660   1.693   0.974
  378SOL    HW1 2033   2.749   1.652   0.956
  378SOL    HW2 2034   2.588   1.626   0.957
  379SOL     OW 2035   6.085   2.679   6.568
  379SOL    HW1 2036   6.052   2.595   6.525
  379SOL    HW2 2037   6.029   2.756   6.538
  380SOL     OW 2038   3.197   1.392   1.479
  380SOL    HW1 2039   3.105   1.387   1.517
  380SOL    HW2 2040   3.209   1.322   1.409
  381SOL     OW 2041   1.771   4.538   3.556
  381SOL    HW1 2042   1.790   4.538   3.457
  381SOL    HW2 2043   1.679   4.502   3.572
  382SOL     OW 2044   6.400   0.905   0.470
  382SOL    HW1 2045   6.301   0.888   0.476
  382SOL    HW2 2046   6.449   0.821   0.492
  383SOL     OW 2047   3.960   2.936   1.508
  383SOL    HW1 2048   3.933   2.998   1.434
  383SOL    HW2 2049   3.997   2.852   1.469
  384SOL     OW 2050   6.464   3.401   4.774
  384SOL    HW1 2051   6.486   3.410   4.676
  384SOL    HW2 2052   6.390   3.464   4.797
  385SOL     OW 2053   4.420   5.026   6.447
  385SOL    HW1 2054   4.423   5.071   6.357
  385SOL    HW2 2055   4.388   4.932   6.435
  386SOL     OW 2056   4.151   0.176   4.797
  386SOL    HW1 2057   4.236   0.132   4.768
  386SOL    HW2 2058   4.104   0.214   4.717
  387SOL     OW 2059   2.473   5.176   3.375
  387SOL    HW1 2060   2.407   5.228   3.429
  387SOL    HW2 2061   2.565   5.191   3.411
  388SOL     OW 2062   1.670   2.689   6.489
  388SOL    HW1 2063   1.655   2.757   6.560
  388SOL    HW2 2064   1.763   2.652   6.496
  389SOL     OW 2065   2.917   3.638   3.247
  389SOL    HW1 2066   2.914   3.597   3.156
  389SOL    HW2 2067   2.924   3.738   3.239
  390SOL     OW 2068   2.658   1.599   4.256
  390SOL    HW1 2069   2.725   1.613   4.183
  390SOL    HW2 2070   2.706   1.576   4.341
  391SOL     OW 2071   1.553   2.478   0.284
  391SOL    HW1 2072   1.586   2.539   0.212
  391SOL    HW2 2073   1.624   2.412   0.307
  392SOL     OW 2074   2.293   5.036   1.601
  392SOL    HW1 2075   2.210   5.087   1.627
  392SOL    HW2 2076   2.306   5.043   1.503
  393SOL     OW 2077   5.962   4.353   4.984
  393SOL    HW1 2078   6.044   4.296   4.979
  393SOL    HW2 2079   5.892   4.316   4.923
  394SOL     OW 2080   0.062   6.612   0.345
  394SOL    HW1 2081   0.017   6.612   0.435
  394SOL    HW2 2082   0.101   6.522   0.327
  395SOL     OW 2083   4.821   3.886   2.655
  395SOL    HW1 2084   4.836   3.896   2.557
  395SOL    HW2 2085   4.821   3.976   2.699
  396SOL     OW 2086   3.302   3.792   2.982
  396SOL    HW1 2087   3.371   3.809   3.053
  396SOL    HW2 2088   3.288   3.875   2.928
  397SOL     OW 2089   4.617   2.159   5.476
  397SOL    HW1 2090   4.715   2.178   5.478
  397SOL    HW2 2091   4.579   2.171   5.568
  398SOL     OW 2092   0.722   5.744   2.212
  398SOL    HW1 2093   0.766   5.664   2.254
  398SOL    HW2 2094   0.632   5.758   2.253
  399SOL     OW 2095   4.495   5.423   1.489
  399SOL    HW1 2096   4.496   5.493   1.417
  399SOL    HW2 2097   4.587   5.385   1.499
  400SOL     OW 2098   0.077   6.922   5.281
  400SOL    HW1 2099   0.083   6.830   5.318
  400SOL    HW2 2100   0.128   6.985   5.340
  401SOL     OW 2101   4.703   1.300   6.059
  401SOL    HW1 2102   4.784   1.243   6.074
  401SOL    HW2 2103   4.662   1.277   5.970
  402SOL     OW 2104   6.260   6.323   2.601
  402SOL    HW1 2105   6.324   6.346   2.527
  402SOL    HW2 2106   6.167   6.347   2.574
  403SOL     OW 2107   4.602   2.381   5.863
  403SOL    HW1 2108   4.602   2.476   5.831
  403SOL    HW2 2109   4.688   2.363   5.912
  404SOL     OW 2110   1.359   6.850   3.263
  404SOL    HW1 2111   1.308   6.936   3.269
  404SOL    HW2 2112   1.454   6.867   3.289
  405SOL     OW 2113   1.631   2.630   1.110
  405SOL    HW1 2114   1.554   2.593   1.058
  405SOL    HW2 2115   1.649   2.571   1.189
  406SOL     OW 2116   0.962   2.673   4.051
  406SOL    HW1 2117   0.894   2.678   3.979
  406SOL    HW2 2118   0.922   2.632   4.133
  407SOL     OW 2119   3.061   0.079   4.788
  407SOL    HW1 2120   3.135   0.125   4.836
  407SOL    HW2 2121   3.093   7.009   4.756
  408SOL     OW 2122   1.368   0.245   3.021
  408SOL    HW1 2123   1.390   0.275   2.928
  408SOL    HW2 2124   1.436   0.178   3.051
  409SOL     OW 2125   6.303   2.991   2.687
  409SOL    HW1 2126   6.316   3.089   2.674
  409SOL    HW2 2127   6.313   2.944   2.600
  410SOL     OW 2128   2.427   0.044   0.298
  410SOL    HW1 2129   2.351   7.012   0.258
  410SOL    HW2 2130   2.512   7.012   0.288
  411SOL     OW 2131   5.757   5.273   6.613
  411SOL    HW1 2132   5.675   5.317   6.577
  411SOL    HW2 2133   5.839   5.320   6.580
  412SOL     OW 2134   3.569   6.276   3.067
  412SOL    HW1 2135   3.501   6.321   3.009
  412SOL    HW2 2136   3.657   6.276   3.019
  413SOL     OW 2137   3.549   5.521   0.250
  413SOL    HW1 2138   3.555   5.447   0.184
  413SOL    HW2 2139   3.479   5.499   0.319
  414SOL     OW 2140   4.366   5.057   1.757
  414SOL    HW1 2141   4.345   5.120   1.682
  414SOL    HW2 2142   4.334   5.096   1.843
  415SOL     OW 2143   1.301   5.741   0.720
  415SOL    HW1 2144   1.387   5.749   0.670
  415SOL    HW2 2145   1.231   5.701   0.660
  416SOL     OW 2146   3.999   5.676   4.769
  416SOL    HW1 2147   3.907   5.642   4.751
  416SOL    HW2 2148   3.999   5.776   4.765
  417SOL     OW 2149   3.245   6.451   1.752
  417SOL    HW1 2150   3.191   6.461   1.835
  417SOL    HW2 2151   3.258   6.354   1.732
  418SOL     OW 2152   4.712   6.155   0.073
  418SOL    HW1 2153   4.744   6.237   0.121
  418SOL    HW2 2154   4.752   6.074   0.116
  419SOL     OW 2155   0.549   0.769   0.985
  419SOL    HW1 2156   0.583   0.699   1.047
  419SOL    HW2 2157   0.471   0.733   0.934
  420SOL     OW 2158   6.178   3.829   1.317
  420SOL    HW1 2159   6.187   3.730   1.304
  420SOL    HW2 2160   6.090   3.859   1.280
  421SOL     OW 2161   1.375   4.691   6.360
  421SOL    HW1 2162   1.408   4.641   6.440
  421SOL    HW2 2163   1.392   4.789   6.374
  422SOL     OW 2164   5.648   4.639   0.398
  422SOL    HW1 2165   5.730   4.589   0.371
  422SOL    HW2 2166   5.631   4.712   0.333
  423SOL     OW 2167   6.250   3.272   0.370
  423SOL    HW1 2168   6.199   3.284   0.455
  423SOL    HW2 2169   6.301   3.355   0.350
  424SOL     OW 2170   3.228   3.642   0.109
  424SOL    HW1 2171   3.153   3.576   0.111
  424SOL    HW2 2172   3.294   3.620   0.182
  425SOL     OW 2173   5.400   1.654   1.643
  425SOL    HW1 2174   5.473   1.709   1.603
  425SOL    HW2 2175   5.399   1.668   1.743
  426SOL     OW 2176   5.348   2.728   5.474
  426SOL    HW1 2177   5.418   2.724   5.403
  426SOL    HW2 2178   5.361   2.653   5.539
  427SOL     OW 2179   5.433   4.375   2.022
  427SOL    HW1 2180   5.376   4.391   2.103
  427SOL    HW2 2181   5.411   4.285   1.983
  428SOL     OW 2182   4.185   0.509   5.328
  428SOL    HW1 2183   4.227   0.428   5.286
  428SOL    HW2 2184   4.197   0.588   5.267
  429SOL     OW 2185   2.372   4.917   0.533
  429SOL    HW1 2186   2.435   4.978   0.583
  429SOL    HW2 2187   2.291   4.901   0.589
  430SOL     OW 2188   1.794   6.618   4.353
  430SOL    HW1 2189   1.840   6.571   4.429
  430SOL    HW2 2190   1.713   6.566   4.327
  431SOL     OW 2191   3.172   1.391   6.860
  431SOL    HW1 2192   3.209   1.426   6.946
  431SOL    HW2 2193   3.247   1.362   6.800
  432SOL     OW 2194   0.074   2.224   0.417
  432SOL    HW1 2195   0.031   2.134   0.405
  432SOL    HW2 2196   0.015   2.294   0.375
  433SOL     OW 2197   2.512   0.245   4.290
  433SOL    HW1 2198   2.597   0.200   4.317
  433SOL    HW2 2199   2.525   0.344   4.289
  434SOL     OW 2200   5.185   4.820   1.185
  434SOL    HW1 2201   5.225   4.830   1.094
  434SOL    HW2 2202   5.176   4.723   1.207
  435SOL     OW 2203   3.617   2.917   5.654
  435SOL    HW1 2204   3.580   2.865   5.577
  435SOL    HW2 2205   3.593   3.013   5.645
  436SOL     OW 2206   1.543   0.072   1.098
  436SOL    HW1 2207   1.610   0.126   1.047
  436SOL    HW2 2208   1.454   0.118   1.095
  437SOL     OW 2209   6.924   0.193   6.549
  437SOL    HW1 2210   6.947   0.246   6.467
  437SOL    HW2 2211   6.984   0.220   6.624
  438SOL     OW 2212   2.183   2.567   2.092
  438SOL    HW1 2213   2.251   2.618   2.145
  438SOL    HW2 2214   2.123   2.518   2.154
  439SOL     OW 2215   5.971   4.716   3.320
  439SOL    HW1 2216   6.054   4.772   3.320
  439SOL    HW2 2217   5.964   4.667   3.406
  440SOL     OW 2218   1.120   2.243   4.419
  440SOL    HW1 2219   1.024   2.223   4.399
  440SOL    HW2 2220   1.127   2.287   4.508
  441SOL     OW 2221   1.041   1.829   3.121
  441SOL    HW1 2222   0.942   1.815   3.117
  441SOL    HW2 2223   1.086   1.741   3.131
  442SOL     OW 2224   0.399   4.191   6.930
  442SOL    HW1 2225   0.494   4.162   6.924
  442SOL    HW2 2226   0.386   4.245   7.013
  443SOL     OW 2227   1.015   4.370   4.646
  443SOL    HW1 2228   1.052   4.352   4.737
  443SOL    HW2 2229   1.085   4.351   4.577
  444SOL     OW 2230   4.763   3.182   6.146
  444SOL    HW1 2231   4.753   3.098   6.200
  444SOL    HW2 2232   4.692   3.247   6.173
  445SOL     OW 2233   2.049   5.417   3.052
  445SOL    HW1 2234   2.025   5.469   3.134
  445SOL    HW2 2235   2.039   5.475   2.971
  446SOL     OW 2236   3.985   4.835   3.585
  446SOL    HW1 2237   4.072   4.797   3.553
  446SOL    HW2 2238   4.001   4.925   3.626
  447SOL     OW 2239   0.325   4.387   6.345
  447SOL    HW1 2240   0.318   4.328   6.264
  447SOL    HW2 2241   0.412   4.371   6.391
  448SOL     OW 2242   3.438   0.605   5.035
  448SOL    HW1 2243   3.343   0.590   5.063
  448SOL    HW2 2244   3.484   0.517   5.025
  449SOL     OW 2245   5.017   0.663   5.102
  449SOL    HW1 2246   5.108   0.638   5.070
  449SOL    HW2 2247   5.008   0.643   5.200
  450SOL     OW 2248   0.441   6.060   3.324
  450SOL    HW1 2249   0.533   6.039   3.291
  450SOL    HW2 2250   0.403   5.980   3.370
  451SOL     OW 2251   0.948   2.170   2.317
  451SOL    HW1 2252   0.958   2.261   2.276
  451SOL    HW2 2253   1.035   2.121   2.310
  452SOL     OW 2254   6.711   5.987   0.188
  452SOL    HW1 2255   6.716   6.084   0.212
  452SOL    HW2 2256   6.790   5.962   0.132
  453SOL     OW 2257   3.053   0.764   6.369
  453SOL    HW1 2258   3.033   0.770   6.271
  453SOL    HW2 2259   2.969   0.777   6.421
  454SOL     OW 2260   6.959   5.939   6.068
  454SOL    HW1 2261   6.918   6.023   6.033
  454SOL    HW2 2262   0.028   5.925   6.024
  455SOL     OW 2263   6.793   0.468   4.255
  455SOL    HW1 2264   6.804   0.386   4.311
  455SOL    HW2 2265   6.883   0.507   4.236
  456SOL     OW 2266   4.734   6.016   5.321
  456SOL    HW1 2267   4.644   6.009   5.277
  456SOL    HW2 2268   4.803   6.041   5.253
  457SOL     OW 2269   2.151   3.598   3.381
  457SOL    HW1 2270   2.206   3.682   3.381
  457SOL    HW2 2271   2.138   3.567   3.287
  458SOL     OW 2272   5.627   5.811   5.216
  458SOL    HW1 2273   5.633   5.874   5.294
  458SOL    HW2 2274   5.561   5.846   5.150
  459SOL     OW 2275   1.679   0.341   3.867
  459SOL    HW1 2276   1.724   0.374   3.784
  459SOL    HW2 2277   1.684   0.241   3.871
  460SOL     OW 2278   0.381   1.173   2.506
  460SOL    HW1 2279   0.308   1.184   2.573
  460SOL    HW2 2280   0.354   1.105   2.438
  461SOL     OW 2281   5.153   6.874   4.500
  461SOL    HW1 2282   5.239   6.924   4.497
  461SOL    HW2 2283   5.097   6.910   4.574
  462SOL     OW 2284   4.198   2.243   5.888
  462SOL    HW1 2285   4.254   2.320   5.916
  462SOL    HW2 2286   4.150   2.266   5.803
  463SOL     OW 2287   6.242   5.811   3.080
  463SOL    HW1 2288   6.303   5.880   3.119
  463SOL    HW2 2289   6.199   5.847   2.998
  464SOL     OW 2290   2.795   1.932   6.367
  464SOL    HW1 2291   2.714   1.917   6.424
  464SOL    HW2 2292   2.830   2.025   6.383
  465SOL     OW 2293   0.936   1.853   4.626
  465SOL    HW1 2294   0.904   1.761   4.605
  465SOL    HW2 2295   0.931   1.910   4.543
  466SOL     OW 2296   0.128   5.971   3.628
  466SOL    HW1 2297   0.065   5.948   3.555
  466SOL    HW2 2298   0.169   5.888   3.665
  467SOL     OW 2299   0.959   0.337   6.290
  467SOL    HW1 2300   0.947   0.435   6.272
  467SOL    HW2 2301   1.048   0.322   6.333
  468SOL     OW 2302   3.185   6.176   0.747
  468SOL    HW1 2303   3.109   6.225   0.704
  468SOL    HW2 2304   3.260   6.167   0.682
  469SOL     OW 2305   3.066   4.481   0.561
  469SOL    HW1 2306   3.040   4.505   0.467
  469SOL    HW2 2307   3.051   4.560   0.621
  470SOL     OW 2308   3.250   0.433   2.743
  470SOL    HW1 2309   3.340   0.416   2.783
  470SOL    HW2 2310   3.237   0.531   2.730
  471SOL     OW 2311   1.713   2.156   4.673
  471SOL    HW1 2312   1.616   2.180   4.673
  471SOL    HW2 2313   1.725   2.065   4.635
  472SOL     OW 2314   4.782   3.654   6.706
  472SOL    HW1 2315   4.709   3.660   6.774
  472SOL    HW2 2316   4.745   3.675   6.616
  473SOL     OW 2317   0.520   2.571   1.210
  473SOL    HW1 2318   0.556   2.498   1.269
  473SOL    HW2 2319   0.529   2.543   1.114
  474SOL     OW 2320   4.554   5.208   4.023
  474SOL    HW1 2321   4.627   5.276   4.026
  474SOL    HW2 2322   4.473   5.248   3.981
  475SOL     OW 2323   6.095   0.898   6.920
  475SOL    HW1 2324   6.127   0.965   6.853
  475SOL    HW2 2325   6.168   0.833   6.939
  476SOL     OW 2326   6.855   3.821   2.332
  476SOL    HW1 2327   6.883   3.758   2.404
  476SOL    HW2 2328   6.926   3.890   2.318
  477SOL     OW 2329   2.252   4.781   4.835
  477SOL    HW1 2330   2.314   4.838   4.780
  477SOL    HW2 2331   2.306   4.719   4.892
  478SOL     OW 2332   3.025   6.103   2.163
  478SOL    HW1 2333   2.994   6.079   2.255
  478SOL    HW2 2334   2.946   6.129   2.107
  479SOL     OW 2335   4.538   2.174   6.944
  479SOL    HW1 2336   4.465   2.184   7.011
  479SOL    HW2 2337   4.519   2.096   6.885
  480SOL     OW 2338   1.986   0.178   0.004
  480SOL    HW1 2339   2.059   0.114   6.999
  480SOL    HW2 2340   1.998   0.263   6.972
  481SOL     OW 2341   2.024   6.717   0.861
  481SOL    HW1 2342   2.120   6.690   0.847
  481SOL    HW2 2343   1.965   6.660   0.804
  482SOL     OW 2344   4.566   4.472   2.601
  482SOL    HW1 2345   4.596   4.377   2.606
  482SOL    HW2 2346   4.594   4.512   2.513
  483SOL     OW 2347   5.320   2.852   1.684
  483SOL    HW1 2348   5.221   2.866   1.678
  483SOL    HW2 2349   5.346   2.777   1.623
  484SOL     OW 2350   1.218   2.691   5.030
  484SOL    HW1 2351   1.167   2.616   5.072
  484SOL    HW2 2352   1.316   2.673   5.035
  485SOL     OW 2353   4.073   5.651   2.068
  485SOL    HW1 2354   4.060   5.571   2.126
  485SOL    HW2 2355   4.040   5.732   2.115
  486SOL     OW 2356   0.376   1.738   0.918
  486SOL    HW1 2357   0.364   1.759   1.015
  486SOL    HW2 2358   0.380   1.639   0.906
  487SOL     OW 2359   0.687   1.440   6.712
  487SOL    HW1 2360   0.693   1.537   6.687
  487SOL    HW2 2361   0.714   1.383   6.634
  488SOL     OW 2362   0.752   0.912   1.661
  488SOL    HW1 2363   0.667   0.961   1.640
  488SOL    HW2 2364   0.731   0.824   1.702
  489SOL     OW 2365   3.442   5.994   0.281
  489SOL    HW1 2366   3.502   6.072   0.262
  489SOL    HW2 2367   3.348   6.026   0.290
  490SOL     OW 2368   7.011   6.051   4.181
  490SOL    HW1 2369   0.049   6.126   4.210
  490SOL    HW2 2370   6.975   6.070   4.089
  491SOL     OW 2371   7.019   2.333   3.219
  491SOL    HW1 2372   0.083   2.341   3.272
  491SOL    HW2 2373   0.015   2.273   3.140
  492SOL     OW 2374   3.221   0.228   4.953
  492SOL    HW1 2375   3.318   0.243   4.972
  492SOL    HW2 2376   3.177   0.190   5.034
  493SOL     OW 2377   5.433   5.870   5.813
  493SOL    HW1 2378   5.345   5.870   5.765
  493SOL    HW2 2379   5.471   5.962   5.813
  494SOL     OW 2380   0.358   6.605   6.994
  494SOL    HW1 2381   0.441   6.659   6.981
  494SOL    HW2 2382   0.282   6.666   7.017
  495SOL     OW 2383   5.411   5.713   3.209
  495SOL    HW1 2384   5.348   5.685   3.281
  495SOL    HW2 2385   5.504   5.718   3.245
  496SOL     OW 2386   5.134   3.293   2.842
  496SOL    HW1 2387   5.121   3.210   2.788
  496SOL    HW2 2388   5.060   3.357   2.823
  497SOL     OW 2389   3.556   1.389   5.653
  497SOL    HW1 2390   3.535   1.385   5.556
  497SOL    HW2 2391   3.470   1.387   5.705
  498SOL     OW 2392   1.591   4.350   1.765
  498SOL    HW1 2393   1.552   4.262   1.735
  498SOL    HW2 2394   1.670   4.333   1.824
  499SOL     OW 2395   2.709   0.389   4.056
  499SOL    HW1 2396   2.805   0.373   4.078
  499SOL    HW2 2397   2.681   0.478   4.092
  500SOL     OW 2398   1.017   3.945   3.080
  500SOL    HW1 2399   0.969   4.030   3.100
  500SOL    HW2 2400   1.097   3.965   3.023
  501SOL     OW 2401   3.440   0.582   0.595
  501SOL    HW1 2402   3.415   0.591   0.691
  501SOL    HW2 2403   3.362   0.609   0.538
  502SOL     OW 2404   6.151   4.529   6.501
  502SOL    HW1 2405   6.105   4.466   6.564
  502SOL    HW2 2406   6.117   4.513   6.408
  503SOL     OW 2407   5.626   5.155   6.039
  503SOL    HW1 2408   5.698   5.213   6.001
  503SOL    HW2 2409   5.626   5.163   6.139
  504SOL     OW 2410   2.993   6.451   3.480
  504SOL    HW1 2411   3.082   6.415   3.506
  504SOL    HW2 2412   2.953   6.393   3.409
  505SOL     OW 2413   3.654   0.330   6.015
  505SOL    HW1 2414   3.714   0.398   6.058
  505SOL    HW2 2415   3.570   0.375   5.984
  506SOL     OW 2416   1.858   5.209   4.861
  506SOL    HW1 2417   1.904   5.120   4.857
  506SOL    HW2 2418   1.913   5.272   4.916
  507SOL     OW 2419   3.744   0.123   4.227
  507SOL    HW1 2420   3.747   0.185   4.149
  507SOL    HW2 2421   3.826   0.136   4.283
  508SOL     OW 2422   6.406   3.811   2.846
  508SOL    HW1 2423   6.487   3.802   2.787
  508SOL    HW2 2424   6.377   3.906   2.848
  509SOL     OW 2425   3.026   1.497   1.922
  509SOL    HW1 2426   3.114   1.494   1.967
  509SOL    HW2 2427   3.036   1.471   1.826
  510SOL     OW 2428   6.483   4.834   5.979
  510SOL    HW1 2429   6.483   4.897   5.901
  510SOL    HW2 2430   6.393   4.790   5.987
  511SOL     OW 2431   0.074   6.470   7.001
  511SOL    HW1 2432   0.162   6.479   6.955
  511SOL    HW2 2433   0.020   6.553   6.987
  512SOL     OW 2434   0.343   3.093   0.359
  512SOL    HW1 2435   0.274   3.165   0.358
  512SOL    HW2 2436   0.383   3.085   0.268
  513SOL     OW 2437   5.854   6.463   3.129
  513SOL    HW1 2438   5.802   6.379   3.117
  513SOL    HW2 2439   5.913   6.477   3.049
  514SOL     OW 2440   6.652   2.275   3.992
  514SOL    HW1 2441   6.652   2.267   3.893
  514SOL    HW2 2442   6.605   2.360   4.019
  515SOL     OW 2443   2.083   0.182   5.905
  515SOL    HW1 2444   2.167   0.225   5.873
  515SOL    HW2 2445   2.005   0.240   5.882
  516SOL     OW 2446   2.633   4.333   1.744
  516SOL    HW1 2447   2.718   4.379   1.771
  516SOL    HW2 2448   2.560   4.358   1.808
  517SOL     OW 2449   5.259   6.056   2.069
  517SOL    HW1 2450   5.163   6.047   2.042
  517SOL    HW2 2451   5.297   5.965   2.085
  518SOL     OW 2452   2.890   2.027   1.995
  518SOL    HW1 2453   2.904   2.126   2.001
  518SOL    HW2 2454   2.847   2.005   1.908
  519SOL     OW 2455   7.013   0.662   4.959
  519SOL    HW1 2456   6.956   0.707   5.028
  519SOL    HW2 2457   7.003   0.563   4.966
  520SOL     OW 2458   5.757   4.759   6.475
  520SOL    HW1 2459   5.819   4.757   6.397
  520SOL    HW2 2460   5.667   4.727   6.446
  521SOL     OW 2461   6.366   2.688   6.538
  521SOL    HW1 2462   6.271   2.672   6.567
  521SOL    HW2 2463   6.426   2.623   6.584
  522SOL     OW 2464   3.979   2.931   5.598
  522SOL    HW1 2465   3.986   2.901   5.693
  522SOL    HW2 2466   3.972   3.031   5.595
  523SOL     OW 2467   0.331   4.889   3.614
  523SOL    HW1 2468   0.307   4.793   3.630
  523SOL    HW2 2469   0.372   4.899   3.524
  524SOL     OW 2470   2.563   1.283   6.618
  524SOL    HW1 2471   2.487   1.331   6.662
  524SOL    HW2 2472   2.642   1.343   6.613
  525SOL     OW 2473   2.926   3.321   6.472
  525SOL    HW1 2474   2.875   3.324   6.386
  525SOL    HW2 2475   2.969   3.410   6.489
  526SOL     OW 2476   2.866   7.010   4.991
  526SOL    HW1 2477   2.850   6.963   4.904
  526SOL    HW2 2478   2.930   0.066   4.977
  527SOL     OW 2479   6.001   3.376   6.483
  527SOL    HW1 2480   6.020   3.471   6.455
  527SOL    HW2 2481   6.049   3.314   6.421
  528SOL     OW 2482   1.124   1.726   3.826
  528SOL    HW1 2483   1.099   1.680   3.741
  528SOL    HW2 2484   1.080   1.816   3.829
  529SOL     OW 2485   0.217   5.595   4.847
  529SOL    HW1 2486   0.185   5.617   4.939
  529SOL    HW2 2487   0.314   5.619   4.839
  530SOL     OW 2488   2.649   2.923   5.359
  530SOL    HW1 2489   2.627   2.939   5.456
  530SOL    HW2 2490   2.580   2.966   5.302
  531SOL     OW 2491   0.014   1.029   1.659
  531SOL    HW1 2492   6.956   0.976   1.627
  531SOL    HW2 2493   0.067   0.975   1.724
  532SOL     OW 2494   0.648   2.899   6.116
  532SOL    HW1 2495   0.741   2.864   6.105
  532SOL    HW2 2496   0.625   2.956   6.037
  533SOL     OW 2497   4.884   5.702   4.390
  533SOL    HW1 2498   4.966   5.677   4.340
  533SOL    HW2 2499   4.886   5.799   4.412
  534SOL     OW 2500   5.501   5.127   3.295
  534SOL    HW1 2501   5.492   5.226   3.290
  534SOL    HW2 2502   5.522   5.100   3.389
  535SOL     OW 2503   1.066   4.202   4.353
  535SOL    HW1 2504   1.051   4.274   4.285
  535SOL    HW2 2505   1.145   4.226   4.410
  536SOL     OW 2506   6.917   5.170   2.145
  536SOL    HW1 2507   6.934   5.234   2.219
  536SOL    HW2 2508   6.993   5.105   2.137
  537SOL     OW 2509   2.215   6.451   3.847
  537SOL    HW1 2510   2.164   6.411   3.924
  537SOL    HW2 2511   2.305   6.481   3.878
  538SOL     OW 2512   1.858   6.084   3.548
  538SOL    HW1 2513   1.934   6.025   3.523
  538SOL    HW2 2514   1.878   6.130   3.635
  539SOL     OW 2515   0.325   5.774   0.415
  539SOL    HW1 2516   0.229   5.747   0.420
  539SOL    HW2 2517   0.346   5.805   0.322
  540SOL     OW 2518   0.460   1.506   2.048
  540SOL    HW1 2519   0.508   1.419   2.060
  540SOL    HW2 2520   0.408   1.504   1.962
  541SOL     OW 2521   2.888   6.473   4.426
  541SOL    HW1 2522   2.987   6.488   4.425
  541SOL    HW2 2523   2.869   6.376   4.440
  542SOL     OW 2524   6.539   6.678   7.008
  542SOL    HW1 2525   6.586   6.635   0.066
  542SOL    HW2 2526   6.559   6.627   6.924
  543SOL     OW 2527   0.515   4.930   5.614
  543SOL    HW1 2528   0.477   5.021   5.597
  543SOL    HW2 2529   0.535   4.921   5.712
  544SOL     OW 2530   1.328   4.486   1.106
  544SOL    HW1 2531   1.376   4.447   1.028
  544SOL    HW2 2532   1.317   4.417   1.177
  545SOL     OW 2533   3.778   1.779   3.227
  545SOL    HW1 2534   3.756   1.706   3.162
  545SOL    HW2 2535   3.787   1.741   3.319
  546SOL     OW 2536   1.595   3.499   1.565
  546SOL    HW1 2537   1.640   3.487   1.477
  546SOL    HW2 2538   1.650   3.559   1.623
  547SOL     OW 2539   2.437   1.467   6.768
  547SOL    HW1 2540   2.407   1.479   6.862
  547SOL    HW2 2541   2.512   1.531   6.749
  548SOL     OW 2542   3.492   3.068   3.037
  548SOL    HW1 2543   3.568   3.120   2.998
  548SOL    HW2 2544   3.504   3.060   3.135
  549SOL     OW 2545   4.261   3.645   1.751
  549SOL    HW1 2546   4.305   3.713   1.692
  549SOL    HW2 2547   4.186   3.687   1.802
  550SOL     OW 2548   6.926   2.968   3.256
  550SOL    HW1 2549   6.833   2.994   3.227
  550SOL    HW2 2550   6.951   3.019   3.338
  551SOL     OW 2551   0.055   1.904   0.825
  551SOL    HW1 2552   0.092   1.918   0.917
  551SOL    HW2 2553   6.976   1.921   0.826
  552SOL     OW 2554   3.719   5.699   0.526
  552SOL    HW1 2555   3.620   5.693   0.511
  552SOL    HW2 2556   3.766   5.638   0.462
  553SOL     OW 2557   1.702   6.602   2.616
  553SOL    HW1 2558   1.683   6.697   2.590
  553SOL    HW2 2559   1.790   6.598   2.663
  554SOL     OW 2560   5.209   0.007   6.342
  554SOL    HW1 2561   5.274   6.958   6.377
  554SOL    HW2 2562   5.121   7.014   6.387
  555SOL     OW 2563   2.189   5.275   3.988
  555SOL    HW1 2564   2.187   5.319   4.077
  555SOL    HW2 2565   2.195   5.176   4.000
  556SOL     OW 2566   6.183   2.347   4.074
  556SOL    HW1 2567   6.234   2.426   4.039
  556SOL    HW2 2568   6.232   2.308   4.152
  557SOL     OW 2569   0.087   6.167   6.651
  557SOL    HW1 2570   0.097   6.160   6.551
  557SOL    HW2 2571   0.004   6.120   6.679
  558SOL     OW 2572   4.236   3.482   5.189
  558SOL    HW1 2573   4.187   3.420   5.127
  558SOL    HW2 2574   4.335   3.469   5.177
  559SOL     OW 2575   6.411   6.331   6.587
  559SOL    HW1 2576   6.376   6.276   6.662
  559SOL    HW2 2577   6.404   6.428   6.610
  560SOL     OW 2578   3.468   6.491   0.885
  560SOL    HW1 2579   3.424   6.417   0.935
  560SOL    HW2 2580   3.418   6.508   0.800
  561SOL     OW 2581   5.985   0.041   6.397
  561SOL    HW1 2582   5.932   0.108   6.346
  561SOL    HW2 2583   6.044   7.010   6.334
  562SOL     OW 2584   4.753   0.890   6.486
  562SOL    HW1 2585   4.684   0.846   6.543
  562SOL    HW2 2586   4.715   0.974   6.446
  563SOL     OW 2587   2.752   6.588   3.484
  563SOL    HW1 2588   2.846   6.552   3.487
  563SOL    HW2 2589   2.706   6.553   3.402
  564SOL     OW 2590   2.357   2.243   6.302
  564SOL    HW1 2591   2.288   2.242   6.229
  564SOL    HW2 2592   2.375   2.337   6.329
  565SOL     OW 2593   4.702   2.975   5.465
  565SOL    HW1 2594   4.627   3.008   5.408
  565SOL    HW2 2595   4.666   2.916   5.537
  566SOL     OW 2596   4.378   4.604   3.758
  566SOL    HW1 2597   4.286   4.643   3.763
  566SOL    HW2 2598   4.398   4.579   3.663
  567SOL     OW 2599   3.237   3.435   4.219
  567SOL    HW1 2600   3.230   3.463   4.123
  567SOL    HW2 2601   3.327   3.460   4.254
  568SOL     OW 2602   3.661   2.417   1.191
  568SOL    HW1 2603   3.753   2.400   1.225
  568SOL    HW2 2604   3.655   2.510   1.155
  569SOL     OW 2605   1.505   3.162   0.673
  569SOL    HW1 2606   1.549   3.092   0.730
  569SOL    HW2 2607   1.406   3.154   0.681
  570SOL     OW 2608   1.492   6.414   0.168
  570SOL    HW1 2609   1.414   6.475   0.155
  570SOL    HW2 2610   1.522   6.418   0.263
  571SOL     OW 2611   2.937   6.034   2.411
  571SOL    HW1 2612   2.857   6.080   2.452
  571SOL    HW2 2613   2.916   5.938   2.397
  572SOL     OW 2614   2.395   4.649   5.845
  572SOL    HW1 2615   2.389   4.685   5.752
  572SOL    HW2 2616   2.303   4.631   5.880
  573SOL     OW 2617   3.477   1.582   5.297
  573SOL    HW1 2618   3.511   1.589   5.203
  573SOL    HW2 2619   3.392   1.633   5.305
  574SOL     OW 2620   2.279   2.128   4.665
  574SOL    HW1 2621   2.368   2.171   4.652
  574SOL    HW2 2622   2.211   2.174   4.609
  575SOL     OW 2623   6.297   4.052   0.245
  575SOL    HW1 2624   6.206   4.092   0.256
  575SOL    HW2 2625   6.300   3.999   0.160
  576SOL     OW 2626   1.087   2.188   1.927
  576SOL    HW1 2627   1.126   2.098   1.909
  576SOL    HW2 2628   1.158   2.258   1.915
  577SOL     OW 2629   2.670   1.426   3.832
  577SOL    HW1 2630   2.574   1.423   3.803
  577SOL    HW2 2631   2.692   1.517   3.866
  578SOL     OW 2632   6.704   3.381   3.471
  578SOL    HW1 2633   6.615   3.350   3.506
  578SOL    HW2 2634   6.723   3.473   3.506
  579SOL     OW 2635   4.020   1.916   1.481
  579SOL    HW1 2636   4.040   2.000   1.532
  579SOL    HW2 2637   3.988   1.846   1.544
  580SOL     OW 2638   0.894   4.563   6.046
  580SOL    HW1 2639   0.822   4.633   6.045
  580SOL    HW2 2640   0.853   4.474   6.028
  581SOL     OW 2641   3.769   3.008   3.617
  581SOL    HW1 2642   3.732   3.082   3.560
  581SOL    HW2 2643   3.709   2.992   3.695
  582SOL     OW 2644   5.746   4.031   2.372
  582SOL    HW1 2645   5.663   4.016   2.425
  582SOL    HW2 2646   5.820   4.059   2.433
  583SOL     OW 2647   2.917   4.780   0.165
  583SOL    HW1 2648   3.016   4.790   0.153
  583SOL    HW2 2649   2.879   4.866   0.199
  584SOL     OW 2650   0.300   4.729   5.505
  584SOL    HW1 2651   0.253   4.754   5.420
  584SOL    HW2 2652   0.383   4.785   5.514
  585SOL     OW 2653   6.866   2.675   6.051
  585SOL    HW1 2654   6.773   2.708   6.066
  585SOL    HW2 2655   6.881   2.594   6.107
  586SOL     OW 2656   3.086   6.585   0.504
  586SOL    HW1 2657   3.014   6.611   0.439
  586SOL    HW2 2658   3.080   6.644   0.584
  587SOL     OW 2659   1.993   1.772   5.011
  587SOL    HW1 2660   1.942   1.830   4.948
  587SOL    HW2 2661   1.941   1.760   5.095
  588SOL     OW 2662   3.602   6.949   1.227
  588SOL    HW1 2663   3.697   6.960   1.196
  588SOL    HW2 2664   3.601   6.915   1.321
  589SOL     OW 2665   3.716   5.005   1.656
  589SOL    HW1 2666   3.656   5.084   1.642
  589SOL    HW2 2667   3.811   5.033   1.644
  590SOL     OW 2668   0.163   2.534   2.148
  590SOL    HW1 2669   0.260   2.558   2.141
  590SOL    HW2 2670   0.111   2.589   2.083
  591SOL     OW 2671   4.372   6.953   3.326
  591SOL    HW1 2672   4.306   6.987   3.259
  591SOL    HW2 2673   4.324   6.908   3.400
  592SOL     OW 2674   4.889   1.097   0.357
  592SOL    HW1 2675   4.957   1.120   0.427
  592SOL    HW2 2676   4.816   1.166   0.358
  593SOL     OW 2677   4.172   2.241   3.983
  593SOL    HW1 2678   4.170   2.164   3.919
  593SOL    HW2 2679   4.168   2.207   4.076
  594SOL     OW 2680   4.175   3.029   6.652
  594SOL    HW1 2681   4.240   2.983   6.713
  594SOL    HW2 2682   4.082   3.006   6.680
  595SOL     OW 2683   3.934   6.856   4.323
  595SOL    HW1 2684   3.870   6.781   4.344
  595SOL    HW2 2685   3.978   6.838   4.235
  596SOL     OW 2686   1.023   3.885   2.360
  596SOL    HW1 2687   1.093   3.954   2.376
  596SOL    HW2 2688   0.934   3.929   2.353
  597SOL     OW 2689   3.740   6.826   6.724
  597SOL    HW1 2690   3.807   6.831   6.650
  597SOL    HW2 2691   3.679   6.748   6.709
  598SOL     OW 2692   4.198   4.871   0.370
  598SOL    HW1 2693   4.237   4.798   0.425
  598SOL    HW2 2694   4.110   4.899   0.408
  599SOL     OW 2695   0.219   0.300   2.523
  599SOL    HW1 2696   0.258   0.249   2.446
  599SOL    HW2 2697   0.292   0.351   2.569
  600SOL     OW 2698   0.944   6.502   0.847
  600SOL    HW1 2699   1.032   6.511   0.801
  600SOL    HW2 2700   0.936   6.572   0.918
  601SOL     OW 2701   2.910   6.002   3.497
  601SOL    HW1 2702   2.993   5.952   3.522
  601SOL    HW2 2703   2.904   6.010   3.398
  602SOL     OW 2704   1.063   0.352   0.635
  602SOL    HW1 2705   1.129   0.285   0.670
  602SOL    HW2 2706   1.089   0.444   0.666
  603SOL     OW 2707   3.602   1.856   3.485
  603SOL    HW1 2708   3.655   1.924   3.536
  603SOL    HW2 2709   3.661   1.780   3.459
  604SOL     OW 2710   1.602   3.083   0.216
  604SOL    HW1 2711   1.531   3.136   0.169
  604SOL    HW2 2712   1.667   3.048   0.149
  605SOL     OW 2713   6.984   6.002   3.365
  605SOL    HW1 2714   6.991   5.903   3.352
  605SOL    HW2 2715   0.031   6.048   3.305
  606SOL     OW 2716   4.393   0.502   4.649
  606SOL    HW1 2717   4.338   0.513   4.565
  606SOL    HW2 2718   4.395   0.406   4.675
  607SOL     OW 2719   5.743   1.340   3.849
  607SOL    HW1 2720   5.644   1.325   3.852
  607SOL    HW2 2721   5.764   1.416   3.787
  608SOL     OW 2722   2.930   0.497   0.829
  608SOL    HW1 2723   2.933   0.454   0.738
  608SOL    HW2 2724   2.999   0.569   0.833
  609SOL     OW 2725   3.303   2.942   4.750
  609SOL    HW1 2726   3.357   2.911   4.829
  609SOL    HW2 2727   3.346   2.908   4.666
  610SOL     OW 2728   5.351   2.568   3.504
  610SOL    HW1 2729   5.323   2.565   3.408
  610SOL    HW2 2730   5.335   2.478   3.546
  611SOL     OW 2731   0.327   0.426   6.935
  611SOL    HW1 2732   0.405   0.425   6.872
  611SOL    HW2 2733   0.244   0.398   6.886
  612SOL     OW 2734   3.752   5.120   5.843
  612SOL    HW1 2735   3.662   5.162   5.832
  612SOL    HW2 2736   3.822   5.191   5.842
  613SOL     OW 2737   4.173   1.454   5.816
  613SOL    HW1 2738   4.132   1.510   5.888
  613SOL    HW2 2739   4.206   1.513   5.742
  614SOL     OW 2740   5.942   4.823   0.813
  614SOL    HW1 2741   6.004   4.873   0.753
  614SOL    HW2 2742   5.877   4.771   0.758
  615SOL     OW 2743   0.561   0.159   6.937
  615SOL    HW1 2744   0.515   0.115   7.015
  615SOL    HW2 2745   0.492   0.197   6.876
  616SOL     OW 2746   5.581   2.196   4.392
  616SOL    HW1 2747   5.510   2.136   4.353
  616SOL    HW2 2748   5.666   2.184   4.342
  617SOL     OW 2749   0.283   4.449   5.938
  617SOL    HW1 2750   0.261   4.520   5.872
  617SOL    HW2 2751   0.367   4.473   5.987
  618SOL     OW 2752   6.434   3.260   1.673
  618SOL    HW1 2753   6.349   3.309   1.691
  618SOL    HW2 2754   6.511   3.314   1.708
  619SOL     OW 2755   3.133   1.015   0.072
  619SOL    HW1 2756   3.105   0.919   0.077
  619SOL    HW2 2757   3.229   1.020   0.045
  620SOL     OW 2758   5.755   3.592   2.003
  620SOL    HW1 2759   5.670   3.643   2.014
  620SOL    HW2 2760   5.804   3.590   2.090
  621SOL     OW 2761   3.023   6.952   6.045
  621SOL    HW1 2762   2.997   7.003   6.127
  621SOL    HW2 2763   2.982   6.861   6.048
  622SOL     OW 2764   1.070   2.421   5.204
  622SOL    HW1 2765   1.033   2.356   5.138
  622SOL    HW2 2766   1.006   2.430   5.280
  623SOL     OW 2767   6.559   6.247   4.325
  623SOL    HW1 2768   6.482   6.287   4.276
  623SOL    HW2 2769   6.636   6.311   4.323
  624SOL     OW 2770   6.365   1.487   6.650
  624SOL    HW1 2771   6.327   1.538   6.573
  624SOL    HW2 2772   6.438   1.540   6.692
  625SOL     OW 2773   2.087   0.948   0.124
  625SOL    HW1 2774   2.061   0.992   0.210
  625SOL    HW2 2775   2.066   0.850   0.129
  626SOL     OW 2776   1.456   5.878   3.732
  626SOL    HW1 2777   1.513   5.900   3.653
  626SOL    HW2 2778   1.514   5.851   3.809
  627SOL     OW 2779   6.238   6.747   7.019
  627SOL    HW1 2780   6.290   6.667   6.990
  627SOL    HW2 2781   6.282   6.790   0.078
  628SOL     OW 2782   5.357   4.181   5.340
  628SOL    HW1 2783   5.437   4.208   5.287
  628SOL    HW2 2784   5.331   4.256   5.401
  629SOL     OW 2785   6.905   0.718   7.019
  629SOL    HW1 2786   6.807   0.730   7.004
  629SOL    HW2 2787   6.941   0.795   0.052
  630SOL     OW 2788   6.874   1.316   1.174
  630SOL    HW1 2789   6.788   1.273   1.199
  630SOL    HW2 2790   6.874   1.411   1.203
  631SOL     OW 2791   2.565   2.500   5.063
  631SOL    HW1 2792   2.530   2.587   5.029
  631SOL    HW2 2793   2.593   2.509   5.158
  632SOL     OW 2794   5.098   3.114   0.524
  632SOL    HW1 2795   5.115   3.020   0.552
  632SOL    HW2 2796   5.149   3.134   0.441
  633SOL     OW 2797   1.569   5.061   1.164
  633SOL    HW1 2798   1.485   5.115   1.168
  633SOL    HW2 2799   1.577   5.019   1.074
  634SOL     OW 2800   2.934   3.445   3.940
  634SOL    HW1 2801   2.951   3.362   3.994
  634SOL    HW2 2802   3.010   3.459   3.877
  635SOL     OW 2803   5.346   1.099   6.871
  635SOL    HW1 2804   5.355   1.185   6.921
  635SOL    HW2 2805   5.436   1.054   6.865
  636SOL     OW 2806   3.030   0.467   5.916
  636SOL    HW1 2807   3.038   0.561   5.883
  636SOL    HW2 2808   3.084   0.456   5.999
  637SOL     OW 2809   6.421   1.191   2.426
  637SOL    HW1 2810   6.438   1.276   2.376
  637SOL    HW2 2811   6.344   1.143   2.385
  638SOL     OW 2812   5.775   3.459   3.830
  638SOL    HW1 2813   5.811   3.502   3.747
  638SOL    HW2 2814   5.781   3.523   3.906
  639SOL     OW 2815   5.655   4.963   2.870
  639SOL    HW1 2816   5.654   4.921   2.960
  639SOL    HW2 2817   5.597   5.045   2.870
  640SOL     OW 2818   0.090   2.833   2.875
  640SOL    HW1 2819   0.033   2.869   2.802
  640SOL    HW2 2820   0.070   2.736   2.889
  641SOL     OW 2821   1.853   4.820   5.263
  641SOL    HW1 2822   1.766   4.844   5.304
  641SOL    HW2 2823   1.869   4.722   5.272
  642SOL     OW 2824   0.859   3.789   4.503
  642SOL    HW1 2825   0.914   3.871   4.517
  642SOL    HW2 2826   0.918   3.715   4.470
  643SOL     OW 2827   5.558   6.624   0.023
  643SOL    HW1 2828   5.582   6.605   0.118
  643SOL    HW2 2829   5.459   6.638   0.016
  644SOL     OW 2830   0.556   0.375   4.531
  644SOL    HW1 2831   0.614   0.360   4.612
  644SOL    HW2 2832   0.486   0.304   4.528
  645SOL     OW 2833   3.713   4.865   2.899
  645SOL    HW1 2834   3.660   4.868   2.814
  645SOL    HW2 2835   3.675   4.930   2.965
  646SOL     OW 2836   3.660   0.908   5.184
  646SOL    HW1 2837   3.692   0.818   5.210
  646SOL    HW2 2838   3.697   0.977   5.247
  647SOL     OW 2839   5.015   2.041   4.468
  647SOL    HW1 2840   4.918   2.064   4.458
  647SOL    HW2 2841   5.046   2.065   4.560
  648SOL     OW 2842   6.214   1.454   2.798
  648SOL    HW1 2843   6.298   1.399   2.799
  648SOL    HW2 2844   6.171   1.446   2.708
  649SOL     OW 2845   2.484   4.839   0.292
  649SOL    HW1 2846   2.433   4.863   0.374
  649SOL    HW2 2847   2.493   4.739   0.287
  650SOL     OW 2848   6.541   5.649   0.699
  650SOL    HW1 2849   6.614   5.718   0.706
  650SOL    HW2 2850   6.554   5.596   0.615
  651SOL     OW 2851   1.334   0.454   5.619
  651SOL    HW1 2852   1.297   0.535   5.573
  651SOL    HW2 2853   1.394   0.405   5.557
  652SOL     OW 2854   4.435   0.973   2.125
  652SOL    HW1 2855   4.412   0.932   2.213
  652SOL    HW2 2856   4.361   1.032   2.094
  653SOL     OW 2857   6.515   6.379   0.840
  653SOL    HW1 2858   6.429   6.408   0.882
  653SOL    HW2 2859   6.541   6.444   0.768
  654SOL     OW 2860   6.618   6.490   5.495
  654SOL    HW1 2861   6.558   6.414   5.521
  654SOL    HW2 2862   6.562   6.571   5.477
  655SOL     OW 2863   0.092   4.997   2.132
  655SOL    HW1 2864   0.076   4.925   2.065
  655SOL    HW2 2865   0.183   5.036   2.119
  656SOL     OW 2866   3.323   6.535   0.652
  656SOL    HW1 2867   3.350   6.469   0.582
  656SOL    HW2 2868   3.224   6.537   0.660
  657SOL     OW 2869   3.695   3.214   1.912
  657SOL    HW1 2870   3.610   3.200   1.963
  657SOL    HW2 2871   3.750   3.130   1.917
  658SOL     OW 2872   2.239   3.999   4.371
  658SOL    HW1 2873   2.264   3.965   4.462
  658SOL    HW2 2874   2.157   3.951   4.340
  659SOL     OW 2875   3.746   6.256   5.805
  659SOL    HW1 2876   3.759   6.178   5.866
  659SOL    HW2 2877   3.671   6.236   5.742
  660SOL     OW 2878   5.088   4.700   2.655
  660SOL    HW1 2879   5.072   4.784   2.706
  660SOL    HW2 2880   5.074   4.621   2.714
  661SOL     OW 2881   5.015   4.231   4.239
  661SOL    HW1 2882   5.093   4.181   4.199
  661SOL    HW2 2883   4.934   4.217   4.183
  662SOL     OW 2884   4.725   2.733   6.850
  662SOL    HW1 2885   4.698   2.662   6.785
  662SOL    HW2 2886   4.674   2.722   6.935
  663SOL     OW 2887   6.893   4.201   6.937
  663SOL    HW1 2888   6.923   4.226   0.010
  663SOL    HW2 2889   6.842   4.114   6.941
  664SOL     OW 2890   1.632   6.085   6.117
  664SOL    HW1 2891   1.690   6.149   6.066
  664SOL    HW2 2892   1.537   6.095   6.087
  665SOL     OW 2893   3.614   5.504   1.353
  665SOL    HW1 2894   3.636   5.406   1.354
  665SOL    HW2 2895   3.637   5.544   1.442
  666SOL     OW 2896   3.948   1.937   0.181
  666SOL    HW1 2897   3.937   1.938   0.280
  666SOL    HW2 2898   3.980   1.847   0.152
  667SOL     OW 2899   0.525   2.912   3.826
  667SOL    HW1 2900   0.617   2.872   3.828
  667SOL    HW2 2901   0.502   2.947   3.917
  668SOL     OW 2902   4.498   6.652   0.076
  668SOL    HW1 2903   4.504   6.691   7.003
  668SOL    HW2 2904   4.474   6.723   0.141
  669SOL     OW 2905   1.069   6.959   3.414
  669SOL    HW1 2906   0.992   7.019   3.435
  669SOL    HW2 2907   1.040   6.889   3.349
  670SOL     OW 2908   3.311   3.682   2.731
  670SOL    HW1 2909   3.218   3.706   2.704
  670SOL    HW2 2910   3.328   3.713   2.825
  671SOL     OW 2911   1.748   6.269   5.927
  671SOL    HW1 2912   1.828   6.319   5.894
  671SOL    HW2 2913   1.687   6.249   5.849
  672SOL     OW 2914   1.092   2.988   4.453
  672SOL    HW1 2915   1.058   3.070   4.407
  672SOL    HW2 2916   1.179   3.009   4.498
  673SOL     OW 2917   4.921   0.590   6.830
  673SOL    HW1 2918   4.850   0.609   6.762
  673SOL    HW2 2919   4.889   0.618   6.921
  674SOL     OW 2920   0.605   2.628   3.551
  674SOL    HW1 2921   0.533   2.692   3.524
  674SOL    HW2 2922   0.692   2.677   3.555
  675SOL     OW 2923   0.491   2.367   4.565
  675SOL    HW1 2924   0.567   2.427   4.588
  675SOL    HW2 2925   0.515   2.273   4.587
  676SOL     OW 2926   2.856   4.781   4.285
  676SOL    HW1 2927   2.876   4.756   4.190
  676SOL    HW2 2928   2.763   4.752   4.308
  677SOL     OW 2929   6.273   0.383   0.601
  677SOL    HW1 2930   6.263   0.354   0.505
  677SOL    HW2 2931   6.249   0.307   0.661
  678SOL     OW 2932   2.625   0.944   5.699
  678SOL    HW1 2933   2.646   1.001   5.620
  678SOL    HW2 2934   2.558   0.990   5.757
  679SOL     OW 2935   3.572   1.143   3.216
  679SOL    HW1 2936   3.600   1.104   3.304
  679SOL    HW2 2937   3.602   1.239   3.211
  680SOL     OW 2938   5.866   3.994   5.869
  680SOL    HW1 2939   5.807   4.007   5.949
  680SOL    HW2 2940   5.859   3.900   5.837
  681SOL     OW 2941   6.721   6.258   0.953
  681SOL    HW1 2942   6.691   6.188   1.017
  681SOL    HW2 2943   6.642   6.309   0.919
  682SOL     OW 2944   1.958   6.677   0.239
  682SOL    HW1 2945   1.991   6.645   0.150
  682SOL    HW2 2946   1.967   6.776   0.245
  683SOL     OW 2947   4.243   1.412   6.098
  683SOL    HW1 2948   4.223   1.476   6.024
  683SOL    HW2 2949   4.161   1.359   6.119
  684SOL     OW 2950   0.142   0.043   6.379
  684SOL    HW1 2951   0.211   6.996   6.353
  684SOL    HW2 2952   0.080   0.002   6.446
  685SOL     OW 2953   4.842   6.979   6.416
  685SOL    HW1 2954   4.767   6.987   6.483
  685SOL    HW2 2955   4.837   0.036   6.352
  686SOL     OW 2956   5.340   3.065   3.447
  686SOL    HW1 2957   5.339   3.009   3.530
  686SOL    HW2 2958   5.249   3.069   3.408
  687SOL     OW 2959   6.816   3.527   6.573
  687SOL    HW1 2960   6.744   3.591   6.599
  687SOL    HW2 2961   6.776   3.449   6.525
  688SOL     OW 2962   2.029   3.706   6.917
  688SOL    HW1 2963   2.091   3.686   6.993
  688SOL    HW2 2964   1.990   3.620   6.883
  689SOL     OW 2965   0.519   4.118   6.323
  689SOL    HW1 2966   0.611   4.090   6.296
  689SOL    HW2 2967   0.453   4.087   6.254
  690SOL     OW 2968   1.133   2.317   3.940
  690SOL    HW1 2969   1.170   2.342   4.030
  690SOL    HW2 2970   1.119   2.218   3.936
  691SOL     OW 2971   1.513   2.321   6.220
  691SOL    HW1 2972   1.522   2.416   6.248
  691SOL    HW2 2973   1.495   2.317   6.121
  692SOL     OW 2974   2.565   6.840   3.370
  692SOL    HW1 2975   2.607   6.793   3.292
  692SOL    HW2 2976   2.617   6.922   3.392
  693SOL     OW 2977   6.550   1.930   2.425
  693SOL    HW1 2978   6.596   1.874   2.357
  693SOL    HW2 2979   6.530   2.020   2.386
  694SOL     OW 2980   3.303   5.808   0.999
  694SOL    HW1 2981   3.373   5.865   0.955
  694SOL    HW2 2982   3.212   5.835   0.968
  695SOL     OW 2983   5.217   5.266   4.827
  695SOL    HW1 2984   5.261   5.288   4.913
  695SOL    HW2 2985   5.156   5.341   4.800
  696SOL     OW 2986   3.304   5.185   2.394
  696SOL    HW1 2987   3.230   5.132   2.436
  696SOL    HW2 2988   3.268   5.272   2.361
  697SOL     OW 2989   1.294   3.564   5.154
  697SOL    HW1 2990   1.315   3.541   5.059
  697SOL    HW2 2991   1.355   3.637   5.185
  698SOL     OW 2992   4.706   0.538   3.666
  698SOL    HW1 2993   4.703   0.638   3.670
  698SOL    HW2 2994   4.787   0.508   3.617
  699SOL     OW 2995   1.696   4.615   1.077
  699SOL    HW1 2996   1.787   4.597   1.039
  699SOL    HW2 2997   1.630   4.550   1.039
  700SOL     OW 2998   2.664   2.464   3.864
  700SOL    HW1 2999   2.612   2.527   3.806
  700SOL    HW2 3000   2.726   2.410   3.807
  701SOL     OW 3001   1.067   4.618   6.933
  701SOL    HW1 3002   1.101   4.525   6.925
  701SOL    HW2 3003   1.132   4.673   6.985
  702SOL     OW 3004   5.189   6.947   4.802
  702SOL    HW1 3005   5.259   6.881   4.827
  702SOL    HW2 3006   5.102   6.922   4.845
  703SOL     OW 3007   4.462   3.357   6.698
  703SOL    HW1 3008   4.504   3.350   6.788
  703SOL    HW2 3009   4.461   3.452   6.668
  704SOL     OW 3010   1.040   1.248   6.127
  704SOL    HW1 3011   1.040   1.250   6.027
  704SOL    HW2 3012   1.109   1.184   6.159
  705SOL     OW 3013   4.720   0.815   3.671
  705SOL    HW1 3014   4.723   0.839   3.769
  705SOL    HW2 3015   4.663   0.881   3.623
  706SOL     OW 3016   3.326   1.981   4.183
  706SOL    HW1 3017   3.345   1.933   4.269
  706SOL    HW2 3018   3.403   1.969   4.121
  707SOL     OW 3019   4.636   0.563   1.788
  707SOL    HW1 3020   4.565   0.631   1.808
  707SOL    HW2 3021   4.593   0.475   1.770
  708SOL     OW 3022   4.779   0.321   1.224
  708SOL    HW1 3023   4.715   0.396   1.242
  708SOL    HW2 3024   4.872   0.357   1.217
  709SOL     OW 3025   1.064   5.058   1.244
  709SOL    HW1 3026   1.151   5.031   1.203
  709SOL    HW2 3027   1.071   5.055   1.344
  710SOL     OW 3028   3.385   4.040   2.183
  710SOL    HW1 3029   3.469   4.025   2.236
  710SOL    HW2 3030   3.307   4.037   2.245
  711SOL     OW 3031   6.625   2.756   5.162
  711SOL    HW1 3032   6.570   2.672   5.157
  711SOL    HW2 3033   6.711   2.737   5.209
  712SOL     OW 3034   1.025   3.681   0.839
  712SOL    HW1 3035   1.087   3.758   0.849
  712SOL    HW2 3036   0.961   3.679   0.916
  713SOL     OW 3037   4.065   3.583   2.304
  713SOL    HW1 3038   4.061   3.599   2.205
  713SOL    HW2 3039   4.126   3.650   2.346
  714SOL     OW 3040   5.495   4.527   5.438
  714SOL    HW1 3041   5.405   4.486   5.450
  714SOL    HW2 3042   5.521   4.523   5.341
  715SOL     OW 3043   4.298   6.040   6.702
  715SOL    HW1 3044   4.200   6.024   6.686
  715SOL    HW2 3045   4.345   5.952   6.709
  716SOL     OW 3046   0.715   4.993   1.488
  716SOL    HW1 3047   0.627   4.946   1.482
  716SOL    HW2 3048   0.708   5.083   1.446
  717SOL     OW 3049   5.787   4.375   6.981
  717SOL    HW1 3050   5.701   4.382   0.012
  717SOL    HW2 3051   5.850   4.446   7.014
  718SOL     OW 3052   3.566   2.655   5.740
  718SOL    HW1 3053   3.633   2.723   5.771
  718SOL    HW2 3054   3.478   2.700   5.725
  719SOL     OW 3055   6.842   3.016   1.308
  719SOL    HW1 3056   6.937   3.030   1.334
  719SOL    HW2 3057   6.835   3.013   1.208
  720SOL     OW 3058   2.467   1.369   5.316
  720SOL    HW1 3059   2.371   1.384   5.340
  720SOL    HW2 3060   2.475   1.360   5.217
  721SOL     OW 3061   1.275   0.518   5.217
  721SOL    HW1 3062   1.181   0.503   5.189
  721SOL    HW2 3063   1.278   0.543   5.314
  722SOL     OW 3064   4.339   6.402   4.980
  722SOL    HW1 3065   4.434   6.426   4.998
  722SOL    HW2 3066   4.320   6.409   4.882
  723SOL     OW 3067   2.490   2.468   2.209
  723SOL    HW1 3068   2.553   2.538   2.243
  723SOL    HW2 3069   2.463   2.490   2.115
  724SOL     OW 3070   0.641   1.750   5.272
  724SOL    HW1 3071   0.609   1.789   5.185
  724SOL    HW2 3072   0.596   1.795   5.348
  725SOL     OW 3073   3.035   5.222   1.728
  725SOL    HW1 3074   3.077   5.154   1.789
  725SOL    HW2 3075   2.976   5.175   1.662
  726SOL     OW 3076   2.961   4.901   6.632
  726SOL    HW1 3077   2.883   4.922   6.691
  726SOL    HW2 3078   3.046   4.919   6.681
  727SOL     OW 3079   3.637   5.503   4.316
  727SOL    HW1 3080   3.726   5.523   4.274
  727SOL    HW2 3081   3.567   5.560   4.272
  728SOL     OW 3082   6.927   3.868   5.525
  728SOL    HW1 3083   6.861   3.887   5.598
  728SOL    HW2 3084   6.996   3.940   5.522
  729SOL     OW 3085   1.561   0.880   0.478
  729SOL    HW1 3086   1.636   0.813   0.471
  729SOL    HW2 3087   1.598   0.972   0.465
  730SOL     OW 3088   6.187   0.266   3.322
  730SOL    HW1 3089   6.122   0.334   3.356
  730SOL    HW2 3090   6.219   0.293   3.231
  731SOL     OW 3091   5.639   3.029   5.080
  731SOL    HW1 3092   5.558   3.038   5.138
  731SOL    HW2 3093   5.633   3.094   5.004
  732SOL     OW 3094   0.701   2.395   1.331
  732SOL    HW1 3095   0.749   2.475   1.365
  732SOL    HW2 3096   0.702   2.323   1.400
  733SOL     OW 3097   5.077   4.122   3.841
  733SOL    HW1 3098   5.108   4.211   3.875
  733SOL    HW2 3099   5.112   4.108   3.748
  734SOL     OW 3100   0.543   4.650   1.707
  734SOL    HW1 3101   0.454   4.687   1.683
  734SOL    HW2 3102   0.533   4.554   1.736
  735SOL     OW 3103   2.277   3.602   0.786
  735SOL    HW1 3104   2.290   3.566   0.693
  735SOL    HW2 3105   2.265   3.526   0.849
  736SOL     OW 3106   6.096   6.564   2.826
  736SOL    HW1 3107   6.043   6.480   2.829
  736SOL    HW2 3108   6.123   6.583   2.731
  737SOL     OW 3109   4.882   3.776   1.205
  737SOL    HW1 3110   4.913   3.856   1.257
  737SOL    HW2 3111   4.859   3.702   1.267
  738SOL     OW 3112   0.805   4.693   4.197
  738SOL    HW1 3113   0.772   4.765   4.259
  738SOL    HW2 3114   0.905   4.702   4.186
  739SOL     OW 3115   4.731   6.621   5.945
  739SOL    HW1 3116   4.689   6.708   5.973
  739SOL    HW2 3117   4.830   6.631   5.941
  740SOL     OW 3118   5.604   0.537   0.966
  740SOL    HW1 3119   5.554   0.623   0.959
  740SOL    HW2 3120   5.656   0.535   1.051
  741SOL     OW 3121   1.322   5.851   3.028
  741SOL    HW1 3122   1.299   5.878   2.934
  741SOL    HW2 3123   1.367   5.928   3.074
  742SOL     OW 3124   1.990   6.559   3.455
  742SOL    HW1 3125   1.913   6.600   3.405
  742SOL    HW2 3126   2.006   6.467   3.421
  743SOL     OW 3127   1.002   3.907   3.919
  743SOL    HW1 3128   1.084   3.850   3.927
  743SOL    HW2 3129   0.998   3.949   3.829
  744SOL     OW 3130   6.990   6.197   7.010
  744SOL    HW1 3131   0.041   6.132   6.984
  744SOL    HW2 3132   0.005   6.290   7.000
  745SOL     OW 3133   0.799   5.265   4.507
  745SOL    HW1 3134   0.863   5.201   4.466
  745SOL    HW2 3135   0.754   5.319   4.436
  746SOL     OW 3136   0.237   6.258   5.378
  746SOL    HW1 3137   0.307   6.264   5.307
  746SOL    HW2 3138   0.220   6.348   5.418
  747SOL     OW 3139   4.734   4.996   3.998
  747SOL    HW1 3140   4.689   5.081   4.026
  747SOL    HW2 3141   4.763   4.946   4.079
  748SOL     OW 3142   4.432   4.486   1.158
  748SOL    HW1 3143   4.476   4.556   1.102
  748SOL    HW2 3144   4.332   4.495   1.149
  749SOL     OW 3145   0.343   3.121   5.123
  749SOL    HW1 3146   0.249   3.154   5.114
  749SOL    HW2 3147   0.406   3.199   5.124
  750SOL     OW 3148   3.122   3.312   0.481
  750SOL    HW1 3149   3.062   3.288   0.557
  750SOL    HW2 3150   3.216   3.289   0.504
  751SOL     OW 3151   4.271   2.112   0.549
  751SOL    HW1 3152   4.309   2.158   0.628
  751SOL    HW2 3153   4.225   2.028   0.578
  752SOL     OW 3154   4.681   2.153   1.882
  752SOL    HW1 3155   4.734   2.231   1.847
  752SOL    HW2 3156   4.741   2.092   1.934
  753SOL     OW 3157   1.509   3.522   4.848
  753SOL    HW1 3158   1.488   3.446   4.787
  753SOL    HW2 3159   1.482   3.499   4.941
  754SOL     OW 3160   5.302   3.787   6.636
  754SOL    HW1 3161   5.395   3.823   6.624
  754SOL    HW2 3162   5.251   3.845   6.699
  755SOL     OW 3163   0.879   5.766   7.002
  755SOL    HW1 3164   0.876   5.723   0.073
  755SOL    HW2 3165   0.837   5.706   6.935
  756SOL     OW 3166   4.788   0.596   2.188
  756SOL    HW1 3167   4.887   0.605   2.186
  756SOL    HW2 3168   4.746   0.686   2.195
  757SOL     OW 3169   0.876   6.590   3.658
  757SOL    HW1 3170   0.936   6.604   3.737
  757SOL    HW2 3171   0.805   6.660   3.658
  758SOL     OW 3172   3.478   1.456   1.497
  758SOL    HW1 3173   3.386   1.419   1.511
  758SOL    HW2 3174   3.494   1.533   1.560
  759SOL     OW 3175   0.143   1.111   0.367
  759SOL    HW1 3176   0.105   1.203   0.361
  759SOL    HW2 3177   0.169   1.093   0.462
  760SOL     OW 3178   4.802   1.637   6.464
  760SOL    HW1 3179   4.778   1.550   6.506
  760SOL    HW2 3180   4.778   1.634   6.367
  761SOL     OW 3181   6.120   3.704   0.252
  761SOL    HW1 3182   6.137   3.728   0.157
  761SOL    HW2 3183   6.041   3.755   0.286
  762SOL     OW 3184   2.141   6.050   3.389
  762SOL    HW1 3185   2.192   6.070   3.305
  762SOL    HW2 3186   2.160   5.956   3.418
  763SOL     OW 3187   3.931   5.924   0.000
  763SOL    HW1 3188   3.871   5.851   0.033
  763SOL    HW2 3189   4.021   5.914   0.043
  764SOL     OW 3190   3.050   1.202   3.516
  764SOL    HW1 3191   2.994   1.279   3.485
  764SOL    HW2 3192   3.103   1.229   3.596
  765SOL     OW 3193   0.998   6.278   1.159
  765SOL    HW1 3194   0.950   6.202   1.202
  765SOL    HW2 3195   1.006   6.263   1.061
  766SOL     OW 3196   7.000   1.044   6.791
  766SOL    HW1 3197   0.009   1.080   6.880
  766SOL    HW2 3198   6.965   1.119   6.734
  767SOL     OW 3199   0.766   6.849   1.880
  767SOL    HW1 3200   0.744   6.898   1.796
  767SOL    HW2 3201   0.865   6.849   1.894
  768SOL     OW 3202   2.115   0.412   2.992
  768SOL    HW1 3203   2.033   0.364   2.961
  768SOL    HW2 3204   2.101   0.445   3.086
  769SOL     OW 3205   3.196   0.364   4.439
  769SOL    HW1 3206   3.231   0.437   4.499
  769SOL    HW2 3207   3.232   0.276   4.469
  770SOL     OW 3208   3.048   5.557   3.331
  770SOL    HW1 3209   3.024   5.581   3.237
  770SOL    HW2 3210   2.966   5.523   3.378
  771SOL     OW 3211   1.988   5.413   2.594
  771SOL    HW1 3212   1.975   5.469   2.512
  771SOL    HW2 3213   1.941   5.326   2.583
  772SOL     OW 3214   6.985   4.657   0.340
  772SOL    HW1 3215   7.015   4.741   0.295
  772SOL    HW2 3216   0.012   4.648   0.428
  773SOL     OW 3217   0.043   3.065   3.871
  773SOL    HW1 3218   0.105   3.000   3.827
  773SOL    HW2 3219   7.000   3.015   3.930
  774SOL     OW 3220   1.855   1.982   2.246
  774SOL    HW1 3221   1.942   1.944   2.279
  774SOL    HW2 3222   1.786   1.910   2.243
  775SOL     OW 3223   1.266   1.950   4.226
  775SOL    HW1 3224   1.168   1.953   4.210
  775SOL    HW2 3225   1.314   1.948   4.138
  776SOL     OW 3226   0.485   6.881   5.962
  776SOL    HW1 3227   0.520   6.962   6.010
  776SOL    HW2 3228   0.541   6.802   5.985
  777SOL     OW 3229   3.556   0.976   1.115
  777SOL    HW1 3230   3.487   0.914   1.077
  777SOL    HW2 3231   3.565   1.057   1.057
  778SOL     OW 3232   4.109   0.886   3.879
  778SOL    HW1 3233   4.058   0.812   3.836
  778SOL    HW2 3234   4.143   0.949   3.809
  779SOL     OW 3235   0.248   1.865   1.959
  779SOL    HW1 3236   0.310   1.787   1.951
  779SOL    HW2 3237   0.291   1.947   1.922
  780SOL     OW 3238   5.901   2.728   4.257
  780SOL    HW1 3239   5.875   2.703   4.350
  780SOL    HW2 3240   5.885   2.651   4.196
  781SOL     OW 3241   5.811   1.361   6.058
  781SOL    HW1 3242   5.763   1.315   6.133
  781SOL    HW2 3243   5.761   1.345   5.972
  782SOL     OW 3244   0.709   3.772   0.734
  782SOL    HW1 3245   0.714   3.720   0.818
  782SOL    HW2 3246   0.632   3.741   0.679
  783SOL     OW 3247   3.222   5.289   0.308
  783SOL    HW1 3248   3.123   5.277   0.307
  783SOL    HW2 3249   3.256   5.293   0.214
  784SOL     OW 3250   4.416   0.522   4.997
  784SOL    HW1 3251   4.426   0.469   4.914
  784SOL    HW2 3252   4.504   0.524   5.046
  785SOL     OW 3253   6.410   1.595   2.517
  785SOL    HW1 3254   6.509   1.610   2.520
  785SOL    HW2 3255   6.380   1.558   2.605
  786SOL     OW 3256   0.029   0.511   6.932
  786SOL    HW1 3257   0.123   0.529   6.959
  786SOL    HW2 3258   6.989   0.583   6.968
  787SOL     OW 3259   3.272   1.343   6.057
  787SOL    HW1 3260   3.233   1.259   6.093
  787SOL    HW2 3261   3.203   1.416   6.062
  788SOL     OW 3262   2.026   3.302   4.233
  788SOL    HW1 3263   1.932   3.333   4.218
  788SOL    HW2 3264   2.026   3.220   4.290
  789SOL     OW 3265   6.468   4.141   2.407
  789SOL    HW1 3266   6.541   4.136   2.475
  789SOL    HW2 3267   6.394   4.200   2.441
  790SOL     OW 3268   2.397   1.519   4.166
  790SOL    HW1 3269   2.494   1.502   4.181
  790SOL    HW2 3270   2.385   1.587   4.094
  791SOL     OW 3271   4.014   0.243   4.238
  791SOL    HW1 3272   4.066   0.197   4.311
  791SOL    HW2 3273   3.982   0.331   4.271
  792SOL     OW 3274   6.198   0.088   1.867
  792SOL    HW1 3275   6.288   0.092   1.826
  792SOL    HW2 3276   6.187   0.000   1.914
  793SOL     OW 3277   4.646   6.054   2.097
  793SOL    HW1 3278   4.688   6.046   2.007
  793SOL    HW2 3279   4.600   6.142   2.105
  794SOL     OW 3280   2.600   4.965   5.309
  794SOL    HW1 3281   2.619   4.892   5.375
  794SOL    HW2 3282   2.670   4.963   5.237
  795SOL     OW 3283   3.315   5.240   5.638
  795SOL    HW1 3284   3.260   5.323   5.625
  795SOL    HW2 3285   3.314   5.186   5.553
  796SOL     OW 3286   0.397   2.115   5.941
  796SOL    HW1 3287   0.394   2.192   5.877
  796SOL    HW2 3288   0.427   2.146   6.031
  797SOL     OW 3289   4.794   2.409   2.408
  797SOL    HW1 3290   4.851   2.442   2.333
  797SOL    HW2 3291   4.703   2.387   2.374
  798SOL     OW 3292   4.314   0.559   1.104
  798SOL    HW1 3293   4.413   0.548   1.109
  798SOL    HW2 3294   4.270   0.492   1.163
  799SOL     OW 3295   6.499   1.980   3.209
  799SOL    HW1 3296   6.590   1.962   3.170
  799SOL    HW2 3297   6.504   2.057   3.272
  800SOL     OW 3298   5.402   0.773   2.328
  800SOL    HW1 3299   5.432   0.761   2.234
  800SOL    HW2 3300   5.327   0.710   2.348
  801SOL     OW 3301   1.055   2.752   3.336
  801SOL    HW1 3302   1.046   2.676   3.272
  801SOL    HW2 3303   1.152   2.771   3.351
  802SOL     OW 3304   4.591   1.204   0.306
  802SOL    HW1 3305   4.663   1.273   0.301
  802SOL    HW2 3306   4.533   1.211   0.225
  803SOL     OW 3307   5.993   6.359   4.630
  803SOL    HW1 3308   6.053   6.339   4.553
  803SOL    HW2 3309   5.932   6.281   4.647
  804SOL     OW 3310   6.691   6.588   0.705
  804SOL    HW1 3311   6.621   6.604   0.634
  804SOL    HW2 3312   6.781   6.610   0.668
  805SOL     OW 3313   4.375   2.767   5.744
  805SOL    HW1 3314   4.426   2.703   5.802
  805SOL    HW2 3315   4.286   2.787   5.786
  806SOL     OW 3316   4.097   1.426   5.293
  806SOL    HW1 3317   4.187   1.388   5.311
  806SOL    HW2 3318   4.030   1.352   5.286
  807SOL     OW 3319   1.211   1.114   3.675
  807SOL    HW1 3320   1.126   1.167   3.677
  807SOL    HW2 3321   1.225   1.071   3.764
  808SOL     OW 3322   5.036   3.509   5.958
  808SOL    HW1 3323   5.128   3.501   5.996
  808SOL    HW2 3324   4.969   3.497   6.031
  809SOL     OW 3325   1.246   4.907   1.062
  809SOL    HW1 3326   1.288   4.995   1.083
  809SOL    HW2 3327   1.298   4.834   1.106
  810SOL     OW 3328   4.420   3.242   0.999
  810SOL    HW1 3329   4.344   3.287   0.952
  810SOL    HW2 3330   4.410   3.253   1.098
  811SOL     OW 3331   4.563   6.063   3.452
  811SOL    HW1 3332   4.513   6.006   3.387
  811SOL    HW2 3333   4.646   6.015   3.482
  812SOL     OW 3334   6.846   0.573   1.184
  812SOL    HW1 3335   6.882   0.639   1.249
  812SOL    HW2 3336   6.809   0.621   1.104
  813SOL     OW 3337   4.592   6.234   2.921
  813SOL    HW1 3338   4.599   6.218   3.019
  813SOL    HW2 3339   4.498   6.258   2.898
  814SOL     OW 3340   5.291   6.391   2.616
  814SOL    HW1 3341   5.292   6.353   2.708
  814SOL    HW2 3342   5.251   6.483   2.618
  815SOL     OW 3343   6.272   2.488   1.857
  815SOL    HW1 3344   6.195   2.544   1.826
  815SOL    HW2 3345   6.334   2.472   1.779
  816SOL     OW 3346   6.760   6.423   0.458
  816SOL    HW1 3347   6.667   6.458   0.469
  816SOL    HW2 3348   6.822   6.474   0.517
  817SOL     OW 3349   1.731   4.401   2.473
  817SOL    HW1 3350   1.777   4.360   2.394
  817SOL    HW2 3351   1.765   4.494   2.487
  818SOL     OW 3352   6.322   2.995   0.320
  818SOL    HW1 3353   6.308   3.093   0.311
  818SOL    HW2 3354   6.248   2.955   0.374
  819SOL     OW 3355   6.257   2.747   4.587
  819SOL    HW1 3356   6.268   2.799   4.502
  819SOL    HW2 3357   6.178   2.781   4.637
  820SOL     OW 3358   1.176   2.989   4.798
  820SOL    HW1 3359   1.122   3.050   4.741
  820SOL    HW2 3360   1.262   2.968   4.751
  821SOL     OW 3361   2.159   4.808   0.684
  821SOL    HW1 3362   2.145   4.876   0.756
  821SOL    HW2 3363   2.076   4.799   0.629
  822SOL     OW 3364   0.965   4.635   4.755
  822SOL    HW1 3365   1.027   4.641   4.833
  822SOL    HW2 3366   0.976   4.546   4.710
  823SOL     OW 3367   4.997   4.524   6.449
  823SOL    HW1 3368   5.093   4.551   6.456
  823SOL    HW2 3369   4.944   4.601   6.414
  824SOL     OW 3370   4.627   1.200   4.788
  824SOL    HW1 3371   4.627   1.296   4.761
  824SOL    HW2 3372   4.689   1.186   4.865
  825SOL     OW 3373   2.154   3.105   2.498
  825SOL    HW1 3374   2.206   3.045   2.437
  825SOL    HW2 3375   2.058   3.078   2.496
  826SOL     OW 3376   5.800   3.978   0.749
  826SOL    HW1 3377   5.715   4.021   0.717
  826SOL    HW2 3378   5.779   3.917   0.826
  827SOL     OW 3379   3.586   5.638   5.955
  827SOL    HW1 3380   3.582   5.734   5.983
  827SOL    HW2 3381   3.498   5.594   5.972
  828SOL     OW 3382   6.099   0.714   5.142
  828SOL    HW1 3383   6.108   0.641   5.211
  828SOL    HW2 3384   6.069   0.674   5.055
  829SOL     OW 3385   3.068   3.208   4.052
  829SOL    HW1 3386   3.116   3.127   4.018
  829SOL    HW2 3387   3.131   3.262   4.108
  830SOL     OW 3388   5.152   4.937   5.561
  830SOL    HW1 3389   5.115   4.885   5.485
  830SOL    HW2 3390   5.244   4.904   5.583
  831SOL     OW 3391   0.016   6.513   4.731
  831SOL    HW1 3392   6.952   6.486   4.683
  831SOL    HW2 3393   0.086   6.442   4.718
  832SOL     OW 3394   2.481   1.241   0.123
  832SOL    HW1 3395   2.425   1.309   0.075
  832SOL    HW2 3396   2.482   1.262   0.221
  833SOL     OW 3397   6.441   6.291   6.311
  833SOL    HW1 3398   6.370   6.260   6.248
  833SOL    HW2 3399   6.406   6.288   6.405
  834SOL     OW 3400   3.688   3.630   3.090
  834SOL    HW1 3401   3.649   3.694   3.157
  834SOL    HW2 3402   3.667   3.663   2.998
  835SOL     OW 3403   4.249   6.771   3.502
  835SOL    HW1 3404   4.269   6.673   3.499
  835SOL    HW2 3405   4.156   6.785   3.534
  836SOL     OW 3406   3.588   6.487   6.959
  836SOL    HW1 3407   3.652   6.518   0.010
  836SOL    HW2 3408   3.575   6.388   6.966
  837SOL     OW 3409   5.360   0.497   0.311
  837SOL    HW1 3410   5.372   0.481   0.213
  837SOL    HW2 3411   5.284   0.560   0.325
  838SOL     OW 3412   0.649   6.879   5.374
  838SOL    HW1 3413   0.664   6.780   5.376
  838SOL    HW2 3414   0.557   6.899   5.406
  839SOL     OW 3415   2.801   1.655   3.172
  839SOL    HW1 3416   2.742   1.729   3.139
  839SOL    HW2 3417   2.846   1.683   3.257
  840SOL     OW 3418   0.522   1.104   6.655
  840SOL    HW1 3419   0.551   1.162   6.731
  840SOL    HW2 3420   0.469   1.027   6.690
  841SOL     OW 3421   6.196   3.963   7.017
  841SOL    HW1 3422   6.099   3.949   6.999
  841SOL    HW2 3423   6.250   3.913   6.950
  842SOL     OW 3424   4.062   5.408   3.394
  842SOL    HW1 3425   4.162   5.408   3.392
  842SOL    HW2 3426   4.030   5.352   3.470
  843SOL     OW 3427   6.042   2.558   0.301
  843SOL    HW1 3428   6.001   2.636   0.347
  843SOL    HW2 3429   5.996   2.474   0.331
  844SOL     OW 3430   5.051   6.015   0.663
  844SOL    HW1 3431   5.124   5.946   0.660
  844SOL    HW2 3432   5.010   6.015   0.754
  845SOL     OW 3433   6.125   2.988   5.382
  845SOL    HW1 3434   6.032   2.968   5.412
  845SOL    HW2 3435   6.143   2.943   5.294
  846SOL     OW 3436   6.130   1.604   0.299
  846SOL    HW1 3437   6.033   1.625   0.293
  846SOL    HW2 3438   6.156   1.593   0.394
  847SOL     OW 3439   6.085   3.537   1.173
  847SOL    HW1 3440   6.178   3.502   1.189
  847SOL    HW2 3441   6.021   3.461   1.169
  848SOL     OW 3442   6.338   0.659   6.239
  848SOL    HW1 3443   6.338   0.569   6.284
  848SOL    HW2 3444   6.324   0.647   6.141
  849SOL     OW 3445   0.086   6.001   5.311
  849SOL    HW1 3446   0.175   5.966   5.282
  849SOL    HW2 3447   0.098   6.066   5.386
  850SOL     OW 3448   4.237   0.635   3.763
  850SOL    HW1 3449   4.286   0.550   3.743
  850SOL    HW2 3450   4.250   0.700   3.689
  851SOL     OW 3451   0.349   1.440   6.764
  851SOL    HW1 3452   0.443   1.438   6.798
  851SOL    HW2 3453   0.341   1.508   6.692
  852SOL     OW 3454   2.279   2.301   6.944
  852SOL    HW1 3455   2.284   2.292   6.844
  852SOL    HW2 3456   2.339   2.234   6.986
  853SOL     OW 3457   0.847   3.112   2.968
  853SOL    HW1 3458   0.868   3.020   3.003
  853SOL    HW2 3459   0.757   3.140   3.002
  854SOL     OW 3460   5.660   6.337   2.932
  854SOL    HW1 3461   5.617   6.392   2.861
  854SOL    HW2 3462   5.617   6.247   2.937
  855SOL     OW 3463   5.613   0.425   1.676
  855SOL    HW1 3464   5.626   0.512   1.630
  855SOL    HW2 3465   5.647   0.351   1.618
  856SOL     OW 3466   1.565   0.601   5.220
  856SOL    HW1 3467   1.471   0.609   5.188
  856SOL    HW2 3468   1.591   0.684   5.269
  857SOL     OW 3469   5.604   4.245   1.180
  857SOL    HW1 3470   5.638   4.178   1.247
  857SOL    HW2 3471   5.670   4.320   1.172
  858SOL     OW 3472   2.753   4.843   1.654
  858SOL    HW1 3473   2.843   4.829   1.613
  858SOL    HW2 3474   2.712   4.755   1.677
  859SOL     OW 3475   5.659   4.891   6.875
  859SOL    HW1 3476   5.598   4.846   6.940
  859SOL    HW2 3477   5.735   4.829   6.853
  860SOL     OW 3478   3.725   4.644   0.101
  860SOL    HW1 3479   3.781   4.599   0.171
  860SOL    HW2 3480   3.746   4.604   0.012
  861SOL     OW 3481   3.055   6.682   4.830
  861SOL    HW1 3482   3.064   6.718   4.923
  861SOL    HW2 3483   3.099   6.593   4.825
  862SOL     OW 3484   6.145   4.138   4.901
  862SOL    HW1 3485   6.066   4.083   4.875
  862SOL    HW2 3486   6.204   4.151   4.822
  863SOL     OW 3487   0.364   0.631   0.866
  863SOL    HW1 3488   0.275   0.589   0.885
  863SOL    HW2 3489   0.418   0.569   0.809
  864SOL     OW 3490   4.998   4.108   3.424
  864SOL    HW1 3491   4.945   4.187   3.455
  864SOL    HW2 3492   5.079   4.097   3.482
  865SOL     OW 3493   1.007   6.894   4.262
  865SOL    HW1 3494   1.050   6.942   4.186
  865SOL    HW2 3495   1.067   6.897   4.341
  866SOL     OW 3496   2.522   1.600   2.115
  866SOL    HW1 3497   2.534   1.509   2.075
  866SOL    HW2 3498   2.431   1.607   2.155
  867SOL     OW 3499   3.109   2.945   0.456
  867SOL    HW1 3500   3.044   3.016   0.433
  867SOL    HW2 3501   3.154   2.912   0.372
  868SOL     OW 3502   5.882   0.262   2.471
  868SOL    HW1 3503   5.832   0.178   2.450
  868SOL    HW2 3504   5.949   0.280   2.399
  869SOL     OW 3505   6.593   5.974   2.406
  869SOL    HW1 3506   6.541   6.001   2.487
  869SOL    HW2 3507   6.670   6.036   2.393
  870SOL     OW 3508   0.406   2.895   1.755
  870SOL    HW1 3509   0.349   2.869   1.678
  870SOL    HW2 3510   0.407   2.994   1.765
  871SOL     OW 3511   6.825   2.664   2.043
  871SOL    HW1 3512   6.789   2.579   2.079
  871SOL    HW2 3513   6.814   2.737   2.111
  872SOL     OW 3514   6.411   2.571   4.785
  872SOL    HW1 3515   6.349   2.644   4.757
  872SOL    HW2 3516   6.503   2.609   4.798
  873SOL     OW 3517   3.901   6.829   2.906
  873SOL    HW1 3518   3.895   6.924   2.937
  873SOL    HW2 3519   3.809   6.792   2.894
  874SOL     OW 3520   1.882   4.554   5.305
  874SOL    HW1 3521   1.862   4.467   5.349
  874SOL    HW2 3522   1.939   4.539   5.224
  875SOL     OW 3523   5.278   4.435   0.546
  875SOL    HW1 3524   5.185   4.398   0.550
  875SOL    HW2 3525   5.327   4.411   0.629
  876SOL     OW 3526   6.548   3.559   2.471
  876SOL    HW1 3527   6.463   3.609   2.487
  876SOL    HW2 3528   6.577   3.514   2.555
  877SOL     OW 3529   5.275   5.319   0.163
  877SOL    HW1 3530   5.219   5.402   0.163
  877SOL    HW2 3531   5.224   5.245   0.207
  878SOL     OW 3532   3.546   5.211   0.121
  878SOL    HW1 3533   3.571   5.160   0.203
  878SOL    HW2 3534   3.584   5.165   0.041
  879SOL     OW 3535   4.850   1.998   2.862
  879SOL    HW1 3536   4.836   1.943   2.780
  879SOL    HW2 3537   4.761   2.031   2.895
  880SOL     OW 3538   3.886   4.574   0.305
  880SOL    HW1 3539   3.922   4.481   0.314
  880SOL    HW2 3540   3.852   4.605   0.393
  881SOL     OW 3541   4.291   4.701   4.585
  881SOL    HW1 3542   4.334   4.684   4.674
  881SOL    HW2 3543   4.353   4.672   4.512
  882SOL     OW 3544   1.281   0.614   4.585
  882SOL    HW1 3545   1.309   0.705   4.553
  882SOL    HW2 3546   1.225   0.570   4.515
  883SOL     OW 3547   3.272   5.082   6.060
  883SOL    HW1 3548   3.241   4.987   6.061
  883SOL    HW2 3549   3.266   5.120   6.153
  884SOL     OW 3550   6.360   3.585   1.753
  884SOL    HW1 3551   6.381   3.682   1.762
  884SOL    HW2 3552   6.293   3.559   1.822
  885SOL     OW 3553   5.583   6.523   0.547
  885SOL    HW1 3554   5.591   6.616   0.583
  885SOL    HW2 3555   5.487   6.496   0.544
  886SOL     OW 3556   3.763   1.059   6.808
  886SOL    HW1 3557   3.820   1.018   6.879
  886SOL    HW2 3558   3.692   0.993   6.781
  887SOL     OW 3559   4.175   0.372   6.625
  887SOL    HW1 3560   4.232   0.451   6.601
  887SOL    HW2 3561   4.103   0.361   6.557
  888SOL     OW 3562   0.112   6.624   3.602
  888SOL    HW1 3563   0.027   6.672   3.582
  888SOL    HW2 3564   0.097   6.525   3.590
  889SOL     OW 3565   6.870   6.338   5.615
  889SOL    HW1 3566   6.957   6.289   5.605
  889SOL    HW2 3567   6.812   6.321   5.536
  890SOL     OW 3568   2.707   4.641   2.197
  890SOL    HW1 3569   2.686   4.737   2.178
  890SOL    HW2 3570   2.729   4.594   2.111
  891SOL     OW 3571   5.506   2.775   1.308
  891SOL    HW1 3572   5.574   2.798   1.378
  891SOL    HW2 3573   5.511   2.678   1.287
  892SOL     OW 3574   2.476   3.744   0.990
  892SOL    HW1 3575   2.565   3.698   0.989
  892SOL    HW2 3576   2.440   3.748   0.897
  893SOL     OW 3577   1.228   0.644   6.983
  893SOL    HW1 3578   1.245   0.614   0.058
  893SOL    HW2 3579   1.248   0.741   6.976
  894SOL     OW 3580   1.059   5.749   4.366
  894SOL    HW1 3581   1.055   5.838   4.412
  894SOL    HW2 3582   1.034   5.677   4.431
  895SOL     OW 3583   2.026   0.137   4.647
  895SOL    HW1 3584   2.124   0.136   4.630
  895SOL    HW2 3585   1.984   0.211   4.594
  896SOL     OW 3586   5.972   6.352   3.587
  896SOL    HW1 3587   5.878   6.331   3.614
  896SOL    HW2 3588   6.024   6.380   3.667
  897SOL     OW 3589   5.363   2.728   6.559
  897SOL    HW1 3590   5.279   2.692   6.601
  897SOL    HW2 3591   5.375   2.823   6.584
  898SOL     OW 3592   5.096   6.310   3.780
  898SOL    HW1 3593   5.059   6.217   3.780
  898SOL    HW2 3594   5.098   6.345   3.874
  899SOL     OW 3595   0.300   4.985   6.518
  899SOL    HW1 3596   0.206   4.970   6.488
  899SOL    HW2 3597   0.362   4.975   6.441
  900SOL     OW 3598   0.546   6.517   3.339
  900SOL    HW1 3599   0.456   6.556   3.359
  900SOL    HW2 3600   0.602   6.517   3.421
  901SOL     OW 3601   6.590   0.968   4.250
  901SOL    HW1 3602   6.688   0.962   4.271
  901SOL    HW2 3603   6.578   0.981   4.152
  902SOL     OW 3604   0.010   0.574   6.136
  902SOL    HW1 3605   6.958   0.555   6.069
  902SOL    HW2 3606   0.100   0.566   6.092
  903SOL     OW 3607   0.067   4.389   1.024
  903SOL    HW1 3608   0.005   4.463   0.996
  903SOL    HW2 3609   0.136   4.426   1.086
  904SOL     OW 3610   1.886   1.363   3.280
  904SOL    HW1 3611   1.855   1.435   3.218
  904SOL    HW2 3612   1.924   1.287   3.227
  905SOL     OW 3613   5.331   2.332   5.963
  905SOL    HW1 3614   5.393   2.401   5.999
  905SOL    HW2 3615   5.236   2.362   5.976
  906SOL     OW 3616   0.032   4.486   6.075
  906SOL    HW1 3617   0.124   4.451   6.058
  906SOL    HW2 3618   7.009   4.434   6.149
  907SOL     OW 3619   6.102   2.336   2.635
  907SOL    HW1 3620   6.158   2.399   2.689
  907SOL    HW2 3621   6.007   2.344   2.664
  908SOL     OW 3622   1.866   0.118   4.070
  908SOL    HW1 3623   1.815   0.193   4.112
  908SOL    HW2 3624   1.852   0.034   4.122
  909SOL     OW 3625   3.062   0.788   1.006
  909SOL    HW1 3626   3.028   0.841   0.929
  909SOL    HW2 3627   2.988   0.731   1.043
  910SOL     OW 3628   1.599   1.174   0.446
  910SOL    HW1 3629   1.556   1.261   0.468
  910SOL    HW2 3630   1.652   1.183   0.361
  911SOL     OW 3631   0.382   4.318   1.522
  911SOL    HW1 3632   0.284   4.300   1.530
  911SOL    HW2 3633   0.413   4.367   1.603
  912SOL     OW 3634   6.871   1.313   5.991
  912SOL    HW1 3635   6.787   1.347   6.032
  912SOL    HW2 3636   6.897   1.226   6.033
  913SOL     OW 3637   2.572   0.693   2.957
  913SOL    HW1 3638   2.497   0.648   2.907
  913SOL    HW2 3639   2.548   0.788   2.973
  914SOL     OW 3640   2.704   5.904   3.868
  914SOL    HW1 3641   2.801   5.882   3.868
  914SOL    HW2 3642   2.672   5.916   3.774
  915SOL     OW 3643   0.764   2.846   6.982
  915SOL    HW1 3644   0.812   2.763   7.012
  915SOL    HW2 3645   0.729   2.894   0.043
  916SOL     OW 3646   2.561   2.426   3.036
  916SOL    HW1 3647   2.547   2.451   2.941
  916SOL    HW2 3648   2.513   2.491   3.095
  917SOL     OW 3649   3.887   1.163   1.335
  917SOL    HW1 3650   3.846   1.078   1.303
  917SOL    HW2 3651   3.825   1.207   1.400
  918SOL     OW 3652   2.587   5.978   6.334
  918SOL    HW1 3653   2.518   6.051   6.337
  918SOL    HW2 3654   2.561   5.911   6.264
  919SOL     OW 3655   1.100   5.503   1.627
  919SOL    HW1 3656   1.030   5.432   1.619
  919SOL    HW2 3657   1.132   5.507   1.722
  920SOL     OW 3658   2.469   0.171   3.091
  920SOL    HW1 3659   2.444   0.246   3.029
  920SOL    HW2 3660   2.565   0.181   3.118
  921SOL     OW 3661   5.752   4.962   4.625
  921SOL    HW1 3662   5.816   4.947   4.700
  921SOL    HW2 3663   5.800   4.949   4.538
  922SOL     OW 3664   2.752   3.560   6.991
  922SOL    HW1 3665   2.652   3.564   6.990
  922SOL    HW2 3666   2.787   3.582   6.899
  923SOL     OW 3667   3.138   6.338   6.725
  923SOL    HW1 3668   3.146   6.409   6.794
  923SOL    HW2 3669   3.177   6.370   6.639
  924SOL     OW 3670   6.212   3.361   2.945
  924SOL    HW1 3671   6.151   3.308   3.004
  924SOL    HW2 3672   6.210   3.323   2.852
  925SOL     OW 3673   0.216   2.066   5.422
  925SOL    HW1 3674   0.281   2.135   5.392
  925SOL    HW2 3675   0.140   2.061   5.357
  926SOL     OW 3676   4.851   6.068   0.472
  926SOL    HW1 3677   4.910   6.064   0.553
  926SOL    HW2 3678   4.850   6.161   0.436
  927SOL     OW 3679   4.476   4.611   4.424
  927SOL    HW1 3680   4.525   4.556   4.491
  927SOL    HW2 3681   4.491   4.574   4.332
  928SOL     OW 3682   1.700   0.234   0.763
  928SOL    HW1 3683   1.675   0.302   0.693
  928SOL    HW2 3684   1.751   0.279   0.836
  929SOL     OW 3685   0.328   2.911   2.750
  929SOL    HW1 3686   0.249   2.890   2.807
  929SOL    HW2 3687   0.297   2.956   2.666
  930SOL     OW 3688   5.469   4.853   4.082
  930SOL    HW1 3689   5.502   4.760   4.065
  930SOL    HW2 3690   5.498   4.883   4.174
  931SOL     OW 3691   1.472   2.319   3.052
  931SOL    HW1 3692   1.525   2.237   3.075
  931SOL    HW2 3693   1.411   2.299   2.976
  932SOL     OW 3694   4.212   5.752   0.960
  932SOL    HW1 3695   4.233   5.698   0.878
  932SOL    HW2 3696   4.233   5.849   0.942
  933SOL     OW 3697   1.422   4.968   2.662
  933SOL    HW1 3698   1.339   4.942   2.613
  933SOL    HW2 3699   1.401   4.981   2.759
  934SOL     OW 3700   3.487   1.311   5.357
  934SOL    HW1 3701   3.471   1.407   5.335
  934SOL    HW2 3702   3.400   1.261   5.353
  935SOL     OW 3703   4.114   3.346   6.029
  935SOL    HW1 3704   4.157   3.406   5.961
  935SOL    HW2 3705   4.019   3.330   6.003
  936SOL     OW 3706   0.711   0.338   1.045
  936SOL    HW1 3707   0.653   0.256   1.045
  936SOL    HW2 3708   0.762   0.343   0.959
  937SOL     OW 3709   4.344   1.671   4.342
  937SOL    HW1 3710   4.400   1.749   4.370
  937SOL    HW2 3711   4.264   1.704   4.293
  938SOL     OW 3712   0.315   3.061   5.984
  938SOL    HW1 3713   0.233   3.069   5.926
  938SOL    HW2 3714   0.390   3.024   5.930
  939SOL     OW 3715   5.146   1.319   6.039
  939SOL    HW1 3716   5.139   1.227   6.077
  939SOL    HW2 3717   5.226   1.326   5.980
  940SOL     OW 3718   6.823   0.621   3.107
  940SOL    HW1 3719   6.815   0.702   3.048
  940SOL    HW2 3720   6.746   0.560   3.090
  941SOL     OW 3721   5.789   1.601   3.648
  941SOL    HW1 3722   5.866   1.539   3.666
  941SOL    HW2 3723   5.730   1.562   3.578
  942SOL     OW 3724   5.167   6.682   5.482
  942SOL    HW1 3725   5.149   6.607   5.418
  942SOL    HW2 3726   5.174   6.645   5.575
  943SOL     OW 3727   6.242   2.805   2.207
  943SOL    HW1 3728   6.241   2.814   2.107
  943SOL    HW2 3729   6.223   2.710   2.232
  944SOL     OW 3730   5.820   3.339   4.773
  944SOL    HW1 3731   5.838   3.431   4.806
  944SOL    HW2 3732   5.897   3.308   4.717
  945SOL     OW 3733   5.182   4.378   3.882
  945SOL    HW1 3734   5.280   4.369   3.862
  945SOL    HW2 3735   5.146   4.458   3.835
  946SOL     OW 3736   5.833   3.042   6.132
  946SOL    HW1 3737   5.798   2.973   6.196
  946SOL    HW2 3738   5.755   3.088   6.087
  947SOL     OW 3739   3.670   2.384   6.572
  947SOL    HW1 3740   3.627   2.429   6.493
  947SOL    HW2 3741   3.619   2.406   6.655
  948SOL     OW 3742   3.983   1.401   0.825
  948SOL    HW1 3743   3.953   1.453   0.905
  948SOL    HW2 3744   4.071   1.359   0.843
  949SOL     OW 3745   6.260   5.321   6.743
  949SOL    HW1 3746   6.247   5.420   6.742
  949SOL    HW2 3747   6.193   5.279   6.803
  950SOL     OW 3748   3.985   5.468   0.882
  950SOL    HW1 3749   4.002   5.374   0.852
  950SOL    HW2 3750   4.063   5.525   0.859
  951SOL     OW 3751   0.700   0.471   1.640
  951SOL    HW1 3752   0.630   0.534   1.674
  951SOL    HW2 3753   0.786   0.521   1.627
  952SOL     OW 3754   5.232   0.801   3.239
  952SOL    HW1 3755   5.326   0.824   3.262
  952SOL    HW2 3756   5.221   0.798   3.140
  953SOL     OW 3757   4.424   5.853   6.033
  953SOL    HW1 3758   4.493   5.923   6.017
  953SOL    HW2 3759   4.389   5.861   6.127
  954SOL     OW 3760   5.926   6.862   1.508
  954SOL    HW1 3761   5.899   6.939   1.450
  954SOL    HW2 3762   6.012   6.884   1.554
  955SOL     OW 3763   0.619   5.631   3.319
  955SOL    HW1 3764   0.638   5.562   3.389
  955SOL    HW2 3765   0.660   5.603   3.232
  956SOL     OW 3766   1.606   1.683   1.194
  956SOL    HW1 3767   1.604   1.706   1.291
  956SOL    HW2 3768   1.557   1.597   1.179
  957SOL     OW 3769   1.638   4.695   5.063
  957SOL    HW1 3770   1.663   4.601   5.043
  957SOL    HW2 3771   1.649   4.712   5.161
  958SOL     OW 3772   5.526   1.899   1.560
  958SOL    HW1 3773   5.583   1.981   1.567
  958SOL    HW2 3774   5.526   1.867   1.465
  959SOL     OW 3775   3.013   4.842   2.857
  959SOL    HW1 3776   2.923   4.803   2.876
  959SOL    HW2 3777   3.024   4.853   2.758
  960SOL     OW 3778   2.334   5.935   4.565
  960SOL    HW1 3779   2.427   5.948   4.530
  960SOL    HW2 3780   2.285   5.871   4.506
  961SOL     OW 3781   3.740   6.903   2.026
  961SOL    HW1 3782   3.706   6.812   2.047
  961SOL    HW2 3783   3.665   6.959   1.989
  962SOL     OW 3784   1.660   0.821   3.427
  962SOL    HW1 3785   1.636   0.903   3.479
  962SOL    HW2 3786   1.659   0.842   3.330
  963SOL     OW 3787   6.314   0.384   1.403
  963SOL    HW1 3788   6.242   0.397   1.335
  963SOL    HW2 3789   6.400   0.361   1.357
  964SOL     OW 3790   5.458   3.797   1.626
  964SOL    HW1 3791   5.395   3.846   1.565
  964SOL    HW2 3792   5.445   3.829   1.720
  965SOL     OW 3793   0.235   1.749   0.345
  965SOL    HW1 3794   0.207   1.788   0.258
  965SOL    HW2 3795   0.171   1.777   0.416
  966SOL     OW 3796   6.435   1.274   2.697
  966SOL    HW1 3797   6.379   1.210   2.645
  966SOL    HW2 3798   6.523   1.286   2.652
  967SOL     OW 3799   0.940   5.109   0.210
  967SOL    HW1 3800   0.961   5.156   0.296
  967SOL    HW2 3801   0.959   5.011   0.220
  968SOL     OW 3802   4.568   2.532   2.020
  968SOL    HW1 3803   4.644   2.567   1.966
  968SOL    HW2 3804   4.501   2.605   2.034
  969SOL     OW 3805   4.360   6.576   6.170
  969SOL    HW1 3806   4.411   6.519   6.234
  969SOL    HW2 3807   4.292   6.521   6.123
  970SOL     OW 3808   4.415   1.848   5.281
  970SOL    HW1 3809   4.471   1.777   5.324
  970SOL    HW2 3810   4.401   1.923   5.346
  971SOL     OW 3811   6.687   1.481   1.901
  971SOL    HW1 3812   6.638   1.448   1.820
  971SOL    HW2 3813   6.733   1.405   1.946
  972SOL     OW 3814   6.522   5.082   0.892
  972SOL    HW1 3815   6.552   5.090   0.987
  972SOL    HW2 3816   6.502   4.987   0.871
  973SOL     OW 3817   6.404   4.689   6.437
  973SOL    HW1 3818   6.344   4.750   6.387
  973SOL    HW2 3819   6.355   4.605   6.462
  974SOL     OW 3820   3.087   0.129   3.061
  974SOL    HW1 3821   3.149   0.050   3.067
  974SOL    HW2 3822   3.054   0.153   3.152
  975SOL     OW 3823   2.816   5.911   5.710
  975SOL    HW1 3824   2.912   5.885   5.723
  975SOL    HW2 3825   2.759   5.862   5.775
  976SOL     OW 3826   6.947   2.715   3.193
  976SOL    HW1 3827   6.935   2.814   3.181
  976SOL    HW2 3828   6.861   2.675   3.224
  977SOL     OW 3829   1.581   1.318   3.981
  977SOL    HW1 3830   1.539   1.263   3.909
  977SOL    HW2 3831   1.659   1.269   4.019
  978SOL     OW 3832   5.810   4.201   4.277
  978SOL    HW1 3833   5.809   4.116   4.224
  978SOL    HW2 3834   5.902   4.219   4.311
  979SOL     OW 3835   6.103   0.493   3.046
  979SOL    HW1 3836   6.130   0.479   2.950
  979SOL    HW2 3837   6.051   0.414   3.077
  980SOL     OW 3838   5.379   2.530   3.885
  980SOL    HW1 3839   5.357   2.483   3.800
  980SOL    HW2 3840   5.402   2.461   3.955
  981SOL     OW 3841   1.001   1.596   4.277
  981SOL    HW1 3842   0.963   1.689   4.276
  981SOL    HW2 3843   1.036   1.574   4.186
  982SOL     OW 3844   0.905   2.330   1.112
  982SOL    HW1 3845   0.867   2.415   1.148
  982SOL    HW2 3846   0.869   2.253   1.164
  983SOL     OW 3847   5.966   2.174   3.366
  983SOL    HW1 3848   6.027   2.203   3.440
  983SOL    HW2 3849   5.928   2.255   3.321
  984SOL     OW 3850   4.534   0.828   4.983
  984SOL    HW1 3851   4.499   0.766   5.054
  984SOL    HW2 3852   4.482   0.814   4.899
  985SOL     OW 3853   3.432   5.332   0.484
  985SOL    HW1 3854   3.366   5.311   0.411
  985SOL    HW2 3855   3.446   5.251   0.541
  986SOL     OW 3856   5.079   5.375   6.094
  986SOL    HW1 3857   5.119   5.464   6.069
  986SOL    HW2 3858   4.980   5.380   6.086
  987SOL     OW 3859   2.654   6.655   1.400
  987SOL    HW1 3860   2.664   6.630   1.496
  987SOL    HW2 3861   2.566   6.622   1.366
  988SOL     OW 3862   4.150   2.778   1.105
  988SOL    HW1 3863   4.062   2.798   1.148
  988SOL    HW2 3864   4.135   2.719   1.025
  989SOL     OW 3865   0.908   0.301   6.025
  989SOL    HW1 3866   0.932   0.294   6.121
  989SOL    HW2 3867   0.948   0.385   5.987
  990SOL     OW 3868   5.193   0.510   4.016
  990SOL    HW1 3869   5.193   0.609   4.028
  990SOL    HW2 3870   5.121   0.485   3.951
  991SOL     OW 3871   1.445   2.285   4.648
  991SOL    HW1 3872   1.360   2.334   4.631
  991SOL    HW2 3873   1.427   2.205   4.706
  992SOL     OW 3874   0.320   3.237   6.222
  992SOL    HW1 3875   0.324   3.171   6.146
  992SOL    HW2 3876   0.411   3.275   6.238
  993SOL     OW 3877   3.014   4.892   2.583
  993SOL    HW1 3878   3.043   4.986   2.565
  993SOL    HW2 3879   2.920   4.879   2.550
  994SOL     OW 3880   3.969   3.916   2.596
  994SOL    HW1 3881   3.995   3.995   2.650
  994SOL    HW2 3882   4.016   3.834   2.630
  995SOL     OW 3883   1.921   3.235   6.216
  995SOL    HW1 3884   1.866   3.306   6.259
  995SOL    HW2 3885   1.867   3.151   6.209
  996SOL     OW 3886   1.865   3.131   2.828
  996SOL    HW1 3887   1.866   3.230   2.816
  996SOL    HW2 3888   1.839   3.087   2.742
  997SOL     OW 3889   0.461   0.986   1.131
  997SOL    HW1 3890   0.530   1.049   1.165
  997SOL    HW2 3891   0.501   0.925   1.062
  998SOL     OW 3892   3.606   6.372   2.280
  998SOL    HW1 3893   3.533   6.307   2.304
  998SOL    HW2 3894   3.615   6.377   2.181
  999SOL     OW 3895   6.064   5.515   0.963
  999SOL    HW1 3896   6.023   5.587   0.907
  999SOL    HW2 3897   5.994   5.450   0.990
 1000SOL     OW 3898   2.170   2.303   3.192
 1000SOL    HW1 3899   2.166   2.205   3.211
 1000SOL    HW2 3900   2.236   2.347   3.253
 1001SOL     OW 3901   4.514   6.971   0.034
 1001SOL    HW1 3902   4.483   6.957   0.128
 1001SOL    HW2 3903   4.534   0.048   0.020
 1002SOL     OW 3904   5.537   1.816   6.627
 1002SOL    HW1 3905   5.485   1.901   6.636
 1002SOL    HW2 3906   5.609   1.828   6.559
 1003SOL     OW 3907   2.728   6.092   2.577
 1003SOL    HW1 3908   2.700   6.166   2.515
 1003SOL    HW2 3909   2.661   6.018   2.572
 1004SOL     OW 3910   6.712   0.327   6.632
 1004SOL    HW1 3911   6.775   0.253   6.608
 1004SOL    HW2 3912   6.765   0.409   6.656
 1005SOL     OW 3913   0.334   0.151   2.264
 1005SOL    HW1 3914   0.249   0.098   2.262
 1005SOL    HW2 3915   0.412   0.089   2.263
 1006SOL     OW 3916   2.338   5.058   1.908
 1006SOL    HW1 3917   2.317   4.963   1.930
 1006SOL    HW2 3918   2.337   5.070   1.809
 1007SOL     OW 3919   6.706   1.002   3.655
 1007SOL    HW1 3920   6.704   1.095   3.620
 1007SOL    HW2 3921   6.706   1.003   3.755
 1008SOL     OW 3922   0.910   2.398   3.814
 1008SOL    HW1 3923   0.991   2.378   3.870
 1008SOL    HW2 3924   0.936   2.459   3.739
 1009SOL     OW 3925   6.935   5.702   4.407
 1009SOL    HW1 3926   6.923   5.687   4.309
 1009SOL    HW2 3927   6.849   5.681   4.455
 1010SOL     OW 3928   4.324   2.172   0.142
 1010SOL    HW1 3929   4.255   2.202   0.209
 1010SOL    HW2 3930   4.286   2.099   0.086
 1011SOL     OW 3931   2.818   5.592   4.179
 1011SOL    HW1 3932   2.917   5.606   4.176
 1011SOL    HW2 3933   2.778   5.650   4.249
 1012SOL     OW 3934   6.652   5.269   0.721
 1012SOL    HW1 3935   6.625   5.362   0.749
 1012SOL    HW2 3936   6.575   5.207   0.737
 1013SOL     OW 3937   1.011   1.196   6.943
 1013SOL    HW1 3938   1.012   1.127   7.017
 1013SOL    HW2 3939   0.959   1.161   6.866
 1014SOL     OW 3940   4.685   5.703   6.164
 1014SOL    HW1 3941   4.597   5.738   6.197
 1014SOL    HW2 3942   4.715   5.627   6.221
 1015SOL     OW 3943   4.087   6.861   4.670
 1015SOL    HW1 3944   3.993   6.895   4.662
 1015SOL    HW2 3945   4.138   6.888   4.588
 1016SOL     OW 3946   3.291   2.450   1.178
 1016SOL    HW1 3947   3.302   2.549   1.186
 1016SOL    HW2 3948   3.359   2.404   1.234
 1017SOL     OW 3949   5.123   2.639   0.828
 1017SOL    HW1 3950   5.116   2.540   0.822
 1017SOL    HW2 3951   5.093   2.670   0.918
 1018SOL     OW 3952   1.675   3.259   3.850
 1018SOL    HW1 3953   1.748   3.196   3.877
 1018SOL    HW2 3954   1.589   3.209   3.841
 1019SOL     OW 3955   0.286   1.418   0.011
 1019SOL    HW1 3956   0.197   1.452   0.041
 1019SOL    HW2 3957   0.290   1.418   6.930
 1020SOL     OW 3958   2.046   0.464   0.866
 1020SOL    HW1 3959   1.993   0.490   0.946
 1020SOL    HW2 3960   2.143   0.454   0.891
 1021SOL     OW 3961   6.221   1.018   1.811
 1021SOL    HW1 3962   6.130   0.991   1.842
 1021SOL    HW2 3963   6.215   1.104   1.761
 1022SOL     OW 3964   4.276   4.144   6.137
 1022SOL    HW1 3965   4.307   4.122   6.229
 1022SOL    HW2 3966   4.235   4.063   6.096
 1023SOL     OW 3967   5.644   0.458   2.294
 1023SOL    HW1 3968   5.643   0.359   2.302
 1023SOL    HW2 3969   5.690   0.484   2.209
 1024SOL     OW 3970   6.454   1.842   3.924
 1024SOL    HW1 3971   6.549   1.855   3.953
 1024SOL    HW2 3972   6.418   1.759   3.967
 1025SOL     OW 3973   3.281   4.413   0.740
 1025SOL    HW1 3974   3.230   4.407   0.654
 1025SOL    HW2 3975   3.217   4.422   0.816
 1026SOL     OW 3976   1.805   1.405   0.600
 1026SOL    HW1 3977   1.791   1.357   0.687
 1026SOL    HW2 3978   1.718   1.409   0.551
 1027SOL     OW 3979   3.237   5.531   1.372
 1027SOL    HW1 3980   3.287   5.522   1.286
 1027SOL    HW2 3981   3.155   5.586   1.359
 1028SOL     OW 3982   2.328   6.151   6.880
 1028SOL    HW1 3983   2.359   6.080   6.817
 1028SOL    HW2 3984   2.402   6.172   6.945
 1029SOL     OW 3985   1.774   0.026   0.144
 1029SOL    HW1 3986   1.834   0.090   0.095
 1029SOL    HW2 3987   1.689   0.015   0.093
 1030SOL     OW 3988   3.777   3.087   5.130
 1030SOL    HW1 3989   3.843   3.053   5.197
 1030SOL    HW2 3990   3.825   3.137   5.058
 1031SOL     OW 3991   3.292   5.143   1.600
 1031SOL    HW1 3992   3.192   5.141   1.591
 1031SOL    HW2 3993   3.324   5.237   1.585
 1032SOL     OW 3994   2.062   1.172   5.636
 1032SOL    HW1 3995   2.058   1.269   5.660
 1032SOL    HW2 3996   2.140   1.156   5.575
 1033SOL     OW 3997   1.673   5.526   1.601
 1033SOL    HW1 3998   1.744   5.545   1.533
 1033SOL    HW2 3999   1.583   5.548   1.562
 1034SOL     OW 4000   2.141   5.994   4.221
 1034SOL    HW1 4001   2.170   5.920   4.161
 1034SOL    HW2 4002   2.212   6.065   4.225
 1035SOL     OW 4003   2.785   1.828   4.443
 1035SOL    HW1 4004   2.883   1.838   4.424
 1035SOL    HW2 4005   2.733   1.854   4.361
 1036SOL     OW 4006   3.983   1.314   1.118
 1036SOL    HW1 4007   4.026   1.260   1.046
 1036SOL    HW2 4008   3.959   1.255   1.195
 1037SOL     OW 4009   0.757   0.776   0.817
 1037SOL    HW1 4010   0.741   0.695   0.761
 1037SOL    HW2 4011   0.680   0.788   0.880
 1038SOL     OW 4012   0.782   1.443   5.533
 1038SOL    HW1 4013   0.813   1.356   5.495
 1038SOL    HW2 4014   0.683   1.452   5.519
 1039SOL     OW 4015   3.751   1.672   4.550
 1039SOL    HW1 4016   3.791   1.610   4.483
 1039SOL    HW2 4017   3.726   1.758   4.504
 1040SOL     OW 4018   5.825   3.723   3.261
 1040SOL    HW1 4019   5.777   3.640   3.289
 1040SOL    HW2 4020   5.770   3.771   3.193
 1041SOL     OW 4021   6.668   0.399   4.006
 1041SOL    HW1 4022   6.726   0.395   4.088
 1041SOL    HW2 4023   6.714   0.451   3.935
 1042SOL     OW 4024   4.540   4.958   1.442
 1042SOL    HW1 4025   4.618   4.939   1.502
 1042SOL    HW2 4026   4.471   5.010   1.493
 1043SOL     OW 4027   4.073   1.389   6.455
 1043SOL    HW1 4028   4.055   1.354   6.363
 1043SOL    HW2 4029   4.051   1.487   6.458
 1044SOL     OW 4030   3.779   2.029   1.335
 1044SOL    HW1 4031   3.857   2.024   1.398
 1044SOL    HW2 4032   3.753   1.937   1.306
 1045SOL     OW 4033   3.105   1.082   2.195
 1045SOL    HW1 4034   3.107   1.001   2.253
 1045SOL    HW2 4035   3.015   1.089   2.150
 1046SOL     OW 4036   2.673   6.972   0.090
 1046SOL    HW1 4037   2.767   6.967   0.058
 1046SOL    HW2 4038   2.670   6.961   0.189
 1047SOL     OW 4039   1.336   4.934   3.098
 1047SOL    HW1 4040   1.366   4.993   3.023
 1047SOL    HW2 4041   1.238   4.918   3.091
 1048SOL     OW 4042   5.453   5.413   5.056
 1048SOL    HW1 4043   5.358   5.391   5.079
 1048SOL    HW2 4044   5.499   5.448   5.137
 1049SOL     OW 4045   0.082   3.557   5.178
 1049SOL    HW1 4046   0.100   3.586   5.273
 1049SOL    HW2 4047   0.053   3.636   5.124
 1050SOL     OW 4048   3.769   0.089   6.745
 1050SOL    HW1 4049   3.758   7.014   6.775
 1050SOL    HW2 4050   3.796   0.091   6.649
 1051SOL     OW 4051   4.103   4.713   0.138
 1051SOL    HW1 4052   4.139   4.778   0.205
 1051SOL    HW2 4053   4.034   4.655   0.181
 1052SOL     OW 4054   4.044   0.254   4.556
 1052SOL    HW1 4055   3.997   0.341   4.571
 1052SOL    HW2 4056   3.978   0.185   4.527
 1053SOL     OW 4057   5.105   5.697   3.585
 1053SOL    HW1 4058   5.168   5.736   3.518
 1053SOL    HW2 4059   5.053   5.770   3.629
 1054SOL     OW 4060   3.147   4.776   5.502
 1054SOL    HW1 4061   3.159   4.818   5.592
 1054SOL    HW2 4062   3.093   4.693   5.511
 1055SOL     OW 4063   5.477   5.294   4.659
 1055SOL    HW1 4064   5.473   5.350   4.577
 1055SOL    HW2 4065   5.391   5.300   4.708
 1056SOL     OW 4066   1.653   6.419   5.105
 1056SOL    HW1 4067   1.555   6.403   5.114
 1056SOL    HW2 4068   1.684   6.384   5.017
 1057SOL     OW 4069   3.115   3.336   3.042
 1057SOL    HW1 4070   3.188   3.388   3.086
 1057SOL    HW2 4071   3.124   3.342   2.943
 1058SOL     OW 4072   3.952   1.738   2.484
 1058SOL    HW1 4073   4.052   1.741   2.476
 1058SOL    HW2 4074   3.925   1.650   2.524
 1059SOL     OW 4075   4.216   1.088   1.985
 1059SOL    HW1 4076   4.134   1.143   1.973
 1059SOL    HW2 4077   4.202   0.997   1.945
 1060SOL     OW 4078   0.645   3.747   5.735
 1060SOL    HW1 4079   0.549   3.776   5.741
 1060SOL    HW2 4080   0.654   3.654   5.768
 1061SOL     OW 4081   3.280   4.744   1.288
 1061SOL    HW1 4082   3.212   4.815   1.271
 1061SOL    HW2 4083   3.353   4.780   1.346
 1062SOL     OW 4084   6.882   5.462   5.136
 1062SOL    HW1 4085   6.815   5.432   5.067
 1062SOL    HW2 4086   6.973   5.431   5.109
 1063SOL     OW 4087   1.203   3.588   1.132
 1063SOL    HW1 4088   1.247   3.597   1.042
 1063SOL    HW2 4089   1.272   3.595   1.203
 1064SOL     OW 4090   1.518   3.046   2.334
 1064SOL    HW1 4091   1.535   3.047   2.235
 1064SOL    HW2 4092   1.476   3.132   2.361
 1065SOL     OW 4093   5.672   0.123   3.823
 1065SOL    HW1 4094   5.605   0.180   3.870
 1065SOL    HW2 4095   5.750   0.107   3.882
 1066SOL     OW 4096   5.279   0.539   4.492
 1066SOL    HW1 4097   5.199   0.478   4.485
 1066SOL    HW2 4098   5.307   0.546   4.588
 1067SOL     OW 4099   1.761   2.459   1.606
 1067SOL    HW1 4100   1.676   2.509   1.590
 1067SOL    HW2 4101   1.812   2.452   1.521
 1068SOL     OW 4102   0.547   3.755   1.987
 1068SOL    HW1 4103   0.553   3.797   1.897
 1068SOL    HW2 4104   0.455   3.720   2.001
 1069SOL     OW 4105   4.151   4.304   0.786
 1069SOL    HW1 4106   4.250   4.320   0.791
 1069SOL    HW2 4107   4.126   4.230   0.847
 1070SOL     OW 4108   2.149   0.402   0.224
 1070SOL    HW1 4109   2.168   0.346   0.305
 1070SOL    HW2 4110   2.211   0.376   0.150
 1071SOL     OW 4111   4.363   6.739   2.778
 1071SOL    HW1 4112   4.266   6.721   2.761
 1071SOL    HW2 4113   4.378   6.753   2.876
 1072SOL     OW 4114   2.959   6.434   2.250
 1072SOL    HW1 4115   2.999   6.398   2.334
 1072SOL    HW2 4116   2.904   6.363   2.207
 1073SOL     OW 4117   3.079   4.888   2.290
 1073SOL    HW1 4118   3.178   4.887   2.278
 1073SOL    HW2 4119   3.043   4.977   2.261
 1074SOL     OW 4120   1.367   5.249   2.093
 1074SOL    HW1 4121   1.439   5.285   2.152
 1074SOL    HW2 4122   1.366   5.149   2.099
 1075SOL     OW 4123   5.703   4.642   3.181
 1075SOL    HW1 4124   5.800   4.637   3.205
 1075SOL    HW2 4125   5.678   4.737   3.161
 1076SOL     OW 4126   0.674   4.437   4.802
 1076SOL    HW1 4127   0.678   4.485   4.714
 1076SOL    HW2 4128   0.581   4.402   4.817
 1077SOL     OW 4129   5.682   0.275   0.933
 1077SOL    HW1 4130   5.640   0.364   0.916
 1077SOL    HW2 4131   5.617   0.202   0.913
 1078SOL     OW 4132   1.395   1.550   1.356
 1078SOL    HW1 4133   1.418   1.509   1.268
 1078SOL    HW2 4134   1.420   1.487   1.430
 1079SOL     OW 4135   2.652   5.960   3.605
 1079SOL    HW1 4136   2.741   5.990   3.571
 1079SOL    HW2 4137   2.598   6.040   3.633
 1080SOL     OW 4138   2.705   5.669   3.631
 1080SOL    HW1 4139   2.697   5.766   3.611
 1080SOL    HW2 4140   2.722   5.656   3.729
 1081SOL     OW 4141   1.368   1.156   6.067
 1081SOL    HW1 4142   1.298   1.142   6.137
 1081SOL    HW2 4143   1.453   1.186   6.110
 1082SOL     OW 4144   1.451   0.058   5.562
 1082SOL    HW1 4145   1.368   0.015   5.596
 1082SOL    HW2 4146   1.509   0.085   5.639
 1083SOL     OW 4147   3.414   3.219   2.257
 1083SOL    HW1 4148   3.430   3.317   2.248
 1083SOL    HW2 4149   3.498   3.174   2.287
 1084SOL     OW 4150   5.864   5.149   1.147
 1084SOL    HW1 4151   5.804   5.089   1.093
 1084SOL    HW2 4152   5.959   5.121   1.135
 1085SOL     OW 4153   1.800   5.187   3.760
 1085SOL    HW1 4154   1.844   5.276   3.773
 1085SOL    HW2 4155   1.734   5.171   3.833
 1086SOL     OW 4156   5.650   6.036   3.594
 1086SOL    HW1 4157   5.574   6.034   3.530
 1086SOL    HW2 4158   5.729   5.989   3.554
 1087SOL     OW 4159   5.044   2.771   5.490
 1087SOL    HW1 4160   5.128   2.727   5.523
 1087SOL    HW2 4161   5.048   2.869   5.510
 1088SOL     OW 4162   5.313   4.869   3.481
 1088SOL    HW1 4163   5.221   4.845   3.452
 1088SOL    HW2 4164   5.308   4.939   3.553
 1089SOL     OW 4165   0.232   0.402   4.937
 1089SOL    HW1 4166   0.318   0.357   4.962
 1089SOL    HW2 4167   0.239   0.440   4.845
 1090SOL     OW 4168   1.987   1.434   5.674
 1090SOL    HW1 4169   1.898   1.472   5.648
 1090SOL    HW2 4170   2.060   1.494   5.641
 1091SOL     OW 4171   1.618   1.767   4.208
 1091SOL    HW1 4172   1.605   1.675   4.171
 1091SOL    HW2 4173   1.539   1.791   4.264
 1092SOL     OW 4174   2.108   4.193   1.506
 1092SOL    HW1 4175   2.194   4.169   1.549
 1092SOL    HW2 4176   2.118   4.187   1.406
 1093SOL     OW 4177   1.286   2.664   2.264
 1093SOL    HW1 4178   1.355   2.714   2.316
 1093SOL    HW2 4179   1.328   2.586   2.218
 1094SOL     OW 4180   0.151   6.536   1.800
 1094SOL    HW1 4181   0.204   6.620   1.814
 1094SOL    HW2 4182   0.213   6.459   1.785
 1095SOL     OW 4183   6.159   3.013   6.578
 1095SOL    HW1 4184   6.072   2.972   6.552
 1095SOL    HW2 4185   6.230   2.942   6.579
 1096SOL     OW 4186   3.659   4.976   1.048
 1096SOL    HW1 4187   3.597   4.979   0.969
 1096SOL    HW2 4188   3.737   4.919   1.026
 1097SOL     OW 4189   1.634   4.965   5.000
 1097SOL    HW1 4190   1.732   4.984   5.009
 1097SOL    HW2 4191   1.616   4.871   5.030
 1098SOL     OW 4192   5.188   2.192   1.120
 1098SOL    HW1 4193   5.186   2.095   1.143
 1098SOL    HW2 4194   5.137   2.208   1.036
 1099SOL     OW 4195   4.002   2.049   4.262
 1099SOL    HW1 4196   3.962   2.036   4.353
 1099SOL    HW2 4197   4.078   2.114   4.268
 1100SOL     OW 4198   1.209   1.112   6.286
 1100SOL    HW1 4199   1.247   1.055   6.359
 1100SOL    HW2 4200   1.188   1.203   6.323
 1101SOL     OW 4201   5.361   3.365   1.040
 1101SOL    HW1 4202   5.307   3.306   0.980
 1101SOL    HW2 4203   5.378   3.318   1.126
 1102SOL     OW 4204   0.455   4.302   4.004
 1102SOL    HW1 4205   0.489   4.309   4.098
 1102SOL    HW2 4206   0.365   4.257   4.004
 1103SOL     OW 4207   1.362   1.773   1.645
 1103SOL    HW1 4208   1.319   1.757   1.556
 1103SOL    HW2 4209   1.449   1.819   1.632
 1104SOL     OW 4210   2.679   4.673   6.506
 1104SOL    HW1 4211   2.623   4.755   6.504
 1104SOL    HW2 4212   2.753   4.680   6.439
 1105SOL     OW 4213   4.805   4.342   6.698
 1105SOL    HW1 4214   4.821   4.287   6.616
 1105SOL    HW2 4215   4.859   4.306   6.774
 1106SOL     OW 4216   6.570   2.479   6.056
 1106SOL    HW1 4217   6.656   2.437   6.085
 1106SOL    HW2 4218   6.537   2.540   6.128
 1107SOL     OW 4219   0.718   0.536   0.429
 1107SOL    HW1 4220   0.788   0.487   0.377
 1107SOL    HW2 4221   0.701   0.625   0.386
 1108SOL     OW 4222   2.173   1.237   5.950
 1108SOL    HW1 4223   2.237   1.233   5.874
 1108SOL    HW2 4224   2.221   1.217   6.036
 1109SOL     OW 4225   3.684   5.885   4.345
 1109SOL    HW1 4226   3.780   5.864   4.326
 1109SOL    HW2 4227   3.632   5.885   4.260
 1110SOL     OW 4228   2.830   2.777   1.574
 1110SOL    HW1 4229   2.929   2.777   1.584
 1110SOL    HW2 4230   2.791   2.701   1.626
 1111SOL     OW 4231   5.671   0.460   0.000
 1111SOL    HW1 4232   5.758   0.510   0.008
 1111SOL    HW2 4233   5.690   0.362   7.019
 1112SOL     OW 4234   6.428   0.692   2.533
 1112SOL    HW1 4235   6.495   0.668   2.463
 1112SOL    HW2 4236   6.401   0.611   2.584
 1113SOL     OW 4237   6.991   3.462   2.674
 1113SOL    HW1 4238   6.914   3.399   2.668
 1113SOL    HW2 4239   7.000   3.496   2.768
 1114SOL     OW 4240   4.703   0.356   6.054
 1114SOL    HW1 4241   4.735   0.421   6.123
 1114SOL    HW2 4242   4.659   0.405   5.979
 1115SOL     OW 4243   3.598   3.302   0.543
 1115SOL    HW1 4244   3.686   3.302   0.496
 1115SOL    HW2 4245   3.539   3.232   0.502
 1116SOL     OW 4246   5.090   5.849   3.807
 1116SOL    HW1 4247   5.081   5.754   3.837
 1116SOL    HW2 4248   5.183   5.881   3.823
 1117SOL     OW 4249   2.473   2.594   1.493
 1117SOL    HW1 4250   2.528   2.641   1.560
 1117SOL    HW2 4251   2.493   2.496   1.496
 1118SOL     OW 4252   2.149   5.116   2.846
 1118SOL    HW1 4253   2.233   5.074   2.812
 1118SOL    HW2 4254   2.162   5.215   2.855
 1119SOL     OW 4255   4.169   4.095   1.712
 1119SOL    HW1 4256   4.233   4.137   1.777
 1119SOL    HW2 4257   4.120   4.020   1.757
 1120SOL     OW 4258   5.512   7.013   6.357
 1120SOL    HW1 4259   5.444   0.049   6.308
 1120SOL    HW2 4260   5.563   6.958   6.291
 1121SOL     OW 4261   5.037   2.887   1.924
 1121SOL    HW1 4262   4.993   2.898   2.013
 1121SOL    HW2 4263   4.997   2.951   1.859
 1122SOL     OW 4264   5.833   3.336   6.971
 1122SOL    HW1 4265   5.849   3.238   6.967
 1122SOL    HW2 4266   5.853   3.369   0.044
 1123SOL     OW 4267   4.808   1.442   2.359
 1123SOL    HW1 4268   4.896   1.405   2.328
 1123SOL    HW2 4269   4.791   1.412   2.453
 1124SOL     OW 4270   6.454   3.448   5.415
 1124SOL    HW1 4271   6.475   3.495   5.329
 1124SOL    HW2 4272   6.357   3.425   5.418
 1125SOL     OW 4273   2.937   2.939   5.307
 1125SOL    HW1 4274   2.896   2.849   5.319
 1125SOL    HW2 4275   2.875   3.009   5.344
 1126SOL     OW 4276   4.587   0.220   0.728
 1126SOL    HW1 4277   4.579   0.203   0.826
 1126SOL    HW2 4278   4.669   0.175   0.693
 1127SOL     OW 4279   2.936   4.703   0.648
 1127SOL    HW1 4280   2.893   4.787   0.615
 1127SOL    HW2 4281   2.865   4.635   0.670
 1128SOL     OW 4282   3.699   2.134   3.646
 1128SOL    HW1 4283   3.769   2.175   3.589
 1128SOL    HW2 4284   3.737   2.053   3.692
 1129SOL     OW 4285   4.290   0.682   6.988
 1129SOL    HW1 4286   4.311   0.648   0.059
 1129SOL    HW2 4287   4.266   0.606   6.927
 1130SOL     OW 4288   1.591   3.884   0.882
 1130SOL    HW1 4289   1.530   3.831   0.824
 1130SOL    HW2 4290   1.545   3.907   0.968
 1131SOL     OW 4291   0.391   6.284   5.802
 1131SOL    HW1 4292   0.393   6.222   5.723
 1131SOL    HW2 4293   0.342   6.240   5.877
 1132SOL     OW 4294   4.912   6.908   5.983
 1132SOL    HW1 4295   4.894   7.004   6.004
 1132SOL    HW2 4296   4.899   6.892   5.885
 1133SOL     OW 4297   0.968   2.693   1.159
 1133SOL    HW1 4298   1.030   2.656   1.090
 1133SOL    HW2 4299   0.883   2.721   1.115
 1134SOL     OW 4300   5.740   2.397   6.848
 1134SOL    HW1 4301   5.788   2.336   6.912
 1134SOL    HW2 4302   5.772   2.491   6.861
 1135SOL     OW 4303   2.958   2.251   3.458
 1135SOL    HW1 4304   2.892   2.264   3.533
 1135SOL    HW2 4305   2.918   2.286   3.373
 1136SOL     OW 4306   2.784   5.536   3.395
 1136SOL    HW1 4307   2.759   5.585   3.479
 1136SOL    HW2 4308   2.702   5.519   3.341
 1137SOL     OW 4309   1.474   2.006   6.486
 1137SOL    HW1 4310   1.515   2.094   6.463
 1137SOL    HW2 4311   1.533   1.932   6.456
 1138SOL     OW 4312   2.444   3.446   6.250
 1138SOL    HW1 4313   2.370   3.379   6.259
 1138SOL    HW2 4314   2.417   3.516   6.184
 1139SOL     OW 4315   1.121   6.447   2.627
 1139SOL    HW1 4316   1.027   6.477   2.640
 1139SOL    HW2 4317   1.128   6.391   2.544
 1140SOL     OW 4318   3.517   1.424   3.165
 1140SOL    HW1 4319   3.509   1.524   3.167
 1140SOL    HW2 4320   3.445   1.384   3.220
 1141SOL     OW 4321   5.828   5.621   5.166
 1141SOL    HW1 4322   5.895   5.683   5.124
 1141SOL    HW2 4323   5.738   5.663   5.164
 1142SOL     OW 4324   5.471   0.698   4.382
 1142SOL    HW1 4325   5.420   0.620   4.420
 1142SOL    HW2 4326   5.407   0.770   4.356
 1143SOL     OW 4327   4.281   2.337   2.703
 1143SOL    HW1 4328   4.281   2.322   2.604
 1143SOL    HW2 4329   4.187   2.345   2.736
 1144SOL     OW 4330   0.565   3.975   3.972
 1144SOL    HW1 4331   0.551   3.960   4.070
 1144SOL    HW2 4332   0.655   4.016   3.957
 1145SOL     OW 4333   6.671   5.354   4.298
 1145SOL    HW1 4334   6.600   5.378   4.232
 1145SOL    HW2 4335   6.708   5.437   4.339
 1146SOL     OW 4336   6.243   2.418   0.970
 1146SOL    HW1 4337   6.337   2.401   1.001
 1146SOL    HW2 4338   6.181   2.356   1.017
 1147SOL     OW 4339   0.273   3.805   2.429
 1147SOL    HW1 4340   0.175   3.827   2.434
 1147SOL    HW2 4341   0.311   3.804   2.522
 1148SOL     OW 4342   3.674   6.254   6.310
 1148SOL    HW1 4343   3.708   6.321   6.244
 1148SOL    HW2 4344   3.687   6.289   6.403
 1149SOL     OW 4345   6.552   3.364   2.677
 1149SOL    HW1 4346   6.487   3.385   2.751
 1149SOL    HW2 4347   6.513   3.294   2.617
 1150SOL     OW 4348   2.156   5.054   0.821
 1150SOL    HW1 4349   2.229   5.089   0.879
 1150SOL    HW2 4350   2.131   5.123   0.753
 1151SOL     OW 4351   5.765   5.508   6.273
 1151SOL    HW1 4352   5.815   5.533   6.356
 1151SOL    HW2 4353   5.719   5.420   6.287
 1152SOL     OW 4354   0.959   0.029   5.117
 1152SOL    HW1 4355   0.888   0.098   5.123
 1152SOL    HW2 4356   1.049   0.072   5.129
 1153SOL     OW 4357   2.065   5.998   2.554
 1153SOL    HW1 4358   2.132   5.969   2.623
 1153SOL    HW2 4359   2.040   5.919   2.497
 1154SOL     OW 4360   0.571   4.026   2.124
 1154SOL    HW1 4361   0.566   3.958   2.051
 1154SOL    HW2 4362   0.499   4.094   2.109
 1155SOL     OW 4363   3.097   6.032   0.975
 1155SOL    HW1 4364   3.170   6.019   1.043
 1155SOL    HW2 4365   3.135   6.076   0.893
 1156SOL     OW 4366   2.348   0.649   3.981
 1156SOL    HW1 4367   2.313   0.694   3.899
 1156SOL    HW2 4368   2.273   0.600   4.026
 1157SOL     OW 4369   0.058   2.059   4.456
 1157SOL    HW1 4370   6.993   2.041   4.406
 1157SOL    HW2 4371   0.061   2.003   4.539
 1158SOL     OW 4372   5.615   4.863   5.979
 1158SOL    HW1 4373   5.606   4.783   5.919
 1158SOL    HW2 4374   5.608   4.946   5.924
 1159SOL     OW 4375   3.335   5.592   2.557
 1159SOL    HW1 4376   3.424   5.636   2.558
 1159SOL    HW2 4377   3.333   5.518   2.624
 1160SOL     OW 4378   4.021   3.538   2.681
 1160SOL    HW1 4379   4.008   3.620   2.737
 1160SOL    HW2 4380   4.045   3.460   2.739
 1161SOL     OW 4381   5.555   0.521   3.799
 1161SOL    HW1 4382   5.593   0.548   3.711
 1161SOL    HW2 4383   5.591   0.431   3.825
 1162SOL     OW 4384   3.072   3.239   1.721
 1162SOL    HW1 4385   3.164   3.202   1.731
 1162SOL    HW2 4386   3.044   3.282   1.806
 1163SOL     OW 4387   5.021   2.045   1.790
 1163SOL    HW1 4388   4.956   2.005   1.726
 1163SOL    HW2 4389   5.062   1.972   1.846
 1164SOL     OW 4390   5.351   3.137   2.563
 1164SOL    HW1 4391   5.347   3.039   2.583
 1164SOL    HW2 4392   5.272   3.164   2.508
 1165SOL     OW 4393   0.866   3.401   3.398
 1165SOL    HW1 4394   0.766   3.390   3.400
 1165SOL    HW2 4395   0.907   3.319   3.359
 1166SOL     OW 4396   4.132   2.483   6.270
 1166SOL    HW1 4397   4.211   2.497   6.210
 1166SOL    HW2 4398   4.086   2.397   6.245
 1167SOL     OW 4399   3.960   0.506   4.928
 1167SOL    HW1 4400   3.890   0.577   4.925
 1167SOL    HW2 4401   3.941   0.442   5.003
 1168SOL     OW 4402   0.067   6.572   3.237
 1168SOL    HW1 4403   0.120   6.628   3.301
 1168SOL    HW2 4404   0.128   6.533   3.168
 1169SOL     OW 4405   0.700   3.421   1.322
 1169SOL    HW1 4406   0.659   3.396   1.410
 1169SOL    HW2 4407   0.756   3.503   1.333
 1170SOL     OW 4408   3.730   1.283   2.847
 1170SOL    HW1 4409   3.641   1.248   2.876
 1170SOL    HW2 4410   3.732   1.291   2.747
 1171SOL     OW 4411   3.117   5.981   1.284
 1171SOL    HW1 4412   3.107   6.066   1.337
 1171SOL    HW2 4413   3.030   5.933   1.282
 1172SOL     OW 4414   3.503   3.635   3.851
 1172SOL    HW1 4415   3.525   3.728   3.881
 1172SOL    HW2 4416   3.557   3.569   3.903
 1173SOL     OW 4417   3.281   0.548   5.702
 1173SOL    HW1 4418   3.242   0.639   5.718
 1173SOL    HW2 4419   3.347   0.553   5.627
 1174SOL     OW 4420   2.481   5.926   0.511
 1174SOL    HW1 4421   2.399   5.898   0.560
 1174SOL    HW2 4422   2.525   6.002   0.559
 1175SOL     OW 4423   5.886   4.756   6.772
 1175SOL    HW1 4424   5.907   4.778   6.676
 1175SOL    HW2 4425   5.969   4.723   6.817
 1176SOL     OW 4426   5.516   4.695   0.832
 1176SOL    HW1 4427   5.570   4.676   0.749
 1176SOL    HW2 4428   5.522   4.616   0.893
 1177SOL     OW 4429   6.656   2.996   5.765
 1177SOL    HW1 4430   6.729   3.022   5.828
 1177SOL    HW2 4431   6.617   2.908   5.793
 1178SOL     OW 4432   5.370   3.365   2.249
 1178SOL    HW1 4433   5.421   3.363   2.164
 1178SOL    HW2 4434   5.287   3.310   2.240
 1179SOL     OW 4435   2.177   3.866   0.776
 1179SOL    HW1 4436   2.127   3.885   0.860
 1179SOL    HW2 4437   2.208   3.771   0.777
 1180SOL     OW 4438   2.377   1.453   3.817
 1180SOL    HW1 4439   2.326   1.491   3.739
 1180SOL    HW2 4440   2.329   1.373   3.852
 1181SOL     OW 4441   1.286   4.712   3.871
 1181SOL    HW1 4442   1.362   4.706   3.936
 1181SOL    HW2 4443   1.313   4.768   3.793
 1182SOL     OW 4444   2.083   4.398   3.859
 1182SOL    HW1 4445   2.164   4.426   3.910
 1182SOL    HW2 4446   2.092   4.426   3.764
 1183SOL     OW 4447   3.929   6.027   1.666
 1183SOL    HW1 4448   3.863   6.073   1.607
 1183SOL    HW2 4449   3.999   6.093   1.694
 1184SOL     OW 4450   3.178   2.906   5.115
 1184SOL    HW1 4451   3.111   2.941   5.181
 1184SOL    HW2 4452   3.134   2.896   5.026
 1185SOL     OW 4453   2.234   6.951   0.144
 1185SOL    HW1 4454   2.140   6.960   0.179
 1185SOL    HW2 4455   2.231   6.950   0.044
 1186SOL     OW 4456   6.381   0.844   4.745
 1186SOL    HW1 4457   6.399   0.868   4.650
 1186SOL    HW2 4458   6.437   0.765   4.771
 1187SOL     OW 4459   6.021   6.443   4.873
 1187SOL    HW1 4460   5.990   6.421   4.781
 1187SOL    HW2 4461   6.004   6.540   4.892
 1188SOL     OW 4462   2.031   6.659   5.779
 1188SOL    HW1 4463   2.035   6.759   5.789
 1188SOL    HW2 4464   1.975   6.621   5.853
 1189SOL     OW 4465   5.853   0.990   1.341
 1189SOL    HW1 4466   5.789   1.022   1.410
 1189SOL    HW2 4467   5.947   1.003   1.374
 1190SOL     OW 4468   4.050   5.155   3.174
 1190SOL    HW1 4469   4.085   5.130   3.264
 1190SOL    HW2 4470   4.051   5.254   3.163
 1191SOL     OW 4471   3.128   5.690   5.900
 1191SOL    HW1 4472   3.116   5.789   5.903
 1191SOL    HW2 4473   3.039   5.646   5.890
 1192SOL     OW 4474   6.163   5.053   3.030
 1192SOL    HW1 4475   6.198   5.095   3.114
 1192SOL    HW2 4476   6.069   5.025   3.043
 1193SOL     OW 4477   5.474   0.185   4.235
 1193SOL    HW1 4478   5.474   0.285   4.225
 1193SOL    HW2 4479   5.528   0.145   4.161
 1194SOL     OW 4480   6.036   0.414   1.123
 1194SOL    HW1 4481   6.133   0.398   1.104
 1194SOL    HW2 4482   6.023   0.510   1.149
 1195SOL     OW 4483   5.967   0.858   6.128
 1195SOL    HW1 4484   5.889   0.898   6.081
 1195SOL    HW2 4485   5.943   0.765   6.159
 1196SOL     OW 4486   0.384   5.032   2.342
 1196SOL    HW1 4487   0.373   4.963   2.414
 1196SOL    HW2 4488   0.472   5.077   2.352
 1197SOL     OW 4489   4.157   6.135   5.596
 1197SOL    HW1 4490   4.223   6.130   5.671
 1197SOL    HW2 4491   4.202   6.113   5.510
 1198SOL     OW 4492   3.465   2.071   3.153
 1198SOL    HW1 4493   3.430   2.005   3.219
 1198SOL    HW2 4494   3.420   2.159   3.167
 1199SOL     OW 4495   3.023   3.612   2.026
 1199SOL    HW1 4496   3.055   3.617   1.931
 1199SOL    HW2 4497   3.049   3.696   2.074
 1200SOL     OW 4498   4.456   4.158   5.727
 1200SOL    HW1 4499   4.522   4.095   5.767
 1200SOL    HW2 4500   4.371   4.109   5.705
 1201SOL     OW 4501   1.264   1.903   4.703
 1201SOL    HW1 4502   1.299   1.939   4.616
 1201SOL    HW2 4503   1.218   1.816   4.686
 1202SOL     OW 4504   5.517   0.447   5.104
 1202SOL    HW1 4505   5.584   0.521   5.092
 1202SOL    HW2 4506   5.518   0.416   5.199
 1203SOL     OW 4507   5.460   0.759   0.877
 1203SOL    HW1 4508   5.365   0.786   0.890
 1203SOL    HW2 4509   5.501   0.814   0.804
 1204SOL     OW 4510   3.578   1.572   0.426
 1204SOL    HW1 4511   3.608   1.607   0.338
 1204SOL    HW2 4512   3.643   1.601   0.497
 1205SOL     OW 4513   6.169   2.226   6.085
 1205SOL    HW1 4514   6.133   2.206   5.994
 1205SOL    HW2 4515   6.141   2.318   6.112
 1206SOL     OW 4516   1.641   1.557   4.880
 1206SOL    HW1 4517   1.625   1.614   4.799
 1206SOL    HW2 4518   1.586   1.473   4.873
 1207SOL     OW 4519   5.847   0.302   0.259
 1207SOL    HW1 4520   5.919   0.361   0.296
 1207SOL    HW2 4521   5.767   0.358   0.236
 1208SOL     OW 4522   3.647   3.745   2.834
 1208SOL    HW1 4523   3.608   3.837   2.836
 1208SOL    HW2 4524   3.579   3.681   2.799
 1209SOL     OW 4525   6.257   6.231   5.405
 1209SOL    HW1 4526   6.158   6.221   5.413
 1209SOL    HW2 4527   6.299   6.141   5.395
 1210SOL     OW 4528   3.858   0.046   2.578
 1210SOL    HW1 4529   3.945   0.062   2.532
 1210SOL    HW2 4530   3.804   0.130   2.577
 1211SOL     OW 4531   1.499   3.700   4.003
 1211SOL    HW1 4532   1.530   3.794   3.988
 1211SOL    HW2 4533   1.573   3.637   3.979
 1212SOL     OW 4534   1.313   4.211   4.711
 1212SOL    HW1 4535   1.315   4.124   4.661
 1212SOL    HW2 4536   1.244   4.207   4.782
 1213SOL     OW 4537   0.183   2.784   4.932
 1213SOL    HW1 4538   0.172   2.783   4.832
 1213SOL    HW2 4539   0.100   2.823   4.973
 1214SOL     OW 4540   1.687   3.711   4.695
 1214SOL    HW1 4541   1.729   3.778   4.755
 1214SOL    HW2 4542   1.646   3.638   4.749
 1215SOL     OW 4543   2.457   4.592   3.053
 1215SOL    HW1 4544   2.482   4.688   3.059
 1215SOL    HW2 4545   2.439   4.567   2.958
 1216SOL     OW 4546   1.288   6.791   1.665
 1216SOL    HW1 4547   1.316   6.866   1.606
 1216SOL    HW2 4548   1.210   6.743   1.623
 1217SOL     OW 4549   1.252   6.496   0.433
 1217SOL    HW1 4550   1.195   6.541   0.502
 1217SOL    HW2 4551   1.317   6.563   0.395
 1218SOL     OW 4552   0.558   3.732   4.903
 1218SOL    HW1 4553   0.637   3.792   4.917
 1218SOL    HW2 4554   0.590   3.637   4.899
 1219SOL     OW 4555   4.210   5.617   0.719
 1219SOL    HW1 4556   4.206   5.705   0.671
 1219SOL    HW2 4557   4.296   5.571   0.696
 1220SOL     OW 4558   5.527   2.775   2.662
 1220SOL    HW1 4559   5.592   2.851   2.673
 1220SOL    HW2 4560   5.548   2.726   2.577
 1221SOL     OW 4561   5.665   3.427   0.832
 1221SOL    HW1 4562   5.680   3.484   0.913
 1221SOL    HW2 4563   5.649   3.485   0.753
 1222SOL     OW 4564   6.994   6.495   0.601
 1222SOL    HW1 4565   7.009   6.535   0.691
 1222SOL    HW2 4566   0.032   6.414   0.590
 1223SOL     OW 4567   6.004   0.265   6.607
 1223SOL    HW1 4568   5.904   0.272   6.602
 1223SOL    HW2 4569   6.037   0.209   6.531
 1224SOL     OW 4570   4.387   6.106   0.476
 1224SOL    HW1 4571   4.389   6.011   0.445
 1224SOL    HW2 4572   4.339   6.162   0.408
 1225SOL     OW 4573   4.485   2.019   0.838
 1225SOL    HW1 4574   4.438   1.948   0.786
 1225SOL    HW2 4575   4.495   2.101   0.782
 1226SOL     OW 4576   5.975   6.017   1.248
 1226SOL    HW1 4577   6.029   5.975   1.321
 1226SOL    HW2 4578   6.028   6.014   1.163
 1227SOL     OW 4579   5.683   4.058   5.431
 1227SOL    HW1 4580   5.623   4.081   5.508
 1227SOL    HW2 4581   5.665   4.119   5.354
 1228SOL     OW 4582   3.947   3.083   2.143
 1228SOL    HW1 4583   4.035   3.127   2.127
 1228SOL    HW2 4584   3.912   3.047   2.056
 1229SOL     OW 4585   1.772   6.006   2.395
 1229SOL    HW1 4586   1.715   5.942   2.446
 1229SOL    HW2 4587   1.858   6.020   2.444
 1230SOL     OW 4588   4.873   5.034   2.321
 1230SOL    HW1 4589   4.945   5.000   2.380
 1230SOL    HW2 4590   4.863   5.133   2.332
 1231SOL     OW 4591   1.886   2.251   6.323
 1231SOL    HW1 4592   1.878   2.155   6.295
 1231SOL    HW2 4593   1.856   2.310   6.249
 1232SOL     OW 4594   3.352   0.419   5.358
 1232SOL    HW1 4595   3.300   0.367   5.426
 1232SOL    HW2 4596   3.291   0.454   5.288
 1233SOL     OW 4597   0.505   4.937   3.887
 1233SOL    HW1 4598   0.412   4.910   3.864
 1233SOL    HW2 4599   0.552   4.861   3.931
 1234SOL     OW 4600   0.034   3.540   6.433
 1234SOL    HW1 4601   6.960   3.549   6.467
 1234SOL    HW2 4602   0.098   3.548   6.510
 1235SOL     OW 4603   5.544   4.444   0.080
 1235SOL    HW1 4604   5.554   4.543   0.079
 1235SOL    HW2 4605   5.478   4.417   0.150
 1236SOL     OW 4606   2.419   0.935   0.518
 1236SOL    HW1 4607   2.448   0.946   0.424
 1236SOL    HW2 4608   2.339   0.874   0.522
 1237SOL     OW 4609   1.535   0.467   4.502
 1237SOL    HW1 4610   1.569   0.408   4.575
 1237SOL    HW2 4611   1.456   0.518   4.535
 1238SOL     OW 4612   0.312   7.015   3.766
 1238SOL    HW1 4613   0.376   0.063   3.804
 1238SOL    HW2 4614   0.357   6.967   3.690
 1239SOL     OW 4615   6.063   5.599   4.169
 1239SOL    HW1 4616   6.055   5.660   4.248
 1239SOL    HW2 4617   5.995   5.526   4.176
 1240SOL     OW 4618   5.862   5.344   2.858
 1240SOL    HW1 4619   5.933   5.398   2.903
 1240SOL    HW2 4620   5.779   5.346   2.914
 1241SOL     OW 4621   5.749   5.083   4.298
 1241SOL    HW1 4622   5.776   5.076   4.201
 1241SOL    HW2 4623   5.829   5.065   4.355
 1242SOL     OW 4624   1.440   3.749   0.418
 1242SOL    HW1 4625   1.389   3.665   0.406
 1242SOL    HW2 4626   1.408   3.818   0.353
 1243SOL     OW 4627   1.218   3.923   4.995
 1243SOL    HW1 4628   1.219   3.911   5.094
 1243SOL    HW2 4629   1.311   3.932   4.961
 1244SOL     OW 4630   5.923   6.974   4.683
 1244SOL    HW1 4631   5.891   0.046   4.709
 1244SOL    HW2 4632   6.023   6.973   4.681
 1245SOL     OW 4633   5.198   6.095   1.256
 1245SOL    HW1 4634   5.238   6.018   1.307
 1245SOL    HW2 4635   5.122   6.062   1.200
 1246SOL     OW 4636   4.521   1.470   0.841
 1246SOL    HW1 4637   4.583   1.529   0.789
 1246SOL    HW2 4638   4.460   1.422   0.778
 1247SOL     OW 4639   6.878   6.526   3.513
 1247SOL    HW1 4640   6.878   6.624   3.491
 1247SOL    HW2 4641   6.823   6.477   3.447
 1248SOL     OW 4642   0.018   0.009   5.027
 1248SOL    HW1 4643   0.103   0.041   4.983
 1248SOL    HW2 4644   0.040   6.982   5.112
 1249SOL     OW 4645   0.475   4.498   1.306
 1249SOL    HW1 4646   0.527   4.421   1.269
 1249SOL    HW2 4647   0.436   4.473   1.394
 1250SOL     OW 4648   5.628   3.285   5.381
 1250SOL    HW1 4649   5.533   3.258   5.398
 1250SOL    HW2 4650   5.681   3.274   5.465
 1251SOL     OW 4651   3.069   0.448   2.401
 1251SOL    HW1 4652   3.043   0.354   2.421
 1251SOL    HW2 4653   3.158   0.450   2.355
 1252SOL     OW 4654   2.346   5.729   6.916
 1252SOL    HW1 4655   2.294   5.753   6.834
 1252SOL    HW2 4656   2.441   5.761   6.906
 1253SOL     OW 4657   3.546   0.828   0.771
 1253SOL    HW1 4658   3.632   0.848   0.818
 1253SOL    HW2 4659   3.566   0.805   0.676
 1254SOL     OW 4660   6.540   1.411   2.320
 1254SOL    HW1 4661   6.477   1.485   2.342
 1254SOL    HW2 4662   6.577   1.373   2.405
 1255SOL     OW 4663   5.429   2.048   4.954
 1255SOL    HW1 4664   5.342   2.006   4.981
 1255SOL    HW2 4665   5.413   2.110   4.877
 1256SOL     OW 4666   0.311   5.888   3.996
 1256SOL    HW1 4667   0.313   5.848   3.905
 1256SOL    HW2 4668   0.397   5.936   4.013
 1257SOL     OW 4669   0.212   4.638   3.667
 1257SOL    HW1 4670   0.277   4.571   3.704
 1257SOL    HW2 4671   0.198   4.711   3.734
 1258SOL     OW 4672   3.152   6.573   4.361
 1258SOL    HW1 4673   3.231   6.541   4.414
 1258SOL    HW2 4674   3.181   6.599   4.269
 1259SOL     OW 4675   4.658   0.567   5.110
 1259SOL    HW1 4676   4.719   0.536   5.038
 1259SOL    HW2 4677   4.696   0.542   5.199
 1260SOL     OW 4678   2.156   0.244   2.056
 1260SOL    HW1 4679   2.165   0.340   2.032
 1260SOL    HW2 4680   2.177   0.188   1.976
 1261SOL     OW 4681   0.098   4.336   6.497
 1261SOL    HW1 4682   0.138   4.255   6.540
 1261SOL    HW2 4683   0.170   4.386   6.450
 1262SOL     OW 4684   4.855   4.881   0.952
 1262SOL    HW1 4685   4.858   4.866   1.051
 1262SOL    HW2 4686   4.759   4.887   0.922
 1263SOL     OW 4687   0.013   2.220   1.071
 1263SOL    HW1 4688   0.100   2.235   1.118
 1263SOL    HW2 4689   0.017   2.135   1.018
 1264SOL     OW 4690   0.846   3.595   3.212
 1264SOL    HW1 4691   0.870   3.515   3.267
 1264SOL    HW2 4692   0.748   3.594   3.192
 1265SOL     OW 4693   0.015   3.941   4.832
 1265SOL    HW1 4694   6.939   3.948   4.802
 1265SOL    HW2 4695   0.018   3.927   4.931
 1266SOL     OW 4696   3.374   1.769   5.577
 1266SOL    HW1 4697   3.393   1.851   5.524
 1266SOL    HW2 4698   3.368   1.690   5.516
 1267SOL     OW 4699   0.171   5.209   3.159
 1267SOL    HW1 4700   0.270   5.222   3.170
 1267SOL    HW2 4701   0.151   5.189   3.064
 1268SOL     OW 4702   5.519   2.738   6.331
 1268SOL    HW1 4703   5.519   2.813   6.264
 1268SOL    HW2 4704   5.443   2.751   6.395
 1269SOL     OW 4705   6.873   6.133   4.779
 1269SOL    HW1 4706   6.964   6.176   4.780
 1269SOL    HW2 4707   6.824   6.161   4.697
 1270SOL     OW 4708   2.034   3.838   4.669
 1270SOL    HW1 4709   1.998   3.881   4.587
 1270SOL    HW2 4710   1.973   3.857   4.746
 1271SOL     OW 4711   3.116   1.750   2.828
 1271SOL    HW1 4712   3.216   1.746   2.829
 1271SOL    HW2 4713   3.082   1.758   2.922
 1272SOL     OW 4714   6.935   5.494   1.071
 1272SOL    HW1 4715   6.942   5.450   0.982
 1272SOL    HW2 4716   6.977   5.585   1.067
 1273SOL     OW 4717   2.614   4.533   0.036
 1273SOL    HW1 4718   2.690   4.598   0.036
 1273SOL    HW2 4719   2.640   4.451   7.006
 1274SOL     OW 4720   0.073   2.565   1.719
 1274SOL    HW1 4721   0.005   2.561   1.646
 1274SOL    HW2 4722   0.131   2.483   1.716
 1275SOL     OW 4723   4.656   0.941   4.332
 1275SOL    HW1 4724   4.637   0.846   4.355
 1275SOL    HW2 4725   4.641   0.998   4.413
 1276SOL     OW 4726   6.981   0.586   1.774
 1276SOL    HW1 4727   6.903   0.578   1.837
 1276SOL    HW2 4728   0.036   0.528   1.806
 1277SOL     OW 4729   0.203   1.056   4.720
 1277SOL    HW1 4730   0.144   1.134   4.741
 1277SOL    HW2 4731   0.283   1.058   4.780
 1278SOL     OW 4732   2.069   1.957   5.346
 1278SOL    HW1 4733   2.153   2.006   5.367
 1278SOL    HW2 4734   2.040   1.978   5.253
 1279SOL     OW 4735   2.882   6.289   0.879
 1279SOL    HW1 4736   2.971   6.256   0.909
 1279SOL    HW2 4737   2.891   6.332   0.789
 1280SOL     OW 4738   2.190   6.883   2.878
 1280SOL    HW1 4739   2.137   6.923   2.953
 1280SOL    HW2 4740   2.148   6.908   2.790
 1281SOL     OW 4741   1.870   6.118   3.185
 1281SOL    HW1 4742   1.812   6.039   3.201
 1281SOL    HW2 4743   1.929   6.101   3.106
 1282SOL     OW 4744   0.556   1.421   1.028
 1282SOL    HW1 4745   0.598   1.420   0.937
 1282SOL    HW2 4746   0.626   1.419   1.098
 1283SOL     OW 4747   5.660   4.506   5.642
 1283SOL    HW1 4748   5.595   4.513   5.566
 1283SOL    HW2 4749   5.671   4.410   5.668
 1284SOL     OW 4750   2.746   2.556   1.730
 1284SOL    HW1 4751   2.674   2.605   1.778
 1284SOL    HW2 4752   2.812   2.521   1.796
 1285SOL     OW 4753   5.098   2.867   6.139
 1285SOL    HW1 4754   5.055   2.951   6.106
 1285SOL    HW2 4755   5.031   2.814   6.191
 1286SOL     OW 4756   5.201   4.093   2.229
 1286SOL    HW1 4757   5.291   4.050   2.230
 1286SOL    HW2 4758   5.189   4.148   2.311
 1287SOL     OW 4759   6.040   5.269   6.566
 1287SOL    HW1 4760   6.029   5.171   6.546
 1287SOL    HW2 4761   6.128   5.284   6.611
 1288SOL     OW 4762   0.826   2.609   0.046
 1288SOL    HW1 4763   0.905   2.580   7.012
 1288SOL    HW2 4764   0.857   2.650   0.132
 1289SOL     OW 4765   0.073   6.504   2.352
 1289SOL    HW1 4766   0.050   6.474   2.260
 1289SOL    HW2 4767   0.128   6.588   2.348
 1290SOL     OW 4768   0.130   0.245   6.799
 1290SOL    HW1 4769   0.189   0.165   6.788
 1290SOL    HW2 4770   0.150   0.312   6.727
 1291SOL     OW 4771   1.685   4.910   6.263
 1291SOL    HW1 4772   1.605   4.936   6.318
 1291SOL    HW2 4773   1.768   4.924   6.317
 1292SOL     OW 4774   6.925   4.349   1.791
 1292SOL    HW1 4775   6.873   4.353   1.705
 1292SOL    HW2 4776   6.893   4.422   1.852
 1293SOL     OW 4777   2.188   1.691   6.887
 1293SOL    HW1 4778   2.222   1.783   6.868
 1293SOL    HW2 4779   2.150   1.652   6.803
 1294SOL     OW 4780   0.631   3.434   2.251
 1294SOL    HW1 4781   0.641   3.358   2.315
 1294SOL    HW2 4782   0.555   3.492   2.281
 1295SOL     OW 4783   5.745   3.257   2.270
 1295SOL    HW1 4784   5.813   3.184   2.277
 1295SOL    HW2 4785   5.689   3.259   2.352
 1296SOL     OW 4786   3.699   2.081   6.096
 1296SOL    HW1 4787   3.788   2.071   6.052
 1296SOL    HW2 4788   3.679   2.178   6.110
 1297SOL     OW 4789   6.173   1.764   5.560
 1297SOL    HW1 4790   6.116   1.832   5.513
 1297SOL    HW2 4791   6.191   1.795   5.654
 1298SOL     OW 4792   5.670   3.485   3.235
 1298SOL    HW1 4793   5.581   3.440   3.233
 1298SOL    HW2 4794   5.732   3.438   3.172
 1299SOL     OW 4795   1.923   4.231   3.363
 1299SOL    HW1 4796   1.857   4.211   3.435
 1299SOL    HW2 4797   1.975   4.148   3.342
 1300SOL     OW 4798   3.436   3.358   1.381
 1300SOL    HW1 4799   3.349   3.402   1.402
 1300SOL    HW2 4800   3.433   3.262   1.409
 1301SOL     OW 4801   1.149   6.814   3.636
 1301SOL    HW1 4802   1.143   6.838   3.540
 1301SOL    HW2 4803   1.086   6.870   3.690
 1302SOL     OW 4804   2.102   6.577   5.225
 1302SOL    HW1 4805   2.125   6.647   5.292
 1302SOL    HW2 4806   2.135   6.488   5.257
 1303SOL     OW 4807   3.945   1.606   1.042
 1303SOL    HW1 4808   4.035   1.648   1.046
 1303SOL    HW2 4809   3.926   1.556   1.127
 1304SOL     OW 4810   1.364   0.612   5.855
 1304SOL    HW1 4811   1.304   0.561   5.794
 1304SOL    HW2 4812   1.396   0.552   5.928
 1305SOL     OW 4813   4.962   6.641   4.454
 1305SOL    HW1 4814   5.029   6.704   4.494
 1305SOL    HW2 4815   5.009   6.565   4.411
 1306SOL     OW 4816   1.322   3.956   4.603
 1306SOL    HW1 4817   1.354   3.955   4.508
 1306SOL    HW2 4818   1.299   3.862   4.631
 1307SOL     OW 4819   1.350   3.218   4.746
 1307SOL    HW1 4820   1.374   3.121   4.741
 1307SOL    HW2 4821   1.257   3.231   4.711
 1308SOL     OW 4822   4.613   5.893   4.086
 1308SOL    HW1 4823   4.647   5.955   4.157
 1308SOL    HW2 4824   4.667   5.905   4.002
 1309SOL     OW 4825   5.639   2.999   5.390
 1309SOL    HW1 4826   5.555   2.998   5.336
 1309SOL    HW2 4827   5.669   3.094   5.404
 1310SOL     OW 4828   5.924   3.806   4.424
 1310SOL    HW1 4829   5.918   3.745   4.346
 1310SOL    HW2 4830   5.888   3.896   4.399
 1311SOL     OW 4831   6.075   0.189   4.094
 1311SOL    HW1 4832   6.145   0.178   4.023
 1311SOL    HW2 4833   6.039   0.282   4.091
 1312SOL     OW 4834   0.526   0.801   6.915
 1312SOL    HW1 4835   0.587   0.744   6.968
 1312SOL    HW2 4836   0.490   0.875   6.972
 1313SOL     OW 4837   3.350   6.002   5.048
 1313SOL    HW1 4838   3.354   6.090   5.000
 1313SOL    HW2 4839   3.258   5.964   5.039
 1314SOL     OW 4840   1.224   1.439   5.599
 1314SOL    HW1 4841   1.302   1.420   5.540
 1314SOL    HW2 4842   1.237   1.393   5.687
 1315SOL     OW 4843   1.482   1.141   0.785
 1315SOL    HW1 4844   1.511   1.056   0.742
 1315SOL    HW2 4845   1.502   1.218   0.724
 1316SOL     OW 4846   1.968   0.122   3.793
 1316SOL    HW1 4847   1.912   0.127   3.876
 1316SOL    HW2 4848   1.929   0.184   3.724
 1317SOL     OW 4849   0.645   4.524   4.475
 1317SOL    HW1 4850   0.685   4.436   4.499
 1317SOL    HW2 4851   0.717   4.585   4.442
 1318SOL     OW 4852   0.117   0.781   0.310
 1318SOL    HW1 4853   0.105   0.754   0.406
 1318SOL    HW2 4854   0.183   0.719   0.267
 1319SOL     OW 4855   6.503   0.848   0.896
 1319SOL    HW1 4856   6.416   0.819   0.856
 1319SOL    HW2 4857   6.556   0.899   0.828
 1320SOL     OW 4858   5.452   4.535   6.778
 1320SOL    HW1 4859   5.531   4.481   6.806
 1320SOL    HW2 4860   5.368   4.487   6.802
 1321SOL     OW 4861   4.507   3.095   6.958
 1321SOL    HW1 4862   4.429   3.055   7.007
 1321SOL    HW2 4863   4.540   3.029   6.890
 1322SOL     OW 4864   6.011   0.733   3.222
 1322SOL    HW1 4865   6.032   0.638   3.196
 1322SOL    HW2 4866   6.012   0.741   3.321
 1323SOL     OW 4867   5.586   1.862   5.491
 1323SOL    HW1 4868   5.513   1.864   5.559
 1323SOL    HW2 4869   5.670   1.829   5.534
 1324SOL     OW 4870   1.485   2.504   1.606
 1324SOL    HW1 4871   1.408   2.464   1.655
 1324SOL    HW2 4872   1.466   2.507   1.508
 1325SOL     OW 4873   1.813   6.698   3.279
 1325SOL    HW1 4874   1.747   6.660   3.214
 1325SOL    HW2 4875   1.765   6.739   3.356
 1326SOL     OW 4876   5.111   2.292   4.347
 1326SOL    HW1 4877   5.045   2.217   4.342
 1326SOL    HW2 4878   5.098   2.353   4.269
 1327SOL     OW 4879   2.596   5.271   2.912
 1327SOL    HW1 4880   2.634   5.321   2.833
 1327SOL    HW2 4881   2.567   5.336   2.982
 1328SOL     OW 4882   1.466   2.617   6.313
 1328SOL    HW1 4883   1.517   2.643   6.395
 1328SOL    HW2 4884   1.478   2.686   6.242
 1329SOL     OW 4885   0.466   1.601   0.370
 1329SOL    HW1 4886   0.384   1.652   0.344
 1329SOL    HW2 4887   0.546   1.639   0.324
 1330SOL     OW 4888   6.335   0.367   1.100
 1330SOL    HW1 4889   6.414   0.356   1.161
 1330SOL    HW2 4890   6.355   0.323   1.012
 1331SOL     OW 4891   5.720   0.882   2.677
 1331SOL    HW1 4892   5.694   0.875   2.581
 1331SOL    HW2 4893   5.794   0.949   2.688
 1332SOL     OW 4894   4.075   1.542   1.435
 1332SOL    HW1 4895   4.096   1.446   1.415
 1332SOL    HW2 4896   4.142   1.578   1.500
 1333SOL     OW 4897   3.633   4.199   5.357
 1333SOL    HW1 4898   3.688   4.152   5.426
 1333SOL    HW2 4899   3.693   4.255   5.300
 1334SOL     OW 4900   1.477   3.777   5.189
 1334SOL    HW1 4901   1.394   3.787   5.244
 1334SOL    HW2 4902   1.490   3.858   5.133
 1335SOL     OW 4903   2.138   6.314   2.737
 1335SOL    HW1 4904   2.152   6.349   2.644
 1335SOL    HW2 4905   2.056   6.256   2.738
 1336SOL     OW 4906   1.171   1.817   6.618
 1336SOL    HW1 4907   1.090   1.829   6.676
 1336SOL    HW2 4908   1.187   1.901   6.566
 1337SOL     OW 4909   1.946   2.617   6.480
 1337SOL    HW1 4910   1.985   2.615   6.388
 1337SOL    HW2 4911   1.988   2.545   6.536
 1338SOL     OW 4912   4.304   4.367   6.429
 1338SOL    HW1 4913   4.387   4.395   6.477
 1338SOL    HW2 4914   4.305   4.268   6.415
 1339SOL     OW 4915   6.896   4.744   6.237
 1339SOL    HW1 4916   6.816   4.691   6.209
 1339SOL    HW2 4917   6.933   4.706   6.322
 1340SOL     OW 4918   1.250   2.258   0.662
 1340SOL    HW1 4919   1.307   2.339   0.649
 1340SOL    HW2 4920   1.247   2.205   0.577
 1341SOL     OW 4921   3.818   0.963   4.528
 1341SOL    HW1 4922   3.745   0.968   4.460
 1341SOL    HW2 4923   3.848   1.056   4.551
 1342SOL     OW 4924   1.375   6.062   6.048
 1342SOL    HW1 4925   1.315   6.007   5.991
 1342SOL    HW2 4926   1.339   6.066   6.141
 1343SOL     OW 4927   3.346   6.540   2.621
 1343SOL    HW1 4928   3.436   6.582   2.620
 1343SOL    HW2 4929   3.294   6.573   2.700
 1344SOL     OW 4930   6.293   1.913   2.788
 1344SOL    HW1 4931   6.265   1.890   2.695
 1344SOL    HW2 4932   6.224   1.972   2.830
 1345SOL     OW 4933   0.770   1.064   3.028
 1345SOL    HW1 4934   0.774   1.035   2.933
 1345SOL    HW2 4935   0.763   1.164   3.033
 1346SOL     OW 4936   0.731   6.878   3.501
 1346SOL    HW1 4937   0.777   6.965   3.516
 1346SOL    HW2 4938   0.745   6.849   3.406
 1347SOL     OW 4939   6.611   6.620   3.132
 1347SOL    HW1 4940   6.532   6.680   3.147
 1347SOL    HW2 4941   6.694   6.675   3.128
 1348SOL     OW 4942   5.888   4.678   3.950
 1348SOL    HW1 4943   5.863   4.591   3.992
 1348SOL    HW2 4944   5.957   4.663   3.879
 1349SOL     OW 4945   4.387   2.507   0.338
 1349SOL    HW1 4946   4.415   2.470   0.249
 1349SOL    HW2 4947   4.463   2.559   0.377
 1350SOL     OW 4948   3.031   5.336   6.602
 1350SOL    HW1 4949   3.013   5.392   6.521
 1350SOL    HW2 4950   3.020   5.239   6.578
 1351SOL     OW 4951   0.774   0.371   3.441
 1351SOL    HW1 4952   0.819   0.452   3.479
 1351SOL    HW2 4953   0.678   0.393   3.420
 1352SOL     OW 4954   6.778   0.401   3.460
 1352SOL    HW1 4955   6.699   0.444   3.416
 1352SOL    HW2 4956   6.853   0.467   3.466
 1353SOL     OW 4957   0.080   3.869   5.091
 1353SOL    HW1 4958   0.026   3.943   5.131
 1353SOL    HW2 4959   0.174   3.875   5.125
 1354SOL     OW 4960   0.161   0.792   1.034
 1354SOL    HW1 4961   0.235   0.780   1.100
 1354SOL    HW2 4962   0.091   0.853   1.072
 1355SOL     OW 4963   5.392   3.896   0.353
 1355SOL    HW1 4964   5.415   3.815   0.298
 1355SOL    HW2 4965   5.319   3.947   0.307
 1356SOL     OW 4966   3.199   3.993   2.592
 1356SOL    HW1 4967   3.284   3.945   2.614
 1356SOL    HW2 4968   3.139   3.990   2.671
 1357SOL     OW 4969   2.785   2.862   6.605
 1357SOL    HW1 4970   2.860   2.818   6.557
 1357SOL    HW2 4971   2.820   2.934   6.665
 1358SOL     OW 4972   2.302   2.769   6.433
 1358SOL    HW1 4973   2.393   2.780   6.472
 1358SOL    HW2 4974   2.278   2.672   6.431
 1359SOL     OW 4975   6.097   3.541   1.507
 1359SOL    HW1 4976   6.038   3.477   1.458
 1359SOL    HW2 4977   6.180   3.557   1.455
 1360SOL     OW 4978   3.904   4.018   2.915
 1360SOL    HW1 4979   3.811   4.027   2.950
 1360SOL    HW2 4980   3.969   4.022   2.990
 1361SOL     OW 4981   0.820   6.805   6.192
 1361SOL    HW1 4982   0.886   6.783   6.120
 1361SOL    HW2 4983   0.739   6.748   6.181
 1362SOL     OW 4984   2.883   3.171   5.834
 1362SOL    HW1 4985   2.831   3.163   5.749
 1362SOL    HW2 4986   2.838   3.237   5.895
 1363SOL     OW 4987   6.631   5.852   3.347
 1363SOL    HW1 4988   6.641   5.947   3.317
 1363SOL    HW2 4989   6.711   5.825   3.400
 1364SOL     OW 4990   0.206   3.462   0.625
 1364SOL    HW1 4991   0.222   3.371   0.663
 1364SOL    HW2 4992   0.212   3.457   0.525
 1365SOL     OW 4993   1.257   3.205   5.832
 1365SOL    HW1 4994   1.322   3.166   5.897
 1365SOL    HW2 4995   1.293   3.291   5.796
 1366SOL     OW 4996   6.806   2.873   0.819
 1366SOL    HW1 4997   6.736   2.938   0.790
 1366SOL    HW2 4998   6.851   2.907   0.902
 1367SOL     OW 4999   1.444   4.066   3.541
 1367SOL    HW1 5000   1.475   4.161   3.533
 1367SOL    HW2 5001   1.348   4.060   3.514
 1368SOL     OW 5002   6.955   6.548   4.161
 1368SOL    HW1 5003   6.993   6.630   4.118
 1368SOL    HW2 5004   6.941   6.478   4.092
 1369SOL     OW 5005   1.511   5.982   1.895
 1369SOL    HW1 5006   1.571   5.985   1.976
 1369SOL    HW2 5007   1.568   5.976   1.812
 1370SOL     OW 5008   0.100   2.435   4.004
 1370SOL    HW1 5009   0.050   2.424   3.918
 1370SOL    HW2 5010   0.184   2.381   4.000
 1371SOL     OW 5011   6.109   1.260   4.666
 1371SOL    HW1 5012   6.102   1.254   4.766
 1371SOL    HW2 5013   6.203   1.281   4.640
 1372SOL     OW 5014   6.490   3.091   0.612
 1372SOL    HW1 5015   6.498   2.992   0.628
 1372SOL    HW2 5016   6.394   3.117   0.614
 1373SOL     OW 5017   4.604   2.386   1.559
 1373SOL    HW1 5018   4.691   2.428   1.534
 1373SOL    HW2 5019   4.605   2.289   1.535
 1374SOL     OW 5020   5.184   3.571   0.964
 1374SOL    HW1 5021   5.244   3.644   0.932
 1374SOL    HW2 5022   5.240   3.493   0.993
 1375SOL     OW 5023   6.827   5.891   5.651
 1375SOL    HW1 5024   6.767   5.966   5.680
 1375SOL    HW2 5025   6.784   5.841   5.575
 1376SOL     OW 5026   2.731   5.140   6.504
 1376SOL    HW1 5027   2.661   5.101   6.444
 1376SOL    HW2 5028   2.778   5.066   6.553
 1377SOL     OW 5029   0.952   2.625   3.634
 1377SOL    HW1 5030   0.953   2.630   3.535
 1377SOL    HW2 5031   1.036   2.664   3.671
 1378SOL     OW 5032   4.132   2.183   4.728
 1378SOL    HW1 5033   4.190   2.263   4.742
 1378SOL    HW2 5034   4.064   2.177   4.802
 1379SOL     OW 5035   5.049   5.218   2.074
 1379SOL    HW1 5036   5.015   5.279   2.146
 1379SOL    HW2 5037   5.148   5.225   2.068
 1380SOL     OW 5038   6.050   6.380   1.395
 1380SOL    HW1 5039   6.125   6.445   1.405
 1380SOL    HW2 5040   6.082   6.288   1.420
 1381SOL     OW 5041   5.859   2.272   6.153
 1381SOL    HW1 5042   5.870   2.298   6.057
 1381SOL    HW2 5043   5.835   2.175   6.159
 1382SOL     OW 5044   4.602   2.707   1.578
 1382SOL    HW1 5045   4.661   2.641   1.625
 1382SOL    HW2 5046   4.658   2.779   1.538
 1383SOL     OW 5047   1.683   6.389   1.826
 1383SOL    HW1 5048   1.680   6.487   1.843
 1383SOL    HW2 5049   1.716   6.372   1.733
 1384SOL     OW 5050   4.534   0.655   0.437
 1384SOL    HW1 5051   4.538   0.754   0.452
 1384SOL    HW2 5052   4.500   0.610   0.519
 1385SOL     OW 5053   1.845   4.493   3.284
 1385SOL    HW1 5054   1.890   4.407   3.308
 1385SOL    HW2 5055   1.755   4.474   3.246
 1386SOL     OW 5056   3.093   6.039   3.726
 1386SOL    HW1 5057   3.157   6.049   3.650
 1386SOL    HW2 5058   3.026   6.114   3.723
 1387SOL     OW 5059   3.756   5.719   1.529
 1387SOL    HW1 5060   3.685   5.784   1.556
 1387SOL    HW2 5061   3.814   5.759   1.458
 1388SOL     OW 5062   5.702   6.933   1.671
 1388SOL    HW1 5063   5.711   0.008   1.703
 1388SOL    HW2 5064   5.779   6.911   1.611
 1389SOL     OW 5065   5.927   0.883   3.007
 1389SOL    HW1 5066   5.945   0.827   3.087
 1389SOL    HW2 5067   5.863   0.956   3.031
 1390SOL     OW 5068   1.175   3.323   6.533
 1390SOL    HW1 5069   1.222   3.377   6.464
 1390SOL    HW2 5070   1.170   3.374   6.618
 1391SOL     OW 5071   6.696   1.049   3.929
 1391SOL    HW1 5072   6.703   0.965   3.982
 1391SOL    HW2 5073   6.774   1.108   3.949
 1392SOL     OW 5074   5.535   5.489   5.765
 1392SOL    HW1 5075   5.595   5.511   5.842
 1392SOL    HW2 5076   5.440   5.488   5.795
 1393SOL     OW 5077   6.533   5.593   5.378
 1393SOL    HW1 5078   6.503   5.508   5.335
 1393SOL    HW2 5079   6.504   5.594   5.474
 1394SOL     OW 5080   2.961   5.787   5.171
 1394SOL    HW1 5081   2.944   5.778   5.269
 1394SOL    HW2 5082   2.891   5.737   5.120
 1395SOL     OW 5083   2.618   4.816   6.242
 1395SOL    HW1 5084   2.543   4.786   6.300
 1395SOL    HW2 5085   2.640   4.744   6.176
 1396SOL     OW 5086   1.648   0.800   3.896
 1396SOL    HW1 5087   1.617   0.762   3.984
 1396SOL    HW2 5088   1.586   0.769   3.824
 1397SOL     OW 5089   0.329   0.647   4.153
 1397SOL    HW1 5090   0.372   0.728   4.113
 1397SOL    HW2 5091   0.350   0.643   4.250
 1398SOL     OW 5092   1.734   0.879   5.894
 1398SOL    HW1 5093   1.750   0.950   5.962
 1398SOL    HW2 5094   1.651   0.901   5.842
 1399SOL     OW 5095   3.770   6.518   1.227
 1399SOL    HW1 5096   3.814   6.594   1.180
 1399SOL    HW2 5097   3.682   6.548   1.264
 1400SOL     OW 5098   0.193   2.086   2.817
 1400SOL    HW1 5099   0.223   2.051   2.729
 1400SOL    HW2 5100   0.263   2.146   2.855
 1401SOL     OW 5101   0.148   1.762   5.181
 1401SOL    HW1 5102   0.079   1.791   5.247
 1401SOL    HW2 5103   0.226   1.824   5.184
 1402SOL     OW 5104   0.205   4.010   6.831
 1402SOL    HW1 5105   0.278   4.072   6.859
 1402SOL    HW2 5106   0.134   4.061   6.782
 1403SOL     OW 5107   2.875   1.713   1.674
 1403SOL    HW1 5108   2.867   1.807   1.708
 1403SOL    HW2 5109   2.972   1.688   1.666
 1404SOL     OW 5110   5.474   0.372   0.553
 1404SOL    HW1 5111   5.453   0.402   0.460
 1404SOL    HW2 5112   5.570   0.344   0.558
 1405SOL     OW 5113   2.240   4.119   1.263
 1405SOL    HW1 5114   2.182   4.186   1.217
 1405SOL    HW2 5115   2.266   4.048   1.199
 1406SOL     OW 5116   1.378   5.268   1.825
 1406SOL    HW1 5117   1.391   5.241   1.920
 1406SOL    HW2 5118   1.465   5.259   1.776
 1407SOL     OW 5119   0.516   1.968   1.686
 1407SOL    HW1 5120   0.588   1.995   1.622
 1407SOL    HW2 5121   0.557   1.943   1.773
 1408SOL     OW 5122   5.064   0.912   6.053
 1408SOL    HW1 5123   5.143   0.851   6.048
 1408SOL    HW2 5124   4.980   0.858   6.049
 1409SOL     OW 5125   0.562   6.945   5.713
 1409SOL    HW1 5126   0.532   6.864   5.662
 1409SOL    HW2 5127   0.504   6.957   5.794
 1410SOL     OW 5128   2.302   3.580   6.509
 1410SOL    HW1 5129   2.282   3.636   6.589
 1410SOL    HW2 5130   2.306   3.639   6.428
 1411SOL     OW 5131   3.044   6.118   3.135
 1411SOL    HW1 5132   3.051   6.025   3.173
 1411SOL    HW2 5133   3.001   6.114   3.045
 1412SOL     OW 5134   0.397   2.441   6.965
 1412SOL    HW1 5135   0.484   2.466   7.007
 1412SOL    HW2 5136   0.346   2.523   6.941
 1413SOL     OW 5137   1.933   1.061   5.053
 1413SOL    HW1 5138   1.947   0.992   5.123
 1413SOL    HW2 5139   1.958   1.023   4.963
 1414SOL     OW 5140   2.271   1.033   1.569
 1414SOL    HW1 5141   2.241   1.028   1.473
 1414SOL    HW2 5142   2.285   0.941   1.605
 1415SOL     OW 5143   2.517   0.517   4.437
 1415SOL    HW1 5144   2.448   0.581   4.403
 1415SOL    HW2 5145   2.489   0.483   4.527
 1416SOL     OW 5146   4.547   4.489   4.192
 1416SOL    HW1 5147   4.570   4.392   4.205
 1416SOL    HW2 5148   4.631   4.541   4.176
 1417SOL     OW 5149   2.179   2.235   0.318
 1417SOL    HW1 5150   2.087   2.198   0.307
 1417SOL    HW2 5151   2.181   2.300   0.394
 1418SOL     OW 5152   2.942   3.366   3.612
 1418SOL    HW1 5153   2.872   3.387   3.680
 1418SOL    HW2 5154   2.996   3.288   3.643
 1419SOL     OW 5155   3.232   6.459   4.754
 1419SOL    HW1 5156   3.254   6.388   4.687
 1419SOL    HW2 5157   3.316   6.488   4.801
 1420SOL     OW 5158   1.841   6.116   1.759
 1420SOL    HW1 5159   1.779   6.182   1.802
 1420SOL    HW2 5160   1.836   6.125   1.659
 1421SOL     OW 5161   2.172   3.153   3.174
 1421SOL    HW1 5162   2.094   3.130   3.233
 1421SOL    HW2 5163   2.149   3.133   3.079
 1422SOL     OW 5164   2.238   4.185   1.858
 1422SOL    HW1 5165   2.230   4.092   1.824
 1422SOL    HW2 5166   2.152   4.213   1.901
 1423SOL     OW 5167   4.997   6.293   2.089
 1423SOL    HW1 5168   4.993   6.204   2.133
 1423SOL    HW2 5169   5.052   6.356   2.144
 1424SOL     OW 5170   6.532   4.219   4.627
 1424SOL    HW1 5171   6.436   4.244   4.637
 1424SOL    HW2 5172   6.542   4.154   4.552
 1425SOL     OW 5173   1.117   6.072   4.210
 1425SOL    HW1 5174   1.104   6.035   4.118
 1425SOL    HW2 5175   1.208   6.113   4.216
 1426SOL     OW 5176   1.337   2.611   5.700
 1426SOL    HW1 5177   1.425   2.638   5.659
 1426SOL    HW2 5178   1.338   2.634   5.798
 1427SOL     OW 5179   0.108   6.926   3.051
 1427SOL    HW1 5180   0.162   7.007   3.027
 1427SOL    HW2 5181   0.119   6.856   2.980
 1428SOL     OW 5182   5.777   2.633   0.906
 1428SOL    HW1 5183   5.757   2.616   0.810
 1428SOL    HW2 5184   5.700   2.684   0.947
 1429SOL     OW 5185   6.096   2.150   6.989
 1429SOL    HW1 5186   6.155   2.223   0.002
 1429SOL    HW2 5187   6.133   2.111   6.905
 1430SOL     OW 5188   1.785   4.586   3.884
 1430SOL    HW1 5189   1.747   4.673   3.917
 1430SOL    HW2 5190   1.860   4.557   3.943
 1431SOL     OW 5191   1.947   1.664   0.858
 1431SOL    HW1 5192   1.996   1.619   0.932
 1431SOL    HW2 5193   1.863   1.614   0.837
 1432SOL     OW 5194   3.103   1.422   2.897
 1432SOL    HW1 5195   3.098   1.458   2.804
 1432SOL    HW2 5196   3.011   1.419   2.936
 1433SOL     OW 5197   4.642   1.493   3.732
 1433SOL    HW1 5198   4.588   1.525   3.809
 1433SOL    HW2 5199   4.711   1.427   3.763
 1434SOL     OW 5200   6.807   0.916   5.709
 1434SOL    HW1 5201   6.843   1.007   5.690
 1434SOL    HW2 5202   6.808   0.860   5.626
 1435SOL     OW 5203   5.653   0.927   2.399
 1435SOL    HW1 5204   5.701   0.879   2.325
 1435SOL    HW2 5205   5.561   0.890   2.407
 1436SOL     OW 5206   5.221   3.850   0.587
 1436SOL    HW1 5207   5.133   3.884   0.553
 1436SOL    HW2 5208   5.293   3.872   0.522
 1437SOL     OW 5209   2.486   2.647   3.667
 1437SOL    HW1 5210   2.440   2.640   3.755
 1437SOL    HW2 5211   2.431   2.704   3.605
 1438SOL     OW 5212   3.186   6.658   1.561
 1438SOL    HW1 5213   3.217   6.585   1.622
 1438SOL    HW2 5214   3.128   6.722   1.612
 1439SOL     OW 5215   0.156   5.655   1.434
 1439SOL    HW1 5216   0.182   5.568   1.391
 1439SOL    HW2 5217   0.119   5.717   1.364
 1440SOL     OW 5218   2.956   3.723   1.406
 1440SOL    HW1 5219   2.981   3.813   1.442
 1440SOL    HW2 5220   2.864   3.726   1.369
 1441SOL     OW 5221   5.902   0.611   2.367
 1441SOL    HW1 5222   5.808   0.578   2.374
 1441SOL    HW2 5223   5.963   0.535   2.344
 1442SOL     OW 5224   6.324   5.722   0.381
 1442SOL    HW1 5225   6.253   5.768   0.435
 1442SOL    HW2 5226   6.409   5.774   0.388
 1443SOL     OW 5227   0.964   2.305   2.600
 1443SOL    HW1 5228   1.032   2.361   2.553
 1443SOL    HW2 5229   0.872   2.338   2.578
 1444SOL     OW 5230   5.057   0.223   0.709
 1444SOL    HW1 5231   5.136   0.239   0.650
 1444SOL    HW2 5232   5.050   0.296   0.777
 1445SOL     OW 5233   0.908   2.979   2.419
 1445SOL    HW1 5234   0.910   3.007   2.515
 1445SOL    HW2 5235   0.997   2.998   2.378
 1446SOL     OW 5236   6.642   0.762   6.963
 1446SOL    HW1 5237   6.645   0.862   6.951
 1446SOL    HW2 5238   6.587   0.722   6.889
 1447SOL     OW 5239   6.072   5.279   3.748
 1447SOL    HW1 5240   6.168   5.254   3.737
 1447SOL    HW2 5241   6.065   5.365   3.799
 1448SOL     OW 5242   6.668   2.664   4.827
 1448SOL    HW1 5243   6.676   2.625   4.918
 1448SOL    HW2 5244   6.754   2.706   4.801
 1449SOL     OW 5245   0.837   4.191   4.830
 1449SOL    HW1 5246   0.803   4.284   4.816
 1449SOL    HW2 5247   0.937   4.191   4.834
 1450SOL     OW 5248   1.106   2.313   6.236
 1450SOL    HW1 5249   1.027   2.330   6.294
 1450SOL    HW2 5250   1.157   2.235   6.271
 1451SOL     OW 5251   1.341   5.964   2.327
 1451SOL    HW1 5252   1.270   5.996   2.264
 1451SOL    HW2 5253   1.372   6.041   2.383
 1452SOL     OW 5254   4.399   2.717   5.275
 1452SOL    HW1 5255   4.351   2.650   5.218
 1452SOL    HW2 5256   4.336   2.751   5.345
 1453SOL     OW 5257   0.481   4.224   5.558
 1453SOL    HW1 5258   0.426   4.298   5.520
 1453SOL    HW2 5259   0.554   4.200   5.494
 1454SOL     OW 5260   2.091   2.154   2.869
 1454SOL    HW1 5261   2.039   2.108   2.941
 1454SOL    HW2 5262   2.035   2.158   2.786
 1455SOL     OW 5263   1.436   6.174   2.509
 1455SOL    HW1 5264   1.435   6.265   2.465
 1455SOL    HW2 5265   1.530   6.150   2.533
 1456SOL     OW 5266   6.535   6.341   5.886
 1456SOL    HW1 5267   6.511   6.355   5.790
 1456SOL    HW2 5268   6.455   6.309   5.936
 1457SOL     OW 5269   1.289   4.456   0.295
 1457SOL    HW1 5270   1.280   4.383   0.362
 1457SOL    HW2 5271   1.349   4.528   0.331
 1458SOL     OW 5272   5.433   5.188   5.377
 1458SOL    HW1 5273   5.338   5.217   5.385
 1458SOL    HW2 5274   5.439   5.088   5.379
 1459SOL     OW 5275   4.382   6.848   6.151
 1459SOL    HW1 5276   4.347   6.900   6.229
 1459SOL    HW2 5277   4.364   6.751   6.165
 1460SOL     OW 5278   1.659   0.020   4.767
 1460SOL    HW1 5279   1.745   0.048   4.809
 1460SOL    HW2 5280   1.586   0.082   4.795
 1461SOL     OW 5281   0.184   4.104   3.004
 1461SOL    HW1 5282   0.235   4.093   2.919
 1461SOL    HW2 5283   0.213   4.034   3.070
 1462SOL     OW 5284   0.984   0.326   6.853
 1462SOL    HW1 5285   0.981   0.296   6.757
 1462SOL    HW2 5286   0.909   0.283   6.904
 1463SOL     OW 5287   0.674   4.413   5.668
 1463SOL    HW1 5288   0.695   4.331   5.721
 1463SOL    HW2 5289   0.598   4.393   5.605
 1464SOL     OW 5290   6.450   4.774   2.944
 1464SOL    HW1 5291   6.498   4.693   2.911
 1464SOL    HW2 5292   6.517   4.844   2.971
 1465SOL     OW 5293   2.151   2.081   4.279
 1465SOL    HW1 5294   2.215   2.157   4.267
 1465SOL    HW2 5295   2.095   2.097   4.359
 1466SOL     OW 5296   4.046   1.870   2.059
 1466SOL    HW1 5297   4.122   1.846   2.120
 1466SOL    HW2 5298   4.018   1.964   2.076
 1467SOL     OW 5299   2.184   1.234   4.238
 1467SOL    HW1 5300   2.176   1.331   4.215
 1467SOL    HW2 5301   2.214   1.183   4.157
 1468SOL     OW 5302   1.964   5.317   1.857
 1468SOL    HW1 5303   2.026   5.335   1.934
 1468SOL    HW2 5304   1.895   5.389   1.852
 1469SOL     OW 5305   6.867   6.276   2.749
 1469SOL    HW1 5306   6.768   6.268   2.758
 1469SOL    HW2 5307   6.911   6.263   2.838
 1470SOL     OW 5308   0.165   2.262   1.710
 1470SOL    HW1 5309   0.118   2.240   1.624
 1470SOL    HW2 5310   0.101   2.254   1.786
 1471SOL     OW 5311   0.828   0.395   0.216
 1471SOL    HW1 5312   0.870   0.330   0.279
 1471SOL    HW2 5313   0.811   0.349   0.128
 1472SOL     OW 5314   3.176   5.846   0.416
 1472SOL    HW1 5315   3.175   5.746   0.424
 1472SOL    HW2 5316   3.252   5.882   0.469
 1473SOL     OW 5317   3.009   5.469   4.731
 1473SOL    HW1 5318   2.915   5.438   4.747
 1473SOL    HW2 5319   3.068   5.433   4.803
 1474SOL     OW 5320   3.779   4.102   1.352
 1474SOL    HW1 5321   3.803   4.006   1.346
 1474SOL    HW2 5322   3.686   4.111   1.386
 1475SOL     OW 5323   4.811   1.370   6.810
 1475SOL    HW1 5324   4.898   1.417   6.797
 1475SOL    HW2 5325   4.804   1.296   6.743
 1476SOL     OW 5326   2.463   1.221   1.573
 1476SOL    HW1 5327   2.528   1.182   1.637
 1476SOL    HW2 5328   2.395   1.152   1.547
 1477SOL     OW 5329   4.084   0.152   0.255
 1477SOL    HW1 5330   4.132   0.197   0.180
 1477SOL    HW2 5331   3.993   0.124   0.225
 1478SOL     OW 5332   5.529   6.465   5.410
 1478SOL    HW1 5333   5.611   6.417   5.439
 1478SOL    HW2 5334   5.519   6.550   5.462
 1479SOL     OW 5335   3.455   3.499   1.733
 1479SOL    HW1 5336   3.407   3.585   1.747
 1479SOL    HW2 5337   3.518   3.482   1.809
 1480SOL     OW 5338   2.447   0.023   6.428
 1480SOL    HW1 5339   2.433   6.951   6.466
 1480SOL    HW2 5340   2.505   0.017   6.346
 1481SOL     OW 5341   6.037   3.110   5.928
 1481SOL    HW1 5342   5.980   3.082   6.005
 1481SOL    HW2 5343   6.003   3.067   5.844
 1482SOL     OW 5344   4.457   0.531   0.718
 1482SOL    HW1 5345   4.359   0.543   0.729
 1482SOL    HW2 5346   4.479   0.434   0.714
 1483SOL     OW 5347   5.756   2.721   5.638
 1483SOL    HW1 5348   5.745   2.627   5.604
 1483SOL    HW2 5349   5.736   2.786   5.564
 1484SOL     OW 5350   4.808   5.490   3.582
 1484SOL    HW1 5351   4.764   5.580   3.575
 1484SOL    HW2 5352   4.890   5.498   3.639
 1485SOL     OW 5353   5.135   0.888   3.903
 1485SOL    HW1 5354   5.153   0.820   3.974
 1485SOL    HW2 5355   5.223   0.923   3.868
 1486SOL     OW 5356   5.095   0.003   3.354
 1486SOL    HW1 5357   5.151   6.954   3.307
 1486SOL    HW2 5358   5.003   6.988   3.367
 1487SOL     OW 5359   0.210   1.016   6.531
 1487SOL    HW1 5360   0.205   1.099   6.586
 1487SOL    HW2 5361   0.255   0.944   6.583
 1488SOL     OW 5362   5.695   0.568   3.096
 1488SOL    HW1 5363   5.597   0.555   3.110
 1488SOL    HW2 5364   5.713   0.592   3.001
 1489SOL     OW 5365   4.058   4.437   5.891
 1489SOL    HW1 5366   4.129   4.366   5.889
 1489SOL    HW2 5367   4.008   4.436   5.804
 1490SOL     OW 5368   0.347   3.132   0.947
 1490SOL    HW1 5369   0.393   3.043   0.949
 1490SOL    HW2 5370   0.338   3.166   1.041
 1491SOL     OW 5371   6.600   3.799   2.657
 1491SOL    HW1 5372   6.692   3.838   2.664
 1491SOL    HW2 5373   6.598   3.727   2.588
 1492SOL     OW 5374   6.741   0.291   2.033
 1492SOL    HW1 5375   6.774   0.283   1.939
 1492SOL    HW2 5376   6.674   0.219   2.051
 1493SOL     OW 5377   3.610   0.858   6.681
 1493SOL    HW1 5378   3.672   0.871   6.603
 1493SOL    HW2 5379   3.562   0.771   6.671
 1494SOL     OW 5380   5.669   2.955   6.676
 1494SOL    HW1 5381   5.684   2.857   6.667
 1494SOL    HW2 5382   5.671   2.981   6.773
 1495SOL     OW 5383   6.722   4.232   4.001
 1495SOL    HW1 5384   6.664   4.278   4.068
 1495SOL    HW2 5385   6.787   4.173   4.049
 1496SOL     OW 5386   0.189   0.117   0.253
 1496SOL    HW1 5387   0.102   0.069   0.263
 1496SOL    HW2 5388   0.202   0.180   0.330
 1497SOL     OW 5389   4.895   3.064   2.398
 1497SOL    HW1 5390   4.851   3.017   2.474
 1497SOL    HW2 5391   4.918   3.158   2.425
 1498SOL     OW 5392   2.808   4.465   1.312
 1498SOL    HW1 5393   2.721   4.475   1.362
 1498SOL    HW2 5394   2.860   4.389   1.350
 1499SOL     OW 5395   0.942   3.709   6.275
 1499SOL    HW1 5396   0.938   3.637   6.345
 1499SOL    HW2 5397   0.893   3.679   6.193
 1500SOL     OW 5398   1.066   5.885   6.233
 1500SOL    HW1 5399   1.130   5.810   6.253
 1500SOL    HW2 5400   1.070   5.905   6.135
 1501SOL     OW 5401   5.793   1.811   6.518
 1501SOL    HW1 5402   5.807   1.892   6.575
 1501SOL    HW2 5403   5.857   1.740   6.546
 1502SOL     OW 5404   5.478   1.853   6.167
 1502SOL    HW1 5405   5.398   1.801   6.197
 1502SOL    HW2 5406   5.560   1.814   6.209
 1503SOL     OW 5407   0.587   2.930   2.981
 1503SOL    HW1 5408   0.645   2.849   2.987
 1503SOL    HW2 5409   0.567   2.950   2.885
 1504SOL     OW 5410   0.853   0.099   3.521
 1504SOL    HW1 5411   0.893   0.128   3.608
 1504SOL    HW2 5412   0.830   0.180   3.467
 1505SOL     OW 5413   5.139   6.976   5.442
 1505SOL    HW1 5414   5.161   6.997   5.347
 1505SOL    HW2 5415   5.143   6.877   5.456
 1506SOL     OW 5416   1.275   0.518   0.215
 1506SOL    HW1 5417   1.278   0.590   0.284
 1506SOL    HW2 5418   1.220   0.441   0.248
 1507SOL     OW 5419   7.001   1.503   4.321
 1507SOL    HW1 5420   6.922   1.519   4.262
 1507SOL    HW2 5421   0.007   1.588   4.367
 1508SOL     OW 5422   0.414   1.830   1.197
 1508SOL    HW1 5423   0.356   1.827   1.278
 1508SOL    HW2 5424   0.449   1.923   1.184
 1509SOL     OW 5425   4.691   1.366   4.513
 1509SOL    HW1 5426   4.646   1.419   4.441
 1509SOL    HW2 5427   4.761   1.422   4.557
 1510SOL     OW 5428   4.834   0.028   4.536
 1510SOL    HW1 5429   4.918   0.079   4.552
 1510SOL    HW2 5430   4.838   6.960   4.584
 1511SOL     OW 5431   3.550   3.826   4.060
 1511SOL    HW1 5432   3.572   3.819   4.157
 1511SOL    HW2 5433   3.593   3.908   4.022
 1512SOL     OW 5434   6.072   5.424   1.408
 1512SOL    HW1 5435   5.983   5.384   1.431
 1512SOL    HW2 5436   6.093   5.498   1.471
 1513SOL     OW 5437   3.259   0.137   4.560
 1513SOL    HW1 5438   3.284   0.101   4.470
 1513SOL    HW2 5439   3.181   0.087   4.597
 1514SOL     OW 5440   3.536   2.421   5.901
 1514SOL    HW1 5441   3.547   2.497   5.837
 1514SOL    HW2 5442   3.482   2.349   5.859
 1515SOL     OW 5443   6.693   1.284   2.117
 1515SOL    HW1 5444   6.647   1.272   2.029
 1515SOL    HW2 5445   6.630   1.328   2.182
 1516SOL     OW 5446   6.036   5.254   5.186
 1516SOL    HW1 5447   6.132   5.246   5.212
 1516SOL    HW2 5448   6.011   5.177   5.127
 1517SOL     OW 5449   4.368   6.789   3.049
 1517SOL    HW1 5450   4.369   6.702   3.097
 1517SOL    HW2 5451   4.407   6.860   3.107
 1518SOL     OW 5452   6.368   3.628   0.519
 1518SOL    HW1 5453   6.286   3.605   0.571
 1518SOL    HW2 5454   6.410   3.710   0.557
 1519SOL     OW 5455   6.564   4.277   1.029
 1519SOL    HW1 5456   6.529   4.255   1.120
 1519SOL    HW2 5457   6.652   4.231   1.015
 1520SOL     OW 5458   0.752   4.587   1.546
 1520SOL    HW1 5459   0.719   4.500   1.583
 1520SOL    HW2 5460   0.679   4.654   1.547
 1521SOL     OW 5461   1.779   4.613   0.164
 1521SOL    HW1 5462   1.736   4.695   0.201
 1521SOL    HW2 5463   1.813   4.632   0.072
 1522SOL     OW 5464   5.690   5.345   4.367
 1522SOL    HW1 5465   5.705   5.250   4.342
 1522SOL    HW2 5466   5.600   5.356   4.408
 1523SOL     OW 5467   3.623   6.553   6.709
 1523SOL    HW1 5468   3.606   6.516   6.801
 1523SOL    HW2 5469   3.537   6.558   6.659
 1524SOL     OW 5470   2.815   2.062   2.459
 1524SOL    HW1 5471   2.837   2.010   2.377
 1524SOL    HW2 5472   2.830   2.005   2.540
 1525SOL     OW 5473   5.683   2.816   1.100
 1525SOL    HW1 5474   5.691   2.914   1.081
 1525SOL    HW2 5475   5.605   2.800   1.160
 1526SOL     OW 5476   0.361   0.712   6.476
 1526SOL    HW1 5477   0.381   0.787   6.414
 1526SOL    HW2 5478   0.355   0.746   6.570
 1527SOL     OW 5479   3.744   0.697   4.613
 1527SOL    HW1 5480   3.683   0.699   4.693
 1527SOL    HW2 5481   3.810   0.771   4.620
 1528SOL     OW 5482   4.022   5.090   1.638
 1528SOL    HW1 5483   4.010   5.134   1.549
 1528SOL    HW2 5484   4.072   5.004   1.625
 1529SOL     OW 5485   4.797   1.162   6.622
 1529SOL    HW1 5486   4.835   1.083   6.670
 1529SOL    HW2 5487   4.864   1.195   6.556
 1530SOL     OW 5488   2.886   1.144   1.460
 1530SOL    HW1 5489   2.883   1.145   1.360
 1530SOL    HW2 5490   2.970   1.101   1.490
 1531SOL     OW 5491   4.888   0.581   4.492
 1531SOL    HW1 5492   4.930   0.492   4.474
 1531SOL    HW2 5493   4.941   0.629   4.562
 1532SOL     OW 5494   3.475   4.562   5.592
 1532SOL    HW1 5495   3.470   4.638   5.528
 1532SOL    HW2 5496   3.410   4.490   5.564
 1533SOL     OW 5497   5.405   5.827   0.174
 1533SOL    HW1 5498   5.316   5.783   0.183
 1533SOL    HW2 5499   5.468   5.765   0.127
 1534SOL     OW 5500   3.485   5.303   6.741
 1534SOL    HW1 5501   3.547   5.356   6.798
 1534SOL    HW2 5502   3.534   5.270   6.660
 1535SOL     OW 5503   5.545   6.072   4.708
 1535SOL    HW1 5504   5.473   6.120   4.758
 1535SOL    HW2 5505   5.582   6.132   4.637
 1536SOL     OW 5506   3.942   4.982   6.649
 1536SOL    HW1 5507   3.858   4.986   6.594
 1536SOL    HW2 5508   3.987   4.894   6.635
 1537SOL     OW 5509   4.342   5.395   3.444
 1537SOL    HW1 5510   4.388   5.319   3.398
 1537SOL    HW2 5511   4.390   5.416   3.530
 1538SOL     OW 5512   2.782   0.877   6.783
 1538SOL    HW1 5513   2.756   0.973   6.781
 1538SOL    HW2 5514   2.850   0.862   6.856
 1539SOL     OW 5515   4.902   2.936   2.157
 1539SOL    HW1 5516   4.850   2.998   2.099
 1539SOL    HW2 5517   4.895   2.966   2.252
 1540SOL     OW 5518   0.195   6.427   5.581
 1540SOL    HW1 5519   0.139   6.509   5.592
 1540SOL    HW2 5520   0.230   6.398   5.670
 1541SOL     OW 5521   2.939   3.494   4.299
 1541SOL    HW1 5522   2.888   3.571   4.261
 1541SOL    HW2 5523   3.024   3.483   4.248
 1542SOL     OW 5524   6.484   6.920   1.733
 1542SOL    HW1 5525   6.471   6.999   1.793
 1542SOL    HW2 5526   6.502   6.952   1.640
 1543SOL     OW 5527   3.693   5.464   5.743
 1543SOL    HW1 5528   3.658   5.526   5.813
 1543SOL    HW2 5529   3.787   5.439   5.766
 1544SOL     OW 5530   3.151   3.752   3.686
 1544SOL    HW1 5531   3.109   3.693   3.618
 1544SOL    HW2 5532   3.145   3.847   3.655
 1545SOL     OW 5533   5.571   0.709   2.852
 1545SOL    HW1 5534   5.643   0.760   2.804
 1545SOL    HW2 5535   5.572   0.733   2.949
 1546SOL     OW 5536   5.641   6.176   6.082
 1546SOL    HW1 5537   5.725   6.126   6.101
 1546SOL    HW2 5538   5.563   6.125   6.118
 1547SOL     OW 5539   1.389   3.605   1.340
 1547SOL    HW1 5540   1.451   3.542   1.293
 1547SOL    HW2 5541   1.406   3.601   1.438
 1548SOL     OW 5542   4.891   3.812   0.300
 1548SOL    HW1 5543   4.794   3.788   0.303
 1548SOL    HW2 5544   4.916   3.864   0.381
 1549SOL     OW 5545   4.303   1.218   3.181
 1549SOL    HW1 5546   4.377   1.260   3.128
 1549SOL    HW2 5547   4.334   1.201   3.274
 1550SOL     OW 5548   3.689   3.501   1.225
 1550SOL    HW1 5549   3.630   3.572   1.265
 1550SOL    HW2 5550   3.704   3.521   1.128
 1551SOL     OW 5551   1.417   4.938   6.657
 1551SOL    HW1 5552   1.326   4.898   6.662
 1551SOL    HW2 5553   1.484   4.874   6.694
 1552SOL     OW 5554   1.555   5.533   0.664
 1552SOL    HW1 5555   1.539   5.631   0.649
 1552SOL    HW2 5556   1.654   5.515   0.659
 1553SOL     OW 5557   6.787   1.697   6.123
 1553SOL    HW1 5558   6.715   1.703   6.193
 1553SOL    HW2 5559   6.876   1.689   6.168
 1554SOL     OW 5560   3.105   1.823   3.436
 1554SOL    HW1 5561   3.088   1.735   3.392
 1554SOL    HW2 5562   3.066   1.896   3.380
 1555SOL     OW 5563   6.056   3.404   6.754
 1555SOL    HW1 5564   6.054   3.377   6.658
 1555SOL    HW2 5565   5.982   3.358   6.803
 1556SOL     OW 5566   1.999   1.621   6.351
 1556SOL    HW1 5567   1.994   1.651   6.255
 1556SOL    HW2 5568   2.035   1.528   6.355
 1557SOL     OW 5569   2.198   4.262   5.997
 1557SOL    HW1 5570   2.169   4.355   5.976
 1557SOL    HW2 5571   2.168   4.236   6.089
 1558SOL     OW 5572   6.228   0.881   4.240
 1558SOL    HW1 5573   6.298   0.814   4.263
 1558SOL    HW2 5574   6.243   0.965   4.293
 1559SOL     OW 5575   1.667   3.412   6.338
 1559SOL    HW1 5576   1.588   3.373   6.292
 1559SOL    HW2 5577   1.640   3.446   6.428
 1560SOL     OW 5578   0.290   0.480   6.172
 1560SOL    HW1 5579   0.319   0.386   6.153
 1560SOL    HW2 5580   0.351   0.544   6.125
 1561SOL     OW 5581   4.914   6.686   3.756
 1561SOL    HW1 5582   4.912   6.617   3.828
 1561SOL    HW2 5583   4.825   6.733   3.753
 1562SOL     OW 5584   4.981   6.165   2.442
 1562SOL    HW1 5585   5.034   6.248   2.424
 1562SOL    HW2 5586   4.925   6.178   2.524
 1563SOL     OW 5587   2.714   0.784   5.485
 1563SOL    HW1 5588   2.773   0.852   5.442
 1563SOL    HW2 5589   2.668   0.825   5.564
 1564SOL     OW 5590   1.066   0.333   3.395
 1564SOL    HW1 5591   0.973   0.335   3.359
 1564SOL    HW2 5592   1.082   0.412   3.453
 1565SOL     OW 5593   4.499   4.445   2.870
 1565SOL    HW1 5594   4.520   4.464   2.774
 1565SOL    HW2 5595   4.423   4.502   2.900
 1566SOL     OW 5596   5.618   3.831   3.114
 1566SOL    HW1 5597   5.613   3.894   3.036
 1566SOL    HW2 5598   5.578   3.744   3.088
 1567SOL     OW 5599   6.017   6.173   0.345
 1567SOL    HW1 5600   6.057   6.249   0.295
 1567SOL    HW2 5601   5.921   6.162   0.319
 1568SOL     OW 5602   1.234   0.261   0.338
 1568SOL    HW1 5603   1.259   0.166   0.357
 1568SOL    HW2 5604   1.138   0.276   0.361
 1569SOL     OW 5605   4.577   6.294   3.236
 1569SOL    HW1 5606   4.497   6.237   3.215
 1569SOL    HW2 5607   4.567   6.332   3.328
 1570SOL     OW 5608   2.452   0.553   0.652
 1570SOL    HW1 5609   2.529   0.617   0.642
 1570SOL    HW2 5610   2.436   0.506   0.566
 1571SOL     OW 5611   5.661   3.082   1.046
 1571SOL    HW1 5612   5.587   3.114   1.106
 1571SOL    HW2 5613   5.631   3.085   0.951
 1572SOL     OW 5614   0.798   0.221   2.418
 1572SOL    HW1 5615   0.767   0.137   2.461
 1572SOL    HW2 5616   0.802   0.208   2.319
 1573SOL     OW 5617   5.160   1.406   1.852
 1573SOL    HW1 5618   5.063   1.384   1.855
 1573SOL    HW2 5619   5.198   1.404   1.944
 1574SOL     OW 5620   0.330   1.813   1.472
 1574SOL    HW1 5621   0.337   1.867   1.556
 1574SOL    HW2 5622   0.421   1.779   1.446
 1575SOL     OW 5623   2.346   1.783   0.324
 1575SOL    HW1 5624   2.278   1.779   0.398
 1575SOL    HW2 5625   2.404   1.702   0.328
 1576SOL     OW 5626   6.353   6.356   4.179
 1576SOL    HW1 5627   6.400   6.436   4.143
 1576SOL    HW2 5628   6.299   6.313   4.106
 1577SOL     OW 5629   2.684   1.574   4.787
 1577SOL    HW1 5630   2.696   1.525   4.873
 1577SOL    HW2 5631   2.593   1.555   4.749
 1578SOL     OW 5632   6.205   3.398   5.438
 1578SOL    HW1 5633   6.157   3.419   5.523
 1578SOL    HW2 5634   6.155   3.329   5.387
 1579SOL     OW 5635   0.075   1.537   3.424
 1579SOL    HW1 5636   0.045   1.445   3.447
 1579SOL    HW2 5637   0.164   1.554   3.468
 1580SOL     OW 5638   2.888   4.047   5.281
 1580SOL    HW1 5639   2.945   4.125   5.255
 1580SOL    HW2 5640   2.827   4.073   5.356
 1581SOL     OW 5641   6.923   4.551   4.301
 1581SOL    HW1 5642   6.976   4.607   4.365
 1581SOL    HW2 5643   6.985   4.487   4.255
 1582SOL     OW 5644   1.256   5.744   4.730
 1582SOL    HW1 5645   1.164   5.783   4.729
 1582SOL    HW2 5646   1.312   5.789   4.661
 1583SOL     OW 5647   2.043   2.307   3.790
 1583SOL    HW1 5648   2.077   2.350   3.873
 1583SOL    HW2 5649   2.032   2.209   3.804
 1584SOL     OW 5650   2.180   6.811   4.966
 1584SOL    HW1 5651   2.081   6.799   4.980
 1584SOL    HW2 5652   2.214   6.741   4.904
 1585SOL     OW 5653   5.603   1.473   3.483
 1585SOL    HW1 5654   5.524   1.470   3.544
 1585SOL    HW2 5655   5.573   1.486   3.389
 1586SOL     OW 5656   3.921   3.888   2.317
 1586SOL    HW1 5657   3.956   3.962   2.260
 1586SOL    HW2 5658   3.941   3.908   2.413
 1587SOL     OW 5659   2.993   5.410   6.321
 1587SOL    HW1 5660   3.026   5.328   6.276
 1587SOL    HW2 5661   3.062   5.482   6.314
 1588SOL     OW 5662   5.064   1.566   3.503
 1588SOL    HW1 5663   5.115   1.650   3.486
 1588SOL    HW2 5664   5.126   1.496   3.540
 1589SOL     OW 5665   5.705   4.078   3.387
 1589SOL    HW1 5666   5.649   3.995   3.386
 1589SOL    HW2 5667   5.756   4.084   3.300
 1590SOL     OW 5668   1.754   6.612   0.070
 1590SOL    HW1 5669   1.792   6.654   0.153
 1590SOL    HW2 5670   1.761   6.512   0.077
 1591SOL     OW 5671   0.846   4.883   2.878
 1591SOL    HW1 5672   0.905   4.828   2.938
 1591SOL    HW2 5673   0.875   4.872   2.783
 1592SOL     OW 5674   2.684   3.914   1.588
 1592SOL    HW1 5675   2.626   3.970   1.647
 1592SOL    HW2 5676   2.705   3.828   1.635
 1593SOL     OW 5677   1.313   6.474   4.248
 1593SOL    HW1 5678   1.305   6.400   4.182
 1593SOL    HW2 5679   1.238   6.468   4.314
 1594SOL     OW 5680   0.362   5.160   3.512
 1594SOL    HW1 5681   0.444   5.157   3.455
 1594SOL    HW2 5682   0.369   5.092   3.585
 1595SOL     OW 5683   0.070   4.609   6.504
 1595SOL    HW1 5684   0.155   4.650   6.473
 1595SOL    HW2 5685   0.080   4.509   6.507
 1596SOL     OW 5686   1.512   4.217   5.206
 1596SOL    HW1 5687   1.606   4.209   5.171
 1596SOL    HW2 5688   1.493   4.313   5.227
 1597SOL     OW 5689   2.654   5.739   0.714
 1597SOL    HW1 5690   2.630   5.832   0.743
 1597SOL    HW2 5691   2.573   5.694   0.675
 1598SOL     OW 5692   0.439   3.925   0.217
 1598SOL    HW1 5693   0.410   3.952   0.125
 1598SOL    HW2 5694   0.384   3.848   0.248
 1599SOL     OW 5695   4.625   3.385   5.758
 1599SOL    HW1 5696   4.647   3.382   5.855
 1599SOL    HW2 5697   4.615   3.292   5.723
 1600SOL     OW 5698   5.275   1.838   4.358
 1600SOL    HW1 5699   5.186   1.830   4.314
 1600SOL    HW2 5700   5.263   1.850   4.457
 1601SOL     OW 5701   1.590   4.672   4.632
 1601SOL    HW1 5702   1.620   4.577   4.643
 1601SOL    HW2 5703   1.662   4.733   4.664
 1602SOL     OW 5704   1.611   5.435   3.875
 1602SOL    HW1 5705   1.688   5.472   3.927
 1602SOL    HW2 5706   1.528   5.438   3.931
 1603SOL     OW 5707   1.364   6.671   1.915
 1603SOL    HW1 5708   1.419   6.707   1.990
 1603SOL    HW2 5709   1.363   6.737   1.840
 1604SOL     OW 5710   5.853   5.247   6.988
 1604SOL    HW1 5711   5.770   5.248   6.931
 1604SOL    HW2 5712   5.933   5.229   6.930
 1605SOL     OW 5713   6.391   0.340   1.878
 1605SOL    HW1 5714   6.421   0.427   1.839
 1605SOL    HW2 5715   6.295   0.346   1.903
 1606SOL     OW 5716   4.313   0.796   5.197
 1606SOL    HW1 5717   4.310   0.895   5.181
 1606SOL    HW2 5718   4.271   0.748   5.119
 1607SOL     OW 5719   5.197   2.466   1.188
 1607SOL    HW1 5720   5.167   2.379   1.151
 1607SOL    HW2 5721   5.146   2.540   1.144
 1608SOL     OW 5722   1.492   0.318   6.380
 1608SOL    HW1 5723   1.430   0.359   6.314
 1608SOL    HW2 5724   1.512   0.223   6.353
 1609SOL     OW 5725   5.900   1.979   6.166
 1609SOL    HW1 5726   5.983   2.004   6.216
 1609SOL    HW2 5727   5.849   1.911   6.218
 1610SOL     OW 5728   5.680   4.093   4.985
 1610SOL    HW1 5729   5.731   4.132   4.908
 1610SOL    HW2 5730   5.621   4.019   4.952
 1611SOL     OW 5731   4.170   3.317   2.070
 1611SOL    HW1 5732   4.113   3.390   2.107
 1611SOL    HW2 5733   4.180   3.330   1.971
 1612SOL     OW 5734   2.758   1.437   5.506
 1612SOL    HW1 5735   2.733   1.488   5.588
 1612SOL    HW2 5736   2.756   1.339   5.526
 1613SOL     OW 5737   2.276   5.620   0.898
 1613SOL    HW1 5738   2.228   5.688   0.954
 1613SOL    HW2 5739   2.322   5.554   0.957
 1614SOL     OW 5740   6.873   3.610   0.493
 1614SOL    HW1 5741   6.960   3.658   0.486
 1614SOL    HW2 5742   6.882   3.517   0.459
 1615SOL     OW 5743   0.044   4.767   1.518
 1615SOL    HW1 5744   0.074   4.694   1.579
 1615SOL    HW2 5745   0.012   4.845   1.572
 1616SOL     OW 5746   4.314   2.142   6.378
 1616SOL    HW1 5747   4.251   2.075   6.340
 1616SOL    HW2 5748   4.299   2.151   6.476
 1617SOL     OW 5749   5.715   0.684   1.996
 1617SOL    HW1 5750   5.770   0.600   1.995
 1617SOL    HW2 5751   5.746   0.744   1.922
 1618SOL     OW 5752   0.159   3.828   1.592
 1618SOL    HW1 5753   0.194   3.918   1.617
 1618SOL    HW2 5754   0.181   3.809   1.496
 1619SOL     OW 5755   1.463   3.110   3.755
 1619SOL    HW1 5756   1.394   3.118   3.682
 1619SOL    HW2 5757   1.509   3.022   3.746
 1620SOL     OW 5758   1.964   5.686   0.565
 1620SOL    HW1 5759   2.039   5.647   0.511
 1620SOL    HW2 5760   1.882   5.692   0.509
 1621SOL     OW 5761   0.337   0.844   6.715
 1621SOL    HW1 5762   0.267   0.841   6.786
 1621SOL    HW2 5763   0.425   0.816   6.753
 1622SOL     OW 5764   1.623   2.042   5.054
 1622SOL    HW1 5765   1.616   2.010   5.148
 1622SOL    HW2 5766   1.715   2.023   5.018
 1623SOL     OW 5767   2.560   3.025   6.433
 1623SOL    HW1 5768   2.538   2.933   6.466
 1623SOL    HW2 5769   2.659   3.037   6.435
 1624SOL     OW 5770   2.265   0.895   6.572
 1624SOL    HW1 5771   2.265   0.975   6.632
 1624SOL    HW2 5772   2.324   0.824   6.611
 1625SOL     OW 5773   1.110   5.527   2.360
 1625SOL    HW1 5774   1.157   5.470   2.427
 1625SOL    HW2 5775   1.013   5.502   2.356
 1626SOL     OW 5776   2.392   1.894   6.823
 1626SOL    HW1 5777   2.453   1.912   6.900
 1626SOL    HW2 5778   2.331   1.973   6.811
 1627SOL     OW 5779   6.380   1.566   4.456
 1627SOL    HW1 5780   6.412   1.597   4.546
 1627SOL    HW2 5781   6.426   1.617   4.384
 1628SOL     OW 5782   3.900   5.071   0.262
 1628SOL    HW1 5783   3.902   4.994   0.199
 1628SOL    HW2 5784   3.963   5.142   0.230
 1629SOL     OW 5785   2.722   2.393   4.620
 1629SOL    HW1 5786   2.712   2.419   4.716
 1629SOL    HW2 5787   2.804   2.336   4.609
 1630SOL     OW 5788   0.456   5.975   5.401
 1630SOL    HW1 5789   0.551   5.946   5.417
 1630SOL    HW2 5790   0.410   5.986   5.489
 1631SOL     OW 5791   6.968   0.788   5.916
 1631SOL    HW1 5792   6.920   0.823   5.996
 1631SOL    HW2 5793   6.923   0.821   5.833
 1632SOL     OW 5794   7.001   1.373   6.874
 1632SOL    HW1 5795   0.003   1.471   6.878
 1632SOL    HW2 5796   6.902   1.361   6.860
 1633SOL     OW 5797   6.026   3.028   2.546
 1633SOL    HW1 5798   6.051   2.940   2.588
 1633SOL    HW2 5799   5.978   3.011   2.460
 1634SOL     OW 5800   4.256   6.168   6.176
 1634SOL    HW1 5801   4.165   6.157   6.137
 1634SOL    HW2 5802   4.324   6.128   6.115
 1635SOL     OW 5803   6.712   5.905   4.785
 1635SOL    HW1 5804   6.657   5.911   4.702
 1635SOL    HW2 5805   6.790   5.967   4.779
 1636SOL     OW 5806   2.530   4.908   1.481
 1636SOL    HW1 5807   2.595   4.881   1.553
 1636SOL    HW2 5808   2.457   4.962   1.521
 1637SOL     OW 5809   6.523   2.230   2.742
 1637SOL    HW1 5810   6.511   2.148   2.799
 1637SOL    HW2 5811   6.448   2.235   2.676
 1638SOL     OW 5812   0.099   3.587   4.066
 1638SOL    HW1 5813   0.064   3.501   4.031
 1638SOL    HW2 5814   0.044   3.663   4.030
 1639SOL     OW 5815   5.388   5.772   2.923
 1639SOL    HW1 5816   5.376   5.774   3.022
 1639SOL    HW2 5817   5.318   5.827   2.879
 1640SOL     OW 5818   5.920   2.321   0.361
 1640SOL    HW1 5819   5.835   2.319   0.309
 1640SOL    HW2 5820   5.987   2.260   0.317
 1641SOL     OW 5821   5.576   3.183   3.542
 1641SOL    HW1 5822   5.483   3.151   3.523
 1641SOL    HW2 5823   5.611   3.137   3.624
 1642SOL     OW 5824   6.977   3.566   6.878
 1642SOL    HW1 5825   7.013   3.643   6.825
 1642SOL    HW2 5826   6.888   3.539   6.842
 1643SOL     OW 5827   3.724   6.485   4.839
 1643SOL    HW1 5828   3.775   6.544   4.776
 1643SOL    HW2 5829   3.723   6.391   4.805
 1644SOL     OW 5830   2.710   2.782   1.310
 1644SOL    HW1 5831   2.647   2.705   1.323
 1644SOL    HW2 5832   2.765   2.794   1.392
 1645SOL     OW 5833   3.042   6.243   5.713
 1645SOL    HW1 5834   2.984   6.285   5.643
 1645SOL    HW2 5835   2.985   6.211   5.789
 1646SOL     OW 5836   3.004   4.808   1.221
 1646SOL    HW1 5837   2.971   4.758   1.301
 1646SOL    HW2 5838   2.951   4.780   1.141
 1647SOL     OW 5839   5.861   2.725   3.296
 1647SOL    HW1 5840   5.838   2.700   3.391
 1647SOL    HW2 5841   5.960   2.735   3.287
 1648SOL     OW 5842   5.160   6.307   1.867
 1648SOL    HW1 5843   5.073   6.300   1.917
 1648SOL    HW2 5844   5.230   6.253   1.914
 1649SOL     OW 5845   3.416   0.221   2.920
 1649SOL    HW1 5846   3.465   0.232   3.006
 1649SOL    HW2 5847   3.448   0.290   2.855
 1650SOL     OW 5848   2.956   6.940   4.469
 1650SOL    HW1 5849   2.904   6.857   4.485
 1650SOL    HW2 5850   3.000   6.935   4.379
 1651SOL     OW 5851   0.584   0.034   0.422
 1651SOL    HW1 5852   0.593   0.127   0.386
 1651SOL    HW2 5853   0.581   6.988   0.346
 1652SOL     OW 5854   1.994   1.931   0.816
 1652SOL    HW1 5855   1.997   1.833   0.836
 1652SOL    HW2 5856   1.907   1.969   0.847
 1653SOL     OW 5857   0.480   4.888   1.409
 1653SOL    HW1 5858   0.430   4.823   1.467
 1653SOL    HW2 5859   0.420   4.919   1.336
 1654SOL     OW 5860   0.099   2.724   2.370
 1654SOL    HW1 5861   0.093   2.817   2.334
 1654SOL    HW2 5862   0.129   2.661   2.298
 1655SOL     OW 5863   5.420   4.252   6.208
 1655SOL    HW1 5864   5.390   4.199   6.287
 1655SOL    HW2 5865   5.393   4.348   6.219
 1656SOL     OW 5866   1.782   4.150   3.569
 1656SOL    HW1 5867   1.748   4.058   3.550
 1656SOL    HW2 5868   1.801   4.159   3.667
 1657SOL     OW 5869   1.040   0.943   5.690
 1657SOL    HW1 5870   1.011   0.870   5.627
 1657SOL    HW2 5871   1.136   0.931   5.713
 1658SOL     OW 5872   6.578   6.508   2.814
 1658SOL    HW1 5873   6.667   6.491   2.855
 1658SOL    HW2 5874   6.507   6.462   2.868
 1659SOL     OW 5875   3.827   2.158   6.522
 1659SOL    HW1 5876   3.768   2.239   6.528
 1659SOL    HW2 5877   3.773   2.080   6.489
 1660SOL     OW 5878   0.719   5.467   4.330
 1660SOL    HW1 5879   0.771   5.552   4.341
 1660SOL    HW2 5880   0.622   5.486   4.337
 1661SOL     OW 5881   3.224   1.831   2.317
 1661SOL    HW1 5882   3.228   1.876   2.406
 1661SOL    HW2 5883   3.241   1.899   2.245
 1662SOL     OW 5884   6.388   1.580   3.201
 1662SOL    HW1 5885   6.416   1.492   3.239
 1662SOL    HW2 5886   6.421   1.588   3.108
 1663SOL     OW 5887   3.132   0.420   3.020
 1663SOL    HW1 5888   3.130   0.321   3.010
 1663SOL    HW2 5889   3.209   0.457   2.968
 1664SOL     OW 5890   1.608   6.935   4.099
 1664SOL    HW1 5891   1.525   6.925   4.153
 1664SOL    HW2 5892   1.687   6.903   4.152
 1665SOL     OW 5893   0.009   1.453   2.866
 1665SOL    HW1 5894   0.063   1.402   2.799
 1665SOL    HW2 5895   0.060   1.463   2.951
 1666SOL     OW 5896   6.215   3.253   6.942
 1666SOL    HW1 5897   6.182   3.318   6.874
 1666SOL    HW2 5898   6.225   3.163   6.901
 1667SOL     OW 5899   5.735   0.322   0.585
 1667SOL    HW1 5900   5.789   0.266   0.649
 1667SOL    HW2 5901   5.795   0.388   0.541
 1668SOL     OW 5902   5.047   0.134   4.643
 1668SOL    HW1 5903   5.112   0.086   4.703
 1668SOL    HW2 5904   4.997   0.202   4.696
 1669SOL     OW 5905   6.080   6.415   0.241
 1669SOL    HW1 5906   6.033   6.478   0.179
 1669SOL    HW2 5907   6.089   6.457   0.331
 1670SOL     OW 5908   6.380   5.883   6.009
 1670SOL    HW1 5909   6.466   5.852   5.968
 1670SOL    HW2 5910   6.304   5.830   5.972
 1671SOL     OW 5911   4.569   2.688   1.145
 1671SOL    HW1 5912   4.501   2.757   1.169
 1671SOL    HW2 5913   4.562   2.611   1.209
 1672SOL     OW 5914   2.109   4.234   2.659
 1672SOL    HW1 5915   2.140   4.163   2.596
 1672SOL    HW2 5916   2.188   4.284   2.694
 1673SOL     OW 5917   0.148   2.929   4.657
 1673SOL    HW1 5918   0.058   2.929   4.700
 1673SOL    HW2 5919   0.154   2.854   4.591
 1674SOL     OW 5920   1.674   4.226   1.148
 1674SOL    HW1 5921   1.744   4.223   1.077
 1674SOL    HW2 5922   1.663   4.135   1.187
 1675SOL     OW 5923   4.624   0.505   6.488
 1675SOL    HW1 5924   4.649   0.534   6.396
 1675SOL    HW2 5925   4.704   0.469   6.535
 1676SOL     OW 5926   2.331   1.006   2.549
 1676SOL    HW1 5927   2.367   1.038   2.461
 1676SOL    HW2 5928   2.366   0.914   2.567
 1677SOL     OW 5929   5.132   2.006   5.386
 1677SOL    HW1 5930   5.058   1.982   5.322
 1677SOL    HW2 5931   5.175   2.091   5.357
 1678SOL     OW 5932   5.535   5.070   3.761
 1678SOL    HW1 5933   5.565   4.996   3.822
 1678SOL    HW2 5934   5.555   5.158   3.804
 1679SOL     OW 5935   1.655   3.727   5.475
 1679SOL    HW1 5936   1.749   3.759   5.490
 1679SOL    HW2 5937   1.629   3.745   5.380
 1680SOL     OW 5938   0.896   1.321   4.073
 1680SOL    HW1 5939   0.869   1.225   4.067
 1680SOL    HW2 5940   0.971   1.340   4.010
 1681SOL     OW 5941   6.222   5.311   1.204
 1681SOL    HW1 5942   6.185   5.329   1.295
 1681SOL    HW2 5943   6.191   5.383   1.141
 1682SOL     OW 5944   0.570   3.089   4.638
 1682SOL    HW1 5945   0.481   3.076   4.681
 1682SOL    HW2 5946   0.562   3.155   4.563
 1683SOL     OW 5947   3.901   4.850   0.923
 1683SOL    HW1 5948   3.862   4.778   0.865
 1683SOL    HW2 5949   4.000   4.840   0.926
 1684SOL     OW 5950   0.786   6.675   4.613
 1684SOL    HW1 5951   0.883   6.696   4.630
 1684SOL    HW2 5952   0.734   6.760   4.608
 1685SOL     OW 5953   1.892   1.070   6.400
 1685SOL    HW1 5954   1.820   1.001   6.392
 1685SOL    HW2 5955   1.865   1.138   6.468
 1686SOL     OW 5956   1.830   5.829   5.763
 1686SOL    HW1 5957   1.862   5.736   5.783
 1686SOL    HW2 5958   1.903   5.879   5.716
 1687SOL     OW 5959   1.753   3.409   1.827
 1687SOL    HW1 5960   1.726   3.499   1.860
 1687SOL    HW2 5961   1.847   3.389   1.858
 1688SOL     OW 5962   1.837   1.544   3.094
 1688SOL    HW1 5963   1.741   1.571   3.090
 1688SOL    HW2 5964   1.894   1.626   3.098
 1689SOL     OW 5965   3.329   1.536   2.074
 1689SOL    HW1 5966   3.245   1.511   2.122
 1689SOL    HW2 5967   3.395   1.571   2.140
 1690SOL     OW 5968   1.537   1.827   3.271
 1690SOL    HW1 5969   1.562   1.912   3.224
 1690SOL    HW2 5970   1.616   1.794   3.323
 1691SOL     OW 5971   5.324   3.954   3.204
 1691SOL    HW1 5972   5.227   3.973   3.188
 1691SOL    HW2 5973   5.337   3.856   3.219
 1692SOL     OW 5974   6.788   6.890   0.993
 1692SOL    HW1 5975   6.770   6.962   0.926
 1692SOL    HW2 5976   6.868   6.913   1.047
 1693SOL     OW 5977   1.949   2.028   3.455
 1693SOL    HW1 5978   1.909   1.936   3.455
 1693SOL    HW2 5979   1.878   2.095   3.475
 1694SOL     OW 5980   4.323   6.438   4.711
 1694SOL    HW1 5981   4.225   6.439   4.732
 1694SOL    HW2 5982   4.342   6.505   4.640
 1695SOL     OW 5983   2.707   1.944   5.039
 1695SOL    HW1 5984   2.630   1.920   4.981
 1695SOL    HW2 5985   2.762   2.014   4.995
 1696SOL     OW 5986   4.650   5.436   0.359
 1696SOL    HW1 5987   4.634   5.512   0.296
 1696SOL    HW2 5988   4.747   5.433   0.385
 1697SOL     OW 5989   0.814   6.886   1.151
 1697SOL    HW1 5990   0.842   6.833   1.230
 1697SOL    HW2 5991   0.820   6.984   1.172
 1698SOL     OW 5992   4.802   1.852   1.702
 1698SOL    HW1 5993   4.709   1.888   1.711
 1698SOL    HW2 5994   4.814   1.815   1.610
 1699SOL     OW 5995   2.603   2.236   1.309
 1699SOL    HW1 5996   2.682   2.180   1.332
 1699SOL    HW2 5997   2.541   2.240   1.387
 1700SOL     OW 5998   6.712   2.440   3.509
 1700SOL    HW1 5999   6.706   2.364   3.574
 1700SOL    HW2 6000   6.808   2.464   3.495
 1701SOL     OW 6001   5.858   2.564   4.762
 1701SOL    HW1 6002   5.771   2.516   4.774
 1701SOL    HW2 6003   5.913   2.555   4.845
 1702SOL     OW 6004   6.515   3.794   1.362
 1702SOL    HW1 6005   6.458   3.856   1.308
 1702SOL    HW2 6006   6.560   3.846   1.435
 1703SOL     OW 6007   3.132   4.023   1.931
 1703SOL    HW1 6008   3.189   4.104   1.941
 1703SOL    HW2 6009   3.052   4.045   1.875
 1704SOL     OW 6010   0.567   1.189   0.648
 1704SOL    HW1 6011   0.621   1.173   0.731
 1704SOL    HW2 6012   0.529   1.102   0.616
 1705SOL     OW 6013   3.552   2.034   1.546
 1705SOL    HW1 6014   3.616   2.013   1.472
 1705SOL    HW2 6015   3.602   2.077   1.622
 1706SOL     OW 6016   4.446   0.408   1.482
 1706SOL    HW1 6017   4.442   0.389   1.580
 1706SOL    HW2 6018   4.394   0.491   1.461
 1707SOL     OW 6019   4.161   1.410   1.921
 1707SOL    HW1 6020   4.229   1.467   1.968
 1707SOL    HW2 6021   4.108   1.467   1.859
 1708SOL     OW 6022   6.450   6.107   2.640
 1708SOL    HW1 6023   6.538   6.117   2.688
 1708SOL    HW2 6024   6.402   6.195   2.639
 1709SOL     OW 6025   2.376   6.704   2.409
 1709SOL    HW1 6026   2.396   6.607   2.394
 1709SOL    HW2 6027   2.287   6.714   2.452
 1710SOL     OW 6028   0.026   3.641   3.448
 1710SOL    HW1 6029   0.119   3.662   3.477
 1710SOL    HW2 6030   0.022   3.635   3.348
 1711SOL     OW 6031   1.265   4.517   5.094
 1711SOL    HW1 6032   1.315   4.471   5.167
 1711SOL    HW2 6033   1.329   4.565   5.035
 1712SOL     OW 6034   0.868   3.923   6.406
 1712SOL    HW1 6035   0.837   3.990   6.339
 1712SOL    HW2 6036   0.898   3.840   6.358
 1713SOL     OW 6037   1.973   2.248   1.484
 1713SOL    HW1 6038   1.942   2.189   1.559
 1713SOL    HW2 6039   1.987   2.193   1.402
 1714SOL     OW 6040   3.942   1.627   6.497
 1714SOL    HW1 6041   3.872   1.598   6.430
 1714SOL    HW2 6042   3.950   1.726   6.495
 1715SOL     OW 6043   6.721   2.907   3.500
 1715SOL    HW1 6044   6.705   2.986   3.441
 1715SOL    HW2 6045   6.810   2.917   3.545
 1716SOL     OW 6046   5.452   6.862   1.298
 1716SOL    HW1 6047   5.496   6.951   1.292
 1716SOL    HW2 6048   5.511   6.799   1.348
 1717SOL     OW 6049   2.399   6.012   6.652
 1717SOL    HW1 6050   2.379   6.055   6.565
 1717SOL    HW2 6051   2.498   5.996   6.660
 1718SOL     OW 6052   2.155   2.869   0.163
 1718SOL    HW1 6053   2.180   2.960   0.197
 1718SOL    HW2 6054   2.070   2.839   0.206
 1719SOL     OW 6055   2.022   3.509   1.219
 1719SOL    HW1 6056   2.063   3.501   1.310
 1719SOL    HW2 6057   2.092   3.492   1.150
 1720SOL     OW 6058   6.473   2.092   1.049
 1720SOL    HW1 6059   6.449   2.084   0.952
 1720SOL    HW2 6060   6.565   2.055   1.064
 1721SOL     OW 6061   1.147   6.187   2.700
 1721SOL    HW1 6062   1.234   6.178   2.651
 1721SOL    HW2 6063   1.118   6.282   2.699
 1722SOL     OW 6064   5.660   0.254   2.776
 1722SOL    HW1 6065   5.655   0.331   2.712
 1722SOL    HW2 6066   5.747   0.257   2.825
 1723SOL     OW 6067   6.526   2.210   3.351
 1723SOL    HW1 6068   6.600   2.257   3.302
 1723SOL    HW2 6069   6.505   2.261   3.435
 1724SOL     OW 6070   5.919   1.081   0.564
 1724SOL    HW1 6071   6.017   1.099   0.559
 1724SOL    HW2 6072   5.900   1.019   0.640
 1725SOL     OW 6073   3.477   4.337   0.172
 1725SOL    HW1 6074   3.500   4.374   0.082
 1725SOL    HW2 6075   3.519   4.247   0.182
 1726SOL     OW 6076   6.660   4.476   4.688
 1726SOL    HW1 6077   6.592   4.441   4.752
 1726SOL    HW2 6078   6.681   4.407   4.619
 1727SOL     OW 6079   3.718   3.687   4.567
 1727SOL    HW1 6080   3.750   3.668   4.660
 1727SOL    HW2 6081   3.623   3.717   4.570
 1728SOL     OW 6082   5.157   4.452   4.337
 1728SOL    HW1 6083   5.255   4.466   4.325
 1728SOL    HW2 6084   5.120   4.404   4.258
 1729SOL     OW 6085   2.086   4.028   3.217
 1729SOL    HW1 6086   2.099   3.945   3.162
 1729SOL    HW2 6087   1.997   4.068   3.196
 1730SOL     OW 6088   6.377   1.315   5.082
 1730SOL    HW1 6089   6.376   1.291   5.179
 1730SOL    HW2 6090   6.453   1.268   5.037
 1731SOL     OW 6091   1.510   4.401   2.116
 1731SOL    HW1 6092   1.602   4.403   2.156
 1731SOL    HW2 6093   1.452   4.339   2.170
 1732SOL     OW 6094   2.444   4.181   7.012
 1732SOL    HW1 6095   2.515   4.234   6.965
 1732SOL    HW2 6096   2.439   4.089   6.972
 1733SOL     OW 6097   1.846   3.548   2.471
 1733SOL    HW1 6098   1.943   3.530   2.461
 1733SOL    HW2 6099   1.795   3.461   2.464
 1734SOL     OW 6100   4.458   2.961   1.670
 1734SOL    HW1 6101   4.512   2.974   1.753
 1734SOL    HW2 6102   4.465   2.866   1.640
 1735SOL     OW 6103   5.952   5.938   1.528
 1735SOL    HW1 6104   5.926   5.845   1.499
 1735SOL    HW2 6105   5.892   5.967   1.602
 1736SOL     OW 6106   5.029   2.524   0.025
 1736SOL    HW1 6107   5.027   2.448   6.980
 1736SOL    HW2 6108   5.012   2.610   6.996
 1737SOL     OW 6109   2.366   0.428   3.774
 1737SOL    HW1 6110   2.340   0.488   3.850
 1737SOL    HW2 6111   2.452   0.383   3.796
 1738SOL     OW 6112   2.004   2.865   3.479
 1738SOL    HW1 6113   2.041   2.870   3.572
 1738SOL    HW2 6114   2.052   2.794   3.428
 1739SOL     OW 6115   4.512   2.166   4.843
 1739SOL    HW1 6116   4.595   2.136   4.795
 1739SOL    HW2 6117   4.491   2.101   4.916
 1740SOL     OW 6118   6.735   1.457   6.539
 1740SOL    HW1 6119   6.820   1.462   6.487
 1740SOL    HW2 6120   6.665   1.412   6.484
 1741SOL     OW 6121   1.714   1.053   2.671
 1741SOL    HW1 6122   1.786   0.985   2.658
 1741SOL    HW2 6123   1.726   1.127   2.605
 1742SOL     OW 6124   4.394   6.345   6.331
 1742SOL    HW1 6125   4.490   6.338   6.301
 1742SOL    HW2 6126   4.337   6.284   6.277
 1743SOL     OW 6127   1.616   0.948   1.964
 1743SOL    HW1 6128   1.568   0.977   1.881
 1743SOL    HW2 6129   1.698   1.003   1.976
 1744SOL     OW 6130   2.156   0.075   1.818
 1744SOL    HW1 6131   2.197   0.161   1.784
 1744SOL    HW2 6132   2.071   0.058   1.770
 1745SOL     OW 6133   6.519   1.683   4.263
 1745SOL    HW1 6134   6.609   1.641   4.254
 1745SOL    HW2 6135   6.464   1.660   4.182
 1746SOL     OW 6136   2.467   5.999   5.921
 1746SOL    HW1 6137   2.417   6.041   5.845
 1746SOL    HW2 6138   2.419   6.016   6.006
 1747SOL     OW 6139   4.907   6.956   1.869
 1747SOL    HW1 6140   4.968   6.960   1.789
 1747SOL    HW2 6141   4.909   0.024   1.917
 1748SOL     OW 6142   6.596   1.461   3.798
 1748SOL    HW1 6143   6.559   1.419   3.715
 1748SOL    HW2 6144   6.687   1.498   3.780
 1749SOL     OW 6145   3.962   6.510   5.820
 1749SOL    HW1 6146   3.959   6.424   5.769
 1749SOL    HW2 6147   3.879   6.520   5.874
 1750SOL     OW 6148   5.105   1.121   3.032
 1750SOL    HW1 6149   5.197   1.130   2.995
 1750SOL    HW2 6150   5.052   1.058   2.975
 1751SOL     OW 6151   3.352   5.057   4.369
 1751SOL    HW1 6152   3.368   5.002   4.451
 1751SOL    HW2 6153   3.277   5.017   4.316
 1752SOL     OW 6154   6.459   2.821   1.116
 1752SOL    HW1 6155   6.369   2.803   1.076
 1752SOL    HW2 6156   6.522   2.746   1.092
 1753SOL     OW 6157   0.489   0.667   0.221
 1753SOL    HW1 6158   0.408   0.720   0.197
 1753SOL    HW2 6159   0.469   0.609   0.300
 1754SOL     OW 6160   3.595   3.517   0.706
 1754SOL    HW1 6161   3.660   3.585   0.673
 1754SOL    HW2 6162   3.611   3.430   0.660
 1755SOL     OW 6163   5.033   4.858   1.596
 1755SOL    HW1 6164   5.067   4.885   1.686
 1755SOL    HW2 6165   5.072   4.770   1.570
 1756SOL     OW 6166   5.765   4.782   5.039
 1756SOL    HW1 6167   5.728   4.849   5.103
 1756SOL    HW2 6168   5.857   4.756   5.067
 1757SOL     OW 6169   1.899   6.715   4.693
 1757SOL    HW1 6170   1.954   6.753   4.620
 1757SOL    HW2 6171   1.934   6.746   4.781
 1758SOL     OW 6172   2.770   0.967   3.758
 1758SOL    HW1 6173   2.826   0.961   3.676
 1758SOL    HW2 6174   2.768   0.878   3.804
 1759SOL     OW 6175   0.527   5.096   6.350
 1759SOL    HW1 6176   0.535   5.019   6.287
 1759SOL    HW2 6177   0.539   5.182   6.301
 1760SOL     OW 6178   6.267   2.119   1.240
 1760SOL    HW1 6179   6.342   2.101   1.176
 1760SOL    HW2 6180   6.216   2.200   1.210
 1761SOL     OW 6181   6.738   0.044   0.545
 1761SOL    HW1 6182   6.690   0.132   0.537
 1761SOL    HW2 6183   6.686   7.003   0.606
 1762SOL     OW 6184   6.163   2.121   5.424
 1762SOL    HW1 6185   6.092   2.051   5.435
 1762SOL    HW2 6186   6.145   2.197   5.486
 1763SOL     OW 6187   1.835   3.997   4.527
 1763SOL    HW1 6188   1.795   4.080   4.488
 1763SOL    HW2 6189   1.850   3.929   4.455
 1764SOL     OW 6190   1.815   4.246   2.718
 1764SOL    HW1 6191   1.771   4.286   2.638
 1764SOL    HW2 6192   1.914   4.245   2.705
 1765SOL     OW 6193   3.068   1.609   6.697
 1765SOL    HW1 6194   3.035   1.666   6.772
 1765SOL    HW2 6195   3.120   1.532   6.734
 1766SOL     OW 6196   5.124   2.592   4.146
 1766SOL    HW1 6197   5.161   2.621   4.057
 1766SOL    HW2 6198   5.130   2.667   4.211
 1767SOL     OW 6199   5.308   3.782   2.885
 1767SOL    HW1 6200   5.248   3.856   2.917
 1767SOL    HW2 6201   5.356   3.742   2.963
 1768SOL     OW 6202   4.484   0.297   4.831
 1768SOL    HW1 6203   4.474   0.212   4.884
 1768SOL    HW2 6204   4.567   0.292   4.776
 1769SOL     OW 6205   4.220   2.245   4.255
 1769SOL    HW1 6206   4.254   2.335   4.228
 1769SOL    HW2 6207   4.282   2.204   4.322
 1770SOL     OW 6208   2.020   5.716   4.842
 1770SOL    HW1 6209   2.087   5.779   4.803
 1770SOL    HW2 6210   1.994   5.747   4.933
 1771SOL     OW 6211   2.932   5.860   6.619
 1771SOL    HW1 6212   2.900   5.792   6.685
 1771SOL    HW2 6213   3.008   5.912   6.658
 1772SOL     OW 6214   3.107   0.106   4.161
 1772SOL    HW1 6215   3.063   0.168   4.096
 1772SOL    HW2 6216   3.051   0.024   4.172
 1773SOL     OW 6217   2.699   5.213   5.425
 1773SOL    HW1 6218   2.634   5.138   5.412
 1773SOL    HW2 6219   2.787   5.176   5.454
 1774SOL     OW 6220   4.103   6.135   1.877
 1774SOL    HW1 6221   4.152   6.215   1.842
 1774SOL    HW2 6222   4.006   6.157   1.887
 1775SOL     OW 6223   1.634   3.886   3.622
 1775SOL    HW1 6224   1.629   3.804   3.565
 1775SOL    HW2 6225   1.555   3.944   3.605
 1776SOL     OW 6226   3.265   6.704   4.128
 1776SOL    HW1 6227   3.348   6.648   4.136
 1776SOL    HW2 6228   3.276   6.768   4.053
 1777SOL     OW 6229   3.661   5.316   6.532
 1777SOL    HW1 6230   3.755   5.333   6.561
 1777SOL    HW2 6231   3.641   5.371   6.451
 1778SOL     OW 6232   4.255   3.516   5.859
 1778SOL    HW1 6233   4.188   3.552   5.793
 1778SOL    HW2 6234   4.288   3.427   5.827
 1779SOL     OW 6235   4.481   0.755   4.733
 1779SOL    HW1 6236   4.405   0.819   4.739
 1779SOL    HW2 6237   4.449   0.666   4.700
 1780SOL     OW 6238   3.768   2.813   6.540
 1780SOL    HW1 6239   3.695   2.847   6.481
 1780SOL    HW2 6240   3.848   2.790   6.485
 1781SOL     OW 6241   4.202   6.007   2.955
 1781SOL    HW1 6242   4.181   6.020   2.858
 1781SOL    HW2 6243   4.209   5.909   2.975
 1782SOL     OW 6244   3.097   1.532   2.648
 1782SOL    HW1 6245   3.118   1.605   2.714
 1782SOL    HW2 6246   3.031   1.566   2.581
 1783SOL     OW 6247   1.931   5.900   6.011
 1783SOL    HW1 6248   1.892   5.909   5.920
 1783SOL    HW2 6249   1.963   5.806   6.025
 1784SOL     OW 6250   4.458   1.378   6.238
 1784SOL    HW1 6251   4.370   1.381   6.189
 1784SOL    HW2 6252   4.526   1.333   6.180
 1785SOL     OW 6253   6.057   3.862   2.975
 1785SOL    HW1 6254   6.073   3.863   3.074
 1785SOL    HW2 6255   6.112   3.790   2.933
 1786SOL     OW 6256   2.160   2.772   6.921
 1786SOL    HW1 6257   2.215   2.703   6.968
 1786SOL    HW2 6258   2.118   2.832   6.989
 1787SOL     OW 6259   2.823   1.114   5.493
 1787SOL    HW1 6260   2.883   1.076   5.423
 1787SOL    HW2 6261   2.728   1.109   5.462
 1788SOL     OW 6262   2.831   3.258   0.155
 1788SOL    HW1 6263   2.833   3.184   0.222
 1788SOL    HW2 6264   2.874   3.228   0.070
 1789SOL     OW 6265   5.989   1.867   3.034
 1789SOL    HW1 6266   6.007   1.947   2.977
 1789SOL    HW2 6267   6.019   1.885   3.128
 1790SOL     OW 6268   4.288   6.401   3.762
 1790SOL    HW1 6269   4.315   6.410   3.858
 1790SOL    HW2 6270   4.307   6.308   3.731
 1791SOL     OW 6271   6.015   0.460   3.357
 1791SOL    HW1 6272   5.920   0.442   3.335
 1791SOL    HW2 6273   6.021   0.537   3.419
 1792SOL     OW 6274   6.497   2.971   5.305
 1792SOL    HW1 6275   6.520   2.890   5.252
 1792SOL    HW2 6276   6.477   3.047   5.243
 1793SOL     OW 6277   6.257   0.134   3.555
 1793SOL    HW1 6278   6.233   0.166   3.463
 1793SOL    HW2 6279   6.291   0.212   3.609
 1794SOL     OW 6280   5.291   6.235   5.465
 1794SOL    HW1 6281   5.274   6.237   5.367
 1794SOL    HW2 6282   5.354   6.160   5.486
 1795SOL     OW 6283   1.290   1.953   0.832
 1795SOL    HW1 6284   1.346   1.917   0.907
 1795SOL    HW2 6285   1.204   1.988   0.868
 1796SOL     OW 6286   2.761   0.908   5.084
 1796SOL    HW1 6287   2.752   0.832   5.149
 1796SOL    HW2 6288   2.672   0.953   5.074
 1797SOL     OW 6289   1.434   6.788   0.643
 1797SOL    HW1 6290   1.450   6.748   0.552
 1797SOL    HW2 6291   1.497   6.864   0.657
 1798SOL     OW 6292   4.518   2.246   3.886
 1798SOL    HW1 6293   4.531   2.281   3.979
 1798SOL    HW2 6294   4.457   2.306   3.836
 1799SOL     OW 6295   6.839   2.643   5.304
 1799SOL    HW1 6296   6.824   2.550   5.338
 1799SOL    HW2 6297   6.918   2.643   5.242
 1800SOL     OW 6298   4.167   4.678   1.893
 1800SOL    HW1 6299   4.098   4.738   1.852
 1800SOL    HW2 6300   4.161   4.683   1.992
 1801SOL     OW 6301   0.047   6.904   1.621
 1801SOL    HW1 6302   0.137   6.944   1.601
 1801SOL    HW2 6303   0.017   6.848   1.543
 1802SOL     OW 6304   5.069   5.425   4.118
 1802SOL    HW1 6305   5.070   5.519   4.150
 1802SOL    HW2 6306   5.156   5.381   4.140
 1803SOL     OW 6307   0.411   5.780   6.849
 1803SOL    HW1 6308   0.365   5.691   6.858
 1803SOL    HW2 6309   0.375   5.829   6.770
 1804SOL     OW 6310   2.603   4.003   5.325
 1804SOL    HW1 6311   2.544   4.031   5.401
 1804SOL    HW2 6312   2.547   3.960   5.254
 1805SOL     OW 6313   5.716   4.280   5.782
 1805SOL    HW1 6314   5.804   4.234   5.767
 1805SOL    HW2 6315   5.701   4.290   5.880
 1806SOL     OW 6316   0.393   0.007   0.061
 1806SOL    HW1 6317   0.362   0.056   0.142
 1806SOL    HW2 6318   0.323   6.961   0.034
 1807SOL     OW 6319   5.208   2.975   5.124
 1807SOL    HW1 6320   5.177   2.948   5.033
 1807SOL    HW2 6321   5.141   2.944   5.192
 1808SOL     OW 6322   0.064   4.528   5.611
 1808SOL    HW1 6323   0.162   4.523   5.634
 1808SOL    HW2 6324   0.011   4.541   5.695
 1809SOL     OW 6325   2.099   2.412   5.061
 1809SOL    HW1 6326   2.095   2.499   5.012
 1809SOL    HW2 6327   2.096   2.336   4.996
 1810SOL     OW 6328   2.654   6.623   3.875
 1810SOL    HW1 6329   2.720   6.698   3.870
 1810SOL    HW2 6330   2.656   6.572   3.789
 1811SOL     OW 6331   5.857   5.550   3.580
 1811SOL    HW1 6332   5.865   5.450   3.574
 1811SOL    HW2 6333   5.943   5.588   3.613
 1812SOL     OW 6334   4.249   5.843   4.624
 1812SOL    HW1 6335   4.204   5.842   4.534
 1812SOL    HW2 6336   4.194   5.897   4.688
 1813SOL     OW 6337   6.036   4.178   0.741
 1813SOL    HW1 6338   5.970   4.125   0.796
 1813SOL    HW2 6339   6.090   4.236   0.802
 1814SOL     OW 6340   5.334   0.080   1.787
 1814SOL    HW1 6341   5.369   0.174   1.793
 1814SOL    HW2 6342   5.306   0.049   1.878
 1815SOL     OW 6343   0.549   2.182   2.526
 1815SOL    HW1 6344   0.576   2.165   2.431
 1815SOL    HW2 6345   0.609   2.132   2.588
 1816SOL     OW 6346   2.969   3.602   1.150
 1816SOL    HW1 6347   2.991   3.672   1.218
 1816SOL    HW2 6348   3.008   3.515   1.179
 1817SOL     OW 6349   2.563   6.841   2.590
 1817SOL    HW1 6350   2.515   6.796   2.515
 1817SOL    HW2 6351   2.638   6.783   2.622
 1818SOL     OW 6352   1.202   6.934   2.690
 1818SOL    HW1 6353   1.151   6.867   2.635
 1818SOL    HW2 6354   1.157   6.945   2.779
 1819SOL     OW 6355   1.100   3.818   1.784
 1819SOL    HW1 6356   1.015   3.867   1.763
 1819SOL    HW2 6357   1.119   3.825   1.882
 1820SOL     OW 6358   3.888   1.147   3.063
 1820SOL    HW1 6359   3.810   1.091   3.037
 1820SOL    HW2 6360   3.906   1.214   2.991
 1821SOL     OW 6361   0.853   1.264   1.962
 1821SOL    HW1 6362   0.806   1.263   2.050
 1821SOL    HW2 6363   0.885   1.172   1.939
 1822SOL     OW 6364   3.072   2.339   1.099
 1822SOL    HW1 6365   2.986   2.387   1.115
 1822SOL    HW2 6366   3.147   2.390   1.140
 1823SOL     OW 6367   3.625   5.812   3.278
 1823SOL    HW1 6368   3.585   5.721   3.293
 1823SOL    HW2 6369   3.556   5.872   3.238
 1824SOL     OW 6370   3.783   2.074   0.959
 1824SOL    HW1 6371   3.727   2.112   1.033
 1824SOL    HW2 6372   3.780   1.974   0.963
 1825SOL     OW 6373   1.566   0.386   2.068
 1825SOL    HW1 6374   1.638   0.409   2.134
 1825SOL    HW2 6375   1.591   0.419   1.977
 1826SOL     OW 6376   3.556   0.888   1.580
 1826SOL    HW1 6377   3.530   0.943   1.501
 1826SOL    HW2 6378   3.482   0.825   1.602
 1827SOL     OW 6379   0.326   5.153   2.074
 1827SOL    HW1 6380   0.312   5.251   2.089
 1827SOL    HW2 6381   0.370   5.113   2.154
 1828SOL     OW 6382   0.197   2.302   0.051
 1828SOL    HW1 6383   0.236   2.257   0.132
 1828SOL    HW2 6384   0.269   2.351   0.002
 1829SOL     OW 6385   4.787   0.259   3.119
 1829SOL    HW1 6386   4.701   0.229   3.161
 1829SOL    HW2 6387   4.782   0.244   3.020
 1830SOL     OW 6388   5.614   5.658   4.221
 1830SOL    HW1 6389   5.521   5.694   4.226
 1830SOL    HW2 6390   5.613   5.567   4.180
 1831SOL     OW 6391   6.284   6.873   2.911
 1831SOL    HW1 6392   6.284   6.774   2.923
 1831SOL    HW2 6393   6.269   6.917   3.000
 1832SOL     OW 6394   5.746   2.126   1.082
 1832SOL    HW1 6395   5.728   2.223   1.068
 1832SOL    HW2 6396   5.779   2.111   1.175
 1833SOL     OW 6397   5.608   0.948   5.166
 1833SOL    HW1 6398   5.533   0.943   5.231
 1833SOL    HW2 6399   5.635   1.044   5.154
 1834SOL     OW 6400   3.425   4.033   0.079
 1834SOL    HW1 6401   3.422   3.946   0.028
 1834SOL    HW2 6402   3.488   4.024   0.156
 1835SOL     OW 6403   1.392   4.500   1.901
 1835SOL    HW1 6404   1.440   4.462   1.821
 1835SOL    HW2 6405   1.417   4.448   1.982
 1836SOL     OW 6406   0.086   1.942   1.104
 1836SOL    HW1 6407   0.053   1.851   1.127
 1836SOL    HW2 6408   0.113   1.990   1.188
 1837SOL     OW 6409   0.511   2.422   3.732
 1837SOL    HW1 6410   0.559   2.491   3.678
 1837SOL    HW2 6411   0.524   2.440   3.829
 1838SOL     OW 6412   0.236   1.906   3.615
 1838SOL    HW1 6413   0.156   1.870   3.566
 1838SOL    HW2 6414   0.206   1.970   3.686
 1839SOL     OW 6415   4.735   2.651   4.844
 1839SOL    HW1 6416   4.691   2.646   4.933
 1839SOL    HW2 6417   4.739   2.747   4.814
 1840SOL     OW 6418   3.407   6.307   1.438
 1840SOL    HW1 6419   3.451   6.281   1.353
 1840SOL    HW2 6420   3.391   6.406   1.439
 1841SOL     OW 6421   2.095   3.379   4.525
 1841SOL    HW1 6422   1.995   3.388   4.527
 1841SOL    HW2 6423   2.130   3.377   4.618
 1842SOL     OW 6424   0.642   5.607   0.290
 1842SOL    HW1 6425   0.620   5.703   0.306
 1842SOL    HW2 6426   0.734   5.600   0.251
 1843SOL     OW 6427   1.688   2.432   4.246
 1843SOL    HW1 6428   1.784   2.456   4.235
 1843SOL    HW2 6429   1.658   2.454   4.339
 1844SOL     OW 6430   3.919   0.947   5.833
 1844SOL    HW1 6431   4.000   0.988   5.874
 1844SOL    HW2 6432   3.900   0.991   5.746
 1845SOL     OW 6433   2.144   0.628   6.363
 1845SOL    HW1 6434   2.100   0.697   6.305
 1845SOL    HW2 6435   2.213   0.672   6.421
 1846SOL     OW 6436   3.958   2.057   6.950
 1846SOL    HW1 6437   3.908   2.143   6.947
 1846SOL    HW2 6438   3.950   2.016   0.021
 1847SOL     OW 6439   1.413   1.053   6.725
 1847SOL    HW1 6440   1.370   0.965   6.705
 1847SOL    HW2 6441   1.344   1.125   6.723
 1848SOL     OW 6442   1.900   6.184   2.697
 1848SOL    HW1 6443   1.940   6.099   2.662
 1848SOL    HW2 6444   1.840   6.163   2.774
 1849SOL     OW 6445   4.149   1.734   0.371
 1849SOL    HW1 6446   4.073   1.683   0.410
 1849SOL    HW2 6447   4.153   1.717   0.272
 1850SOL     OW 6448   6.555   1.961   2.713
 1850SOL    HW1 6449   6.472   1.915   2.746
 1850SOL    HW2 6450   6.552   1.968   2.614
 1851SOL     OW 6451   0.264   1.463   0.839
 1851SOL    HW1 6452   0.321   1.480   0.758
 1851SOL    HW2 6453   0.292   1.378   0.882
 1852SOL     OW 6454   4.738   4.003   1.083
 1852SOL    HW1 6455   4.672   4.069   1.120
 1852SOL    HW2 6456   4.778   3.951   1.159
 1853SOL     OW 6457   0.821   3.313   2.094
 1853SOL    HW1 6458   0.874   3.371   2.032
 1853SOL    HW2 6459   0.748   3.367   2.136
 1854SOL     OW 6460   2.944   6.175   3.973
 1854SOL    HW1 6461   2.942   6.077   3.990
 1854SOL    HW2 6462   2.919   6.194   3.878
 1855SOL     OW 6463   4.528   4.300   6.699
 1855SOL    HW1 6464   4.482   4.377   6.655
 1855SOL    HW2 6465   4.622   4.325   6.719
 1856SOL     OW 6466   6.319   3.091   5.552
 1856SOL    HW1 6467   6.311   3.182   5.511
 1856SOL    HW2 6468   6.265   3.026   5.499
 1857SOL     OW 6469   3.778   1.007   5.581
 1857SOL    HW1 6470   3.735   0.919   5.599
 1857SOL    HW2 6471   3.872   0.992   5.550
 1858SOL     OW 6472   5.945   3.216   3.476
 1858SOL    HW1 6473   5.953   3.294   3.414
 1858SOL    HW2 6474   5.883   3.148   3.437
 1859SOL     OW 6475   3.995   1.324   3.815
 1859SOL    HW1 6476   4.009   1.321   3.914
 1859SOL    HW2 6477   4.046   1.249   3.773
 1860SOL     OW 6478   6.958   0.777   3.282
 1860SOL    HW1 6479   6.901   0.813   3.355
 1860SOL    HW2 6480   6.901   0.729   3.215
 1861SOL     OW 6481   4.794   6.329   1.758
 1861SOL    HW1 6482   4.757   6.240   1.782
 1861SOL    HW2 6483   4.879   6.318   1.706
 1862SOL     OW 6484   2.334   6.579   6.916
 1862SOL    HW1 6485   2.331   6.491   6.868
 1862SOL    HW2 6486   2.373   6.648   6.855
 1863SOL     OW 6487   2.414   2.618   0.543
 1863SOL    HW1 6488   2.376   2.546   0.602
 1863SOL    HW2 6489   2.492   2.582   0.492
 1864SOL     OW 6490   1.199   0.018   5.517
 1864SOL    HW1 6491   1.182   0.103   5.565
 1864SOL    HW2 6492   1.115   6.983   5.515
 1865SOL     OW 6493   3.668   0.727   5.608
 1865SOL    HW1 6494   3.644   0.658   5.540
 1865SOL    HW2 6495   3.749   0.697   5.659
 1866SOL     OW 6496   4.654   4.588   2.378
 1866SOL    HW1 6497   4.644   4.677   2.334
 1866SOL    HW2 6498   4.684   4.520   2.311
 1867SOL     OW 6499   0.784   4.408   0.685
 1867SOL    HW1 6500   0.770   4.337   0.616
 1867SOL    HW2 6501   0.820   4.367   0.769
 1868SOL     OW 6502   5.039   4.640   0.422
 1868SOL    HW1 6503   5.103   4.650   0.498
 1868SOL    HW2 6504   5.087   4.605   0.342
 1869SOL     OW 6505   6.623   2.271   4.437
 1869SOL    HW1 6506   6.550   2.339   4.447
 1869SOL    HW2 6507   6.603   2.213   4.357
 1870SOL     OW 6508   2.125   4.204   5.744
 1870SOL    HW1 6509   2.146   4.212   5.841
 1870SOL    HW2 6510   2.206   4.228   5.691
 1871SOL     OW 6511   1.223   6.562   0.068
 1871SOL    HW1 6512   1.238   6.660   0.086
 1871SOL    HW2 6513   1.228   6.545   6.989
 1872SOL     OW 6514   3.796   4.178   6.897
 1872SOL    HW1 6515   3.824   4.102   6.839
 1872SOL    HW2 6516   3.798   4.263   6.845
 1873SOL     OW 6517   4.430   1.419   5.022
 1873SOL    HW1 6518   4.367   1.341   5.011
 1873SOL    HW2 6519   4.377   1.502   5.036
 1874SOL     OW 6520   2.314   1.148   0.873
 1874SOL    HW1 6521   2.351   1.163   0.965
 1874SOL    HW2 6522   2.349   1.062   0.837
 1875SOL     OW 6523   0.951   0.860   6.345
 1875SOL    HW1 6524   1.006   0.836   6.425
 1875SOL    HW2 6525   0.907   0.778   6.309
 1876SOL     OW 6526   3.439   0.433   5.905
 1876SOL    HW1 6527   3.384   0.477   5.834
 1876SOL    HW2 6528   3.396   0.346   5.931
 1877SOL     OW 6529   0.830   0.214   3.167
 1877SOL    HW1 6530   0.808   0.117   3.168
 1877SOL    HW2 6531   0.927   0.226   3.146
 1878SOL     OW 6532   6.845   1.700   3.933
 1878SOL    HW1 6533   6.839   1.658   3.843
 1878SOL    HW2 6534   6.936   1.685   3.972
 1879SOL     OW 6535   0.992   3.849   4.206
 1879SOL    HW1 6536   0.980   3.886   4.114
 1879SOL    HW2 6537   0.954   3.757   4.210
 1880SOL     OW 6538   6.849   1.413   4.833
 1880SOL    HW1 6539   6.781   1.339   4.824
 1880SOL    HW2 6540   6.809   1.488   4.885
 1881SOL     OW 6541   5.755   2.175   2.490
 1881SOL    HW1 6542   5.717   2.096   2.441
 1881SOL    HW2 6543   5.709   2.185   2.578
 1882SOL     OW 6544   1.215   3.946   6.700
 1882SOL    HW1 6545   1.291   3.901   6.747
 1882SOL    HW2 6546   1.197   4.035   6.742
 1883SOL     OW 6547   6.227   2.489   2.852
 1883SOL    HW1 6548   6.210   2.587   2.850
 1883SOL    HW2 6549   6.319   2.471   2.885
 1884SOL     OW 6550   0.825   2.204   0.444
 1884SOL    HW1 6551   0.736   2.184   0.485
 1884SOL    HW2 6552   0.852   2.127   0.386
 1885SOL     OW 6553   2.160   1.808   6.065
 1885SOL    HW1 6554   2.211   1.854   6.137
 1885SOL    HW2 6555   2.208   1.725   6.036
 1886SOL     OW 6556   1.488   6.981   1.950
 1886SOL    HW1 6557   1.421   0.034   1.969
 1886SOL    HW2 6558   1.506   6.929   2.034
 1887SOL     OW 6559   0.517   5.454   6.022
 1887SOL    HW1 6560   0.601   5.455   5.967
 1887SOL    HW2 6561   0.542   5.445   6.119
 1888SOL     OW 6562   3.172   2.216   6.872
 1888SOL    HW1 6563   3.221   2.132   6.850
 1888SOL    HW2 6564   3.198   2.288   6.807
 1889SOL     OW 6565   0.168   3.795   4.370
 1889SOL    HW1 6566   0.171   3.870   4.436
 1889SOL    HW2 6567   0.131   3.829   4.283
 1890SOL     OW 6568   1.378   5.491   3.989
 1890SOL    HW1 6569   1.303   5.430   4.014
 1890SOL    HW2 6570   1.342   5.569   3.937
 1891SOL     OW 6571   4.848   2.677   1.714
 1891SOL    HW1 6572   4.791   2.716   1.786
 1891SOL    HW2 6573   4.905   2.749   1.674
 1892SOL     OW 6574   0.290   0.031   1.965
 1892SOL    HW1 6575   0.254   0.020   2.057
 1892SOL    HW2 6576   0.247   0.110   1.922
 1893SOL     OW 6577   3.640   2.798   1.890
 1893SOL    HW1 6578   3.594   2.825   1.975
 1893SOL    HW2 6579   3.586   2.729   1.843
 1894SOL     OW 6580   3.896   3.690   4.339
 1894SOL    HW1 6581   3.831   3.633   4.288
 1894SOL    HW2 6582   3.856   3.715   4.427
 1895SOL     OW 6583   4.273   6.906   0.839
 1895SOL    HW1 6584   4.259   7.005   0.837
 1895SOL    HW2 6585   4.191   6.862   0.875
 1896SOL     OW 6586   6.113   1.592   0.870
 1896SOL    HW1 6587   6.109   1.594   0.770
 1896SOL    HW2 6588   6.047   1.525   0.904
 1897SOL     OW 6589   1.912   5.006   2.104
 1897SOL    HW1 6590   2.008   4.985   2.119
 1897SOL    HW2 6591   1.890   5.002   2.007
 1898SOL     OW 6592   2.027   4.468   2.950
 1898SOL    HW1 6593   2.040   4.553   3.002
 1898SOL    HW2 6594   2.112   4.416   2.949
 1899SOL     OW 6595   0.265   1.809   6.904
 1899SOL    HW1 6596   0.219   1.858   6.977
 1899SOL    HW2 6597   0.353   1.774   6.937
 1900SOL     OW 6598   2.351   0.702   0.070
 1900SOL    HW1 6599   2.343   0.759   7.007
 1900SOL    HW2 6600   2.259   0.681   0.105
 1901SOL     OW 6601   2.193   2.092   0.754
 1901SOL    HW1 6602   2.123   2.039   0.802
 1901SOL    HW2 6603   2.164   2.188   0.749
 1902SOL     OW 6604   2.440   0.834   4.297
 1902SOL    HW1 6605   2.384   0.782   4.361
 1902SOL    HW2 6606   2.413   0.930   4.298
 1903SOL     OW 6607   0.928   3.517   2.553
 1903SOL    HW1 6608   0.872   3.571   2.489
 1903SOL    HW2 6609   0.871   3.452   2.601
 1904SOL     OW 6610   5.619   4.893   3.126
 1904SOL    HW1 6611   5.521   4.910   3.137
 1904SOL    HW2 6612   5.669   4.946   3.194
 1905SOL     OW 6613   0.495   0.433   3.385
 1905SOL    HW1 6614   0.484   0.521   3.432
 1905SOL    HW2 6615   0.406   0.401   3.353
 1906SOL     OW 6616   3.302   1.052   6.125
 1906SOL    HW1 6617   3.308   1.064   6.224
 1906SOL    HW2 6618   3.232   0.983   6.104
 1907SOL     OW 6619   4.821   2.568   1.230
 1907SOL    HW1 6620   4.750   2.636   1.246
 1907SOL    HW2 6621   4.841   2.520   1.316
 1908SOL     OW 6622   4.003   6.353   6.355
 1908SOL    HW1 6623   4.073   6.393   6.415
 1908SOL    HW2 6624   3.913   6.384   6.385
 1909SOL     OW 6625   0.633   3.220   3.352
 1909SOL    HW1 6626   0.609   3.129   3.318
 1909SOL    HW2 6627   0.561   3.252   3.413
 1910SOL     OW 6628   6.774   6.699   5.389
 1910SOL    HW1 6629   6.801   6.785   5.430
 1910SOL    HW2 6630   6.771   6.628   5.459
 1911SOL     OW 6631   6.883   3.415   4.936
 1911SOL    HW1 6632   6.854   3.485   4.871
 1911SOL    HW2 6633   6.954   3.451   4.996
 1912SOL     OW 6634   2.684   5.540   2.426
 1912SOL    HW1 6635   2.706   5.489   2.342
 1912SOL    HW2 6636   2.613   5.492   2.477
 1913SOL     OW 6637   2.502   0.296   5.154
 1913SOL    HW1 6638   2.441   0.308   5.233
 1913SOL    HW2 6639   2.509   0.199   5.132
 1914SOL     OW 6640   4.029   3.672   0.280
 1914SOL    HW1 6641   4.110   3.717   0.318
 1914SOL    HW2 6642   3.949   3.730   0.292
 1915SOL     OW 6643   5.144   2.991   5.810
 1915SOL    HW1 6644   5.220   3.046   5.845
 1915SOL    HW2 6645   5.057   3.028   5.842
 1916SOL     OW 6646   4.292   6.281   0.971
 1916SOL    HW1 6647   4.246   6.366   1.000
 1916SOL    HW2 6648   4.244   6.241   0.894
 1917SOL     OW 6649   3.070   3.387   0.209
 1917SOL    HW1 6650   2.978   3.352   0.191
 1917SOL    HW2 6651   3.106   3.344   0.292
 1918SOL     OW 6652   0.701   0.956   4.742
 1918SOL    HW1 6653   0.733   0.981   4.650
 1918SOL    HW2 6654   0.721   1.031   4.805
 1919SOL     OW 6655   1.734   1.582   1.425
 1919SOL    HW1 6656   1.732   1.494   1.472
 1919SOL    HW2 6657   1.740   1.656   1.492
 1920SOL     OW 6658   6.368   2.863   2.439
 1920SOL    HW1 6659   6.360   2.775   2.485
 1920SOL    HW2 6660   6.311   2.863   2.357
 1921SOL     OW 6661   1.167   3.430   0.096
 1921SOL    HW1 6662   1.206   3.522   0.107
 1921SOL    HW2 6663   1.170   3.404   7.019
 1922SOL     OW 6664   2.975   3.349   1.964
 1922SOL    HW1 6665   2.969   3.282   2.038
 1922SOL    HW2 6666   3.014   3.434   1.999
 1923SOL     OW 6667   4.453   1.203   0.015
 1923SOL    HW1 6668   4.495   1.115   0.040
 1923SOL    HW2 6669   4.502   1.242   6.957
 1924SOL     OW 6670   4.549   6.971   0.891
 1924SOL    HW1 6671   4.552   0.015   0.968
 1924SOL    HW2 6672   4.453   6.955   0.865
 1925SOL     OW 6673   0.981   4.489   1.736
 1925SOL    HW1 6674   0.943   4.557   1.673
 1925SOL    HW2 6675   1.052   4.532   1.793
 1926SOL     OW 6676   3.053   0.470   2.016
 1926SOL    HW1 6677   3.110   0.403   2.063
 1926SOL    HW2 6678   2.982   0.423   1.963
 1927SOL     OW 6679   2.435   3.913   0.729
 1927SOL    HW1 6680   2.340   3.888   0.745
 1927SOL    HW2 6681   2.441   4.011   0.709
 1928SOL     OW 6682   5.092   5.109   4.264
 1928SOL    HW1 6683   5.000   5.147   4.252
 1928SOL    HW2 6684   5.121   5.122   4.359
 1929SOL     OW 6685   2.707   0.642   1.989
 1929SOL    HW1 6686   2.664   0.655   2.079
 1929SOL    HW2 6687   2.804   0.663   1.995
 1930SOL     OW 6688   5.470   3.376   6.590
 1930SOL    HW1 6689   5.566   3.369   6.563
 1930SOL    HW2 6690   5.453   3.315   6.668
 1931SOL     OW 6691   0.768   2.079   6.752
 1931SOL    HW1 6692   0.791   2.169   6.789
 1931SOL    HW2 6693   0.722   2.091   6.663
 1932SOL     OW 6694   4.570   2.579   3.335
 1932SOL    HW1 6695   4.649   2.605   3.392
 1932SOL    HW2 6696   4.563   2.641   3.257
 1933SOL     OW 6697   0.515   2.024   0.335
 1933SOL    HW1 6698   0.536   1.930   0.310
 1933SOL    HW2 6699   0.564   2.087   0.274
 1934SOL     OW 6700   0.552   0.594   5.329
 1934SOL    HW1 6701   0.533   0.673   5.270
 1934SOL    HW2 6702   0.479   0.583   5.396
 1935SOL     OW 6703   4.534   4.863   3.879
 1935SOL    HW1 6704   4.503   4.777   3.921
 1935SOL    HW2 6705   4.610   4.901   3.932
 1936SOL     OW 6706   4.977   3.750   4.037
 1936SOL    HW1 6707   5.007   3.700   4.118
 1936SOL    HW2 6708   5.056   3.795   3.994
 1937SOL     OW 6709   4.551   6.239   6.689
 1937SOL    HW1 6710   4.566   6.189   6.604
 1937SOL    HW2 6711   4.635   6.241   6.743
 1938SOL     OW 6712   1.205   2.701   0.268
 1938SOL    HW1 6713   1.270   2.739   0.203
 1938SOL    HW2 6714   1.217   2.602   0.275
 1939SOL     OW 6715   0.245   5.605   4.543
 1939SOL    HW1 6716   0.240   5.618   4.643
 1939SOL    HW2 6717   0.184   5.670   4.499
 1940SOL     OW 6718   5.813   4.522   1.979
 1940SOL    HW1 6719   5.769   4.612   1.980
 1940SOL    HW2 6720   5.846   4.500   2.072
 1941SOL     OW 6721   0.189   2.579   3.664
 1941SOL    HW1 6722   0.243   2.612   3.741
 1941SOL    HW2 6723   0.250   2.539   3.595
 1942SOL     OW 6724   5.448   4.009   2.486
 1942SOL    HW1 6725   5.451   4.078   2.557
 1942SOL    HW2 6726   5.494   3.926   2.517
 1943SOL     OW 6727   1.541   1.569   2.003
 1943SOL    HW1 6728   1.487   1.646   2.037
 1943SOL    HW2 6729   1.561   1.506   2.078
 1944SOL     OW 6730   6.327   4.380   0.482
 1944SOL    HW1 6731   6.376   4.338   0.559
 1944SOL    HW2 6732   6.392   4.403   0.409
 1945SOL     OW 6733   3.888   6.575   0.648
 1945SOL    HW1 6734   3.918   6.670   0.657
 1945SOL    HW2 6735   3.965   6.518   0.621
 1946SOL     OW 6736   5.580   6.148   1.656
 1946SOL    HW1 6737   5.606   6.172   1.563
 1946SOL    HW2 6738   5.552   6.231   1.705
 1947SOL     OW 6739   6.557   5.529   3.999
 1947SOL    HW1 6740   6.648   5.556   3.966
 1947SOL    HW2 6741   6.522   5.599   4.061
 1948SOL     OW 6742   5.918   4.038   2.707
 1948SOL    HW1 6743   5.894   3.953   2.754
 1948SOL    HW2 6744   6.014   4.035   2.680
 1949SOL     OW 6745   4.135   4.032   0.396
 1949SOL    HW1 6746   4.135   4.033   0.296
 1949SOL    HW2 6747   4.197   4.102   0.430
 1950SOL     OW 6748   3.724   3.534   4.203
 1950SOL    HW1 6749   3.734   3.435   4.219
 1950SOL    HW2 6750   3.715   3.551   4.105
 1951SOL     OW 6751   6.539   4.056   5.329
 1951SOL    HW1 6752   6.609   3.990   5.303
 1951SOL    HW2 6753   6.563   4.099   5.415
 1952SOL     OW 6754   4.784   4.353   1.163
 1952SOL    HW1 6755   4.775   4.254   1.165
 1952SOL    HW2 6756   4.715   4.394   1.221
 1953SOL     OW 6757   6.992   1.680   6.342
 1953SOL    HW1 6758   6.956   1.752   6.402
 1953SOL    HW2 6759   6.980   1.591   6.386
 1954SOL     OW 6760   5.497   1.245   1.683
 1954SOL    HW1 6761   5.476   1.285   1.772
 1954SOL    HW2 6762   5.415   1.198   1.648
 1955SOL     OW 6763   0.429   1.484   1.409
 1955SOL    HW1 6764   0.397   1.482   1.504
 1955SOL    HW2 6765   0.354   1.513   1.349
 1956SOL     OW 6766   5.006   0.705   2.735
 1956SOL    HW1 6767   5.047   0.776   2.679
 1956SOL    HW2 6768   5.077   0.643   2.768
 1957SOL     OW 6769   4.893   3.262   4.068
 1957SOL    HW1 6770   4.988   3.254   4.037
 1957SOL    HW2 6771   4.887   3.332   4.139
 1958SOL     OW 6772   4.613   1.727   1.238
 1958SOL    HW1 6773   4.524   1.772   1.230
 1958SOL    HW2 6774   4.607   1.651   1.302
 1959SOL     OW 6775   6.404   0.008   3.924
 1959SOL    HW1 6776   6.453   0.090   3.895
 1959SOL    HW2 6777   6.309   0.012   3.894
 1960SOL     OW 6778   6.702   2.660   3.306
 1960SOL    HW1 6779   6.693   2.723   3.384
 1960SOL    HW2 6780   6.707   2.566   3.340
 1961SOL     OW 6781   6.334   4.344   4.754
 1961SOL    HW1 6782   6.264   4.395   4.704
 1961SOL    HW2 6783   6.352   4.389   4.841
 1962SOL     OW 6784   1.291   5.896   2.589
 1962SOL    HW1 6785   1.321   5.895   2.494
 1962SOL    HW2 6786   1.193   5.917   2.593
 1963SOL     OW 6787   0.711   1.380   1.756
 1963SOL    HW1 6788   0.732   1.315   1.682
 1963SOL    HW2 6789   0.763   1.355   1.838
 1964SOL     OW 6790   5.071   4.587   1.587
 1964SOL    HW1 6791   5.165   4.569   1.560
 1964SOL    HW2 6792   5.009   4.560   1.513
 1965SOL     OW 6793   0.842   3.682   3.894
 1965SOL    HW1 6794   0.872   3.777   3.901
 1965SOL    HW2 6795   0.859   3.648   3.801
 1966SOL     OW 6796   1.443   4.725   1.200
 1966SOL    HW1 6797   1.390   4.648   1.164
 1966SOL    HW2 6798   1.539   4.714   1.174
 1967SOL     OW 6799   6.601   2.259   3.694
 1967SOL    HW1 6800   6.527   2.322   3.717
 1967SOL    HW2 6801   6.563   2.169   3.672
 1968SOL     OW 6802   2.520   1.025   5.447
 1968SOL    HW1 6803   2.505   0.926   5.440
 1968SOL    HW2 6804   2.432   1.071   5.457
 1969SOL     OW 6805   3.301   0.970   2.005
 1969SOL    HW1 6806   3.297   0.909   2.084
 1969SOL    HW2 6807   3.244   1.051   2.023
 1970SOL     OW 6808   6.300   6.607   4.957
 1970SOL    HW1 6809   6.305   6.530   5.020
 1970SOL    HW2 6810   6.345   6.686   4.998
 1971SOL     OW 6811   1.059   6.832   5.791
 1971SOL    HW1 6812   1.075   6.742   5.749
 1971SOL    HW2 6813   0.968   6.864   5.766
 1972SOL     OW 6814   5.528   2.344   1.577
 1972SOL    HW1 6815   5.448   2.377   1.527
 1972SOL    HW2 6816   5.595   2.418   1.585
 1973SOL     OW 6817   2.659   3.538   1.462
 1973SOL    HW1 6818   2.637   3.526   1.559
 1973SOL    HW2 6819   2.633   3.631   1.434
 1974SOL     OW 6820   4.372   6.581   4.486
 1974SOL    HW1 6821   4.417   6.515   4.426
 1974SOL    HW2 6822   4.292   6.619   4.440
 1975SOL     OW 6823   2.239   2.933   3.694
 1975SOL    HW1 6824   2.239   3.001   3.767
 1975SOL    HW2 6825   2.186   2.853   3.722
 1976SOL     OW 6826   6.085   0.013   0.005
 1976SOL    HW1 6827   6.033   6.954   6.990
 1976SOL    HW2 6828   6.116   0.068   6.947
 1977SOL     OW 6829   2.838   3.138   6.665
 1977SOL    HW1 6830   2.836   3.188   6.751
 1977SOL    HW2 6831   2.877   3.197   6.593
 1978SOL     OW 6832   2.226   6.118   3.125
 1978SOL    HW1 6833   2.186   6.204   3.094
 1978SOL    HW2 6834   2.324   6.131   3.141
 1979SOL     OW 6835   6.143   5.116   6.874
 1979SOL    HW1 6836   6.137   5.032   6.820
 1979SOL    HW2 6837   6.181   5.095   6.964
 1980SOL     OW 6838   3.321   0.437   2.275
 1980SOL    HW1 6839   3.317   0.356   2.217
 1980SOL    HW2 6840   3.383   0.504   2.235
 1981SOL     OW 6841   5.256   2.869   2.573
 1981SOL    HW1 6842   5.177   2.809   2.581
 1981SOL    HW2 6843   5.335   2.827   2.618
 1982SOL     OW 6844   6.607   3.803   3.872
 1982SOL    HW1 6845   6.555   3.865   3.932
 1982SOL    HW2 6846   6.549   3.773   3.797
 1983SOL     OW 6847   0.577   0.089   1.052
 1983SOL    HW1 6848   0.550   0.000   1.089
 1983SOL    HW2 6849   0.569   0.087   0.952
 1984SOL     OW 6850   5.110   2.533   5.198
 1984SOL    HW1 6851   5.019   2.569   5.177
 1984SOL    HW2 6852   5.159   2.598   5.257
 1985SOL     OW 6853   6.440   4.917   1.867
 1985SOL    HW1 6854   6.440   5.001   1.922
 1985SOL    HW2 6855   6.436   4.838   1.927
 1986SOL     OW 6856   3.098   1.248   6.359
 1986SOL    HW1 6857   3.118   1.345   6.341
 1986SOL    HW2 6858   3.172   1.208   6.412
 1987SOL     OW 6859   1.795   1.171   4.095
 1987SOL    HW1 6860   1.760   1.150   4.186
 1987SOL    HW2 6861   1.826   1.087   4.051
 1988SOL     OW 6862   0.230   1.504   1.208
 1988SOL    HW1 6863   0.187   1.582   1.163
 1988SOL    HW2 6864   0.249   1.433   1.140
 1989SOL     OW 6865   2.900   5.745   4.700
 1989SOL    HW1 6866   2.969   5.811   4.673
 1989SOL    HW2 6867   2.944   5.656   4.714
 1990SOL     OW 6868   4.207   0.252   0.017
 1990SOL    HW1 6869   4.161   0.315   6.975
 1990SOL    HW2 6870   4.219   0.164   6.991
 1991SOL     OW 6871   2.754   5.663   0.157
 1991SOL    HW1 6872   2.707   5.664   0.246
 1991SOL    HW2 6873   2.778   5.569   0.134
 1992SOL     OW 6874   6.718   6.514   0.152
 1992SOL    HW1 6875   6.767   6.507   0.239
 1992SOL    HW2 6876   6.777   6.558   0.084
 1993SOL     OW 6877   2.245   2.746   4.532
 1993SOL    HW1 6878   2.278   2.760   4.626
 1993SOL    HW2 6879   2.149   2.716   4.535
 1994SOL     OW 6880   4.582   2.676   0.869
 1994SOL    HW1 6881   4.590   2.676   0.968
 1994SOL    HW2 6882   4.637   2.750   0.830
 1995SOL     OW 6883   5.504   2.453   4.348
 1995SOL    HW1 6884   5.541   2.484   4.261
 1995SOL    HW2 6885   5.544   2.364   4.371
 1996SOL     OW 6886   2.991   2.092   1.141
 1996SOL    HW1 6887   3.018   2.183   1.110
 1996SOL    HW2 6888   2.915   2.100   1.206
 1997SOL     OW 6889   3.117   1.223   4.064
 1997SOL    HW1 6890   3.183   1.295   4.085
 1997SOL    HW2 6891   3.154   1.164   3.992
 1998SOL     OW 6892   1.370   3.081   1.275
 1998SOL    HW1 6893   1.318   3.166   1.283
 1998SOL    HW2 6894   1.321   3.017   1.215
 1999SOL     OW 6895   0.267   0.739   4.922
 1999SOL    HW1 6896   0.274   0.655   4.867
 1999SOL    HW2 6897   0.175   0.745   4.962
 2000SOL     OW 6898   4.180   3.880   6.047
 2000SOL    HW1 6899   4.259   3.827   6.016
 2000SOL    HW2 6900   4.112   3.883   5.974
 2001SOL     OW 6901   1.749   1.888   6.451
 2001SOL    HW1 6902   1.761   1.790   6.463
 2001SOL    HW2 6903   1.769   1.935   6.537
 2002SOL     OW 6904   0.373   5.352   1.127
 2002SOL    HW1 6905   0.303   5.364   1.058
 2002SOL    HW2 6906   0.393   5.440   1.170
 2003SOL     OW 6907   6.150   5.468   2.353
 2003SOL    HW1 6908   6.225   5.528   2.325
 2003SOL    HW2 6909   6.074   5.476   2.288
 2004SOL     OW 6910   3.943   0.582   3.636
 2004SOL    HW1 6911   3.998   0.503   3.609
 2004SOL    HW2 6912   3.980   0.621   3.720
 2005SOL     OW 6913   6.948   5.905   0.066
 2005SOL    HW1 6914   7.009   5.836   0.028
 2005SOL    HW2 6915   6.975   5.996   0.032
 2006SOL     OW 6916   5.447   0.451   4.126
 2006SOL    HW1 6917   5.348   0.453   4.116
 2006SOL    HW2 6918   5.486   0.536   4.090
 2007SOL     OW 6919   4.599   4.429   1.362
 2007SOL    HW1 6920   4.534   4.447   1.289
 2007SOL    HW2 6921   4.552   4.387   1.439
 2008SOL     OW 6922   1.939   3.560   4.066
 2008SOL    HW1 6923   2.017   3.514   4.023
 2008SOL    HW2 6924   1.860   3.555   4.006
 2009SOL     OW 6925   5.885   6.175   1.719
 2009SOL    HW1 6926   5.860   6.269   1.696
 2009SOL    HW2 6927   5.973   6.153   1.677
 2010SOL     OW 6928   1.319   2.420   1.341
 2010SOL    HW1 6929   1.405   2.372   1.358
 2010SOL    HW2 6930   1.287   2.399   1.249
 2011SOL     OW 6931   0.108   0.020   5.751
 2011SOL    HW1 6932   0.071   0.102   5.795
 2011SOL    HW2 6933   0.037   6.969   5.747
 2012SOL     OW 6934   1.211   3.851   2.019
 2012SOL    HW1 6935   1.273   3.819   1.947
 2012SOL    HW2 6936   1.232   3.947   2.041
 2013SOL     OW 6937   0.217   2.685   3.204
 2013SOL    HW1 6938   0.118   2.698   3.202
 2013SOL    HW2 6939   0.262   2.763   3.162
 2014SOL     OW 6940   3.171   0.205   3.459
 2014SOL    HW1 6941   3.090   0.252   3.494
 2014SOL    HW2 6942   3.236   0.273   3.423
 2015SOL     OW 6943   3.783   0.915   1.236
 2015SOL    HW1 6944   3.696   0.927   1.188
 2015SOL    HW2 6945   3.772   0.845   1.307
 2016SOL     OW 6946   1.301   6.081   5.201
 2016SOL    HW1 6947   1.311   6.088   5.300
 2016SOL    HW2 6948   1.352   6.002   5.167
 2017SOL     OW 6949   4.530   0.176   3.183
 2017SOL    HW1 6950   4.506   0.089   3.227
 2017SOL    HW2 6951   4.507   0.171   3.086
 2018SOL     OW 6952   0.015   2.118   3.469
 2018SOL    HW1 6953   6.954   2.120   3.410
 2018SOL    HW2 6954   0.003   2.049   3.540
 2019SOL     OW 6955   6.134   4.801   6.834
 2019SOL    HW1 6956   6.203   4.729   6.844
 2019SOL    HW2 6957   6.110   4.810   6.737
 2020SOL     OW 6958   1.268   6.047   5.624
 2020SOL    HW1 6959   1.327   5.999   5.689
 2020SOL    HW2 6960   1.290   6.019   5.531
 2021SOL     OW 6961   6.691   6.399   3.337
 2021SOL    HW1 6962   6.705   6.403   3.238
 2021SOL    HW2 6963   6.608   6.450   3.362
 2022SOL     OW 6964   2.034   3.967   5.131
 2022SOL    HW1 6965   2.128   3.987   5.105
 2022SOL    HW2 6966   2.026   3.963   5.230
 2023SOL     OW 6967   6.741   0.099   6.896
 2023SOL    HW1 6968   6.771   0.193   6.913
 2023SOL    HW2 6969   6.642   0.093   6.909
 2024SOL     OW 6970   0.220   5.560   4.227
 2024SOL    HW1 6971   0.169   5.646   4.232
 2024SOL    HW2 6972   0.155   5.484   4.229
 2025SOL     OW 6973   2.593   0.654   4.113
 2025SOL    HW1 6974   2.510   0.649   4.059
 2025SOL    HW2 6975   2.579   0.715   4.191
 2026SOL     OW 6976   5.550   0.636   6.552
 2026SOL    HW1 6977   5.513   0.610   6.641
 2026SOL    HW2 6978   5.477   0.674   6.496
 2027SOL     OW 6979   0.727   5.824   1.387
 2027SOL    HW1 6980   0.687   5.854   1.474
 2027SOL    HW2 6981   0.745   5.726   1.390
 2028SOL     OW 6982   4.118   6.024   2.707
 2028SOL    HW1 6983   4.057   5.945   2.703
 2028SOL    HW2 6984   4.078   6.100   2.656
 2029SOL     OW 6985   0.069   2.041   6.686
 2029SOL    HW1 6986   0.119   1.978   6.626
 2029SOL    HW2 6987   0.132   2.108   6.724
 2030SOL     OW 6988   2.938   5.832   2.923
 2030SOL    HW1 6989   2.875   5.755   2.916
 2030SOL    HW2 6990   3.017   5.805   2.977
 2031SOL     OW 6991   6.614   5.852   2.862
 2031SOL    HW1 6992   6.616   5.805   2.950
 2031SOL    HW2 6993   6.708   5.864   2.828
 2032SOL     OW 6994   3.608   1.638   0.163
 2032SOL    HW1 6995   3.646   1.724   0.126
 2032SOL    HW2 6996   3.637   1.562   0.105
 2033SOL     OW 6997   1.195   1.003   0.946
 2033SOL    HW1 6998   1.107   0.954   0.941
 2033SOL    HW2 6999   1.239   1.001   0.856
 2034SOL     OW 7000   1.575   5.393   5.691
 2034SOL    HW1 7001   1.568   5.486   5.657
 2034SOL    HW2 7002   1.486   5.348   5.682
 2035SOL     OW 7003   6.592   6.662   1.696
 2035SOL    HW1 7004   6.543   6.745   1.720
 2035SOL    HW2 7005   6.667   6.684   1.634
 2036SOL     OW 7006   1.007   3.230   3.229
 2036SOL    HW1 7007   0.987   3.273   3.142
 2036SOL    HW2 7008   1.099   3.190   3.227
 2037SOL     OW 7009   0.140   2.869   6.178
 2037SOL    HW1 7010   0.041   2.883   6.166
 2037SOL    HW2 7011   0.189   2.952   6.152
 2038SOL     OW 7012   2.801   1.017   0.286
 2038SOL    HW1 7013   2.854   1.035   0.369
 2038SOL    HW2 7014   2.850   1.053   0.206
 2039SOL     OW 7015   0.086   5.838   2.445
 2039SOL    HW1 7016   0.082   5.761   2.509
 2039SOL    HW2 7017   0.060   5.922   2.492
 2040SOL     OW 7018   2.256   2.552   0.015
 2040SOL    HW1 7019   2.261   2.454   7.014
 2040SOL    HW2 7020   2.267   2.566   0.114
 2041SOL     OW 7021   1.629   0.053   5.765
 2041SOL    HW1 7022   1.649   0.064   5.862
 2041SOL    HW2 7023   1.708   0.010   5.720
 2042SOL     OW 7024   4.736   0.224   6.322
 2042SOL    HW1 7025   4.735   0.255   6.226
 2042SOL    HW2 7026   4.642   0.215   6.354
 2043SOL     OW 7027   7.011   2.495   1.306
 2043SOL    HW1 7028   6.997   2.590   1.336
 2043SOL    HW2 7029   7.019   2.493   1.206
 2044SOL     OW 7030   5.846   1.187   1.126
 2044SOL    HW1 7031   5.811   1.247   1.198
 2044SOL    HW2 7032   5.867   1.097   1.165
 2045SOL     OW 7033   1.951   5.585   5.801
 2045SOL    HW1 7034   2.034   5.577   5.857
 2045SOL    HW2 7035   1.918   5.494   5.778
 2046SOL     OW 7036   0.441   1.441   5.532
 2046SOL    HW1 7037   0.473   1.511   5.596
 2046SOL    HW2 7038   0.398   1.486   5.453
 2047SOL     OW 7039   6.417   2.506   0.297
 2047SOL    HW1 7040   6.461   2.538   0.212
 2047SOL    HW2 7041   6.367   2.422   0.279
 2048SOL     OW 7042   0.738   1.510   4.191
 2048SOL    HW1 7043   0.821   1.466   4.157
 2048SOL    HW2 7044   0.762   1.584   4.253
 2049SOL     OW 7045   4.354   1.346   4.663
 2049SOL    HW1 7046   4.358   1.446   4.664
 2049SOL    HW2 7047   4.362   1.312   4.757
 2050SOL     OW 7048   0.274   1.465   4.293
 2050SOL    HW1 7049   0.176   1.474   4.310
 2050SOL    HW2 7050   0.288   1.401   4.218
 2051SOL     OW 7051   3.150   0.065   0.737
 2051SOL    HW1 7052   3.218   7.013   0.755
 2051SOL    HW2 7053   3.173   0.147   0.791
 2052SOL     OW 7054   1.913   4.010   0.341
 2052SOL    HW1 7055   1.931   3.956   0.423
 2052SOL    HW2 7056   1.863   4.093   0.366
 2053SOL     OW 7057   1.194   5.137   4.348
 2053SOL    HW1 7058   1.123   5.109   4.413
 2053SOL    HW2 7059   1.219   5.233   4.365
 2054SOL     OW 7060   3.630   3.136   2.686
 2054SOL    HW1 7061   3.551   3.074   2.693
 2054SOL    HW2 7062   3.712   3.083   2.663
 2055SOL     OW 7063   1.202   2.647   4.746
 2055SOL    HW1 7064   1.196   2.677   4.842
 2055SOL    HW2 7065   1.136   2.699   4.691
 2056SOL     OW 7066   3.823   5.027   0.718
 2056SOL    HW1 7067   3.754   5.089   0.756
 2056SOL    HW2 7068   3.862   4.972   0.792
 2057SOL     OW 7069   5.909   2.494   4.483
 2057SOL    HW1 7070   6.008   2.507   4.485
 2057SOL    HW2 7071   5.869   2.528   4.568
 2058SOL     OW 7072   1.144   6.507   3.239
 2058SOL    HW1 7073   1.095   6.472   3.159
 2058SOL    HW2 7074   1.192   6.431   3.284
 2059SOL     OW 7075   2.674   0.277   5.579
 2059SOL    HW1 7076   2.656   0.371   5.549
 2059SOL    HW2 7077   2.687   0.219   5.498
 2060SOL     OW 7078   1.248   3.571   0.532
 2060SOL    HW1 7079   1.205   3.545   0.619
 2060SOL    HW2 7080   1.280   3.488   0.486
 2061SOL     OW 7081   1.928   2.209   2.351
 2061SOL    HW1 7082   1.896   2.129   2.301
 2061SOL    HW2 7083   2.021   2.193   2.385
 2062SOL     OW 7084   6.687   5.326   5.269
 2062SOL    HW1 7085   6.713   5.235   5.236
 2062SOL    HW2 7086   6.748   5.394   5.230
 2063SOL     OW 7087   1.681   6.916   5.069
 2063SOL    HW1 7088   1.604   6.908   5.005
 2063SOL    HW2 7089   1.673   7.002   5.120
 2064SOL     OW 7090   0.786   3.635   4.177
 2064SOL    HW1 7091   0.699   3.681   4.194
 2064SOL    HW2 7092   0.786   3.596   4.085
 2065SOL     OW 7093   4.841   2.717   5.689
 2065SOL    HW1 7094   4.880   2.733   5.598
 2065SOL    HW2 7095   4.762   2.776   5.702
 2066SOL     OW 7096   6.032   3.242   5.302
 2066SOL    HW1 7097   5.968   3.224   5.227
 2066SOL    HW2 7098   6.062   3.156   5.342
 2067SOL     OW 7099   6.349   4.655   1.259
 2067SOL    HW1 7100   6.377   4.700   1.344
 2067SOL    HW2 7101   6.278   4.587   1.280
 2068SOL     OW 7102   3.658   0.948   3.803
 2068SOL    HW1 7103   3.723   0.935   3.878
 2068SOL    HW2 7104   3.595   1.022   3.827
 2069SOL     OW 7105   6.766   1.566   4.155
 2069SOL    HW1 7106   6.724   1.481   4.125
 2069SOL    HW2 7107   6.780   1.626   4.077
 2070SOL     OW 7108   1.077   3.027   1.908
 2070SOL    HW1 7109   1.110   3.116   1.878
 2070SOL    HW2 7110   1.001   3.039   1.972
 2071SOL     OW 7111   6.257   1.451   5.858
 2071SOL    HW1 7112   6.172   1.420   5.902
 2071SOL    HW2 7113   6.262   1.551   5.864
 2072SOL     OW 7114   4.022   4.789   5.227
 2072SOL    HW1 7115   4.095   4.734   5.268
 2072SOL    HW2 7116   3.942   4.788   5.287
 2073SOL     OW 7117   3.869   6.301   6.778
 2073SOL    HW1 7118   3.892   6.263   6.868
 2073SOL    HW2 7119   3.840   6.227   6.717
 2074SOL     OW 7120   1.967   3.649   5.708
 2074SOL    HW1 7121   1.947   3.706   5.628
 2074SOL    HW2 7122   1.897   3.663   5.777
 2075SOL     OW 7123   6.695   2.037   1.988
 2075SOL    HW1 7124   6.786   2.051   2.026
 2075SOL    HW2 7125   6.626   2.068   2.054
 2076SOL     OW 7126   5.515   6.843   4.548
 2076SOL    HW1 7127   5.614   6.839   4.536
 2076SOL    HW2 7128   5.480   6.924   4.501
 2077SOL     OW 7129   0.331   3.174   1.503
 2077SOL    HW1 7130   0.414   3.136   1.461
 2077SOL    HW2 7131   0.340   3.173   1.602
 2078SOL     OW 7132   2.103   4.905   5.943
 2078SOL    HW1 7133   2.017   4.884   5.897
 2078SOL    HW2 7134   2.157   4.966   5.886
 2079SOL     OW 7135   5.252   1.432   2.163
 2079SOL    HW1 7136   5.351   1.439   2.152
 2079SOL    HW2 7137   5.218   1.513   2.210
 2080SOL     OW 7138   2.871   2.303   5.099
 2080SOL    HW1 7139   2.841   2.317   5.004
 2080SOL    HW2 7140   2.970   2.293   5.101
 2081SOL     OW 7141   0.470   6.855   3.256
 2081SOL    HW1 7142   0.466   6.951   3.226
 2081SOL    HW2 7143   0.510   6.800   3.183
 2082SOL     OW 7144   0.493   6.085   2.243
 2082SOL    HW1 7145   0.414   6.088   2.181
 2082SOL    HW2 7146   0.498   5.995   2.286
 2083SOL     OW 7147   0.399   6.221   3.908
 2083SOL    HW1 7148   0.437   6.280   3.980
 2083SOL    HW2 7149   0.353   6.278   3.840
 2084SOL     OW 7150   1.200   1.373   1.724
 2084SOL    HW1 7151   1.285   1.420   1.705
 2084SOL    HW2 7152   1.126   1.440   1.734
 2085SOL     OW 7153   5.248   5.892   6.865
 2085SOL    HW1 7154   5.329   5.881   6.922
 2085SOL    HW2 7155   5.260   5.971   6.805
 2086SOL     OW 7156   4.444   0.320   0.309
 2086SOL    HW1 7157   4.406   0.234   0.345
 2086SOL    HW2 7158   4.516   0.352   0.370
 2087SOL     OW 7159   4.246   1.983   6.991
 2087SOL    HW1 7160   4.154   2.009   6.965
 2087SOL    HW2 7161   4.284   1.921   6.923
 2088SOL     OW 7162   0.145   5.648   5.609
 2088SOL    HW1 7163   0.058   5.625   5.653
 2088SOL    HW2 7164   0.142   5.743   5.577
 2089SOL     OW 7165   3.461   3.041   5.895
 2089SOL    HW1 7166   3.459   2.970   5.825
 2089SOL    HW2 7167   3.408   3.012   5.974
 2090SOL     OW 7168   4.551   3.404   5.353
 2090SOL    HW1 7169   4.584   3.460   5.277
 2090SOL    HW2 7170   4.627   3.354   5.394
 2091SOL     OW 7171   6.382   5.821   1.346
 2091SOL    HW1 7172   6.360   5.741   1.402
 2091SOL    HW2 7173   6.379   5.796   1.249
 2092SOL     OW 7174   4.831   3.576   1.403
 2092SOL    HW1 7175   4.827   3.533   1.493
 2092SOL    HW2 7176   4.825   3.507   1.332
 2093SOL     OW 7177   4.045   2.134   2.462
 2093SOL    HW1 7178   4.024   2.100   2.553
 2093SOL    HW2 7179   3.966   2.120   2.402
 2094SOL     OW 7180   5.945   3.056   6.976
 2094SOL    HW1 7181   5.981   3.135   0.007
 2094SOL    HW2 7182   5.992   2.973   7.006
 2095SOL     OW 7183   6.163   6.244   3.969
 2095SOL    HW1 7184   6.139   6.174   3.902
 2095SOL    HW2 7185   6.086   6.259   4.030
 2096SOL     OW 7186   4.302   6.640   2.106
 2096SOL    HW1 7187   4.290   6.711   2.036
 2096SOL    HW2 7188   4.225   6.576   2.101
 2097SOL     OW 7189   1.966   4.628   6.927
 2097SOL    HW1 7190   2.007   4.551   6.976
 2097SOL    HW2 7191   2.016   4.712   6.949
 2098SOL     OW 7192   3.864   6.364   3.046
 2098SOL    HW1 7193   3.944   6.401   2.999
 2098SOL    HW2 7194   3.892   6.289   3.105
 2099SOL     OW 7195   4.879   1.296   0.042
 2099SOL    HW1 7196   4.851   1.200   0.051
 2099SOL    HW2 7197   4.836   1.335   6.980
 2100SOL     OW 7198   5.500   1.277   0.179
 2100SOL    HW1 7199   5.584   1.321   0.148
 2100SOL    HW2 7200   5.476   1.311   0.270
 2101SOL     OW 7201   7.011   6.494   1.592
 2101SOL    HW1 7202   6.918   6.460   1.608
 2101SOL    HW2 7203   0.034   6.518   1.679
 2102SOL     OW 7204   4.142   3.466   1.183
 2102SOL    HW1 7205   4.188   3.393   1.233
 2102SOL    HW2 7206   4.134   3.441   1.087
 2103SOL     OW 7207   2.984   5.735   0.027
 2103SOL    HW1 7208   2.896   5.713   0.068
 2103SOL    HW2 7209   3.005   5.669   6.974
 2104SOL     OW 7210   1.185   4.656   2.992
 2104SOL    HW1 7211   1.120   4.700   3.054
 2104SOL    HW2 7212   1.211   4.567   3.029
 2105SOL     OW 7213   5.090   4.484   7.015
 2105SOL    HW1 7214   5.099   4.495   6.916
 2105SOL    HW2 7215   5.123   4.394   0.022
 2106SOL     OW 7216   4.924   3.432   2.243
 2106SOL    HW1 7217   4.904   3.367   2.317
 2106SOL    HW2 7218   4.913   3.387   2.155
 2107SOL     OW 7219   5.354   3.940   5.512
 2107SOL    HW1 7220   5.433   3.973   5.563
 2107SOL    HW2 7221   5.304   4.018   5.474
 2108SOL     OW 7222   5.630   6.901   6.133
 2108SOL    HW1 7223   5.717   6.865   6.100
 2108SOL    HW2 7224   5.568   6.825   6.155
 2109SOL     OW 7225   3.116   5.638   3.030
 2109SOL    HW1 7226   3.120   5.552   2.979
 2109SOL    HW2 7227   3.198   5.691   3.012
 2110SOL     OW 7228   3.507   0.324   6.527
 2110SOL    HW1 7229   3.593   0.374   6.518
 2110SOL    HW2 7230   3.450   0.342   6.447
 2111SOL     OW 7231   0.942   3.348   5.449
 2111SOL    HW1 7232   0.981   3.257   5.438
 2111SOL    HW2 7233   1.014   3.417   5.439
 2112SOL     OW 7234   0.141   1.505   0.516
 2112SOL    HW1 7235   0.209   1.548   0.457
 2112SOL    HW2 7236   0.114   1.569   0.588
 2113SOL     OW 7237   1.570   6.793   4.514
 2113SOL    HW1 7238   1.587   6.780   4.612
 2113SOL    HW2 7239   1.638   6.741   4.462
 2114SOL     OW 7240   1.713   2.667   6.831
 2114SOL    HW1 7241   1.760   2.582   6.852
 2114SOL    HW2 7242   1.776   2.744   6.841
 2115SOL     OW 7243   0.438   5.284   3.159
 2115SOL    HW1 7244   0.510   5.318   3.099
 2115SOL    HW2 7245   0.478   5.237   3.237
 2116SOL     OW 7246   1.225   2.068   6.847
 2116SOL    HW1 7247   1.153   2.009   6.812
 2116SOL    HW2 7248   1.203   2.095   6.941
 2117SOL     OW 7249   5.728   1.748   2.454
 2117SOL    HW1 7250   5.659   1.678   2.433
 2117SOL    HW2 7251   5.742   1.806   2.374
 2118SOL     OW 7252   6.747   3.351   2.418
 2118SOL    HW1 7253   6.733   3.405   2.500
 2118SOL    HW2 7254   6.682   3.379   2.347
 2119SOL     OW 7255   2.366   0.392   6.630
 2119SOL    HW1 7256   2.415   0.304   6.637
 2119SOL    HW2 7257   2.426   0.460   6.587
 2120SOL     OW 7258   6.018   1.754   1.074
 2120SOL    HW1 7259   6.003   1.838   1.022
 2120SOL    HW2 7260   6.047   1.681   1.013
 2121SOL     OW 7261   1.910   1.313   5.941
 2121SOL    HW1 7262   1.909   1.366   5.856
 2121SOL    HW2 7263   1.998   1.266   5.949
 2122SOL     OW 7264   6.124   0.295   4.919
 2122SOL    HW1 7265   6.217   0.258   4.923
 2122SOL    HW2 7266   6.079   0.261   4.836
 2123SOL     OW 7267   1.031   5.963   2.815
 2123SOL    HW1 7268   0.960   6.004   2.871
 2123SOL    HW2 7269   1.084   6.035   2.770
 2124SOL     OW 7270   3.118   2.830   5.505
 2124SOL    HW1 7271   3.072   2.834   5.416
 2124SOL    HW2 7272   3.161   2.919   5.525
 2125SOL     OW 7273   1.620   5.937   3.542
 2125SOL    HW1 7274   1.620   5.887   3.456
 2125SOL    HW2 7275   1.707   5.986   3.552
 2126SOL     OW 7276   3.761   3.815   0.018
 2126SOL    HW1 7277   3.665   3.841   0.016
 2126SOL    HW2 7278   3.807   3.850   6.956
 2127SOL     OW 7279   0.508   2.980   5.831
 2127SOL    HW1 7280   0.585   3.006   5.772
 2127SOL    HW2 7281   0.466   2.897   5.795
 2128SOL     OW 7282   5.414   3.490   1.814
 2128SOL    HW1 7283   5.343   3.558   1.831
 2128SOL    HW2 7284   5.407   3.456   1.721
 2129SOL     OW 7285   5.226   4.125   3.583
 2129SOL    HW1 7286   5.295   4.056   3.606
 2129SOL    HW2 7287   5.271   4.207   3.548
 2130SOL     OW 7288   1.833   1.145   1.966
 2130SOL    HW1 7289   1.915   1.175   1.917
 2130SOL    HW2 7290   1.771   1.223   1.978
 2131SOL     OW 7291   5.618   1.675   5.915
 2131SOL    HW1 7292   5.677   1.755   5.927
 2131SOL    HW2 7293   5.526   1.704   5.889
 2132SOL     OW 7294   2.542   1.766   0.071
 2132SOL    HW1 7295   2.512   1.772   0.166
 2132SOL    HW2 7296   2.564   1.672   0.048
 2133SOL     OW 7297   2.423   1.512   1.660
 2133SOL    HW1 7298   2.504   1.538   1.712
 2133SOL    HW2 7299   2.438   1.423   1.617
 2134SOL     OW 7300   0.963   6.199   4.709
 2134SOL    HW1 7301   0.924   6.124   4.763
 2134SOL    HW2 7302   0.898   6.226   4.638
 2135SOL     OW 7303   0.776   0.971   3.510
 2135SOL    HW1 7304   0.808   0.996   3.601
 2135SOL    HW2 7305   0.852   0.932   3.457
 2136SOL     OW 7306   0.730   3.554   4.590
 2136SOL    HW1 7307   0.771   3.634   4.545
 2136SOL    HW2 7308   0.710   3.577   4.686
 2137SOL     OW 7309   1.219   6.874   5.321
 2137SOL    HW1 7310   1.245   6.929   5.401
 2137SOL    HW2 7311   1.125   6.842   5.331
 2138SOL     OW 7312   6.688   2.725   0.572
 2138SOL    HW1 7313   6.608   2.756   0.624
 2138SOL    HW2 7314   6.771   2.747   0.623
 2139SOL     OW 7315   3.361   0.607   4.593
 2139SOL    HW1 7316   3.288   0.674   4.603
 2139SOL    HW2 7317   3.414   0.601   4.678
 2140SOL     OW 7318   2.486   6.176   3.693
 2140SOL    HW1 7319   2.455   6.268   3.669
 2140SOL    HW2 7320   2.494   6.168   3.793
 2141SOL     OW 7321   6.058   2.721   0.827
 2141SOL    HW1 7322   5.973   2.669   0.827
 2141SOL    HW2 7323   6.124   2.677   0.766
 2142SOL     OW 7324   1.806   1.834   3.609
 2142SOL    HW1 7325   1.816   1.787   3.696
 2142SOL    HW2 7326   1.765   1.924   3.624
 2143SOL     OW 7327   3.458   0.011   1.658
 2143SOL    HW1 7328   3.502   0.069   1.726
 2143SOL    HW2 7329   3.522   7.009   1.585
 2144SOL     OW 7330   1.194   0.840   3.525
 2144SOL    HW1 7331   1.235   0.922   3.564
 2144SOL    HW2 7332   1.262   0.791   3.470
 2145SOL     OW 7333   3.599   5.462   3.706
 2145SOL    HW1 7334   3.539   5.389   3.672
 2145SOL    HW2 7335   3.564   5.495   3.794
 2146SOL     OW 7336   3.254   2.818   1.945
 2146SOL    HW1 7337   3.266   2.785   1.851
 2146SOL    HW2 7338   3.178   2.770   1.988
 2147SOL     OW 7339   0.521   1.712   6.312
 2147SOL    HW1 7340   0.494   1.705   6.216
 2147SOL    HW2 7341   0.582   1.637   6.335
 2148SOL     OW 7342   4.911   3.700   3.750
 2148SOL    HW1 7343   4.885   3.603   3.751
 2148SOL    HW2 7344   4.908   3.736   3.844
 2149SOL     OW 7345   4.026   1.133   2.486
 2149SOL    HW1 7346   3.988   1.098   2.572
 2149SOL    HW2 7347   3.967   1.204   2.449
 2150SOL     OW 7348   3.370   1.908   3.352
 2150SOL    HW1 7349   3.299   1.881   3.418
 2150SOL    HW2 7350   3.459   1.903   3.396
 2151SOL     OW 7351   3.883   2.524   5.646
 2151SOL    HW1 7352   3.797   2.483   5.675
 2151SOL    HW2 7353   3.885   2.531   5.547
 2152SOL     OW 7354   6.007   6.557   2.114
 2152SOL    HW1 7355   6.004   6.595   2.021
 2152SOL    HW2 7356   6.092   6.505   2.126
 2153SOL     OW 7357   4.644   1.894   3.860
 2153SOL    HW1 7358   4.578   1.945   3.915
 2153SOL    HW2 7359   4.607   1.804   3.839
 2154SOL     OW 7360   3.007   5.833   4.438
 2154SOL    HW1 7361   3.066   5.764   4.481
 2154SOL    HW2 7362   2.919   5.791   4.415
 2155SOL     OW 7363   1.557   4.313   0.235
 2155SOL    HW1 7364   1.479   4.358   0.278
 2155SOL    HW2 7365   1.529   4.223   0.202
 2156SOL     OW 7366   1.704   0.413   2.384
 2156SOL    HW1 7367   1.612   0.377   2.373
 2156SOL    HW2 7368   1.699   0.503   2.428
 2157SOL     OW 7369   6.825   1.300   5.213
 2157SOL    HW1 7370   6.886   1.223   5.193
 2157SOL    HW2 7371   6.875   1.386   5.201
 2158SOL     OW 7372   3.994   0.241   0.949
 2158SOL    HW1 7373   3.990   0.339   0.968
 2158SOL    HW2 7374   4.084   0.219   0.911
 2159SOL     OW 7375   1.441   0.017   4.487
 2159SOL    HW1 7376   1.431   0.079   4.565
 2159SOL    HW2 7377   1.497   6.958   4.513
 2160SOL     OW 7378   3.207   4.333   1.228
 2160SOL    HW1 7379   3.300   4.365   1.246
 2160SOL    HW2 7380   3.193   4.327   1.129
 2161SOL     OW 7381   4.882   3.421   3.702
 2161SOL    HW1 7382   4.862   3.327   3.730
 2161SOL    HW2 7383   4.887   3.426   3.602
 2162SOL     OW 7384   1.983   0.766   6.804
 2162SOL    HW1 7385   2.071   0.721   6.788
 2162SOL    HW2 7386   1.913   0.723   6.747
 2163SOL     OW 7387   1.647   0.569   0.277
 2163SOL    HW1 7388   1.600   0.483   0.260
 2163SOL    HW2 7389   1.745   0.557   0.260
 2164SOL     OW 7390   1.932   0.513   6.477
 2164SOL    HW1 7391   2.004   0.556   6.423
 2164SOL    HW2 7392   1.843   0.533   6.437
 2165SOL     OW 7393   1.414   0.377   2.309
 2165SOL    HW1 7394   1.377   0.468   2.327
 2165SOL    HW2 7395   1.452   0.374   2.217
 2166SOL     OW 7396   1.681   2.342   5.078
 2166SOL    HW1 7397   1.701   2.374   5.171
 2166SOL    HW2 7398   1.640   2.251   5.082
 2167SOL     OW 7399   3.519   0.580   1.847
 2167SOL    HW1 7400   3.566   0.499   1.885
 2167SOL    HW2 7401   3.534   0.658   1.908
 2168SOL     OW 7402   5.887   3.433   4.457
 2168SOL    HW1 7403   5.909   3.343   4.497
 2168SOL    HW2 7404   5.971   3.487   4.449
 2169SOL     OW 7405   5.124   2.567   6.151
 2169SOL    HW1 7406   5.035   2.570   6.197
 2169SOL    HW2 7407   5.153   2.661   6.131
 2170SOL     OW 7408   4.675   5.099   4.947
 2170SOL    HW1 7409   4.620   5.017   4.963
 2170SOL    HW2 7410   4.722   5.091   4.859
 2171SOL     OW 7411   6.892   3.384   0.363
 2171SOL    HW1 7412   6.969   3.398   0.301
 2171SOL    HW2 7413   6.808   3.375   0.309
 2172SOL     OW 7414   3.277   1.164   0.920
 2172SOL    HW1 7415   3.374   1.189   0.913
 2172SOL    HW2 7416   3.224   1.218   0.854
 2173SOL     OW 7417   4.610   1.258   5.146
 2173SOL    HW1 7418   4.538   1.299   5.090
 2173SOL    HW2 7419   4.658   1.188   5.093
 2174SOL     OW 7420   6.456   4.791   4.720
 2174SOL    HW1 7421   6.518   4.760   4.792
 2174SOL    HW2 7422   6.480   4.885   4.695
 2175SOL     OW 7423   2.781   0.051   4.011
 2175SOL    HW1 7424   2.862   0.106   3.993
 2175SOL    HW2 7425   2.699   0.105   3.993
 2176SOL     OW 7426   2.120   2.631   3.378
 2176SOL    HW1 7427   2.115   2.600   3.283
 2176SOL    HW2 7428   2.215   2.638   3.406
 2177SOL     OW 7429   0.259   2.097   0.859
 2177SOL    HW1 7430   0.201   2.162   0.809
 2177SOL    HW2 7431   0.223   2.005   0.849
 2178SOL     OW 7432   0.857   4.680   0.589
 2178SOL    HW1 7433   0.807   4.594   0.579
 2178SOL    HW2 7434   0.937   4.666   0.647
 2179SOL     OW 7435   1.852   5.211   4.545
 2179SOL    HW1 7436   1.884   5.176   4.632
 2179SOL    HW2 7437   1.772   5.269   4.560
 2180SOL     OW 7438   3.161   4.035   2.344
 2180SOL    HW1 7439   3.177   4.029   2.443
 2180SOL    HW2 7440   3.110   4.119   2.323
 2181SOL     OW 7441   5.359   5.904   5.517
 2181SOL    HW1 7442   5.302   5.937   5.442
 2181SOL    HW2 7443   5.308   5.834   5.568
 2182SOL     OW 7444   6.846   3.528   6.195
 2182SOL    HW1 7445   6.942   3.527   6.222
 2182SOL    HW2 7446   6.824   3.443   6.147
 2183SOL     OW 7447   3.124   2.764   0.641
 2183SOL    HW1 7448   3.221   2.753   0.665
 2183SOL    HW2 7449   3.110   2.853   0.598
 2184SOL     OW 7450   3.941   2.222   6.253
 2184SOL    HW1 7451   3.863   2.281   6.233
 2184SOL    HW2 7452   3.911   2.144   6.307
 2185SOL     OW 7453   1.642   0.490   1.029
 2185SOL    HW1 7454   1.581   0.430   0.979
 2185SOL    HW2 7455   1.643   0.580   0.986
 2186SOL     OW 7456   0.054   5.696   3.082
 2186SOL    HW1 7457   7.007   5.622   3.097
 2186SOL    HW2 7458   0.134   5.660   3.034
 2187SOL     OW 7459   6.456   1.423   0.605
 2187SOL    HW1 7460   6.540   1.399   0.555
 2187SOL    HW2 7461   6.389   1.350   0.593
 2188SOL     OW 7462   5.747   6.745   3.539
 2188SOL    HW1 7463   5.753   6.761   3.637
 2188SOL    HW2 7464   5.697   6.820   3.496
 2189SOL     OW 7465   2.091   6.941   5.815
 2189SOL    HW1 7466   2.180   6.937   5.768
 2189SOL    HW2 7467   2.087   0.005   5.870
 2190SOL     OW 7468   6.116   2.375   1.556
 2190SOL    HW1 7469   6.185   2.425   1.503
 2190SOL    HW2 7470   6.030   2.374   1.507
 2191SOL     OW 7471   3.347   3.047   6.498
 2191SOL    HW1 7472   3.252   3.035   6.470
 2191SOL    HW2 7473   3.391   3.117   6.441
 2192SOL     OW 7474   4.284   5.852   5.081
 2192SOL    HW1 7475   4.367   5.843   5.136
 2192SOL    HW2 7476   4.308   5.886   4.990
 2193SOL     OW 7477   0.904   5.297   5.610
 2193SOL    HW1 7478   0.984   5.238   5.614
 2193SOL    HW2 7479   0.848   5.273   5.530
 2194SOL     OW 7480   2.349   6.281   1.060
 2194SOL    HW1 7481   2.441   6.318   1.043
 2194SOL    HW2 7482   2.354   6.182   1.068
 2195SOL     OW 7483   1.371   5.426   3.099
 2195SOL    HW1 7484   1.285   5.389   3.063
 2195SOL    HW2 7485   1.442   5.356   3.095
 2196SOL     OW 7486   3.545   1.644   5.984
 2196SOL    HW1 7487   3.604   1.623   5.905
 2196SOL    HW2 7488   3.452   1.663   5.952
 2197SOL     OW 7489   4.746   4.902   1.584
 2197SOL    HW1 7490   4.839   4.882   1.554
 2197SOL    HW2 7491   4.723   4.845   1.663
 2198SOL     OW 7492   6.655   4.237   0.342
 2198SOL    HW1 7493   6.571   4.249   0.289
 2198SOL    HW2 7494   6.700   4.325   0.353
 2199SOL     OW 7495   4.645   6.826   1.312
 2199SOL    HW1 7496   4.698   6.903   1.276
 2199SOL    HW2 7497   4.675   6.806   1.405
 2200SOL     OW 7498   3.634   0.957   4.301
 2200SOL    HW1 7499   3.576   0.887   4.342
 2200SOL    HW2 7500   3.678   0.920   4.219
 2201SOL     OW 7501   6.072   3.269   2.133
 2201SOL    HW1 7502   6.060   3.180   2.091
 2201SOL    HW2 7503   5.985   3.300   2.172
 2202SOL     OW 7504   4.421   5.691   3.601
 2202SOL    HW1 7505   4.352   5.705   3.531
 2202SOL    HW2 7506   4.377   5.678   3.690
 2203SOL     OW 7507   3.691   2.028   3.290
 2203SOL    HW1 7508   3.609   2.049   3.235
 2203SOL    HW2 7509   3.737   1.948   3.251
 2204SOL     OW 7510   3.316   2.243   0.353
 2204SOL    HW1 7511   3.299   2.342   0.358
 2204SOL    HW2 7512   3.399   2.222   0.405
 2205SOL     OW 7513   2.964   6.958   0.585
 2205SOL    HW1 7514   2.999   6.968   0.492
 2205SOL    HW2 7515   3.024   7.007   0.649
 2206SOL     OW 7516   3.132   3.018   6.739
 2206SOL    HW1 7517   3.037   3.041   6.760
 2206SOL    HW2 7518   3.134   2.951   6.664
 2207SOL     OW 7519   1.484   4.492   6.545
 2207SOL    HW1 7520   1.528   4.428   6.481
 2207SOL    HW2 7521   1.389   4.465   6.558
 2208SOL     OW 7522   0.485   3.849   1.737
 2208SOL    HW1 7523   0.536   3.882   1.657
 2208SOL    HW2 7524   0.438   3.764   1.714
 2209SOL     OW 7525   0.861   5.417   6.108
 2209SOL    HW1 7526   0.841   5.359   6.187
 2209SOL    HW2 7527   0.949   5.391   6.069
 2210SOL     OW 7528   1.279   5.665   3.784
 2210SOL    HW1 7529   1.355   5.727   3.765
 2210SOL    HW2 7530   1.254   5.616   3.701
 2211SOL     OW 7531   5.826   1.122   5.541
 2211SOL    HW1 7532   5.731   1.092   5.534
 2211SOL    HW2 7533   5.839   1.204   5.485
 2212SOL     OW 7534   1.504   0.468   6.605
 2212SOL    HW1 7535   1.484   0.433   6.514
 2212SOL    HW2 7536   1.420   0.469   6.660
 2213SOL     OW 7537   3.889   2.162   3.438
 2213SOL    HW1 7538   3.819   2.133   3.373
 2213SOL    HW2 7539   3.974   2.184   3.389
 2214SOL     OW 7540   5.366   0.042   4.439
 2214SOL    HW1 7541   5.389   0.117   4.500
 2214SOL    HW2 7542   5.377   0.072   4.344
 2215SOL     OW 7543   6.823   2.438   4.937
 2215SOL    HW1 7544   6.845   2.490   4.855
 2215SOL    HW2 7545   6.893   2.369   4.953
 2216SOL     OW 7546   1.300   6.616   1.293
 2216SOL    HW1 7547   1.387   6.568   1.286
 2216SOL    HW2 7548   1.302   6.698   1.236
 2217SOL     OW 7549   4.386   6.876   1.589
 2217SOL    HW1 7550   4.406   6.899   1.685
 2217SOL    HW2 7551   4.459   6.910   1.531
 2218SOL     OW 7552   0.702   5.591   6.883
 2218SOL    HW1 7553   0.724   5.503   6.925
 2218SOL    HW2 7554   0.633   5.577   6.811
 2219SOL     OW 7555   2.113   3.808   3.069
 2219SOL    HW1 7556   2.160   3.723   3.044
 2219SOL    HW2 7557   2.097   3.863   2.988
 2220SOL     OW 7558   0.356   1.447   6.097
 2220SOL    HW1 7559   0.293   1.416   6.169
 2220SOL    HW2 7560   0.398   1.368   6.054
 2221SOL     OW 7561   6.520   2.210   1.501
 2221SOL    HW1 7562   6.497   2.146   1.428
 2221SOL    HW2 7563   6.620   2.214   1.511
 2222SOL     OW 7564   4.580   6.764   2.148
 2222SOL    HW1 7565   4.557   6.806   2.060
 2222SOL    HW2 7566   4.670   6.722   2.142
 2223SOL     OW 7567   5.641   5.086   3.517
 2223SOL    HW1 7568   5.598   5.061   3.603
 2223SOL    HW2 7569   5.714   5.152   3.535
 2224SOL     OW 7570   2.123   4.648   1.715
 2224SOL    HW1 7571   2.037   4.643   1.765
 2224SOL    HW2 7572   2.146   4.556   1.681
 2225SOL     OW 7573   6.373   4.717   2.036
 2225SOL    HW1 7574   6.296   4.712   2.100
 2225SOL    HW2 7575   6.458   4.727   2.087
 2226SOL     OW 7576   3.789   3.603   0.961
 2226SOL    HW1 7577   3.888   3.612   0.971
 2226SOL    HW2 7578   3.768   3.542   0.885
 2227SOL     OW 7579   6.745   3.874   5.267
 2227SOL    HW1 7580   6.776   3.818   5.344
 2227SOL    HW2 7581   6.718   3.814   5.191
 2228SOL     OW 7582   2.949   4.730   6.122
 2228SOL    HW1 7583   2.981   4.774   6.206
 2228SOL    HW2 7584   2.900   4.796   6.066
 2229SOL     OW 7585   4.209   0.779   3.308
 2229SOL    HW1 7586   4.168   0.824   3.229
 2229SOL    HW2 7587   4.308   0.793   3.308
 2230SOL     OW 7588   1.062   6.265   6.076
 2230SOL    HW1 7589   1.105   6.216   6.000
 2230SOL    HW2 7590   1.089   6.361   6.072
 2231SOL     OW 7591   2.315   6.963   1.976
 2231SOL    HW1 7592   2.239   6.997   1.920
 2231SOL    HW2 7593   2.294   6.980   2.073
 2232SOL     OW 7594   6.504   2.585   2.239
 2232SOL    HW1 7595   6.412   2.619   2.256
 2232SOL    HW2 7596   6.550   2.569   2.327
 2233SOL     OW 7597   3.610   6.967   0.175
 2233SOL    HW1 7598   3.620   6.890   0.112
 2233SOL    HW2 7599   3.700   6.996   0.206
 2234SOL     OW 7600   3.806   1.416   0.634
 2234SOL    HW1 7601   3.709   1.396   0.649
 2234SOL    HW2 7602   3.857   1.403   0.719
 2235SOL     OW 7603   1.128   6.681   0.635
 2235SOL    HW1 7604   1.182   6.636   0.705
 2235SOL    HW2 7605   1.148   6.779   0.636
 2236SOL     OW 7606   0.621   4.282   1.161
 2236SOL    HW1 7607   0.581   4.302   1.072
 2236SOL    HW2 7608   0.683   4.204   1.153
 2237SOL     OW 7609   5.989   2.785   4.673
 2237SOL    HW1 7610   5.966   2.700   4.721
 2237SOL    HW2 7611   5.914   2.810   4.611
 2238SOL     OW 7612   0.442   5.841   2.054
 2238SOL    HW1 7613   0.387   5.822   2.135
 2238SOL    HW2 7614   0.382   5.854   1.975
 2239SOL     OW 7615   4.343   5.077   3.104
 2239SOL    HW1 7616   4.354   5.167   3.062
 2239SOL    HW2 7617   4.299   5.087   3.193
 2240SOL     OW 7618   5.734   5.041   2.408
 2240SOL    HW1 7619   5.724   5.036   2.507
 2240SOL    HW2 7620   5.686   4.964   2.365
 2241SOL     OW 7621   0.262   6.767   1.883
 2241SOL    HW1 7622   0.257   6.863   1.855
 2241SOL    HW2 7623   0.195   6.750   1.956
 2242SOL     OW 7624   4.999   1.973   3.089
 2242SOL    HW1 7625   4.949   2.022   3.018
 2242SOL    HW2 7626   4.969   2.004   3.179
 2243SOL     OW 7627   2.666   5.907   4.786
 2243SOL    HW1 7628   2.757   5.886   4.753
 2243SOL    HW2 7629   2.672   5.957   4.873
 2244SOL     OW 7630   2.771   0.538   4.348
 2244SOL    HW1 7631   2.676   0.531   4.379
 2244SOL    HW2 7632   2.775   0.590   4.263
 2245SOL     OW 7633   1.205   0.954   2.403
 2245SOL    HW1 7634   1.165   0.863   2.416
 2245SOL    HW2 7635   1.233   0.964   2.308
 2246SOL     OW 7636   0.778   4.092   6.196
 2246SOL    HW1 7637   0.801   4.071   6.101
 2246SOL    HW2 7638   0.825   4.175   6.225
 2247SOL     OW 7639   2.321   2.980   6.272
 2247SOL    HW1 7640   2.305   2.895   6.321
 2247SOL    HW2 7641   2.365   3.046   6.333
 2248SOL     OW 7642   4.662   3.663   5.896
 2248SOL    HW1 7643   4.720   3.623   5.968
 2248SOL    HW2 7644   4.719   3.697   5.822
 2249SOL     OW 7645   5.317   5.584   3.470
 2249SOL    HW1 7646   5.227   5.545   3.449
 2249SOL    HW2 7647   5.388   5.526   3.430
 2250SOL     OW 7648   0.202   4.254   0.771
 2250SOL    HW1 7649   0.188   4.157   0.791
 2250SOL    HW2 7650   0.192   4.306   0.856
 2251SOL     OW 7651   5.487   1.007   0.175
 2251SOL    HW1 7652   5.409   0.955   0.211
 2251SOL    HW2 7653   5.457   1.100   0.153
 2252SOL     OW 7654   4.886   2.432   5.693
 2252SOL    HW1 7655   4.954   2.408   5.761
 2252SOL    HW2 7656   4.857   2.527   5.706
 2253SOL     OW 7657   2.476   3.181   0.200
 2253SOL    HW1 7658   2.526   3.265   0.219
 2253SOL    HW2 7659   2.514   3.136   0.120
 2254SOL     OW 7660   2.638   3.927   6.169
 2254SOL    HW1 7661   2.555   3.954   6.218
 2254SOL    HW2 7662   2.666   3.836   6.200
 2255SOL     OW 7663   5.994   2.813   1.520
 2255SOL    HW1 7664   6.020   2.892   1.575
 2255SOL    HW2 7665   6.071   2.786   1.462
 2256SOL     OW 7666   4.361   4.814   2.036
 2256SOL    HW1 7667   4.408   4.732   2.069
 2256SOL    HW2 7668   4.312   4.792   1.952
 2257SOL     OW 7669   1.837   4.247   3.829
 2257SOL    HW1 7670   1.921   4.287   3.866
 2257SOL    HW2 7671   1.797   4.309   3.762
 2258SOL     OW 7672   1.938   5.704   4.530
 2258SOL    HW1 7673   1.864   5.649   4.570
 2258SOL    HW2 7674   1.991   5.747   4.604
 2259SOL     OW 7675   5.070   3.934   6.705
 2259SOL    HW1 7676   5.040   3.851   6.752
 2259SOL    HW2 7677   5.005   3.957   6.633
 2260SOL     OW 7678   5.367   4.887   1.442
 2260SOL    HW1 7679   5.436   4.957   1.425
 2260SOL    HW2 7680   5.313   4.874   1.359
 2261SOL     OW 7681   5.202   6.855   0.176
 2261SOL    HW1 7682   5.282   6.855   0.235
 2261SOL    HW2 7683   5.120   6.879   0.229
 2262SOL     OW 7684   4.721   2.184   3.655
 2262SOL    HW1 7685   4.666   2.218   3.731
 2262SOL    HW2 7686   4.671   2.112   3.607
 2263SOL     OW 7687   1.125   5.510   5.617
 2263SOL    HW1 7688   1.040   5.472   5.653
 2263SOL    HW2 7689   1.111   5.542   5.523
 2264SOL     OW 7690   3.375   3.283   4.492
 2264SOL    HW1 7691   3.378   3.356   4.425
 2264SOL    HW2 7692   3.464   3.276   4.538
 2265SOL     OW 7693   6.940   0.005   1.809
 2265SOL    HW1 7694   6.875   6.968   1.861
 2265SOL    HW2 7695   6.977   6.970   1.734
 2266SOL     OW 7696   5.891   0.568   0.552
 2266SOL    HW1 7697   5.837   0.648   0.527
 2266SOL    HW2 7698   5.908   0.567   0.650
 2267SOL     OW 7699   6.519   2.757   5.834
 2267SOL    HW1 7700   6.560   2.707   5.758
 2267SOL    HW2 7701   6.499   2.694   5.909
 2268SOL     OW 7702   6.823   5.811   6.660
 2268SOL    HW1 7703   6.920   5.786   6.666
 2268SOL    HW2 7704   6.814   5.909   6.676
 2269SOL     OW 7705   6.370   5.392   5.863
 2269SOL    HW1 7706   6.322   5.308   5.836
 2269SOL    HW2 7707   6.452   5.368   5.914
 2270SOL     OW 7708   4.023   3.590   2.021
 2270SOL    HW1 7709   4.035   3.548   1.932
 2270SOL    HW2 7710   3.943   3.551   2.066
 2271SOL     OW 7711   6.406   4.795   2.368
 2271SOL    HW1 7712   6.431   4.875   2.423
 2271SOL    HW2 7713   6.337   4.742   2.417
 2272SOL     OW 7714   5.848   2.130   5.769
 2272SOL    HW1 7715   5.805   2.210   5.811
 2272SOL    HW2 7716   5.820   2.124   5.673
 2273SOL     OW 7717   0.643   1.429   3.253
 2273SOL    HW1 7718   0.713   1.492   3.286
 2273SOL    HW2 7719   0.579   1.410   3.328
 2274SOL     OW 7720   1.175   3.424   4.194
 2274SOL    HW1 7721   1.182   3.325   4.177
 2274SOL    HW2 7722   1.267   3.461   4.205
 2275SOL     OW 7723   5.331   6.663   3.776
 2275SOL    HW1 7724   5.309   6.731   3.846
 2275SOL    HW2 7725   5.272   6.677   3.697
 2276SOL     OW 7726   3.983   4.402   1.693
 2276SOL    HW1 7727   4.057   4.439   1.749
 2276SOL    HW2 7728   3.970   4.461   1.613
 2277SOL     OW 7729   3.666   3.174   0.142
 2277SOL    HW1 7730   3.762   3.202   0.138
 2277SOL    HW2 7731   3.618   3.227   0.213
 2278SOL     OW 7732   5.229   5.648   1.549
 2278SOL    HW1 7733   5.189   5.559   1.568
 2278SOL    HW2 7734   5.310   5.637   1.492
 2279SOL     OW 7735   5.586   3.227   4.883
 2279SOL    HW1 7736   5.504   3.237   4.827
 2279SOL    HW2 7737   5.665   3.264   4.834
 2280SOL     OW 7738   6.156   6.357   6.135
 2280SOL    HW1 7739   6.105   6.304   6.203
 2280SOL    HW2 7740   6.120   6.450   6.131
 2281SOL     OW 7741   3.902   2.310   1.237
 2281SOL    HW1 7742   3.989   2.332   1.191
 2281SOL    HW2 7743   3.895   2.211   1.249
 2282SOL     OW 7744   4.763   5.848   3.319
 2282SOL    HW1 7745   4.829   5.774   3.307
 2282SOL    HW2 7746   4.679   5.826   3.267
 2283SOL     OW 7747   6.943   3.199   3.422
 2283SOL    HW1 7748   6.868   3.257   3.453
 2283SOL    HW2 7749   6.968   3.136   3.495
 2284SOL     OW 7750   2.158   2.304   1.703
 2284SOL    HW1 7751   2.121   2.276   1.615
 2284SOL    HW2 7752   2.172   2.403   1.703
 2285SOL     OW 7753   1.917   4.210   0.985
 2285SOL    HW1 7754   1.929   4.244   0.892
 2285SOL    HW2 7755   1.948   4.115   0.991
 2286SOL     OW 7756   6.460   6.388   4.834
 2286SOL    HW1 7757   6.408   6.325   4.777
 2286SOL    HW2 7758   6.398   6.457   4.873
 2287SOL     OW 7759   2.342   2.514   1.848
 2287SOL    HW1 7760   2.275   2.533   1.919
 2287SOL    HW2 7761   2.308   2.548   1.760
 2288SOL     OW 7762   0.293   6.475   3.091
 2288SOL    HW1 7763   0.320   6.408   3.160
 2288SOL    HW2 7764   0.255   6.427   3.011
 2289SOL     OW 7765   5.753   1.931   2.245
 2289SOL    HW1 7766   5.673   1.990   2.242
 2289SOL    HW2 7767   5.815   1.955   2.170
 2290SOL     OW 7768   2.871   3.369   2.659
 2290SOL    HW1 7769   2.967   3.367   2.686
 2290SOL    HW2 7770   2.857   3.440   2.590
 2291SOL     OW 7771   1.804   3.089   0.657
 2291SOL    HW1 7772   1.878   3.033   0.619
 2291SOL    HW2 7773   1.752   3.130   0.582
 2292SOL     OW 7774   4.347   2.151   3.437
 2292SOL    HW1 7775   4.371   2.231   3.383
 2292SOL    HW2 7776   4.278   2.176   3.505
 2293SOL     OW 7777   6.084   1.373   6.973
 2293SOL    HW1 7778   6.167   1.415   7.009
 2293SOL    HW2 7779   6.005   1.405   0.006
 2294SOL     OW 7780   0.960   2.174   5.875
 2294SOL    HW1 7781   0.870   2.139   5.849
 2294SOL    HW2 7782   0.957   2.273   5.884
 2295SOL     OW 7783   6.097   6.651   1.819
 2295SOL    HW1 7784   6.086   6.709   1.738
 2295SOL    HW2 7785   6.134   6.563   1.792
 2296SOL     OW 7786   2.748   5.590   3.917
 2296SOL    HW1 7787   2.770   5.509   3.863
 2296SOL    HW2 7788   2.774   5.575   4.012
 2297SOL     OW 7789   4.230   4.637   5.304
 2297SOL    HW1 7790   4.234   4.558   5.242
 2297SOL    HW2 7791   4.183   4.610   5.389
 2298SOL     OW 7792   3.542   3.244   5.074
 2298SOL    HW1 7793   3.452   3.213   5.105
 2298SOL    HW2 7794   3.612   3.179   5.103
 2299SOL     OW 7795   5.547   2.816   4.850
 2299SOL    HW1 7796   5.504   2.812   4.759
 2299SOL    HW2 7797   5.549   2.910   4.882
 2300SOL     OW 7798   3.674   6.513   2.508
 2300SOL    HW1 7799   3.668   6.481   2.413
 2300SOL    HW2 7800   3.750   6.578   2.516
 2301SOL     OW 7801   3.505   3.918   4.606
 2301SOL    HW1 7802   3.494   4.012   4.575
 2301SOL    HW2 7803   3.558   3.916   4.691
 2302SOL     OW 7804   5.070   2.345   0.436
 2302SOL    HW1 7805   5.116   2.315   0.520
 2302SOL    HW2 7806   5.012   2.271   0.402
 2303SOL     OW 7807   3.250   2.205   0.951
 2303SOL    HW1 7808   3.179   2.243   1.010
 2303SOL    HW2 7809   3.277   2.115   0.984
 2304SOL     OW 7810   5.903   5.846   2.261
 2304SOL    HW1 7811   5.856   5.785   2.197
 2304SOL    HW2 7812   5.900   5.807   2.353
 2305SOL     OW 7813   1.661   0.990   5.189
 2305SOL    HW1 7814   1.745   1.029   5.152
 2305SOL    HW2 7815   1.680   0.949   5.278
 2306SOL     OW 7816   2.262   5.026   3.522
 2306SOL    HW1 7817   2.196   5.013   3.448
 2306SOL    HW2 7818   2.280   5.123   3.534
 2307SOL     OW 7819   0.664   2.213   5.261
 2307SOL    HW1 7820   0.653   2.280   5.334
 2307SOL    HW2 7821   0.654   2.121   5.298
 2308SOL     OW 7822   2.589   4.475   1.503
 2308SOL    HW1 7823   2.589   4.457   1.601
 2308SOL    HW2 7824   2.516   4.539   1.480
 2309SOL     OW 7825   1.598   6.414   4.311
 2309SOL    HW1 7826   1.514   6.425   4.258
 2309SOL    HW2 7827   1.577   6.419   4.409
 2310SOL     OW 7828   4.626   6.539   1.548
 2310SOL    HW1 7829   4.709   6.593   1.540
 2310SOL    HW2 7830   4.634   6.456   1.493
 2311SOL     OW 7831   2.357   5.965   1.333
 2311SOL    HW1 7832   2.306   5.915   1.263
 2311SOL    HW2 7833   2.295   6.023   1.385
 2312SOL     OW 7834   3.319   4.867   2.559
 2312SOL    HW1 7835   3.221   4.857   2.577
 2312SOL    HW2 7836   3.336   4.849   2.462
 2313SOL     OW 7837   5.198   4.948   2.358
 2313SOL    HW1 7838   5.188   5.028   2.416
 2313SOL    HW2 7839   5.116   4.891   2.365
 2314SOL     OW 7840   2.910   5.914   4.149
 2314SOL    HW1 7841   2.968   5.844   4.107
 2314SOL    HW2 7842   2.936   5.925   4.245
 2315SOL     OW 7843   3.885   3.326   6.788
 2315SOL    HW1 7844   3.898   3.253   6.721
 2315SOL    HW2 7845   3.960   3.390   6.782
 2316SOL     OW 7846   5.646   2.938   2.984
 2316SOL    HW1 7847   5.598   2.991   3.054
 2316SOL    HW2 7848   5.663   2.995   2.904
 2317SOL     OW 7849   1.586   4.649   3.323
 2317SOL    HW1 7850   1.588   4.557   3.284
 2317SOL    HW2 7851   1.572   4.716   3.250
 2318SOL     OW 7852   0.233   0.545   3.603
 2318SOL    HW1 7853   0.326   0.580   3.589
 2318SOL    HW2 7854   0.236   0.447   3.621
 2319SOL     OW 7855   1.373   4.087   4.011
 2319SOL    HW1 7856   1.392   4.182   4.038
 2319SOL    HW2 7857   1.311   4.046   4.077
 2320SOL     OW 7858   6.683   2.830   4.318
 2320SOL    HW1 7859   6.584   2.833   4.337
 2320SOL    HW2 7860   6.728   2.903   4.370
 2321SOL     OW 7861   3.043   6.809   5.077
 2321SOL    HW1 7862   2.991   6.894   5.074
 2321SOL    HW2 7863   3.130   6.825   5.124
 2322SOL     OW 7864   1.789   0.399   4.956
 2322SOL    HW1 7865   1.710   0.403   5.018
 2322SOL    HW2 7866   1.833   0.488   4.954
 2323SOL     OW 7867   4.168   5.870   1.830
 2323SOL    HW1 7868   4.137   5.965   1.823
 2323SOL    HW2 7869   4.199   5.852   1.923
 2324SOL     OW 7870   0.127   5.317   3.414
 2324SOL    HW1 7871   0.195   5.244   3.428
 2324SOL    HW2 7872   0.121   5.338   3.316
 2325SOL     OW 7873   0.366   3.259   1.214
 2325SOL    HW1 7874   0.462   3.258   1.187
 2325SOL    HW2 7875   0.358   3.250   1.313
 2326SOL     OW 7876   1.224   5.288   6.744
 2326SOL    HW1 7877   1.236   5.195   6.709
 2326SOL    HW2 7878   1.147   5.331   6.698
 2327SOL     OW 7879   4.722   2.791   4.353
 2327SOL    HW1 7880   4.709   2.879   4.308
 2327SOL    HW2 7881   4.659   2.783   4.430
 2328SOL     OW 7882   4.382   0.347   3.372
 2328SOL    HW1 7883   4.403   0.368   3.468
 2328SOL    HW2 7884   4.456   0.291   3.334
 2329SOL     OW 7885   1.108   6.232   3.753
 2329SOL    HW1 7886   1.024   6.194   3.714
 2329SOL    HW2 7887   1.120   6.326   3.722
 2330SOL     OW 7888   0.435   4.281   2.613
 2330SOL    HW1 7889   0.398   4.332   2.691
 2330SOL    HW2 7890   0.459   4.344   2.540
 2331SOL     OW 7891   0.762   4.576   5.355
 2331SOL    HW1 7892   0.688   4.643   5.359
 2331SOL    HW2 7893   0.805   4.579   5.265
 2332SOL     OW 7894   6.024   2.496   6.194
 2332SOL    HW1 7895   5.958   2.424   6.170
 2332SOL    HW2 7896   6.004   2.578   6.141
 2333SOL     OW 7897   1.229   5.937   3.600
 2333SOL    HW1 7898   1.141   5.921   3.645
 2333SOL    HW2 7899   1.300   5.947   3.670
 2334SOL     OW 7900   3.068   6.985   6.813
 2334SOL    HW1 7901   3.040   0.043   6.757
 2334SOL    HW2 7902   3.133   7.015   6.883
 2335SOL     OW 7903   5.572   6.873   3.876
 2335SOL    HW1 7904   5.475   6.895   3.879
 2335SOL    HW2 7905   5.618   6.934   3.812
 2336SOL     OW 7906   4.992   1.508   5.844
 2336SOL    HW1 7907   5.017   1.433   5.905
 2336SOL    HW2 7908   5.059   1.582   5.853
 2337SOL     OW 7909   5.348   0.109   3.062
 2337SOL    HW1 7910   5.383   0.183   3.119
 2337SOL    HW2 7911   5.248   0.115   3.058
 2338SOL     OW 7912   0.842   6.816   6.719
 2338SOL    HW1 7913   0.842   6.843   6.623
 2338SOL    HW2 7914   0.765   6.858   6.766
 2339SOL     OW 7915   3.637   4.082   0.242
 2339SOL    HW1 7916   3.726   4.105   0.201
 2339SOL    HW2 7917   3.645   4.082   0.342
 2340SOL     OW 7918   3.409   5.530   4.708
 2340SOL    HW1 7919   3.345   5.509   4.783
 2340SOL    HW2 7920   3.414   5.452   4.646
 2341SOL     OW 7921   4.897   5.146   0.895
 2341SOL    HW1 7922   4.894   5.049   0.921
 2341SOL    HW2 7923   4.901   5.153   0.795
 2342SOL     OW 7924   6.130   0.497   5.290
 2342SOL    HW1 7925   6.104   0.402   5.275
 2342SOL    HW2 7926   6.229   0.506   5.282
 2343SOL     OW 7927   1.530   6.433   1.250
 2343SOL    HW1 7928   1.543   6.334   1.260
 2343SOL    HW2 7929   1.590   6.468   1.179
 2344SOL     OW 7930   1.884   2.208   2.661
 2344SOL    HW1 7931   1.868   2.216   2.562
 2344SOL    HW2 7932   1.904   2.298   2.698
 2345SOL     OW 7933   2.103   0.976   4.369
 2345SOL    HW1 7934   2.175   0.965   4.438
 2345SOL    HW2 7935   2.108   1.068   4.330
 2346SOL     OW 7936   5.301   4.135   5.834
 2346SOL    HW1 7937   5.269   4.198   5.905
 2346SOL    HW2 7938   5.237   4.134   5.758
 2347SOL     OW 7939   1.357   2.786   1.997
 2347SOL    HW1 7940   1.420   2.718   1.958
 2347SOL    HW2 7941   1.322   2.752   2.084
 2348SOL     OW 7942   2.708   0.036   2.198
 2348SOL    HW1 7943   2.720   6.957   2.209
 2348SOL    HW2 7944   2.797   0.080   2.190
 2349SOL     OW 7945   5.761   6.441   5.548
 2349SOL    HW1 7946   5.821   6.392   5.612
 2349SOL    HW2 7947   5.817   6.484   5.477
 2350SOL     OW 7948   2.537   0.038   5.901
 2350SOL    HW1 7949   2.489   0.118   5.936
 2350SOL    HW2 7950   2.628   0.065   5.868
 2351SOL     OW 7951   2.422   5.506   4.115
 2351SOL    HW1 7952   2.349   5.478   4.178
 2351SOL    HW2 7953   2.452   5.599   4.138
 2352SOL     OW 7954   0.762   3.529   2.949
 2352SOL    HW1 7955   0.777   3.622   2.914
 2352SOL    HW2 7956   0.687   3.529   3.014
 2353SOL     OW 7957   3.180   4.879   5.801
 2353SOL    HW1 7958   3.084   4.906   5.790
 2353SOL    HW2 7959   3.204   4.877   5.898
 2354SOL     OW 7960   3.769   2.028   0.665
 2354SOL    HW1 7961   3.682   2.075   0.650
 2354SOL    HW2 7962   3.798   2.042   0.760
 2355SOL     OW 7963   0.260   6.370   0.933
 2355SOL    HW1 7964   0.342   6.325   0.897
 2355SOL    HW2 7965   0.283   6.416   1.019
 2356SOL     OW 7966   2.710   4.994   3.599
 2356SOL    HW1 7967   2.782   4.938   3.640
 2356SOL    HW2 7968   2.667   4.943   3.525
 2357SOL     OW 7969   6.505   4.126   1.956
 2357SOL    HW1 7970   6.562   4.055   1.997
 2357SOL    HW2 7971   6.520   4.127   1.857
 2358SOL     OW 7972   3.894   2.022   5.900
 2358SOL    HW1 7973   3.888   1.933   5.855
 2358SOL    HW2 7974   3.850   2.091   5.843
 2359SOL     OW 7975   1.375   1.627   5.714
 2359SOL    HW1 7976   1.403   1.592   5.804
 2359SOL    HW2 7977   1.312   1.563   5.671
 2360SOL     OW 7978   4.027   4.530   0.911
 2360SOL    HW1 7979   3.928   4.546   0.921
 2360SOL    HW2 7980   4.042   4.438   0.874
 2361SOL     OW 7981   3.442   6.309   1.953
 2361SOL    HW1 7982   3.366   6.251   1.985
 2361SOL    HW2 7983   3.480   6.269   1.869
 2362SOL     OW 7984   3.890   5.602   4.239
 2362SOL    HW1 7985   3.927   5.632   4.151
 2362SOL    HW2 7986   3.954   5.538   4.283
 2363SOL     OW 7987   3.347   3.375   0.624
 2363SOL    HW1 7988   3.446   3.368   0.611
 2363SOL    HW2 7989   3.328   3.448   0.690
 2364SOL     OW 7990   4.259   1.804   2.197
 2364SOL    HW1 7991   4.232   1.804   2.293
 2364SOL    HW2 7992   4.344   1.856   2.186
 2365SOL     OW 7993   5.469   3.683   4.100
 2365SOL    HW1 7994   5.437   3.597   4.059
 2365SOL    HW2 7995   5.390   3.734   4.135
 2366SOL     OW 7996   2.422   4.721   5.092
 2366SOL    HW1 7997   2.365   4.642   5.116
 2366SOL    HW2 7998   2.409   4.793   5.161
 2367SOL     OW 7999   0.684   4.172   5.764
 2367SOL    HW1 8000   0.731   4.084   5.767
 2367SOL    HW2 8001   0.594   4.161   5.720
 2368SOL     OW 8002   5.822   6.532   4.083
 2368SOL    HW1 8003   5.786   6.602   4.146
 2368SOL    HW2 8004   5.775   6.539   3.995
 2369SOL     OW 8005   3.033   1.597   3.622
 2369SOL    HW1 8006   2.961   1.529   3.608
 2369SOL    HW2 8007   3.029   1.664   3.548
 2370SOL     OW 8008   5.275   2.390   1.889
 2370SOL    HW1 8009   5.238   2.482   1.901
 2370SOL    HW2 8010   5.267   2.340   1.976
 2371SOL     OW 8011   1.076   6.938   2.928
 2371SOL    HW1 8012   1.034   6.890   3.005
 2371SOL    HW2 8013   1.059   0.016   2.935
 2372SOL     OW 8014   6.421   1.272   5.991
 2372SOL    HW1 8015   6.339   1.306   5.946
 2372SOL    HW2 8016   6.498   1.332   5.970
 2373SOL     OW 8017   5.949   6.507   5.818
 2373SOL    HW1 8018   5.982   6.582   5.760
 2373SOL    HW2 8019   6.011   6.430   5.812
 2374SOL     OW 8020   6.233   5.989   2.569
 2374SOL    HW1 8021   6.319   6.022   2.608
 2374SOL    HW2 8022   6.241   5.892   2.547
 2375SOL     OW 8023   1.221   0.961   3.940
 2375SOL    HW1 8024   1.234   0.863   3.960
 2375SOL    HW2 8025   1.298   1.013   3.977
 2376SOL     OW 8026   6.019   1.592   2.932
 2376SOL    HW1 8027   6.022   1.691   2.920
 2376SOL    HW2 8028   6.089   1.549   2.874
 2377SOL     OW 8029   3.915   4.951   5.953
 2377SOL    HW1 8030   3.906   4.943   6.052
 2377SOL    HW2 8031   3.839   5.005   5.917
 2378SOL     OW 8032   0.098   1.165   7.017
 2378SOL    HW1 8033   0.191   1.172   0.033
 2378SOL    HW2 8034   0.069   1.255   6.983
 2379SOL     OW 8035   6.710   5.372   1.141
 2379SOL    HW1 8036   6.645   5.360   1.066
 2379SOL    HW2 8037   6.787   5.429   1.110
 2380SOL     OW 8038   5.026   4.800   4.934
 2380SOL    HW1 8039   5.087   4.870   4.898
 2380SOL    HW2 8040   4.974   4.837   5.011
 2381SOL     OW 8041   3.280   5.335   4.885
 2381SOL    HW1 8042   3.222   5.254   4.893
 2381SOL    HW2 8043   3.343   5.339   4.962
 2382SOL     OW 8044   1.268   6.278   1.371
 2382SOL    HW1 8045   1.305   6.362   1.331
 2382SOL    HW2 8046   1.246   6.295   1.468
 2383SOL     OW 8047   5.197   5.907   4.916
 2383SOL    HW1 8048   5.167   5.999   4.887
 2383SOL    HW2 8049   5.291   5.912   4.949
 2384SOL     OW 8050   0.883   1.917   1.684
 2384SOL    HW1 8051   0.820   1.846   1.715
 2384SOL    HW2 8052   0.842   2.007   1.699
 2385SOL     OW 8053   0.706   1.714   0.787
 2385SOL    HW1 8054   0.612   1.744   0.770
 2385SOL    HW2 8055   0.719   1.623   0.749
 2386SOL     OW 8056   4.494   6.191   3.923
 2386SOL    HW1 8057   4.506   6.255   3.848
 2386SOL    HW2 8058   4.433   6.117   3.894
 2387SOL     OW 8059   1.489   1.636   3.568
 2387SOL    HW1 8060   1.417   1.567   3.560
 2387SOL    HW2 8061   1.556   1.625   3.495
 2388SOL     OW 8062   6.409   2.055   5.532
 2388SOL    HW1 8063   6.445   2.138   5.572
 2388SOL    HW2 8064   6.339   2.077   5.464
 2389SOL     OW 8065   5.550   4.440   3.873
 2389SOL    HW1 8066   5.500   4.471   3.792
 2389SOL    HW2 8067   5.519   4.347   3.897
 2390SOL     OW 8068   4.687   4.637   6.184
 2390SOL    HW1 8069   4.620   4.706   6.156
 2390SOL    HW2 8070   4.661   4.548   6.146
 2391SOL     OW 8071   3.513   3.698   6.471
 2391SOL    HW1 8072   3.603   3.736   6.449
 2391SOL    HW2 8073   3.522   3.601   6.493
 2392SOL     OW 8074   3.371   5.734   4.491
 2392SOL    HW1 8075   3.282   5.690   4.481
 2392SOL    HW2 8076   3.430   5.675   4.546
 2393SOL     OW 8077   3.094   5.184   1.067
 2393SOL    HW1 8078   3.157   5.120   1.023
 2393SOL    HW2 8079   3.023   5.133   1.115
 2394SOL     OW 8080   0.518   2.702   3.263
 2394SOL    HW1 8081   0.569   2.655   3.191
 2394SOL    HW2 8082   0.433   2.654   3.281
 2395SOL     OW 8083   0.597   2.457   5.579
 2395SOL    HW1 8084   0.635   2.544   5.610
 2395SOL    HW2 8085   0.527   2.474   5.510
 2396SOL     OW 8086   6.379   1.120   5.308
 2396SOL    HW1 8087   6.369   1.078   5.398
 2396SOL    HW2 8088   6.468   1.097   5.270
 2397SOL     OW 8089   0.641   4.900   5.124
 2397SOL    HW1 8090   0.736   4.871   5.112
 2397SOL    HW2 8091   0.600   4.915   5.035
 2398SOL     OW 8092   3.089   5.489   4.012
 2398SOL    HW1 8093   3.083   5.480   3.912
 2398SOL    HW2 8094   3.099   5.586   4.036
 2399SOL     OW 8095   2.810   2.248   3.694
 2399SOL    HW1 8096   2.879   2.193   3.741
 2399SOL    HW2 8097   2.729   2.192   3.677
 2400SOL     OW 8098   1.413   3.764   0.700
 2400SOL    HW1 8099   1.314   3.772   0.714
 2400SOL    HW2 8100   1.431   3.729   0.609
 2401SOL     OW 8101   3.498   6.943   6.039
 2401SOL    HW1 8102   3.478   6.939   6.136
 2401SOL    HW2 8103   3.592   6.974   6.026
 2402SOL     OW 8104   0.960   2.369   2.064
 2402SOL    HW1 8105   1.004   2.287   2.027
 2402SOL    HW2 8106   0.909   2.415   1.992
 2403SOL     OW 8107   3.694   4.106   3.102
 2403SOL    HW1 8108   3.759   4.082   3.174
 2403SOL    HW2 8109   3.624   4.166   3.139
 2404SOL     OW 8110   6.811   1.633   0.651
 2404SOL    HW1 8111   6.905   1.606   0.672
 2404SOL    HW2 8112   6.747   1.574   0.701
 2405SOL     OW 8113   2.986   3.804   0.703
 2405SOL    HW1 8114   2.908   3.846   0.656
 2405SOL    HW2 8115   2.952   3.738   0.770
 2406SOL     OW 8116   2.381   6.801   5.181
 2406SOL    HW1 8117   2.320   6.792   5.103
 2406SOL    HW2 8118   2.424   6.713   5.201
 2407SOL     OW 8119   3.640   1.458   3.989
 2407SOL    HW1 8120   3.683   1.427   3.905
 2407SOL    HW2 8121   3.585   1.540   3.971
 2408SOL     OW 8122   2.574   6.312   4.668
 2408SOL    HW1 8123   2.577   6.411   4.685
 2408SOL    HW2 8124   2.515   6.268   4.735
 2409SOL     OW 8125   2.553   2.658   0.811
 2409SOL    HW1 8126   2.502   2.661   0.896
 2409SOL    HW2 8127   2.569   2.562   0.784
 2410SOL     OW 8128   6.314   4.110   5.666
 2410SOL    HW1 8129   6.280   4.153   5.583
 2410SOL    HW2 8130   6.242   4.053   5.707
 2411SOL     OW 8131   2.629   3.419   0.223
 2411SOL    HW1 8132   2.703   3.354   0.207
 2411SOL    HW2 8133   2.651   3.476   0.303
 2412SOL     OW 8134   2.946   2.121   6.507
 2412SOL    HW1 8135   2.956   2.219   6.496
 2412SOL    HW2 8136   2.898   2.101   6.592
 2413SOL     OW 8137   0.329   2.800   6.407
 2413SOL    HW1 8138   0.255   2.811   6.340
 2413SOL    HW2 8139   0.401   2.742   6.367
 2414SOL     OW 8140   6.228   2.477   4.577
 2414SOL    HW1 8141   6.259   2.455   4.670
 2414SOL    HW2 8142   6.226   2.576   4.565
 2415SOL     OW 8143   2.623   6.004   1.343
 2415SOL    HW1 8144   2.646   6.097   1.373
 2415SOL    HW2 8145   2.525   5.999   1.322
 2416SOL     OW 8146   6.647   2.992   2.919
 2416SOL    HW1 8147   6.623   2.933   2.995
 2416SOL    HW2 8148   6.659   3.086   2.952
 2417SOL     OW 8149   3.970   3.346   0.735
 2417SOL    HW1 8150   3.961   3.367   0.638
 2417SOL    HW2 8151   3.889   3.295   0.766
 2418SOL     OW 8152   5.103   4.149   5.642
 2418SOL    HW1 8153   5.060   4.089   5.709
 2418SOL    HW2 8154   5.059   4.239   5.644
 2419SOL     OW 8155   1.946   6.243   4.282
 2419SOL    HW1 8156   1.863   6.215   4.332
 2419SOL    HW2 8157   1.984   6.164   4.235
 2420SOL     OW 8158   2.711   4.862   2.603
 2420SOL    HW1 8159   2.625   4.884   2.556
 2420SOL    HW2 8160   2.753   4.783   2.559
 2421SOL     OW 8161   3.382   6.810   4.420
 2421SOL    HW1 8162   3.458   6.769   4.369
 2421SOL    HW2 8163   3.350   6.891   4.372
 2422SOL     OW 8164   3.941   6.711   1.554
 2422SOL    HW1 8165   3.952   6.707   1.653
 2422SOL    HW2 8166   3.977   6.627   1.513
 2423SOL     OW 8167   1.658   4.886   2.238
 2423SOL    HW1 8168   1.728   4.833   2.285
 2423SOL    HW2 8169   1.701   4.955   2.181
 2424SOL     OW 8170   5.383   0.674   6.316
 2424SOL    HW1 8171   5.471   0.718   6.297
 2424SOL    HW2 8172   5.325   0.736   6.369
 2425SOL     OW 8173   4.489   5.359   5.594
 2425SOL    HW1 8174   4.425   5.337   5.520
 2425SOL    HW2 8175   4.439   5.366   5.680
 2426SOL     OW 8176   1.291   4.753   5.596
 2426SOL    HW1 8177   1.223   4.685   5.621
 2426SOL    HW2 8178   1.250   4.820   5.535
 2427SOL     OW 8179   5.137   0.613   6.185
 2427SOL    HW1 8180   5.166   0.554   6.111
 2427SOL    HW2 8181   5.214   0.634   6.245
 2428SOL     OW 8182   0.527   0.928   3.398
 2428SOL    HW1 8183   0.536   0.912   3.300
 2428SOL    HW2 8184   0.616   0.948   3.438
 2429SOL     OW 8185   5.517   5.656   2.171
 2429SOL    HW1 8186   5.582   5.587   2.205
 2429SOL    HW2 8187   5.426   5.615   2.164
 2430SOL     OW 8188   6.574   3.143   0.337
 2430SOL    HW1 8189   6.545   3.062   0.287
 2430SOL    HW2 8190   6.516   3.155   0.418
 2431SOL     OW 8191   6.727   1.982   1.049
 2431SOL    HW1 8192   6.692   1.913   0.986
 2431SOL    HW2 8193   6.781   2.050   0.999
 2432SOL     OW 8194   3.757   5.392   2.098
 2432SOL    HW1 8195   3.692   5.323   2.129
 2432SOL    HW2 8196   3.834   5.397   2.162
 2433SOL     OW 8197   6.981   4.216   0.182
 2433SOL    HW1 8198   6.967   4.192   0.278
 2433SOL    HW2 8199   6.970   4.315   0.171
 2434SOL     OW 8200   4.181   1.849   2.827
 2434SOL    HW1 8201   4.182   1.749   2.827
 2434SOL    HW2 8202   4.112   1.881   2.762
 2435SOL     OW 8203   5.624   0.151   6.757
 2435SOL    HW1 8204   5.556   0.146   6.830
 2435SOL    HW2 8205   5.660   0.245   6.752
 2436SOL     OW 8206   1.502   1.420   0.837
 2436SOL    HW1 8207   1.410   1.383   0.852
 2436SOL    HW2 8208   1.495   1.505   0.784
 2437SOL     OW 8209   6.768   5.851   2.091
 2437SOL    HW1 8210   6.834   5.904   2.039
 2437SOL    HW2 8211   6.716   5.911   2.151
 2438SOL     OW 8212   3.297   1.615   4.613
 2438SOL    HW1 8213   3.277   1.700   4.661
 2438SOL    HW2 8214   3.216   1.556   4.613
 2439SOL     OW 8215   0.240   5.426   0.053
 2439SOL    HW1 8216   0.324   5.434   0.107
 2439SOL    HW2 8217   0.185   5.351   0.088
 2440SOL     OW 8218   4.100   1.028   4.682
 2440SOL    HW1 8219   4.044   1.107   4.658
 2440SOL    HW2 8220   4.171   1.015   4.613
 2441SOL     OW 8221   6.185   0.513   6.732
 2441SOL    HW1 8222   6.166   0.419   6.761
 2441SOL    HW2 8223   6.283   0.525   6.718
 2442SOL     OW 8224   4.891   3.679   2.159
 2442SOL    HW1 8225   4.825   3.650   2.089
 2442SOL    HW2 8226   4.917   3.599   2.214
 2443SOL     OW 8227   2.043   1.583   0.233
 2443SOL    HW1 8228   2.052   1.497   0.283
 2443SOL    HW2 8229   2.127   1.601   0.183
 2444SOL     OW 8230   3.433   5.614   0.534
 2444SOL    HW1 8231   3.337   5.622   0.507
 2444SOL    HW2 8232   3.457   5.517   0.544
 2445SOL     OW 8233   0.679   2.004   0.846
 2445SOL    HW1 8234   0.724   1.916   0.860
 2445SOL    HW2 8235   0.684   2.029   0.750
 2446SOL     OW 8236   1.137   3.626   1.573
 2446SOL    HW1 8237   1.208   3.570   1.615
 2446SOL    HW2 8238   1.093   3.682   1.644
 2447SOL     OW 8239   2.275   0.655   0.828
 2447SOL    HW1 8240   2.291   0.584   0.898
 2447SOL    HW2 8241   2.317   0.627   0.742
 2448SOL     OW 8242   6.222   2.198   3.823
 2448SOL    HW1 8243   6.218   2.235   3.916
 2448SOL    HW2 8244   6.171   2.113   3.819
 2449SOL     OW 8245   1.368   4.085   2.073
 2449SOL    HW1 8246   1.468   4.085   2.082
 2449SOL    HW2 8247   1.328   4.139   2.147
 2450SOL     OW 8248   2.224   5.272   6.610
 2450SOL    HW1 8249   2.144   5.330   6.628
 2450SOL    HW2 8250   2.294   5.326   6.563
 2451SOL     OW 8251   1.059   0.126   4.622
 2451SOL    HW1 8252   1.052   0.026   4.615
 2451SOL    HW2 8253   1.087   0.150   4.715
 2452SOL     OW 8254   2.540   2.411   3.529
 2452SOL    HW1 8255   2.529   2.339   3.598
 2452SOL    HW2 8256   2.520   2.500   3.570
 2453SOL     OW 8257   0.136   1.864   0.114
 2453SOL    HW1 8258   0.103   1.957   0.101
 2453SOL    HW2 8259   0.058   1.801   0.110
 2454SOL     OW 8260   3.736   5.318   1.054
 2454SOL    HW1 8261   3.776   5.255   1.121
 2454SOL    HW2 8262   3.806   5.380   1.021
 2455SOL     OW 8263   3.399   1.094   0.052
 2455SOL    HW1 8264   3.459   1.159   0.004
 2455SOL    HW2 8265   3.431   1.082   0.146
 2456SOL     OW 8266   1.200   4.403   0.041
 2456SOL    HW1 8267   1.257   4.422   6.980
 2456SOL    HW2 8268   1.255   4.411   0.124
 2457SOL     OW 8269   5.506   1.274   5.394
 2457SOL    HW1 8270   5.532   1.248   5.487
 2457SOL    HW2 8271   5.582   1.322   5.350
 2458SOL     OW 8272   0.931   0.097   2.728
 2458SOL    HW1 8273   0.844   0.128   2.690
 2458SOL    HW2 8274   0.916   0.015   2.784
 2459SOL     OW 8275   2.521   5.963   0.210
 2459SOL    HW1 8276   2.597   5.944   0.272
 2459SOL    HW2 8277   2.434   5.944   0.256
 2460SOL     OW 8278   1.217   1.234   6.731
 2460SOL    HW1 8279   1.224   1.324   6.773
 2460SOL    HW2 8280   1.162   1.174   6.789
 2461SOL     OW 8281   4.384   0.028   4.711
 2461SOL    HW1 8282   4.381   0.049   4.613
 2461SOL    HW2 8283   4.463   0.072   4.753
 2462SOL     OW 8284   0.641   5.290   0.625
 2462SOL    HW1 8285   0.561   5.344   0.652
 2462SOL    HW2 8286   0.614   5.195   0.609
 2463SOL     OW 8287   6.607   1.044   7.002
 2463SOL    HW1 8288   6.596   1.023   0.080
 2463SOL    HW2 8289   6.522   1.082   6.966
 2464SOL     OW 8290   0.186   2.592   2.584
 2464SOL    HW1 8291   0.243   2.523   2.540
 2464SOL    HW2 8292   0.161   2.663   2.518
 2465SOL     OW 8293   0.095   5.353   6.024
 2465SOL    HW1 8294   0.072   5.260   6.053
 2465SOL    HW2 8295   0.188   5.354   5.985
 2466SOL     OW 8296   1.930   1.804   1.975
 2466SOL    HW1 8297   1.917   1.848   2.064
 2466SOL    HW2 8298   2.022   1.822   1.942
 2467SOL     OW 8299   4.771   1.560   6.137
 2467SOL    HW1 8300   4.740   1.467   6.115
 2467SOL    HW2 8301   4.693   1.622   6.133
 2468SOL     OW 8302   3.754   0.350   6.324
 2468SOL    HW1 8303   3.706   0.263   6.313
 2468SOL    HW2 8304   3.686   0.424   6.329
 2469SOL     OW 8305   4.609   2.482   5.593
 2469SOL    HW1 8306   4.689   2.432   5.625
 2469SOL    HW2 8307   4.542   2.418   5.554
 2470SOL     OW 8308   3.871   4.923   6.218
 2470SOL    HW1 8309   3.951   4.893   6.270
 2470SOL    HW2 8310   3.789   4.915   6.275
 2471SOL     OW 8311   3.562   6.762   0.930
 2471SOL    HW1 8312   3.549   6.665   0.910
 2471SOL    HW2 8313   3.656   6.778   0.960
 2472SOL     OW 8314   4.604   2.613   3.889
 2472SOL    HW1 8315   4.567   2.616   3.981
 2472SOL    HW2 8316   4.700   2.583   3.892
 2473SOL     OW 8317   1.097   4.189   4.896
 2473SOL    HW1 8318   1.050   4.234   4.972
 2473SOL    HW2 8319   1.142   4.106   4.929
 2474SOL     OW 8320   1.064   5.272   0.436
 2474SOL    HW1 8321   0.985   5.329   0.412
 2474SOL    HW2 8322   1.148   5.327   0.431
 2475SOL     OW 8323   4.711   0.372   0.441
 2475SOL    HW1 8324   4.665   0.451   0.401
 2475SOL    HW2 8325   4.703   0.376   0.541
 2476SOL     OW 8326   5.379   0.652   2.684
 2476SOL    HW1 8327   5.346   0.738   2.645
 2476SOL    HW2 8328   5.457   0.671   2.744
 2477SOL     OW 8329   3.956   0.272   3.603
 2477SOL    HW1 8330   4.022   0.271   3.527
 2477SOL    HW2 8331   3.865   0.288   3.566
 2478SOL     OW 8332   4.212   1.159   2.819
 2478SOL    HW1 8333   4.299   1.113   2.832
 2478SOL    HW2 8334   4.227   1.256   2.801
 2479SOL     OW 8335   0.742   2.799   1.471
 2479SOL    HW1 8336   0.792   2.713   1.462
 2479SOL    HW2 8337   0.705   2.826   1.383
 2480SOL     OW 8338   3.973   2.662   1.407
 2480SOL    HW1 8339   4.050   2.601   1.388
 2480SOL    HW2 8340   3.905   2.613   1.462
 2481SOL     OW 8341   2.795   0.287   1.799
 2481SOL    HW1 8342   2.801   0.257   1.704
 2481SOL    HW2 8343   2.756   0.213   1.855
 2482SOL     OW 8344   4.995   3.706   6.875
 2482SOL    HW1 8345   5.048   3.622   6.888
 2482SOL    HW2 8346   4.907   3.683   6.834
 2483SOL     OW 8347   1.432   1.753   0.305
 2483SOL    HW1 8348   1.505   1.691   0.277
 2483SOL    HW2 8349   1.461   1.803   0.387
 2484SOL     OW 8350   3.431   0.975   1.348
 2484SOL    HW1 8351   3.479   0.968   1.260
 2484SOL    HW2 8352   3.357   0.907   1.351
 2485SOL     OW 8353   5.451   2.678   6.923
 2485SOL    HW1 8354   5.393   2.622   6.983
 2485SOL    HW2 8355   5.469   2.628   6.838
 2486SOL     OW 8356   0.333   5.433   5.622
 2486SOL    HW1 8357   0.257   5.496   5.603
 2486SOL    HW2 8358   0.412   5.458   5.565
 2487SOL     OW 8359   4.042   6.182   0.451
 2487SOL    HW1 8360   4.056   6.084   0.438
 2487SOL    HW2 8361   3.944   6.199   0.467
 2488SOL     OW 8362   0.604   3.374   1.576
 2488SOL    HW1 8363   0.661   3.294   1.596
 2488SOL    HW2 8364   0.586   3.423   1.661
 2489SOL     OW 8365   1.143   6.495   3.654
 2489SOL    HW1 8366   1.206   6.570   3.674
 2489SOL    HW2 8367   1.053   6.533   3.634
 2490SOL     OW 8368   0.811   5.592   0.991
 2490SOL    HW1 8369   0.774   5.672   0.943
 2490SOL    HW2 8370   0.782   5.509   0.945
 2491SOL     OW 8371   3.882   3.858   1.317
 2491SOL    HW1 8372   3.827   3.839   1.235
 2491SOL    HW2 8373   3.909   3.772   1.360
 2492SOL     OW 8374   4.649   3.427   1.016
 2492SOL    HW1 8375   4.589   3.373   0.956
 2492SOL    HW2 8376   4.617   3.522   1.018
 2493SOL     OW 8377   6.448   0.281   0.861
 2493SOL    HW1 8378   6.518   0.216   0.891
 2493SOL    HW2 8379   6.470   0.315   0.769
 2494SOL     OW 8380   6.230   3.853   2.036
 2494SOL    HW1 8381   6.168   3.776   2.050
 2494SOL    HW2 8382   6.284   3.867   2.119
 2495SOL     OW 8383   5.394   6.011   3.482
 2495SOL    HW1 8384   5.325   5.976   3.419
 2495SOL    HW2 8385   5.387   6.111   3.487
 2496SOL     OW 8386   0.469   3.556   6.972
 2496SOL    HW1 8387   0.528   3.619   0.003
 2496SOL    HW2 8388   0.381   3.549   7.019
 2497SOL     OW 8389   0.542   0.324   0.656
 2497SOL    HW1 8390   0.528   0.225   0.660
 2497SOL    HW2 8391   0.571   0.350   0.564
 2498SOL     OW 8392   3.156   1.887   5.694
 2498SOL    HW1 8393   3.233   1.829   5.665
 2498SOL    HW2 8394   3.187   1.982   5.699
 2499SOL     OW 8395   5.766   2.768   1.979
 2499SOL    HW1 8396   5.737   2.832   2.051
 2499SOL    HW2 8397   5.822   2.817   1.912
 2500SOL     OW 8398   3.904   3.502   6.523
 2500SOL    HW1 8399   3.984   3.463   6.478
 2500SOL    HW2 8400   3.875   3.442   6.598
 2501SOL     OW 8401   5.318   5.683   6.672
 2501SOL    HW1 8402   5.304   5.741   6.752
 2501SOL    HW2 8403   5.415   5.666   6.659
 2502SOL     OW 8404   2.202   0.053   4.889
 2502SOL    HW1 8405   2.189   6.974   4.903
 2502SOL    HW2 8406   2.113   0.098   4.886
 2503SOL     OW 8407   3.453   6.567   4.896
 2503SOL    HW1 8408   3.548   6.547   4.875
 2503SOL    HW2 8409   3.428   6.527   4.984
 2504SOL     OW 8410   3.758   5.252   3.167
 2504SOL    HW1 8411   3.848   5.211   3.181
 2504SOL    HW2 8412   3.690   5.181   3.151
 2505SOL     OW 8413   0.391   5.659   3.141
 2505SOL    HW1 8414   0.478   5.640   3.186
 2505SOL    HW2 8415   0.387   5.755   3.115
 2506SOL     OW 8416   6.384   3.287   6.202
 2506SOL    HW1 8417   6.457   3.305   6.137
 2506SOL    HW2 8418   6.360   3.371   6.250
 2507SOL     OW 8419   0.468   3.129   0.105
 2507SOL    HW1 8420   0.406   3.137   0.028
 2507SOL    HW2 8421   0.472   3.215   0.156
 2508SOL     OW 8422   2.315   1.841   4.390
 2508SOL    HW1 8423   2.293   1.934   4.362
 2508SOL    HW2 8424   2.399   1.811   4.345
 2509SOL     OW 8425   6.848   4.570   0.932
 2509SOL    HW1 8426   6.820   4.508   1.005
 2509SOL    HW2 8427   6.904   4.644   0.970
 2510SOL     OW 8428   3.677   4.762   0.762
 2510SOL    HW1 8429   3.653   4.859   0.758
 2510SOL    HW2 8430   3.593   4.707   0.767
 2511SOL     OW 8431   2.391   1.299   4.756
 2511SOL    HW1 8432   2.295   1.291   4.783
 2511SOL    HW2 8433   2.418   1.395   4.756
 2512SOL     OW 8434   4.157   4.107   5.481
 2512SOL    HW1 8435   4.090   4.127   5.410
 2512SOL    HW2 8436   4.216   4.187   5.494
 2513SOL     OW 8437   2.051   5.442   4.928
 2513SOL    HW1 8438   2.150   5.459   4.935
 2513SOL    HW2 8439   2.008   5.519   4.881
 2514SOL     OW 8440   0.560   4.000   4.250
 2514SOL    HW1 8441   0.486   4.065   4.266
 2514SOL    HW2 8442   0.647   4.042   4.274
 2515SOL     OW 8443   2.098   6.306   0.817
 2515SOL    HW1 8444   2.037   6.369   0.865
 2515SOL    HW2 8445   2.066   6.212   0.832
 2516SOL     OW 8446   5.400   1.053   2.261
 2516SOL    HW1 8447   5.371   0.962   2.290
 2516SOL    HW2 8448   5.360   1.122   2.322
 2517SOL     OW 8449   1.415   0.515   6.174
 2517SOL    HW1 8450   1.447   0.609   6.167
 2517SOL    HW2 8451   1.477   0.455   6.124
 2518SOL     OW 8452   1.194   5.419   0.790
 2518SOL    HW1 8453   1.264   5.460   0.849
 2518SOL    HW2 8454   1.111   5.401   0.844
 2519SOL     OW 8455   3.523   0.896   1.876
 2519SOL    HW1 8456   3.431   0.917   1.911
 2519SOL    HW2 8457   3.526   0.911   1.778
 2520SOL     OW 8458   3.110   1.865   0.168
 2520SOL    HW1 8459   3.157   1.852   0.256
 2520SOL    HW2 8460   3.125   1.958   0.135
 2521SOL     OW 8461   3.185   1.344   5.451
 2521SOL    HW1 8462   3.183   1.245   5.434
 2521SOL    HW2 8463   3.152   1.362   5.544
 2522SOL     OW 8464   1.430   1.387   5.411
 2522SOL    HW1 8465   1.446   1.342   5.323
 2522SOL    HW2 8466   1.496   1.353   5.478
 2523SOL     OW 8467   1.212   3.342   1.286
 2523SOL    HW1 8468   1.213   3.419   1.222
 2523SOL    HW2 8469   1.119   3.308   1.296
 2524SOL     OW 8470   6.786   6.532   4.603
 2524SOL    HW1 8471   6.708   6.571   4.651
 2524SOL    HW2 8472   6.757   6.497   4.514
 2525SOL     OW 8473   1.400   2.966   4.625
 2525SOL    HW1 8474   1.426   2.870   4.618
 2525SOL    HW2 8475   1.440   3.017   4.549
 2526SOL     OW 8476   1.801   4.455   6.776
 2526SOL    HW1 8477   1.713   4.453   6.823
 2526SOL    HW2 8478   1.864   4.515   6.825
 2527SOL     OW 8479   5.582   6.379   5.753
 2527SOL    HW1 8480   5.602   6.463   5.804
 2527SOL    HW2 8481   5.630   6.381   5.665
 2528SOL     OW 8482   5.984   4.685   5.839
 2528SOL    HW1 8483   5.940   4.760   5.887
 2528SOL    HW2 8484   5.941   4.673   5.750
 2529SOL     OW 8485   6.898   6.677   6.992
 2529SOL    HW1 8486   6.865   6.711   6.903
 2529SOL    HW2 8487   6.913   6.754   0.034
 2530SOL     OW 8488   2.509   6.231   4.944
 2530SOL    HW1 8489   2.451   6.213   4.864
 2530SOL    HW2 8490   2.454   6.224   5.027
 2531SOL     OW 8491   6.372   6.434   5.163
 2531SOL    HW1 8492   6.345   6.364   5.229
 2531SOL    HW2 8493   6.447   6.488   5.201
 2532SOL     OW 8494   6.898   6.127   0.810
 2532SOL    HW1 8495   6.829   6.185   0.854
 2532SOL    HW2 8496   6.985   6.137   0.859
 2533SOL     OW 8497   4.441   0.419   3.652
 2533SOL    HW1 8498   4.538   0.437   3.672
 2533SOL    HW2 8499   4.424   0.321   3.661
 2534SOL     OW 8500   3.237   1.550   1.708
 2534SOL    HW1 8501   3.213   1.489   1.632
 2534SOL    HW2 8502   3.334   1.538   1.730
 2535SOL     OW 8503   3.545   2.832   6.162
 2535SOL    HW1 8504   3.498   2.746   6.143
 2535SOL    HW2 8505   3.483   2.908   6.145
 2536SOL     OW 8506   1.260   0.837   6.630
 2536SOL    HW1 8507   1.165   0.822   6.603
 2536SOL    HW2 8508   1.319   0.833   6.549
 2537SOL     OW 8509   3.237   6.891   6.421
 2537SOL    HW1 8510   3.284   6.978   6.434
 2537SOL    HW2 8511   3.263   6.828   6.494
 2538SOL     OW 8512   0.241   3.817   3.650
 2538SOL    HW1 8513   0.279   3.733   3.611
 2538SOL    HW2 8514   0.314   3.884   3.662
 2539SOL     OW 8515   5.218   1.218   3.997
 2539SOL    HW1 8516   5.212   1.181   3.904
 2539SOL    HW2 8517   5.246   1.313   3.993
 2540SOL     OW 8518   4.521   1.795   2.710
 2540SOL    HW1 8519   4.461   1.746   2.774
 2540SOL    HW2 8520   4.614   1.758   2.715
 2541SOL     OW 8521   3.541   0.217   5.347
 2541SOL    HW1 8522   3.468   0.285   5.337
 2541SOL    HW2 8523   3.552   0.166   5.262
 2542SOL     OW 8524   3.754   3.849   6.164
 2542SOL    HW1 8525   3.803   3.818   6.245
 2542SOL    HW2 8526   3.660   3.872   6.188
 2543SOL     OW 8527   0.486   0.638   3.846
 2543SOL    HW1 8528   0.447   0.557   3.889
 2543SOL    HW2 8529   0.449   0.721   3.889
 2544SOL     OW 8530   0.112   5.698   0.004
 2544SOL    HW1 8531   0.196   5.690   0.058
 2544SOL    HW2 8532   0.059   5.613   0.012
 2545SOL     OW 8533   1.943   6.626   1.937
 2545SOL    HW1 8534   1.849   6.659   1.932
 2545SOL    HW2 8535   1.943   6.530   1.965
 2546SOL     OW 8536   0.216   1.622   1.636
 2546SOL    HW1 8537   0.248   1.668   1.553
 2546SOL    HW2 8538   0.117   1.635   1.645
 2547SOL     OW 8539   0.401   4.529   6.710
 2547SOL    HW1 8540   0.477   4.518   6.774
 2547SOL    HW2 8541   0.367   4.439   6.683
 2548SOL     OW 8542   0.999   6.789   5.033
 2548SOL    HW1 8543   1.008   6.885   5.059
 2548SOL    HW2 8544   0.923   6.748   5.083
 2549SOL     OW 8545   0.834   0.153   1.241
 2549SOL    HW1 8546   0.759   0.118   1.297
 2549SOL    HW2 8547   0.800   0.223   1.179
 2550SOL     OW 8548   5.965   6.756   0.350
 2550SOL    HW1 8549   5.962   6.748   0.250
 2550SOL    HW2 8550   6.031   6.826   0.376
 2551SOL     OW 8551   3.373   4.384   0.421
 2551SOL    HW1 8552   3.443   4.440   0.466
 2551SOL    HW2 8553   3.407   4.354   0.332
 2552SOL     OW 8554   1.561   5.982   4.251
 2552SOL    HW1 8555   1.584   6.037   4.172
 2552SOL    HW2 8556   1.590   5.887   4.236
 2553SOL     OW 8557   3.864   3.611   5.923
 2553SOL    HW1 8558   3.942   3.599   5.862
 2553SOL    HW2 8559   3.889   3.673   5.997
 2554SOL     OW 8560   2.805   0.283   0.244
 2554SOL    HW1 8561   2.826   0.249   0.336
 2554SOL    HW2 8562   2.706   0.291   0.232
 2555SOL     OW 8563   5.980   1.591   4.858
 2555SOL    HW1 8564   5.969   1.515   4.794
 2555SOL    HW2 8565   6.062   1.643   4.833
 2556SOL     OW 8566   4.589   6.544   0.388
 2556SOL    HW1 8567   4.628   6.461   0.429
 2556SOL    HW2 8568   4.627   6.624   0.434
 2557SOL     OW 8569   1.830   3.773   0.909
 2557SOL    HW1 8570   1.849   3.733   0.820
 2557SOL    HW2 8571   1.751   3.834   0.901
 2558SOL     OW 8572   4.648   1.099   4.556
 2558SOL    HW1 8573   4.642   1.120   4.653
 2558SOL    HW2 8574   4.658   1.184   4.504
 2559SOL     OW 8575   0.989   4.089   5.401
 2559SOL    HW1 8576   1.081   4.128   5.386
 2559SOL    HW2 8577   0.969   4.024   5.328
 2560SOL     OW 8578   5.867   2.373   5.892
 2560SOL    HW1 8579   5.808   2.442   5.933
 2560SOL    HW2 8580   5.907   2.409   5.808
 2561SOL     OW 8581   2.622   4.715   4.885
 2561SOL    HW1 8582   2.554   4.726   4.958
 2561SOL    HW2 8583   2.708   4.683   4.924
 2562SOL     OW 8584   2.477   5.249   1.460
 2562SOL    HW1 8585   2.557   5.298   1.427
 2562SOL    HW2 8586   2.410   5.315   1.496
 2563SOL     OW 8587   3.491   1.386   0.716
 2563SOL    HW1 8588   3.442   1.337   0.645
 2563SOL    HW2 8589   3.434   1.460   0.751
 2564SOL     OW 8590   1.751   5.751   6.773
 2564SOL    HW1 8591   1.787   5.703   6.693
 2564SOL    HW2 8592   1.729   5.685   6.845
 2565SOL     OW 8593   1.527   0.251   6.925
 2565SOL    HW1 8594   1.444   0.307   6.921
 2565SOL    HW2 8595   1.607   0.309   6.908
 2566SOL     OW 8596   2.543   0.130   1.160
 2566SOL    HW1 8597   2.510   0.221   1.182
 2566SOL    HW2 8598   2.465   0.067   1.150
 2567SOL     OW 8599   0.835   0.385   0.800
 2567SOL    HW1 8600   0.912   0.353   0.746
 2567SOL    HW2 8601   0.836   0.485   0.803
 2568SOL     OW 8602   4.698   2.141   6.460
 2568SOL    HW1 8603   4.655   2.057   6.426
 2568SOL    HW2 8604   4.722   2.200   6.384
 2569SOL     OW 8605   2.478   0.333   2.816
 2569SOL    HW1 8606   2.561   0.388   2.807
 2569SOL    HW2 8607   2.491   0.246   2.768
 2570SOL     OW 8608   5.226   0.749   5.878
 2570SOL    HW1 8609   5.319   0.762   5.845
 2570SOL    HW2 8610   5.214   0.654   5.907
 2571SOL     OW 8611   1.996   4.801   4.211
 2571SOL    HW1 8612   2.055   4.876   4.241
 2571SOL    HW2 8613   2.026   4.769   4.121
 2572SOL     OW 8614   2.614   5.710   1.810
 2572SOL    HW1 8615   2.649   5.796   1.847
 2572SOL    HW2 8616   2.524   5.725   1.770
 2573SOL     OW 8617   0.744   1.965   1.103
 2573SOL    HW1 8618   0.723   1.868   1.115
 2573SOL    HW2 8619   0.736   1.990   1.007
 2574SOL     OW 8620   5.233   3.876   1.113
 2574SOL    HW1 8621   5.324   3.852   1.077
 2574SOL    HW2 8622   5.175   3.906   1.038
 2575SOL     OW 8623   5.815   5.599   6.733
 2575SOL    HW1 8624   5.887   5.668   6.722
 2575SOL    HW2 8625   5.828   5.550   6.819
 2576SOL     OW 8626   4.673   6.230   4.123
 2576SOL    HW1 8627   4.594   6.223   4.063
 2576SOL    HW2 8628   4.695   6.326   4.140
 2577SOL     OW 8629   3.321   5.176   2.005
 2577SOL    HW1 8630   3.293   5.268   1.978
 2577SOL    HW2 8631   3.245   5.112   1.992
 2578SOL     OW 8632   3.901   1.616   3.796
 2578SOL    HW1 8633   3.811   1.633   3.754
 2578SOL    HW2 8634   3.907   1.520   3.823
 2579SOL     OW 8635   0.984   6.595   3.903
 2579SOL    HW1 8636   0.996   6.515   3.962
 2579SOL    HW2 8637   1.056   6.662   3.924
 2580SOL     OW 8638   2.612   5.060   7.005
 2580SOL    HW1 8639   2.605   5.128   0.058
 2580SOL    HW2 8640   2.521   5.021   6.988
 2581SOL     OW 8641   2.321   5.463   1.118
 2581SOL    HW1 8642   2.374   5.501   1.194
 2581SOL    HW2 8643   2.223   5.469   1.140
 2582SOL     OW 8644   0.158   4.307   1.892
 2582SOL    HW1 8645   0.062   4.320   1.868
 2582SOL    HW2 8646   0.165   4.294   1.991
 2583SOL     OW 8647   0.698   0.957   6.515
 2583SOL    HW1 8648   0.627   1.020   6.547
 2583SOL    HW2 8649   0.748   1.000   6.440
 2584SOL     OW 8650   3.941   5.331   5.780
 2584SOL    HW1 8651   4.009   5.404   5.782
 2584SOL    HW2 8652   3.975   5.255   5.725
 2585SOL     OW 8653   3.144   3.604   0.504
 2585SOL    HW1 8654   3.130   3.505   0.499
 2585SOL    HW2 8655   3.166   3.629   0.599
 2586SOL     OW 8656   2.916   1.076   5.762
 2586SOL    HW1 8657   2.871   1.079   5.673
 2586SOL    HW2 8658   2.999   1.021   5.756
 2587SOL     OW 8659   6.724   1.040   3.293
 2587SOL    HW1 8660   6.765   0.974   3.230
 2587SOL    HW2 8661   6.792   1.108   3.319
 2588SOL     OW 8662   4.018   2.305   5.657
 2588SOL    HW1 8663   3.934   2.257   5.680
 2588SOL    HW2 8664   3.998   2.402   5.644
 2589SOL     OW 8665   1.353   6.811   6.175
 2589SOL    HW1 8666   1.344   6.910   6.186
 2589SOL    HW2 8667   1.446   6.789   6.149
 2590SOL     OW 8668   2.735   4.992   0.288
 2590SOL    HW1 8669   2.642   4.956   0.290
 2590SOL    HW2 8670   2.735   5.083   0.247
 2591SOL     OW 8671   6.891   5.270   3.503
 2591SOL    HW1 8672   6.983   5.290   3.468
 2591SOL    HW2 8673   6.824   5.294   3.433
 2592SOL     OW 8674   2.801   4.659   6.775
 2592SOL    HW1 8675   2.746   4.643   6.693
 2592SOL    HW2 8676   2.864   4.582   6.788
 2593SOL     OW 8677   3.124   5.793   0.740
 2593SOL    HW1 8678   3.178   5.870   0.706
 2593SOL    HW2 8679   3.051   5.773   0.675
 2594SOL     OW 8680   2.363   4.297   5.683
 2594SOL    HW1 8681   2.341   4.394   5.683
 2594SOL    HW2 8682   2.462   4.285   5.687
 2595SOL     OW 8683   0.160   1.388   3.738
 2595SOL    HW1 8684   0.063   1.364   3.740
 2595SOL    HW2 8685   0.214   1.305   3.726
 2596SOL     OW 8686   2.431   2.639   1.041
 2596SOL    HW1 8687   2.408   2.686   1.127
 2596SOL    HW2 8688   2.467   2.548   1.062
 2597SOL     OW 8689   0.670   5.344   6.601
 2597SOL    HW1 8690   0.738   5.270   6.601
 2597SOL    HW2 8691   0.580   5.306   6.621
 2598SOL     OW 8692   6.436   1.433   1.743
 2598SOL    HW1 8693   6.400   1.521   1.711
 2598SOL    HW2 8694   6.519   1.410   1.691
 2599SOL     OW 8695   1.523   5.802   0.574
 2599SOL    HW1 8696   1.605   5.814   0.518
 2599SOL    HW2 8697   1.451   5.864   0.543
 2600SOL     OW 8698   6.056   2.940   4.185
 2600SOL    HW1 8699   6.035   2.999   4.108
 2600SOL    HW2 8700   5.977   2.883   4.206
 2601SOL     OW 8701   1.369   1.986   1.304
 2601SOL    HW1 8702   1.466   1.979   1.324
 2601SOL    HW2 8703   1.316   1.939   1.376
 2602SOL     OW 8704   1.690   4.439   4.980
 2602SOL    HW1 8705   1.768   4.383   5.007
 2602SOL    HW2 8706   1.642   4.395   4.904
 2603SOL     OW 8707   2.840   0.774   2.906
 2603SOL    HW1 8708   2.850   0.681   2.871
 2603SOL    HW2 8709   2.743   0.800   2.902
 2604SOL     OW 8710   5.331   1.755   2.861
 2604SOL    HW1 8711   5.316   1.767   2.763
 2604SOL    HW2 8712   5.388   1.674   2.876
 2605SOL     OW 8713   1.601   3.269   2.597
 2605SOL    HW1 8714   1.649   3.181   2.599
 2605SOL    HW2 8715   1.536   3.269   2.521
 2606SOL     OW 8716   5.763   5.187   1.730
 2606SOL    HW1 8717   5.811   5.237   1.803
 2606SOL    HW2 8718   5.756   5.091   1.755
 2607SOL     OW 8719   1.251   1.663   0.929
 2607SOL    HW1 8720   1.302   1.713   0.999
 2607SOL    HW2 8721   1.153   1.669   0.950
 2608SOL     OW 8722   2.773   5.644   6.742
 2608SOL    HW1 8723   2.712   5.594   6.680
 2608SOL    HW2 8724   2.851   5.586   6.766
 2609SOL     OW 8725   6.678   1.378   1.619
 2609SOL    HW1 8726   6.665   1.339   1.527
 2609SOL    HW2 8727   6.772   1.360   1.649
 2610SOL     OW 8728   1.016   4.400   4.167
 2610SOL    HW1 8729   1.043   4.477   4.226
 2610SOL    HW2 8730   1.065   4.406   4.080
 2611SOL     OW 8731   4.524   6.358   6.988
 2611SOL    HW1 8732   4.582   6.297   0.023
 2611SOL    HW2 8733   4.541   6.452   7.014
 2612SOL     OW 8734   5.669   6.956   4.145
 2612SOL    HW1 8735   5.631   6.928   4.057
 2612SOL    HW2 8736   5.756   7.004   4.131
 2613SOL     OW 8737   1.979   4.929   6.680
 2613SOL    HW1 8738   2.024   4.899   6.764
 2613SOL    HW2 8739   2.047   4.932   6.606
 2614SOL     OW 8740   5.907   1.142   6.313
 2614SOL    HW1 8741   5.870   1.068   6.369
 2614SOL    HW2 8742   5.831   1.190   6.268
 2615SOL     OW 8743   0.486   2.608   1.701
 2615SOL    HW1 8744   0.485   2.685   1.637
 2615SOL    HW2 8745   0.490   2.522   1.650
 2616SOL     OW 8746   0.943   1.829   5.372
 2616SOL    HW1 8747   0.848   1.810   5.344
 2616SOL    HW2 8748   0.980   1.749   5.418
 2617SOL     OW 8749   4.804   0.512   0.749
 2617SOL    HW1 8750   4.900   0.486   0.761
 2617SOL    HW2 8751   4.753   0.489   0.832
 2618SOL     OW 8752   1.346   5.596   4.955
 2618SOL    HW1 8753   1.305   5.650   4.882
 2618SOL    HW2 8754   1.284   5.521   4.979
 2619SOL     OW 8755   3.842   1.838   1.883
 2619SOL    HW1 8756   3.780   1.769   1.918
 2619SOL    HW2 8757   3.930   1.832   1.931
 2620SOL     OW 8758   6.191   6.397   1.769
 2620SOL    HW1 8759   6.231   6.358   1.686
 2620SOL    HW2 8760   6.188   6.326   1.840
 2621SOL     OW 8761   0.491   4.929   3.110
 2621SOL    HW1 8762   0.496   4.851   3.048
 2621SOL    HW2 8763   0.578   4.979   3.106
 2622SOL     OW 8764   3.121   3.005   5.800
 2622SOL    HW1 8765   3.119   3.090   5.747
 2622SOL    HW2 8766   3.035   2.994   5.848
 2623SOL     OW 8767   0.441   0.224   3.865
 2623SOL    HW1 8768   0.377   0.301   3.873
 2623SOL    HW2 8769   0.485   0.208   3.954
 2624SOL     OW 8770   6.872   1.952   4.332
 2624SOL    HW1 8771   6.857   1.988   4.240
 2624SOL    HW2 8772   6.784   1.942   4.379
 2625SOL     OW 8773   2.160   5.219   5.902
 2625SOL    HW1 8774   2.080   5.272   5.873
 2625SOL    HW2 8775   2.239   5.244   5.847
 2626SOL     OW 8776   6.148   6.920   5.454
 2626SOL    HW1 8777   6.089   7.000   5.465
 2626SOL    HW2 8778   6.144   6.888   5.359
 2627SOL     OW 8779   1.180   0.344   6.493
 2627SOL    HW1 8780   1.249   0.272   6.500
 2627SOL    HW2 8781   1.210   0.424   6.544
 2628SOL     OW 8782   1.713   3.531   3.929
 2628SOL    HW1 8783   1.702   3.436   3.899
 2628SOL    HW2 8784   1.741   3.588   3.851
 2629SOL     OW 8785   3.408   3.615   3.411
 2629SOL    HW1 8786   3.353   3.565   3.478
 2629SOL    HW2 8787   3.487   3.560   3.386
 2630SOL     OW 8788   3.352   1.051   3.573
 2630SOL    HW1 8789   3.445   1.033   3.541
 2630SOL    HW2 8790   3.350   1.136   3.625
 2631SOL     OW 8791   5.833   0.550   6.480
 2631SOL    HW1 8792   5.912   0.586   6.530
 2631SOL    HW2 8793   5.751   0.599   6.508
 2632SOL     OW 8794   5.381   4.402   1.599
 2632SOL    HW1 8795   5.395   4.496   1.630
 2632SOL    HW2 8796   5.463   4.369   1.552
 2633SOL     OW 8797   6.827   2.574   5.616
 2633SOL    HW1 8798   6.795   2.520   5.538
 2633SOL    HW2 8799   6.862   2.512   5.687
 2634SOL     OW 8800   0.609   6.069   4.384
 2634SOL    HW1 8801   0.537   6.000   4.378
 2634SOL    HW2 8802   0.696   6.029   4.356
 2635SOL     OW 8803   5.661   5.251   3.943
 2635SOL    HW1 8804   5.716   5.182   3.990
 2635SOL    HW2 8805   5.708   5.339   3.945
 2636SOL     OW 8806   3.529   1.287   6.445
 2636SOL    HW1 8807   3.457   1.338   6.493
 2636SOL    HW2 8808   3.566   1.343   6.371
 2637SOL     OW 8809   7.013   1.761   3.542
 2637SOL    HW1 8810   6.939   1.746   3.608
 2637SOL    HW2 8811   0.020   1.673   3.501
 2638SOL     OW 8812   0.584   0.478   4.845
 2638SOL    HW1 8813   0.675   0.516   4.862
 2638SOL    HW2 8814   0.578   0.387   4.888
 2639SOL     OW 8815   4.967   5.203   5.043
 2639SOL    HW1 8816   4.948   5.298   5.018
 2639SOL    HW2 8817   4.946   5.144   4.965
 2640SOL     OW 8818   0.395   6.921   5.466
 2640SOL    HW1 8819   0.326   6.994   5.467
 2640SOL    HW2 8820   0.358   6.840   5.512
 2641SOL     OW 8821   5.441   2.924   0.409
 2641SOL    HW1 8822   5.388   2.841   0.395
 2641SOL    HW2 8823   5.477   2.926   0.502
 2642SOL     OW 8824   0.022   0.715   3.687
 2642SOL    HW1 8825   0.100   0.659   3.660
 2642SOL    HW2 8826   6.986   0.736   3.606
 2643SOL     OW 8827   0.580   3.188   3.729
 2643SOL    HW1 8828   0.609   3.110   3.783
 2643SOL    HW2 8829   0.626   3.271   3.762
 2644SOL     OW 8830   4.787   5.740   5.074
 2644SOL    HW1 8831   4.728   5.716   4.997
 2644SOL    HW2 8832   4.735   5.733   5.159
 2645SOL     OW 8833   5.031   4.974   3.830
 2645SOL    HW1 8834   5.066   4.955   3.922
 2645SOL    HW2 8835   4.940   5.014   3.837
 2646SOL     OW 8836   0.799   4.095   6.603
 2646SOL    HW1 8837   0.817   4.059   6.694
 2646SOL    HW2 8838   0.829   4.029   6.534
 2647SOL     OW 8839   4.966   0.189   1.987
 2647SOL    HW1 8840   4.973   0.236   2.074
 2647SOL    HW2 8841   4.999   0.248   1.914
 2648SOL     OW 8842   0.977   0.182   3.752
 2648SOL    HW1 8843   1.077   0.192   3.755
 2648SOL    HW2 8844   0.936   0.228   3.830
 2649SOL     OW 8845   5.251   3.065   1.932
 2649SOL    HW1 8846   5.183   2.993   1.920
 2649SOL    HW2 8847   5.338   3.024   1.961
 2650SOL     OW 8848   3.125   5.589   4.471
 2650SOL    HW1 8849   3.102   5.529   4.394
 2650SOL    HW2 8850   3.114   5.539   4.556
 2651SOL     OW 8851   3.563   1.854   6.162
 2651SOL    HW1 8852   3.606   1.936   6.124
 2651SOL    HW2 8853   3.575   1.778   6.099
 2652SOL     OW 8854   4.436   3.537   5.568
 2652SOL    HW1 8855   4.473   3.487   5.490
 2652SOL    HW2 8856   4.477   3.502   5.652
 2653SOL     OW 8857   3.470   5.885   5.845
 2653SOL    HW1 8858   3.557   5.899   5.797
 2653SOL    HW2 8859   3.483   5.906   5.942
 2654SOL     OW 8860   4.962   6.522   0.594
 2654SOL    HW1 8861   4.956   6.453   0.666
 2654SOL    HW2 8862   4.993   6.479   0.510
 2655SOL     OW 8863   4.653   6.329   3.521
 2655SOL    HW1 8864   4.645   6.233   3.496
 2655SOL    HW2 8865   4.632   6.340   3.618
 2656SOL     OW 8866   3.724   5.723   3.880
 2656SOL    HW1 8867   3.718   5.642   3.938
 2656SOL    HW2 8868   3.675   5.705   3.794
 2657SOL     OW 8869   1.731   3.751   0.461
 2657SOL    HW1 8870   1.635   3.742   0.433
 2657SOL    HW2 8871   1.736   3.759   0.560
 2658SOL     OW 8872   4.333   4.097   6.396
 2658SOL    HW1 8873   4.265   4.061   6.460
 2658SOL    HW2 8874   4.424   4.090   6.436
 2659SOL     OW 8875   5.565   2.596   5.019
 2659SOL    HW1 8876   5.527   2.628   5.106
 2659SOL    HW2 8877   5.576   2.674   4.958
 2660SOL     OW 8878   0.901   1.460   0.820
 2660SOL    HW1 8879   0.997   1.488   0.815
 2660SOL    HW2 8880   0.875   1.416   0.734
 2661SOL     OW 8881   1.195   0.792   1.784
 2661SOL    HW1 8882   1.122   0.850   1.821
 2661SOL    HW2 8883   1.160   0.740   1.706
 2662SOL     OW 8884   3.054   0.730   3.750
 2662SOL    HW1 8885   3.111   0.758   3.672
 2662SOL    HW2 8886   3.098   0.759   3.835
 2663SOL     OW 8887   3.152   6.976   5.805
 2663SOL    HW1 8888   3.248   6.968   5.829
 2663SOL    HW2 8889   3.096   6.957   5.886
 2664SOL     OW 8890   3.820   2.500   5.344
 2664SOL    HW1 8891   3.909   2.500   5.298
 2664SOL    HW2 8892   3.798   2.593   5.372
 2665SOL     OW 8893   2.366   3.518   5.424
 2665SOL    HW1 8894   2.377   3.430   5.378
 2665SOL    HW2 8895   2.446   3.537   5.481
 2666SOL     OW 8896   1.927   2.999   2.352
 2666SOL    HW1 8897   2.019   2.969   2.326
 2666SOL    HW2 8898   1.882   3.040   2.273
 2667SOL     OW 8899   6.555   4.661   3.948
 2667SOL    HW1 8900   6.549   4.756   3.976
 2667SOL    HW2 8901   6.503   4.603   4.011
 2668SOL     OW 8902   5.312   2.350   4.525
 2668SOL    HW1 8903   5.223   2.337   4.482
 2668SOL    HW2 8904   5.381   2.364   4.454
 2669SOL     OW 8905   2.650   6.037   6.857
 2669SOL    HW1 8906   2.676   6.044   6.760
 2669SOL    HW2 8907   2.652   5.941   6.885
 2670SOL     OW 8908   6.356   1.702   5.171
 2670SOL    HW1 8909   6.364   1.675   5.267
 2670SOL    HW2 8910   6.325   1.797   5.165
 2671SOL     OW 8911   4.214   5.709   6.373
 2671SOL    HW1 8912   4.254   5.622   6.344
 2671SOL    HW2 8913   4.115   5.707   6.357
 2672SOL     OW 8914   3.590   1.155   1.946
 2672SOL    HW1 8915   3.583   1.058   1.924
 2672SOL    HW2 8916   3.595   1.166   2.046
 2673SOL     OW 8917   5.543   0.036   2.904
 2673SOL    HW1 8918   5.584   0.109   2.849
 2673SOL    HW2 8919   5.460   0.071   2.948
 2674SOL     OW 8920   1.322   5.045   3.883
 2674SOL    HW1 8921   1.247   5.038   3.817
 2674SOL    HW2 8922   1.295   5.000   3.968
 2675SOL     OW 8923   0.186   6.610   3.924
 2675SOL    HW1 8924   0.211   6.534   3.865
 2675SOL    HW2 8925   0.136   6.679   3.872
 2676SOL     OW 8926   3.112   3.848   2.134
 2676SOL    HW1 8927   3.111   3.885   2.227
 2676SOL    HW2 8928   3.123   3.922   2.068
 2677SOL     OW 8929   2.476   4.529   0.957
 2677SOL    HW1 8930   2.450   4.625   0.947
 2677SOL    HW2 8931   2.445   4.496   1.046
 2678SOL     OW 8932   6.814   2.313   2.339
 2678SOL    HW1 8933   6.849   2.221   2.321
 2678SOL    HW2 8934   6.816   2.331   2.437
 2679SOL     OW 8935   1.623   5.615   2.130
 2679SOL    HW1 8936   1.535   5.657   2.105
 2679SOL    HW2 8937   1.606   5.527   2.175
 2680SOL     OW 8938   1.426   2.398   6.976
 2680SOL    HW1 8939   1.443   2.316   0.011
 2680SOL    HW2 8940   1.455   2.479   0.008
 2681SOL     OW 8941   1.451   2.584   5.311
 2681SOL    HW1 8942   1.480   2.615   5.220
 2681SOL    HW2 8943   1.400   2.499   5.302
 2682SOL     OW 8944   4.835   4.018   2.091
 2682SOL    HW1 8945   4.753   4.066   2.058
 2682SOL    HW2 8946   4.856   3.942   2.031
 2683SOL     OW 8947   2.607   4.550   2.640
 2683SOL    HW1 8948   2.583   4.518   2.732
 2683SOL    HW2 8949   2.700   4.521   2.618
 2684SOL     OW 8950   5.320   6.301   2.154
 2684SOL    HW1 8951   5.297   6.204   2.153
 2684SOL    HW2 8952   5.419   6.312   2.156
 2685SOL     OW 8953   6.658   4.763   4.912
 2685SOL    HW1 8954   6.724   4.701   4.954
 2685SOL    HW2 8955   6.705   4.828   4.853
 2686SOL     OW 8956   1.568   1.293   4.879
 2686SOL    HW1 8957   1.633   1.283   4.804
 2686SOL    HW2 8958   1.476   1.306   4.842
 2687SOL     OW 8959   3.938   1.069   1.865
 2687SOL    HW1 8960   3.999   0.994   1.840
 2687SOL    HW2 8961   3.889   1.101   1.784
 2688SOL     OW 8962   3.401   1.942   0.704
 2688SOL    HW1 8963   3.435   1.897   0.787
 2688SOL    HW2 8964   3.314   1.902   0.677
 2689SOL     OW 8965   0.701   4.180   2.608
 2689SOL    HW1 8966   0.611   4.224   2.607
 2689SOL    HW2 8967   0.731   4.165   2.514
 2690SOL     OW 8968   3.272   2.324   6.425
 2690SOL    HW1 8969   3.339   2.266   6.379
 2690SOL    HW2 8970   3.319   2.400   6.470
 2691SOL     OW 8971   0.372   4.418   3.776
 2691SOL    HW1 8972   0.438   4.377   3.839
 2691SOL    HW2 8973   0.402   4.401   3.682
 2692SOL     OW 8974   2.754   5.896   3.264
 2692SOL    HW1 8975   2.661   5.890   3.301
 2692SOL    HW2 8976   2.756   5.958   3.186
 2693SOL     OW 8977   1.607   4.943   3.570
 2693SOL    HW1 8978   1.583   5.039   3.558
 2693SOL    HW2 8979   1.705   4.935   3.585
 2694SOL     OW 8980   4.215   6.190   3.386
 2694SOL    HW1 8981   4.126   6.171   3.427
 2694SOL    HW2 8982   4.288   6.165   3.450
 2695SOL     OW 8983   6.439   6.626   2.576
 2695SOL    HW1 8984   6.489   6.595   2.657
 2695SOL    HW2 8985   6.493   6.607   2.494
 2696SOL     OW 8986   4.520   3.630   6.465
 2696SOL    HW1 8987   4.440   3.670   6.421
 2696SOL    HW2 8988   4.516   3.648   6.564
 2697SOL     OW 8989   4.335   1.506   1.027
 2697SOL    HW1 8990   4.418   1.496   0.972
 2697SOL    HW2 8991   4.325   1.602   1.054
 2698SOL     OW 8992   1.201   4.878   6.174
 2698SOL    HW1 8993   1.284   4.854   6.124
 2698SOL    HW2 8994   1.204   4.837   6.265
 2699SOL     OW 8995   2.752   5.931   1.940
 2699SOL    HW1 8996   2.688   6.000   1.974
 2699SOL    HW2 8997   2.844   5.969   1.939
 2700SOL     OW 8998   2.705   1.947   0.885
 2700SOL    HW1 8999   2.641   2.003   0.939
 2700SOL    HW2 9000   2.695   1.851   0.911
 2701SOL     OW 9001   5.046   2.623   4.781
 2701SOL    HW1 9002   4.959   2.618   4.830
 2701SOL    HW2 9003   5.085   2.532   4.771
 2702SOL     OW 9004   2.103   1.490   4.112
 2702SOL    HW1 9005   2.197   1.523   4.122
 2702SOL    HW2 9006   2.039   1.567   4.119
 2703SOL     OW 9007   1.451   5.581   1.435
 2703SOL    HW1 9008   1.358   5.617   1.447
 2703SOL    HW2 9009   1.446   5.489   1.396
 2704SOL     OW 9010   0.020   5.736   3.349
 2704SOL    HW1 9011   0.073   5.669   3.402
 2704SOL    HW2 9012   0.047   5.733   3.253
 2705SOL     OW 9013   7.012   1.402   5.578
 2705SOL    HW1 9014   0.046   1.468   5.632
 2705SOL    HW2 9015   6.946   1.451   5.521
 2706SOL     OW 9016   5.915   4.514   4.297
 2706SOL    HW1 9017   5.850   4.480   4.230
 2706SOL    HW2 9018   5.866   4.553   4.375
 2707SOL     OW 9019   3.992   6.763   3.164
 2707SOL    HW1 9020   3.990   6.785   3.067
 2707SOL    HW2 9021   3.972   6.846   3.217
 2708SOL     OW 9022   5.810   3.114   0.389
 2708SOL    HW1 9023   5.739   3.184   0.383
 2708SOL    HW2 9024   5.799   3.048   0.315
 2709SOL     OW 9025   5.193   6.700   6.215
 2709SOL    HW1 9026   5.226   6.726   6.307
 2709SOL    HW2 9027   5.094   6.703   6.213
 2710SOL     OW 9028   1.495   2.823   3.764
 2710SOL    HW1 9029   1.450   2.773   3.838
 2710SOL    HW2 9030   1.588   2.789   3.752
 2711SOL     OW 9031   3.405   1.875   3.705
 2711SOL    HW1 9032   3.459   1.843   3.627
 2711SOL    HW2 9033   3.425   1.971   3.723
 2712SOL     OW 9034   3.498   5.489   2.273
 2712SOL    HW1 9035   3.403   5.490   2.241
 2712SOL    HW2 9036   3.557   5.532   2.204
 2713SOL     OW 9037   4.778   4.712   6.415
 2713SOL    HW1 9038   4.752   4.681   6.323
 2713SOL    HW2 9039   4.758   4.810   6.423
 2714SOL     OW 9040   3.493   3.878   6.697
 2714SOL    HW1 9041   3.478   3.810   6.624
 2714SOL    HW2 9042   3.504   3.969   6.656
 2715SOL     OW 9043   5.462   1.857   1.015
 2715SOL    HW1 9044   5.475   1.955   1.004
 2715SOL    HW2 9045   5.404   1.839   1.094
 2716SOL     OW 9046   4.536   2.321   2.616
 2716SOL    HW1 9047   4.460   2.342   2.678
 2716SOL    HW2 9048   4.502   2.319   2.522
 2717SOL     OW 9049   0.771   0.641   2.050
 2717SOL    HW1 9050   0.839   0.576   2.018
 2717SOL    HW2 9051   0.744   0.617   2.144
 2718SOL     OW 9052   0.534   0.990   5.867
 2718SOL    HW1 9053   0.530   0.968   5.770
 2718SOL    HW2 9054   0.626   0.972   5.902
 2719SOL     OW 9055   1.373   4.439   2.642
 2719SOL    HW1 9056   1.404   4.409   2.732
 2719SOL    HW2 9057   1.417   4.383   2.571
 2720SOL     OW 9058   0.632   0.007   5.087
 2720SOL    HW1 9059   0.697   0.073   5.125
 2720SOL    HW2 9060   0.561   7.006   5.155
 2721SOL     OW 9061   3.276   6.156   1.687
 2721SOL    HW1 9062   3.332   6.143   1.605
 2721SOL    HW2 9063   3.305   6.091   1.757
 2722SOL     OW 9064   4.741   5.923   6.761
 2722SOL    HW1 9065   4.707   5.984   6.690
 2722SOL    HW2 9066   4.834   5.950   6.786
 2723SOL     OW 9067   3.411   6.687   6.922
 2723SOL    HW1 9068   3.470   6.607   6.935
 2723SOL    HW2 9069   3.460   6.770   6.948
 2724SOL     OW 9070   1.349   5.996   6.331
 2724SOL    HW1 9071   1.433   5.988   6.385
 2724SOL    HW2 9072   1.309   5.905   6.319
 2725SOL     OW 9073   5.201   4.094   4.093
 2725SOL    HW1 9074   5.288   4.142   4.081
 2725SOL    HW2 9075   5.142   4.113   4.015
 2726SOL     OW 9076   0.946   1.707   1.302
 2726SOL    HW1 9077   0.907   1.732   1.213
 2726SOL    HW2 9078   0.961   1.790   1.356
 2727SOL     OW 9079   2.233   4.172   4.173
 2727SOL    HW1 9080   2.252   4.104   4.243
 2727SOL    HW2 9081   2.173   4.133   4.103
 2728SOL     OW 9082   5.758   6.060   6.491
 2728SOL    HW1 9083   5.768   5.972   6.445
 2728SOL    HW2 9084   5.837   6.075   6.551
 2729SOL     OW 9085   5.985   6.666   0.104
 2729SOL    HW1 9086   6.065   6.680   0.046
 2729SOL    HW2 9087   5.902   6.665   0.048
 2730SOL     OW 9088   0.498   5.315   1.574
 2730SOL    HW1 9089   0.458   5.393   1.622
 2730SOL    HW2 9090   0.429   5.242   1.566
 2731SOL     OW 9091   3.084   3.133   3.682
 2731SOL    HW1 9092   3.182   3.128   3.661
 2731SOL    HW2 9093   3.033   3.082   3.612
 2732SOL     OW 9094   4.903   1.209   1.024
 2732SOL    HW1 9095   5.002   1.219   1.020
 2732SOL    HW2 9096   4.877   1.164   1.110
 2733SOL     OW 9097   6.915   1.191   5.751
 2733SOL    HW1 9098   6.856   1.220   5.827
 2733SOL    HW2 9099   6.962   1.270   5.713
 2734SOL     OW 9100   3.490   6.536   1.671
 2734SOL    HW1 9101   3.407   6.499   1.713
 2734SOL    HW2 9102   3.514   6.623   1.715
 2735SOL     OW 9103   1.156   2.115   0.416
 2735SOL    HW1 9104   1.060   2.092   0.401
 2735SOL    HW2 9105   1.197   2.141   0.329
 2736SOL     OW 9106   5.766   5.886   4.183
 2736SOL    HW1 9107   5.764   5.962   4.248
 2736SOL    HW2 9108   5.705   5.813   4.214
 2737SOL     OW 9109   2.733   2.151   6.136
 2737SOL    HW1 9110   2.802   2.085   6.165
 2737SOL    HW2 9111   2.712   2.213   6.212
 2738SOL     OW 9112   5.894   0.133   1.810
 2738SOL    HW1 9113   5.993   0.132   1.822
 2738SOL    HW2 9114   5.868   0.212   1.755
 2739SOL     OW 9115   1.203   5.426   1.116
 2739SOL    HW1 9116   1.158   5.495   1.173
 2739SOL    HW2 9117   1.133   5.373   1.068
 2740SOL     OW 9118   0.114   5.113   2.435
 2740SOL    HW1 9119   0.105   5.058   2.518
 2740SOL    HW2 9120   0.211   5.125   2.413
 2741SOL     OW 9121   1.240   2.339   4.191
 2741SOL    HW1 9122   1.247   2.428   4.236
 2741SOL    HW2 9123   1.222   2.268   4.259
 2742SOL     OW 9124   3.286   4.694   1.705
 2742SOL    HW1 9125   3.310   4.687   1.608
 2742SOL    HW2 9126   3.364   4.665   1.760
 2743SOL     OW 9127   0.037   4.845   2.372
 2743SOL    HW1 9128   0.122   4.792   2.375
 2743SOL    HW2 9129   0.057   4.937   2.339
 2744SOL     OW 9130   3.648   3.104   2.307
 2744SOL    HW1 9131   3.712   3.180   2.303
 2744SOL    HW2 9132   3.698   3.018   2.294
 2745SOL     OW 9133   6.513   1.646   5.779
 2745SOL    HW1 9134   6.550   1.700   5.703
 2745SOL    HW2 9135   6.414   1.652   5.779
 2746SOL     OW 9136   0.695   1.075   4.323
 2746SOL    HW1 9137   0.634   1.154   4.316
 2746SOL    HW2 9138   0.738   1.075   4.413
 2747SOL     OW 9139   3.808   5.886   6.755
 2747SOL    HW1 9140   3.846   5.888   6.847
 2747SOL    HW2 9141   3.739   5.813   6.749
 2748SOL     OW 9142   4.351   0.631   1.401
 2748SOL    HW1 9143   4.300   0.710   1.436
 2748SOL    HW2 9144   4.319   0.608   1.309
 2749SOL     OW 9145   1.110   3.775   0.365
 2749SOL    HW1 9146   1.154   3.710   0.427
 2749SOL    HW2 9147   1.126   3.747   0.270
 2750SOL     OW 9148   2.589   5.175   1.869
 2750SOL    HW1 9149   2.667   5.116   1.888
 2750SOL    HW2 9150   2.512   5.119   1.837
 2751SOL     OW 9151   2.041   1.793   1.636
 2751SOL    HW1 9152   2.098   1.795   1.718
 2751SOL    HW2 9153   2.089   1.744   1.563
 2752SOL     OW 9154   4.252   4.601   5.955
 2752SOL    HW1 9155   4.190   4.664   5.909
 2752SOL    HW2 9156   4.205   4.515   5.975
 2753SOL     OW 9157   6.151   6.175   4.890
 2753SOL    HW1 9158   6.093   6.115   4.945
 2753SOL    HW2 9159   6.109   6.265   4.882
 2754SOL     OW 9160   0.778   6.422   6.664
 2754SOL    HW1 9161   0.783   6.475   6.749
 2754SOL    HW2 9162   0.720   6.342   6.679
 2755SOL     OW 9163   2.782   6.664   2.669
 2755SOL    HW1 9164   2.792   6.622   2.578
 2755SOL    HW2 9165   2.864   6.716   2.690
 2756SOL     OW 9166   4.680   6.426   0.769
 2756SOL    HW1 9167   4.629   6.508   0.793
 2756SOL    HW2 9168   4.664   6.404   0.673
 2757SOL     OW 9169   1.767   5.267   0.315
 2757SOL    HW1 9170   1.676   5.280   0.277
 2757SOL    HW2 9171   1.760   5.215   0.400
 2758SOL     OW 9172   5.351   0.199   4.686
 2758SOL    HW1 9173   5.366   0.294   4.660
 2758SOL    HW2 9174   5.319   0.194   4.781
 2759SOL     OW 9175   5.395   6.520   4.202
 2759SOL    HW1 9176   5.393   6.563   4.292
 2759SOL    HW2 9177   5.453   6.574   4.141
 2760SOL     OW 9178   1.239   5.307   2.486
 2760SOL    HW1 9179   1.220   5.234   2.421
 2760SOL    HW2 9180   1.307   5.370   2.447
 2761SOL     OW 9181   1.973   4.770   3.599
 2761SOL    HW1 9182   1.925   4.851   3.566
 2761SOL    HW2 9183   1.906   4.704   3.634
 2762SOL     OW 9184   0.789   0.570   5.505
 2762SOL    HW1 9185   0.811   0.472   5.511
 2762SOL    HW2 9186   0.700   0.581   5.462
 2763SOL     OW 9187   5.684   2.208   3.953
 2763SOL    HW1 9188   5.772   2.180   3.993
 2763SOL    HW2 9189   5.641   2.131   3.907
 2764SOL     OW 9190   5.546   0.181   1.523
 2764SOL    HW1 9191   5.499   0.232   1.451
 2764SOL    HW2 9192   5.494   0.098   1.545
 2765SOL     OW 9193   5.162   0.800   1.264
 2765SOL    HW1 9194   5.084   0.772   1.320
 2765SOL    HW2 9195   5.247   0.784   1.314
 2766SOL     OW 9196   5.727   1.785   0.611
 2766SOL    HW1 9197   5.802   1.719   0.608
 2766SOL    HW2 9198   5.651   1.752   0.554
 2767SOL     OW 9199   6.843   4.685   6.989
 2767SOL    HW1 9200   6.751   4.720   6.975
 2767SOL    HW2 9201   6.876   4.642   6.905
 2768SOL     OW 9202   5.757   1.449   0.435
 2768SOL    HW1 9203   5.790   1.373   0.380
 2768SOL    HW2 9204   5.782   1.435   0.531
 2769SOL     OW 9205   6.283   4.437   3.710
 2769SOL    HW1 9206   6.213   4.389   3.657
 2769SOL    HW2 9207   6.372   4.422   3.667
 2770SOL     OW 9208   1.634   5.555   6.916
 2770SOL    HW1 9209   1.570   5.543   6.841
 2770SOL    HW2 9210   1.682   5.468   6.933
 2771SOL     OW 9211   5.137   1.378   1.393
 2771SOL    HW1 9212   5.162   1.473   1.412
 2771SOL    HW2 9213   5.212   1.334   1.342
 2772SOL     OW 9214   4.878   2.586   0.535
 2772SOL    HW1 9215   4.937   2.602   0.456
 2772SOL    HW2 9216   4.783   2.579   0.504
 2773SOL     OW 9217   4.333   3.128   6.023
 2773SOL    HW1 9218   4.309   3.224   6.039
 2773SOL    HW2 9219   4.250   3.072   6.030
 2774SOL     OW 9220   6.230   2.776   2.844
 2774SOL    HW1 9221   6.246   2.867   2.805
 2774SOL    HW2 9222   6.142   2.741   2.812
 2775SOL     OW 9223   6.990   5.680   0.769
 2775SOL    HW1 9224   0.016   5.717   0.850
 2775SOL    HW2 9225   6.902   5.724   0.757
 2776SOL     OW 9226   4.318   5.716   5.472
 2776SOL    HW1 9227   4.346   5.732   5.567
 2776SOL    HW2 9228   4.299   5.619   5.459
 2777SOL     OW 9229   3.064   0.917   2.453
 2777SOL    HW1 9230   3.019   0.828   2.447
 2777SOL    HW2 9231   3.145   0.909   2.511
 2778SOL     OW 9232   1.817   1.289   5.484
 2778SOL    HW1 9233   1.889   1.234   5.525
 2778SOL    HW2 9234   1.831   1.293   5.385
 2779SOL     OW 9235   4.346   0.244   0.584
 2779SOL    HW1 9236   4.389   0.259   0.673
 2779SOL    HW2 9237   4.358   0.149   0.556
 2780SOL     OW 9238   6.280   5.842   5.661
 2780SOL    HW1 9239   6.299   5.796   5.748
 2780SOL    HW2 9240   6.236   5.778   5.598
 2781SOL     OW 9241   6.169   5.256   1.908
 2781SOL    HW1 9242   6.073   5.282   1.916
 2781SOL    HW2 9243   6.193   5.244   1.811
 2782SOL     OW 9244   3.401   2.555   6.562
 2782SOL    HW1 9245   3.399   2.653   6.542
 2782SOL    HW2 9246   3.456   2.539   6.644
 2783SOL     OW 9247   6.032   2.867   4.929
 2783SOL    HW1 9248   5.982   2.836   4.848
 2783SOL    HW2 9249   6.130   2.867   4.910
 2784SOL     OW 9250   2.225   2.290   1.076
 2784SOL    HW1 9251   2.167   2.298   0.995
 2784SOL    HW2 9252   2.191   2.350   1.148
 2785SOL     OW 9253   6.258   0.900   0.192
 2785SOL    HW1 9254   6.219   0.819   0.148
 2785SOL    HW2 9255   6.304   0.873   0.276
 2786SOL     OW 9256   3.536   0.144   1.398
 2786SOL    HW1 9257   3.494   0.214   1.340
 2786SOL    HW2 9258   3.566   0.067   1.342
 2787SOL     OW 9259   2.546   3.234   6.627
 2787SOL    HW1 9260   2.625   3.199   6.677
 2787SOL    HW2 9261   2.521   3.170   6.555
 2788SOL     OW 9262   2.318   4.195   0.276
 2788SOL    HW1 9263   2.312   4.203   0.375
 2788SOL    HW2 9264   2.235   4.232   0.234
 2789SOL     OW 9265   1.796   1.844   3.997
 2789SOL    HW1 9266   1.760   1.798   3.916
 2789SOL    HW2 9267   1.728   1.841   4.070
 2790SOL     OW 9268   3.637   5.177   2.836
 2790SOL    HW1 9269   3.557   5.119   2.851
 2790SOL    HW2 9270   3.661   5.177   2.739
 2791SOL     OW 9271   1.777   4.150   5.137
 2791SOL    HW1 9272   1.829   4.078   5.182
 2791SOL    HW2 9273   1.818   4.172   5.049
 2792SOL     OW 9274   1.535   0.343   5.083
 2792SOL    HW1 9275   1.556   0.248   5.108
 2792SOL    HW2 9276   1.514   0.395   5.166
 2793SOL     OW 9277   4.867   1.914   2.593
 2793SOL    HW1 9278   4.815   1.899   2.509
 2793SOL    HW2 9279   4.950   1.966   2.572
 2794SOL     OW 9280   6.963   2.904   0.417
 2794SOL    HW1 9281   6.929   2.932   0.327
 2794SOL    HW2 9282   6.955   2.805   0.427
 2795SOL     OW 9283   2.917   4.255   1.468
 2795SOL    HW1 9284   2.950   4.292   1.555
 2795SOL    HW2 9285   2.986   4.193   1.431
 2796SOL     OW 9286   6.249   4.252   2.528
 2796SOL    HW1 9287   6.253   4.253   2.628
 2796SOL    HW2 9288   6.158   4.283   2.499
 2797SOL     OW 9289   5.460   5.917   5.009
 2797SOL    HW1 9290   5.525   5.853   4.967
 2797SOL    HW2 9291   5.501   6.008   5.015
 2798SOL     OW 9292   0.963   4.259   2.663
 2798SOL    HW1 9293   0.870   4.235   2.636
 2798SOL    HW2 9294   1.017   4.176   2.673
 2799SOL     OW 9295   0.189   6.041   6.973
 2799SOL    HW1 9296   0.257   6.115   6.975
 2799SOL    HW2 9297   0.225   5.962   0.003
 2800SOL     OW 9298   4.584   4.087   6.535
 2800SOL    HW1 9299   4.563   4.167   6.592
 2800SOL    HW2 9300   4.683   4.073   6.534
 2801SOL     OW 9301   4.364   6.133   3.652
 2801SOL    HW1 9302   4.382   6.059   3.717
 2801SOL    HW2 9303   4.433   6.130   3.579
 2802SOL     OW 9304   4.482   3.206   6.473
 2802SOL    HW1 9305   4.384   3.195   6.453
 2802SOL    HW2 9306   4.494   3.227   6.570
 2803SOL     OW 9307   2.435   6.344   5.870
 2803SOL    HW1 9308   2.370   6.420   5.878
 2803SOL    HW2 9309   2.497   6.361   5.793
 2804SOL     OW 9310   6.572   4.457   3.423
 2804SOL    HW1 9311   6.591   4.399   3.344
 2804SOL    HW2 9312   6.564   4.401   3.505
 2805SOL     OW 9313   4.411   3.622   1.415
 2805SOL    HW1 9314   4.357   3.675   1.480
 2805SOL    HW2 9315   4.449   3.684   1.346
 2806SOL     OW 9316   5.810   4.994   3.321
 2806SOL    HW1 9317   5.733   5.028   3.375
 2806SOL    HW2 9318   5.832   4.900   3.349
 2807SOL     OW 9319   5.505   4.681   3.405
 2807SOL    HW1 9320   5.442   4.624   3.352
 2807SOL    HW2 9321   5.474   4.776   3.404
 2808SOL     OW 9322   4.064   1.388   3.018
 2808SOL    HW1 9323   4.156   1.367   2.985
 2808SOL    HW2 9324   4.032   1.313   3.075
 2809SOL     OW 9325   6.715   2.500   1.233
 2809SOL    HW1 9326   6.813   2.479   1.235
 2809SOL    HW2 9327   6.687   2.537   1.321
 2810SOL     OW 9328   3.454   6.580   4.558
 2810SOL    HW1 9329   3.515   6.583   4.637
 2810SOL    HW2 9330   3.437   6.674   4.526
 2811SOL     OW 9331   0.825   0.602   2.798
 2811SOL    HW1 9332   0.862   0.687   2.762
 2811SOL    HW2 9333   0.739   0.620   2.846
 2812SOL     OW 9334   5.088   3.545   1.957
 2812SOL    HW1 9335   5.158   3.607   1.920
 2812SOL    HW2 9336   5.051   3.582   2.041
 2813SOL     OW 9337   5.877   0.021   5.734
 2813SOL    HW1 9338   5.866   6.992   5.647
 2813SOL    HW2 9339   5.805   0.089   5.743
 2814SOL     OW 9340   4.225   2.962   0.059
 2814SOL    HW1 9341   4.166   3.020   0.002
 2814SOL    HW2 9342   4.184   2.951   0.149
 2815SOL     OW 9343   0.031   1.269   4.737
 2815SOL    HW1 9344   6.969   1.311   4.777
 2815SOL    HW2 9345   0.038   1.293   4.641
 2816SOL     OW 9346   6.618   6.360   3.762
 2816SOL    HW1 9347   6.587   6.307   3.841
 2816SOL    HW2 9348   6.583   6.318   3.678
 2817SOL     OW 9349   1.525   0.198   1.437
 2817SOL    HW1 9350   1.610   0.210   1.386
 2817SOL    HW2 9351   1.540   0.133   1.512
 2818SOL     OW 9352   6.941   5.478   0.034
 2818SOL    HW1 9353   6.870   5.536   7.014
 2818SOL    HW2 9354   6.920   5.460   0.130
 2819SOL     OW 9355   0.604   2.141   0.578
 2819SOL    HW1 9356   0.537   2.202   0.619
 2819SOL    HW2 9357   0.561   2.091   0.503
 2820SOL     OW 9358   0.766   2.505   2.549
 2820SOL    HW1 9359   0.700   2.528   2.478
 2820SOL    HW2 9360   0.822   2.585   2.570
 2821SOL     OW 9361   3.170   4.274   6.633
 2821SOL    HW1 9362   3.199   4.278   6.728
 2821SOL    HW2 9363   3.126   4.360   6.608
 2822SOL     OW 9364   3.956   2.530   0.589
 2822SOL    HW1 9365   3.973   2.563   0.496
 2822SOL    HW2 9366   3.872   2.476   0.590
 2823SOL     OW 9367   2.281   6.538   1.588
 2823SOL    HW1 9368   2.274   6.578   1.679
 2823SOL    HW2 9369   2.189   6.518   1.554
 2824SOL     OW 9370   2.482   1.340   5.057
 2824SOL    HW1 9371   2.578   1.353   5.033
 2824SOL    HW2 9372   2.426   1.347   4.975
 2825SOL     OW 9373   6.386   6.845   0.511
 2825SOL    HW1 9374   6.396   6.854   0.412
 2825SOL    HW2 9375   6.317   6.775   0.531
 2826SOL     OW 9376   5.315   2.148   6.156
 2826SOL    HW1 9377   5.337   2.196   6.071
 2826SOL    HW2 9378   5.399   2.131   6.207
 2827SOL     OW 9379   6.673   1.163   5.427
 2827SOL    HW1 9380   6.581   1.199   5.442
 2827SOL    HW2 9381   6.718   1.215   5.354
 2828SOL     OW 9382   3.735   1.118   6.535
 2828SOL    HW1 9383   3.760   1.125   6.632
 2828SOL    HW2 9384   3.663   1.184   6.515
 2829SOL     OW 9385   4.009   4.279   6.231
 2829SOL    HW1 9386   4.008   4.212   6.305
 2829SOL    HW2 9387   4.100   4.283   6.191
 2830SOL     OW 9388   6.958   4.543   6.806
 2830SOL    HW1 9389   6.912   4.475   6.749
 2830SOL    HW2 9390   0.009   4.498   6.860
 2831SOL     OW 9391   0.017   6.283   4.474
 2831SOL    HW1 9392   0.006   6.184   4.477
 2831SOL    HW2 9393   0.112   6.306   4.498
 2832SOL     OW 9394   0.699   1.159   1.154
 2832SOL    HW1 9395   0.657   1.189   1.240
 2832SOL    HW2 9396   0.785   1.113   1.174
 2833SOL     OW 9397   5.510   1.635   2.364
 2833SOL    HW1 9398   5.538   1.629   2.268
 2833SOL    HW2 9399   5.413   1.610   2.371
 2834SOL     OW 9400   2.833   0.678   5.832
 2834SOL    HW1 9401   2.799   0.761   5.788
 2834SOL    HW2 9402   2.762   0.608   5.832
 2835SOL     OW 9403   0.293   7.009   1.559
 2835SOL    HW1 9404   0.347   0.008   1.641
 2835SOL    HW2 9405   0.319   0.054   1.487
 2836SOL     OW 9406   6.657   0.134   1.121
 2836SOL    HW1 9407   6.688   0.172   1.033
 2836SOL    HW2 9408   6.737   0.114   1.177
 2837SOL     OW 9409   5.833   3.324   3.056
 2837SOL    HW1 9410   5.901   3.295   2.989
 2837SOL    HW2 9411   5.748   3.273   3.043
 2838SOL     OW 9412   1.932   4.074   1.675
 2838SOL    HW1 9413   1.929   3.982   1.636
 2838SOL    HW2 9414   1.993   4.131   1.621
 2839SOL     OW 9415   5.832   1.206   2.114
 2839SOL    HW1 9416   5.908   1.270   2.100
 2839SOL    HW2 9417   5.776   1.238   2.190
 2840SOL     OW 9418   0.523   0.863   4.275
 2840SOL    HW1 9419   0.567   0.939   4.322
 2840SOL    HW2 9420   0.460   0.817   4.338
 2841SOL     OW 9421   6.983   0.948   6.191
 2841SOL    HW1 9422   6.888   0.933   6.163
 2841SOL    HW2 9423   7.017   0.867   6.238
 2842SOL     OW 9424   0.309   1.988   4.005
 2842SOL    HW1 9425   0.262   2.015   3.921
 2842SOL    HW2 9426   0.332   2.069   4.058
 2843SOL     OW 9427   3.111   1.695   4.050
 2843SOL    HW1 9428   3.141   1.779   4.006
 2843SOL    HW2 9429   3.139   1.696   4.146
 2844SOL     OW 9430   1.045   4.022   0.463
 2844SOL    HW1 9431   1.054   3.932   0.422
 2844SOL    HW2 9432   1.124   4.041   0.520
 2845SOL     OW 9433   1.071   3.434   0.716
 2845SOL    HW1 9434   1.035   3.519   0.757
 2845SOL    HW2 9435   1.111   3.377   0.787
 2846SOL     OW 9436   5.044   1.700   6.852
 2846SOL    HW1 9437   4.968   1.712   6.916
 2846SOL    HW2 9438   5.066   1.603   6.846
 2847SOL     OW 9439   5.223   3.584   3.761
 2847SOL    HW1 9440   5.281   3.521   3.814
 2847SOL    HW2 9441   5.143   3.610   3.816
 2848SOL     OW 9442   0.168   4.744   6.165
 2848SOL    HW1 9443   0.069   4.741   6.172
 2848SOL    HW2 9444   0.196   4.733   6.070
 2849SOL     OW 9445   3.416   0.349   1.251
 2849SOL    HW1 9446   3.406   0.439   1.295
 2849SOL    HW2 9447   3.332   0.324   1.204
 2850SOL     OW 9448   3.764   0.456   1.580
 2850SOL    HW1 9449   3.681   0.406   1.605
 2850SOL    HW2 9450   3.824   0.463   1.659
 2851SOL     OW 9451   0.694   4.158   5.401
 2851SOL    HW1 9452   0.699   4.072   5.452
 2851SOL    HW2 9453   0.765   4.158   5.330
 2852SOL     OW 9454   5.460   4.223   6.938
 2852SOL    HW1 9455   5.488   4.291   7.006
 2852SOL    HW2 9456   5.502   4.135   6.960
 2853SOL     OW 9457   2.884   2.285   6.775
 2853SOL    HW1 9458   2.974   2.253   6.804
 2853SOL    HW2 9459   2.828   2.304   6.855
 2854SOL     OW 9460   2.950   1.410   4.339
 2854SOL    HW1 9461   2.904   1.374   4.258
 2854SOL    HW2 9462   2.882   1.440   4.406
 2855SOL     OW 9463   1.683   0.659   5.576
 2855SOL    HW1 9464   1.772   0.691   5.610
 2855SOL    HW2 9465   1.639   0.603   5.647
 2856SOL     OW 9466   2.039   2.895   6.139
 2856SOL    HW1 9467   2.001   2.943   6.217
 2856SOL    HW2 9468   2.075   2.961   6.073
 2857SOL     OW 9469   3.117   1.786   1.753
 2857SOL    HW1 9470   3.129   1.808   1.850
 2857SOL    HW2 9471   3.166   1.702   1.731
 2858SOL     OW 9472   6.132   3.498   1.962
 2858SOL    HW1 9473   6.092   3.589   1.978
 2858SOL    HW2 9474   6.104   3.436   2.035
 2859SOL     OW 9475   5.304   2.131   0.774
 2859SOL    HW1 9476   5.303   2.045   0.724
 2859SOL    HW2 9477   5.348   2.118   0.863
 2860SOL     OW 9478   3.787   1.818   0.981
 2860SOL    HW1 9479   3.763   1.804   1.077
 2860SOL    HW2 9480   3.875   1.775   0.962
 2861SOL     OW 9481   4.744   5.436   5.543
 2861SOL    HW1 9482   4.651   5.404   5.526
 2861SOL    HW2 9483   4.807   5.388   5.482
 2862SOL     OW 9484   5.799   1.501   3.177
 2862SOL    HW1 9485   5.863   1.434   3.214
 2862SOL    HW2 9486   5.848   1.586   3.158
 2863SOL     OW 9487   5.691   1.348   0.019
 2863SOL    HW1 9488   5.752   1.409   6.988
 2863SOL    HW2 9489   5.707   1.254   7.010
 2864SOL     OW 9490   3.974   0.532   1.128
 2864SOL    HW1 9491   3.990   0.603   1.059
 2864SOL    HW2 9492   3.877   0.532   1.153
 2865SOL     OW 9493   5.090   4.785   5.351
 2865SOL    HW1 9494   5.095   4.685   5.353
 2865SOL    HW2 9495   5.032   4.814   5.275
 2866SOL     OW 9496   6.510   6.555   0.472
 2866SOL    HW1 9497   6.482   6.486   0.405
 2866SOL    HW2 9498   6.432   6.614   0.494
 2867SOL     OW 9499   5.728   3.992   2.087
 2867SOL    HW1 9500   5.786   4.043   2.024
 2867SOL    HW2 9501   5.756   4.013   2.181
 2868SOL     OW 9502   0.498   3.421   5.146
 2868SOL    HW1 9503   0.591   3.457   5.137
 2868SOL    HW2 9504   0.432   3.496   5.144
 2869SOL     OW 9505   6.226   1.159   3.042
 2869SOL    HW1 9506   6.148   1.216   3.015
 2869SOL    HW2 9507   6.199   1.098   3.116
 2870SOL     OW 9508   0.004   1.260   4.434
 2870SOL    HW1 9509   0.055   1.208   4.366
 2870SOL    HW2 9510   7.015   1.355   4.405
 2871SOL     OW 9511   2.119   1.672   6.582
 2871SOL    HW1 9512   2.208   1.715   6.568
 2871SOL    HW2 9513   2.060   1.691   6.503
 2872SOL     OW 9514   2.710   1.835   3.973
 2872SOL    HW1 9515   2.631   1.837   3.912
 2872SOL    HW2 9516   2.739   1.741   3.987
 2873SOL     OW 9517   0.792   5.182   3.503
 2873SOL    HW1 9518   0.774   5.140   3.592
 2873SOL    HW2 9519   0.888   5.167   3.479
 2874SOL     OW 9520   4.831   5.349   2.256
 2874SOL    HW1 9521   4.899   5.417   2.281
 2874SOL    HW2 9522   4.770   5.386   2.186
 2875SOL     OW 9523   4.249   6.468   6.535
 2875SOL    HW1 9524   4.312   6.443   6.462
 2875SOL    HW2 9525   4.266   6.410   6.615
 2876SOL     OW 9526   0.650   0.229   1.911
 2876SOL    HW1 9527   0.597   0.207   1.829
 2876SOL    HW2 9528   0.743   0.255   1.885
 2877SOL     OW 9529   3.529   2.731   5.447
 2877SOL    HW1 9530   3.479   2.719   5.361
 2877SOL    HW2 9531   3.492   2.670   5.517
 2878SOL     OW 9532   3.761   5.043   4.526
 2878SOL    HW1 9533   3.675   5.044   4.576
 2878SOL    HW2 9534   3.750   4.990   4.441
 2879SOL     OW 9535   5.006   5.453   0.102
 2879SOL    HW1 9536   5.051   5.534   0.064
 2879SOL    HW2 9537   4.972   5.473   0.194
 2880SOL     OW 9538   5.993   6.506   0.504
 2880SOL    HW1 9539   5.919   6.474   0.562
 2880SOL    HW2 9540   5.984   6.605   0.488
 2881SOL     OW 9541   5.760   6.174   0.788
 2881SOL    HW1 9542   5.782   6.169   0.885
 2881SOL    HW2 9543   5.661   6.171   0.775
 2882SOL     OW 9544   0.787   3.370   2.724
 2882SOL    HW1 9545   0.732   3.289   2.745
 2882SOL    HW2 9546   0.807   3.420   2.809
 2883SOL     OW 9547   4.581   6.814   3.886
 2883SOL    HW1 9548   4.669   6.860   3.877
 2883SOL    HW2 9549   4.511   6.864   3.835
 2884SOL     OW 9550   0.686   5.957   3.279
 2884SOL    HW1 9551   0.761   5.953   3.213
 2884SOL    HW2 9552   0.677   5.869   3.325
 2885SOL     OW 9553   0.069   2.507   2.842
 2885SOL    HW1 9554   0.077   2.528   2.745
 2885SOL    HW2 9555   0.145   2.448   2.869
 2886SOL     OW 9556   2.446   3.386   6.863
 2886SOL    HW1 9557   2.380   3.317   6.892
 2886SOL    HW2 9558   2.484   3.361   6.774
 2887SOL     OW 9559   2.252   7.010   5.282
 2887SOL    HW1 9560   2.161   7.016   5.240
 2887SOL    HW2 9561   2.303   6.936   5.240
 2888SOL     OW 9562   0.036   4.958   6.433
 2888SOL    HW1 9563   7.019   4.877   6.477
 2888SOL    HW2 9564   6.989   5.033   6.440
 2889SOL     OW 9565   1.749   0.860   2.233
 2889SOL    HW1 9566   1.696   0.794   2.284
 2889SOL    HW2 9567   1.758   0.830   2.138
 2890SOL     OW 9568   2.962   0.694   1.372
 2890SOL    HW1 9569   2.890   0.701   1.442
 2890SOL    HW2 9570   2.920   0.687   1.282
 2891SOL     OW 9571   2.306   4.560   3.471
 2891SOL    HW1 9572   2.266   4.624   3.405
 2891SOL    HW2 9573   2.235   4.497   3.504
 2892SOL     OW 9574   5.162   4.017   0.235
 2892SOL    HW1 9575   5.085   4.054   0.288
 2892SOL    HW2 9576   5.131   3.937   0.183
 2893SOL     OW 9577   1.450   6.536   5.343
 2893SOL    HW1 9578   1.494   6.580   5.422
 2893SOL    HW2 9579   1.387   6.601   5.300
 2894SOL     OW 9580   3.198   2.460   6.753
 2894SOL    HW1 9581   3.130   2.533   6.751
 2894SOL    HW2 9582   3.265   2.475   6.680
 2895SOL     OW 9583   4.193   3.159   6.411
 2895SOL    HW1 9584   4.166   3.095   6.339
 2895SOL    HW2 9585   4.182   3.114   6.500
 2896SOL     OW 9586   2.506   5.093   6.372
 2896SOL    HW1 9587   2.439   5.021   6.386
 2896SOL    HW2 9588   2.499   5.126   6.277
 2897SOL     OW 9589   2.457   6.180   3.953
 2897SOL    HW1 9590   2.507   6.264   3.976
 2897SOL    HW2 9591   2.417   6.141   4.036
 2898SOL     OW 9592   4.561   4.736   2.917
 2898SOL    HW1 9593   4.632   4.699   2.856
 2898SOL    HW2 9594   4.556   4.835   2.905
 2899SOL     OW 9595   0.356   1.570   6.527
 2899SOL    HW1 9596   0.409   1.638   6.476
 2899SOL    HW2 9597   0.390   1.479   6.507
 2900SOL     OW 9598   1.601   4.987   5.490
 2900SOL    HW1 9599   1.558   4.936   5.564
 2900SOL    HW2 9600   1.683   5.034   5.525
 2901SOL     OW 9601   1.646   6.866   2.643
 2901SOL    HW1 9602   1.735   6.905   2.666
 2901SOL    HW2 9603   1.592   6.934   2.593
 2902SOL     OW 9604   5.333   6.477   0.609
 2902SOL    HW1 9605   5.274   6.397   0.602
 2902SOL    HW2 9606   5.339   6.506   0.705
 2903SOL     OW 9607   3.190   6.948   1.928
 2903SOL    HW1 9608   3.281   6.973   1.961
 2903SOL    HW2 9609   3.181   6.977   1.832
 2904SOL     OW 9610   2.404   3.266   5.353
 2904SOL    HW1 9611   2.439   3.182   5.312
 2904SOL    HW2 9612   2.383   3.250   5.450
 2905SOL     OW 9613   1.234   1.511   2.901
 2905SOL    HW1 9614   1.270   1.587   2.847
 2905SOL    HW2 9615   1.203   1.546   2.990
 2906SOL     OW 9616   5.164   5.198   2.499
 2906SOL    HW1 9617   5.136   5.204   2.595
 2906SOL    HW2 9618   5.263   5.215   2.492
 2907SOL     OW 9619   6.391   1.104   4.849
 2907SOL    HW1 9620   6.402   1.010   4.819
 2907SOL    HW2 9621   6.318   1.109   4.917
 2908SOL     OW 9622   4.261   6.502   4.040
 2908SOL    HW1 9623   4.272   6.490   4.139
 2908SOL    HW2 9624   4.182   6.561   4.023
 2909SOL     OW 9625   0.476   5.102   4.692
 2909SOL    HW1 9626   0.381   5.135   4.687
 2909SOL    HW2 9627   0.539   5.179   4.684
 2910SOL     OW 9628   3.890   6.509   4.420
 2910SOL    HW1 9629   3.796   6.483   4.398
 2910SOL    HW2 9630   3.896   6.530   4.518
 2911SOL     OW 9631   2.367   5.386   3.803
 2911SOL    HW1 9632   2.303   5.345   3.868
 2911SOL    HW2 9633   2.459   5.349   3.818
 2912SOL     OW 9634   3.203   6.184   0.332
 2912SOL    HW1 9635   3.195   6.243   0.252
 2912SOL    HW2 9636   3.118   6.133   0.346
 2913SOL     OW 9637   1.954   4.915   2.807
 2913SOL    HW1 9638   2.027   4.982   2.804
 2913SOL    HW2 9639   1.907   4.920   2.895
 2914SOL     OW 9640   5.627   5.258   6.305
 2914SOL    HW1 9641   5.586   5.329   6.362
 2914SOL    HW2 9642   5.608   5.168   6.344
 2915SOL     OW 9643   4.744   1.905   4.207
 2915SOL    HW1 9644   4.762   1.981   4.144
 2915SOL    HW2 9645   4.711   1.942   4.294
 2916SOL     OW 9646   6.208   4.791   5.977
 2916SOL    HW1 9647   6.138   4.733   5.935
 2916SOL    HW2 9648   6.199   4.884   5.943
 2917SOL     OW 9649   3.875   0.296   1.340
 2917SOL    HW1 9650   3.830   0.293   1.429
 2917SOL    HW2 9651   3.825   0.356   1.278
 2918SOL     OW 9652   6.967   3.005   3.603
 2918SOL    HW1 9653   0.040   2.969   3.593
 2918SOL    HW2 9654   6.959   3.052   3.690
 2919SOL     OW 9655   6.322   0.487   0.308
 2919SOL    HW1 9656   6.358   0.420   0.243
 2919SOL    HW2 9657   6.373   0.572   0.301
 2920SOL     OW 9658   3.640   2.066   2.605
 2920SOL    HW1 9659   3.550   2.073   2.649
 2920SOL    HW2 9660   3.711   2.057   2.675
 2921SOL     OW 9661   0.046   0.865   2.751
 2921SOL    HW1 9662   0.085   0.957   2.748
 2921SOL    HW2 9663   0.106   0.801   2.703
 2922SOL     OW 9664   5.692   6.703   0.338
 2922SOL    HW1 9665   5.661   6.629   0.397
 2922SOL    HW2 9666   5.788   6.725   0.359
 2923SOL     OW 9667   0.186   5.400   2.165
 2923SOL    HW1 9668   0.115   5.423   2.232
 2923SOL    HW2 9669   0.150   5.414   2.072
 2924SOL     OW 9670   0.018   2.009   6.276
 2924SOL    HW1 9671   0.114   1.995   6.252
 2924SOL    HW2 9672   6.980   1.993   6.195
 2925SOL     OW 9673   5.548   0.849   3.077
 2925SOL    HW1 9674   5.545   0.804   3.166
 2925SOL    HW2 9675   5.612   0.926   3.080
 2926SOL     OW 9676   6.929   1.585   5.209
 2926SOL    HW1 9677   6.861   1.615   5.143
 2926SOL    HW2 9678   7.017   1.628   5.190
 2927SOL     OW 9679   1.650   1.797   2.275
 2927SOL    HW1 9680   1.730   1.740   2.259
 2927SOL    HW2 9681   1.567   1.740   2.275
 2928SOL     OW 9682   6.258   2.285   6.509
 2928SOL    HW1 9683   6.273   2.300   6.606
 2928SOL    HW2 9684   6.346   2.289   6.460
 2929SOL     OW 9685   1.035   1.278   5.827
 2929SOL    HW1 9686   1.050   1.213   5.753
 2929SOL    HW2 9687   0.983   1.356   5.793
 2930SOL     OW 9688   4.774   6.535   5.011
 2930SOL    HW1 9689   4.781   6.439   4.985
 2930SOL    HW2 9690   4.678   6.559   5.022
 2931SOL     OW 9691   5.093   5.904   6.456
 2931SOL    HW1 9692   5.034   5.955   6.394
 2931SOL    HW2 9693   5.131   5.966   6.525
 2932SOL     OW 9694   1.445   4.930   2.036
 2932SOL    HW1 9695   1.494   4.903   2.120
 2932SOL    HW2 9696   1.492   4.891   1.957
 2933SOL     OW 9697   5.229   2.799   3.925
 2933SOL    HW1 9698   5.191   2.767   3.838
 2933SOL    HW2 9699   5.322   2.765   3.934
 2934SOL     OW 9700   3.807   0.987   0.827
 2934SOL    HW1 9701   3.822   1.040   0.744
 2934SOL    HW2 9702   3.852   1.032   0.904
 2935SOL     OW 9703   6.646   2.893   1.461
 2935SOL    HW1 9704   6.589   2.972   1.487
 2935SOL    HW2 9705   6.731   2.926   1.420
 2936SOL     OW 9706   4.836   5.576   1.590
 2936SOL    HW1 9707   4.853   5.633   1.510
 2936SOL    HW2 9708   4.796   5.489   1.562
 2937SOL     OW 9709   3.509   4.990   0.829
 2937SOL    HW1 9710   3.518   5.089   0.843
 2937SOL    HW2 9711   3.431   4.972   0.769
 2938SOL     OW 9712   4.711   4.920   5.352
 2938SOL    HW1 9713   4.747   4.912   5.445
 2938SOL    HW2 9714   4.623   4.872   5.346
 2939SOL     OW 9715   0.721   6.496   4.404
 2939SOL    HW1 9716   0.767   6.541   4.328
 2939SOL    HW2 9717   0.706   6.561   4.479
 2940SOL     OW 9718   5.869   0.342   4.984
 2940SOL    HW1 9719   5.967   0.346   4.965
 2940SOL    HW2 9720   5.847   0.404   5.059
 2941SOL     OW 9721   1.798   2.349   5.558
 2941SOL    HW1 9722   1.884   2.392   5.583
 2941SOL    HW2 9723   1.809   2.250   5.559
 2942SOL     OW 9724   2.303   0.907   2.071
 2942SOL    HW1 9725   2.281   0.814   2.099
 2942SOL    HW2 9726   2.354   0.905   1.985
 2943SOL     OW 9727   5.272   3.252   3.073
 2943SOL    HW1 9728   5.235   3.282   2.985
 2943SOL    HW2 9729   5.224   3.169   3.102
 2944SOL     OW 9730   3.192   5.479   5.575
 2944SOL    HW1 9731   3.196   5.520   5.484
 2944SOL    HW2 9732   3.237   5.539   5.641
 2945SOL     OW 9733   4.155   3.490   3.526
 2945SOL    HW1 9734   4.240   3.541   3.540
 2945SOL    HW2 9735   4.136   3.485   3.428
 2946SOL     OW 9736   6.921   5.560   5.670
 2946SOL    HW1 9737   6.877   5.578   5.582
 2946SOL    HW2 9738   6.887   5.473   5.707
 2947SOL     OW 9739   0.772   4.048   0.537
 2947SOL    HW1 9740   0.761   3.975   0.604
 2947SOL    HW2 9741   0.867   4.078   0.534
 2948SOL     OW 9742   6.340   3.848   5.327
 2948SOL    HW1 9743   6.261   3.891   5.283
 2948SOL    HW2 9744   6.401   3.919   5.361
 2949SOL     OW 9745   1.853   6.113   1.136
 2949SOL    HW1 9746   1.801   6.157   1.063
 2949SOL    HW2 9747   1.947   6.147   1.135
 2950SOL     OW 9748   5.604   3.520   4.428
 2950SOL    HW1 9749   5.702   3.505   4.432
 2950SOL    HW2 9750   5.559   3.437   4.394
 2951SOL     OW 9751   0.002   2.493   6.979
 2951SOL    HW1 9752   0.074   2.438   0.002
 2951SOL    HW2 9753   6.946   2.434   6.953
 2952SOL     OW 9754   1.685   4.828   3.998
 2952SOL    HW1 9755   1.721   4.839   4.090
 2952SOL    HW2 9756   1.654   4.917   3.963
 2953SOL     OW 9757   5.197   2.518   2.418
 2953SOL    HW1 9758   5.143   2.446   2.460
 2953SOL    HW2 9759   5.138   2.596   2.396
 2954SOL     OW 9760   1.086   6.134   1.673
 2954SOL    HW1 9761   1.143   6.052   1.676
 2954SOL    HW2 9762   1.142   6.214   1.693
 2955SOL     OW 9763   0.705   3.029   0.167
 2955SOL    HW1 9764   0.618   3.057   0.127
 2955SOL    HW2 9765   0.776   3.095   0.143
 2956SOL     OW 9766   6.983   6.036   2.626
 2956SOL    HW1 9767   6.954   5.955   2.676
 2956SOL    HW2 9768   6.941   6.117   2.666
 2957SOL     OW 9769   6.875   3.615   1.102
 2957SOL    HW1 9770   6.849   3.614   1.005
 2957SOL    HW2 9771   6.894   3.522   1.132
 2958SOL     OW 9772   2.470   4.678   4.622
 2958SOL    HW1 9773   2.444   4.774   4.632
 2958SOL    HW2 9774   2.545   4.657   4.685
 2959SOL     OW 9775   5.073   4.611   6.783
 2959SOL    HW1 9776   4.974   4.610   6.770
 2959SOL    HW2 9777   5.103   4.704   6.806
 2960SOL     OW 9778   2.996   1.056   6.665
 2960SOL    HW1 9779   2.899   1.077   6.677
 2960SOL    HW2 9780   3.019   1.061   6.567
 2961SOL     OW 9781   5.117   2.693   4.539
 2961SOL    HW1 9782   5.207   2.734   4.553
 2961SOL    HW2 9783   5.079   2.665   4.627
 2962SOL     OW 9784   4.699   0.765   3.928
 2962SOL    HW1 9785   4.697   0.673   3.966
 2962SOL    HW2 9786   4.725   0.830   3.999
 2963SOL     OW 9787   2.059   1.745   5.758
 2963SOL    HW1 9788   2.079   1.712   5.850
 2963SOL    HW2 9789   2.057   1.845   5.759
 2964SOL     OW 9790   1.614   0.379   1.797
 2964SOL    HW1 9791   1.686   0.324   1.755
 2964SOL    HW2 9792   1.590   0.455   1.737
 2965SOL     OW 9793   0.172   1.206   5.473
 2965SOL    HW1 9794   0.123   1.265   5.537
 2965SOL    HW2 9795   0.120   1.197   5.388
 2966SOL     OW 9796   6.121   4.670   3.741
 2966SOL    HW1 9797   6.188   4.597   3.735
 2966SOL    HW2 9798   6.157   4.752   3.695
 2967SOL     OW 9799   6.141   3.071   3.580
 2967SOL    HW1 9800   6.080   3.135   3.534
 2967SOL    HW2 9801   6.117   2.977   3.553
 2968SOL     OW 9802   0.846   4.010   5.937
 2968SOL    HW1 9803   0.913   4.084   5.942
 2968SOL    HW2 9804   0.892   3.926   5.910
 2969SOL     OW 9805   5.297   1.190   5.035
 2969SOL    HW1 9806   5.217   1.230   4.990
 2969SOL    HW2 9807   5.379   1.209   4.982
 2970SOL     OW 9808   1.006   4.220   0.002
 2970SOL    HW1 9809   1.079   4.286   0.021
 2970SOL    HW2 9810   0.963   4.193   0.088
 2971SOL     OW 9811   5.719   2.794   4.531
 2971SOL    HW1 9812   5.656   2.726   4.568
 2971SOL    HW2 9813   5.667   2.867   4.486
 2972SOL     OW 9814   6.554   4.564   6.720
 2972SOL    HW1 9815   6.479   4.522   6.669
 2972SOL    HW2 9816   6.616   4.493   6.753
 2973SOL     OW 9817   5.711   0.682   4.527
 2973SOL    HW1 9818   5.754   0.761   4.571
 2973SOL    HW2 9819   5.627   0.710   4.482
 2974SOL     OW 9820   6.345   3.424   3.309
 2974SOL    HW1 9821   6.368   3.441   3.213
 2974SOL    HW2 9822   6.303   3.506   3.348
 2975SOL     OW 9823   0.334   1.992   5.143
 2975SOL    HW1 9824   0.340   2.001   5.044
 2975SOL    HW2 9825   0.310   2.081   5.183
 2976SOL     OW 9826   4.025   1.557   2.807
 2976SOL    HW1 9827   4.014   1.492   2.882
 2976SOL    HW2 9828   3.954   1.628   2.814
 2977SOL     OW 9829   2.327   0.153   4.468
 2977SOL    HW1 9830   2.382   0.142   4.386
 2977SOL    HW2 9831   2.378   0.206   4.536
 2978SOL     OW 9832   4.522   4.663   6.785
 2978SOL    HW1 9833   4.581   4.685   6.708
 2978SOL    HW2 9834   4.575   4.664   6.870
 2979SOL     OW 9835   4.304   6.845   4.009
 2979SOL    HW1 9836   4.391   6.822   3.965
 2979SOL    HW2 9837   4.322   6.900   4.091
 2980SOL     OW 9838   1.640   6.158   4.027
 2980SOL    HW1 9839   1.705   6.214   3.976
 2980SOL    HW2 9840   1.588   6.216   4.090
 2981SOL     OW 9841   0.391   0.197   6.283
 2981SOL    HW1 9842   0.365   0.163   6.193
 2981SOL    HW2 9843   0.322   0.171   6.350
 2982SOL     OW 9844   4.799   6.463   3.143
 2982SOL    HW1 9845   4.717   6.407   3.133
 2982SOL    HW2 9846   4.811   6.487   3.240
 2983SOL     OW 9847   0.983   0.601   3.811
 2983SOL    HW1 9848   0.894   0.601   3.856
 2983SOL    HW2 9849   1.054   0.624   3.878
 2984SOL     OW 9850   4.781   6.039   1.367
 2984SOL    HW1 9851   4.834   6.084   1.439
 2984SOL    HW2 9852   4.714   5.977   1.407
 2985SOL     OW 9853   0.850   2.122   4.360
 2985SOL    HW1 9854   0.820   2.190   4.427
 2985SOL    HW2 9855   0.784   2.119   4.284
 2986SOL     OW 9856   2.429   4.022   6.324
 2986SOL    HW1 9857   2.373   3.943   6.347
 2986SOL    HW2 9858   2.372   4.092   6.282
 2987SOL     OW 9859   4.939   1.346   3.944
 2987SOL    HW1 9860   4.920   1.300   3.858
 2987SOL    HW2 9861   5.033   1.379   3.944
 2988SOL     OW 9862   0.032   6.825   2.366
 2988SOL    HW1 9863   6.974   6.803   2.425
 2988SOL    HW2 9864   0.112   6.774   2.396
 2989SOL     OW 9865   5.813   5.722   1.077
 2989SOL    HW1 9866   5.864   5.716   0.991
 2989SOL    HW2 9867   5.877   5.716   1.154
 2990SOL     OW 9868   4.051   0.902   3.517
 2990SOL    HW1 9869   4.116   0.853   3.460
 2990SOL    HW2 9870   3.960   0.862   3.505
 2991SOL     OW 9871   0.090   3.705   0.414
 2991SOL    HW1 9872   0.126   3.799   0.410
 2991SOL    HW2 9873   0.166   3.641   0.407
 2992SOL     OW 9874   2.476   5.645   5.423
 2992SOL    HW1 9875   2.566   5.601   5.419
 2992SOL    HW2 9876   2.486   5.743   5.410
 2993SOL     OW 9877   1.171   4.649   1.914
 2993SOL    HW1 9878   1.238   4.575   1.920
 2993SOL    HW2 9879   1.171   4.701   1.999
 2994SOL     OW 9880   4.145   1.209   0.326
 2994SOL    HW1 9881   4.192   1.192   0.412
 2994SOL    HW2 9882   4.194   1.279   0.274
 2995SOL     OW 9883   0.931   2.797   6.723
 2995SOL    HW1 9884   0.976   2.842   6.799
 2995SOL    HW2 9885   0.877   2.864   6.672
 2996SOL     OW 9886   3.281   6.266   4.540
 2996SOL    HW1 9887   3.369   6.238   4.502
 2996SOL    HW2 9888   3.212   6.265   4.467
 2997SOL     OW 9889   5.094   6.039   1.799
 2997SOL    HW1 9890   5.101   6.139   1.803
 2997SOL    HW2 9891   5.184   6.000   1.783
 2998SOL     OW 9892   5.083   6.187   4.832
 2998SOL    HW1 9893   5.028   6.270   4.820
 2998SOL    HW2 9894   5.032   6.108   4.799
 2999SOL     OW 9895   4.005   6.052   3.743
 2999SOL    HW1 9896   3.915   6.076   3.779
 2999SOL    HW2 9897   4.072   6.051   3.817
 3000SOL     OW 9898   1.800   3.966   6.171
 3000SOL    HW1 9899   1.885   3.924   6.138
 3000SOL    HW2 9900   1.763   4.027   6.101
 3001SOL     OW 9901   5.329   6.867   6.803
 3001SOL    HW1 9902   5.342   6.920   6.887
 3001SOL    HW2 9903   5.410   6.811   6.785
 3002SOL     OW 9904   4.119   0.311   5.586
 3002SOL    HW1 9905   4.042   0.301   5.524
 3002SOL    HW2 9906   4.202   0.327   5.534
 3003SOL     OW 9907   2.855   6.143   6.401
 3003SOL    HW1 9908   2.802   6.092   6.469
 3003SOL    HW2 9909   2.953   6.127   6.416
 3004SOL     OW 9910   6.939   4.831   4.181
 3004SOL    HW1 9911   6.918   4.739   4.213
 3004SOL    HW2 9912   0.018   4.847   4.188
 3005SOL     OW 9913   3.709   3.256   1.093
 3005SOL    HW1 9914   3.697   3.336   1.152
 3005SOL    HW2 9915   3.663   3.177   1.133
 3006SOL     OW 9916   6.211   2.021   0.803
 3006SOL    HW1 9917   6.128   2.046   0.754
 3006SOL    HW2 9918   6.273   2.100   0.807
 3007SOL     OW 9919   6.101   5.249   2.523
 3007SOL    HW1 9920   6.002   5.258   2.529
 3007SOL    HW2 9921   6.139   5.332   2.480
 3008SOL     OW 9922   4.012   0.138   6.063
 3008SOL    HW1 9923   4.064   0.103   5.985
 3008SOL    HW2 9924   4.057   0.220   6.098
 3009SOL     OW 9925   0.630   6.561   2.553
 3009SOL    HW1 9926   0.584   6.493   2.610
 3009SOL    HW2 9927   0.651   6.521   2.464
 3010SOL     OW 9928   4.014   5.757   2.982
 3010SOL    HW1 9929   4.001   5.689   3.054
 3010SOL    HW2 9930   3.996   5.849   3.019
 3011SOL     OW 9931   5.511   1.024   6.404
 3011SOL    HW1 9932   5.422   1.038   6.360
 3011SOL    HW2 9933   5.561   0.953   6.355
 3012SOL     OW 9934   0.533   3.716   4.198
 3012SOL    HW1 9935   0.538   3.814   4.219
 3012SOL    HW2 9936   0.461   3.701   4.130
 3013SOL     OW 9937   5.462   5.786   3.686
 3013SOL    HW1 9938   5.417   5.799   3.598
 3013SOL    HW2 9939   5.535   5.854   3.696
 3014SOL     OW 9940   5.051   2.356   4.068
 3014SOL    HW1 9941   4.971   2.366   4.009
 3014SOL    HW2 9942   5.085   2.446   4.094
 3015SOL     OW 9943   3.606   2.668   0.509
 3015SOL    HW1 9944   3.627   2.578   0.470
 3015SOL    HW2 9945   3.691   2.709   0.543
 3016SOL     OW 9946   3.254   6.158   4.179
 3016SOL    HW1 9947   3.219   6.190   4.091
 3016SOL    HW2 9948   3.181   6.162   4.247
 3017SOL     OW 9949   1.385   5.650   1.083
 3017SOL    HW1 9950   1.452   5.594   1.131
 3017SOL    HW2 9951   1.307   5.593   1.056
 3018SOL     OW 9952   3.416   0.324   6.272
 3018SOL    HW1 9953   3.336   0.379   6.247
 3018SOL    HW2 9954   3.420   0.244   6.212
 3019SOL     OW 9955   2.808   6.384   1.125
 3019SOL    HW1 9956   2.828   6.480   1.103
 3019SOL    HW2 9957   2.771   6.338   1.044
 3020SOL     OW 9958   3.615   3.747   1.569
 3020SOL    HW1 9959   3.664   3.662   1.550
 3020SOL    HW2 9960   3.680   3.820   1.586
 3021SOL     OW 9961   2.500   1.560   0.306
 3021SOL    HW1 9962   2.513   1.462   0.315
 3021SOL    HW2 9963   2.584   1.607   0.333
 3022SOL     OW 9964   3.963   6.255   2.605
 3022SOL    HW1 9965   3.891   6.264   2.674
 3022SOL    HW2 9966   3.922   6.247   2.515
 3023SOL     OW 9967   3.541   6.006   2.967
 3023SOL    HW1 9968   3.635   6.009   2.932
 3023SOL    HW2 9969   3.534   6.065   3.047
 3024SOL     OW 9970   3.264   0.594   6.483
 3024SOL    HW1 9971   3.190   0.573   6.547
 3024SOL    HW2 9972   3.226   0.637   6.401
 3025SOL     OW 9973   3.374   2.673   0.658
 3025SOL    HW1 9974   3.464   2.689   0.618
 3025SOL    HW2 9975   3.384   2.626   0.745
 3026SOL     OW 9976   1.584   3.117   1.074
 3026SOL    HW1 9977   1.662   3.117   1.136
 3026SOL    HW2 9978   1.504   3.078   1.122
 3027SOL     OW 9979   3.853   1.115   2.132
 3027SOL    HW1 9980   3.872   1.067   2.047
 3027SOL    HW2 9981   3.895   1.206   2.129
 3028SOL     OW 9982   1.220   4.446   6.492
 3028SOL    HW1 9983   1.179   4.494   6.414
 3028SOL    HW2 9984   1.148   4.407   6.549
 3029SOL     OW 9985   6.818   5.123   5.131
 3029SOL    HW1 9986   6.838   5.025   5.119
 3029SOL    HW2 9987   6.815   5.167   5.041
 3030SOL     OW 9988   0.489   1.650   5.689
 3030SOL    HW1 9989   0.406   1.704   5.677
 3030SOL    HW2 9990   0.561   1.708   5.726
 3031SOL     OW 9991   0.481   3.602   0.659
 3031SOL    HW1 9992   0.432   3.568   0.578
 3031SOL    HW2 9993   0.455   3.548   0.739
 3032SOL     OW 9994   5.145   0.677   0.323
 3032SOL    HW1 9995   5.206   0.693   0.401
 3032SOL    HW2 9996   5.113   0.765   0.287
 3033SOL     OW 9997   0.929   2.694   0.295
 3033SOL    HW1 9998   0.890   2.618   0.346
 3033SOL    HW2 9999   1.028   2.682   0.287
 3034SOL     OW10000   2.218   5.837   3.958
 3034SOL    HW110001   2.310   5.799   3.946
 3034SOL    HW210002   2.201   5.906   3.888
 3035SOL     OW10003   6.703   2.395   0.502
 3035SOL    HW110004   6.644   2.467   0.540
 3035SOL    HW210005   6.649   2.339   0.439
 3036SOL     OW10006   1.732   3.615   7.001
 3036SOL    HW110007   1.803   3.562   0.028
 3036SOL    HW210008   1.644   3.570   7.013
 3037SOL     OW10009   6.511   5.843   4.609
 3037SOL    HW110010   6.526   5.748   4.583
 3037SOL    HW210011   6.444   5.885   4.547
 3038SOL     OW10012   5.933   6.873   6.588
 3038SOL    HW110013   5.974   6.802   6.531
 3038SOL    HW210014   5.961   6.963   6.553
 3039SOL     OW10015   6.704   4.119   2.576
 3039SOL    HW110016   6.788   4.161   2.540
 3039SOL    HW210017   6.729   4.046   2.640
 3040SOL     OW10018   4.752   4.217   5.965
 3040SOL    HW110019   4.801   4.258   5.888
 3040SOL    HW210020   4.755   4.280   6.043
 3041SOL     OW10021   1.632   2.392   5.757
 3041SOL    HW110022   1.673   2.475   5.795
 3041SOL    HW210023   1.662   2.380   5.662
 3042SOL     OW10024   4.983   6.119   1.546
 3042SOL    HW110025   5.003   6.215   1.530
 3042SOL    HW210026   5.049   6.081   1.612
 3043SOL     OW10027   0.191   5.374   0.931
 3043SOL    HW110028   0.242   5.308   0.876
 3043SOL    HW210029   0.093   5.363   0.916
 3044SOL     OW10030   3.065   4.600   5.932
 3044SOL    HW110031   3.026   4.656   6.004
 3044SOL    HW210032   3.080   4.656   5.850
 3045SOL     OW10033   4.475   0.321   2.442
 3045SOL    HW110034   4.488   0.221   2.442
 3045SOL    HW210035   4.565   0.365   2.437
 3046SOL     OW10036   1.506   2.874   5.333
 3046SOL    HW110037   1.431   2.808   5.340
 3046SOL    HW210038   1.481   2.947   5.270
 3047SOL     OW10039   4.934   5.779   2.016
 3047SOL    HW110040   4.926   5.707   1.947
 3047SOL    HW210041   5.025   5.821   2.011
 3048SOL     OW10042   3.633   3.470   1.529
 3048SOL    HW110043   3.573   3.510   1.598
 3048SOL    HW210044   3.583   3.458   1.443
 3049SOL     OW10045   0.840   6.021   1.210
 3049SOL    HW110046   0.790   5.969   1.279
 3049SOL    HW210047   0.916   5.965   1.176
 3050SOL     OW10048   3.315   7.017   3.366
 3050SOL    HW110049   3.245   0.059   3.403
 3050SOL    HW210050   3.403   0.044   3.366
 3051SOL     OW10051   2.789   3.762   0.151
 3051SOL    HW110052   2.779   3.676   0.100
 3051SOL    HW210053   2.855   3.749   0.225
 3052SOL     OW10054   4.400   0.896   3.070
 3052SOL    HW110055   4.424   0.887   3.166
 3052SOL    HW210056   4.304   0.924   3.062
 3053SOL     OW10057   6.273   0.698   6.956
 3053SOL    HW110058   6.217   0.627   6.914
 3053SOL    HW210059   6.359   0.706   6.906
 3054SOL     OW10060   0.656   2.402   0.075
 3054SOL    HW110061   0.587   2.417   0.146
 3054SOL    HW210062   0.718   2.480   0.070
 3055SOL     OW10063   5.229   0.341   3.619
 3055SOL    HW110064   5.233   0.326   3.520
 3055SOL    HW210065   5.224   0.439   3.638
 3056SOL     OW10066   6.896   0.520   6.670
 3056SOL    HW110067   6.926   0.604   6.624
 3056SOL    HW210068   6.947   0.509   6.755
 3057SOL     OW10069   4.239   5.593   2.757
 3057SOL    HW110070   4.265   5.564   2.665
 3057SOL    HW210071   4.140   5.602   2.763
 3058SOL     OW10072   6.496   5.470   1.284
 3058SOL    HW110073   6.442   5.387   1.298
 3058SOL    HW210074   6.587   5.445   1.252
 3059SOL     OW10075   1.898   2.781   5.034
 3059SOL    HW110076   1.936   2.856   5.087
 3059SOL    HW210077   1.964   2.706   5.031
 3060SOL     OW10078   0.274   6.194   0.273
 3060SOL    HW110079   0.346   6.167   0.209
 3060SOL    HW210080   0.311   6.192   0.366
 3061SOL     OW10081   6.632   1.209   5.046
 3061SOL    HW110082   6.701   1.255   5.102
 3061SOL    HW210083   6.645   1.235   4.950
 3062SOL     OW10084   1.679   6.578   0.997
 3062SOL    HW110085   1.649   6.641   1.068
 3062SOL    HW210086   1.612   6.575   0.923
 3063SOL     OW10087   2.241   5.043   2.274
 3063SOL    HW110088   2.221   4.972   2.207
 3063SOL    HW210089   2.336   5.074   2.264
 3064SOL     OW10090   5.943   3.507   3.566
 3064SOL    HW110091   6.015   3.450   3.607
 3064SOL    HW210092   5.963   3.522   3.469
 3065SOL     OW10093   2.029   0.247   6.469
 3065SOL    HW110094   1.998   0.340   6.492
 3065SOL    HW210095   1.960   0.181   6.499
 3066SOL     OW10096   5.418   4.475   0.323
 3066SOL    HW110097   5.363   4.448   0.402
 3066SOL    HW210098   5.502   4.520   0.354
 3067SOL     OW10099   3.220   1.200   4.389
 3067SOL    HW110100   3.186   1.135   4.456
 3067SOL    HW210101   3.144   1.257   4.356
 3068SOL     OW10102   5.563   5.855   0.533
 3068SOL    HW110103   5.546   5.772   0.587
 3068SOL    HW210104   5.571   5.831   0.437
 3069SOL     OW10105   6.972   5.673   1.625
 3069SOL    HW110106   0.030   5.641   1.570
 3069SOL    HW210107   6.962   5.772   1.615
 3070SOL     OW10108   1.993   0.759   2.122
 3070SOL    HW110109   1.964   0.824   2.191
 3070SOL    HW210110   2.019   0.808   2.038
 3071SOL     OW10111   6.602   6.719   3.625
 3071SOL    HW110112   6.634   6.719   3.719
 3071SOL    HW210113   6.568   6.810   3.601
 3072SOL     OW10114   0.974   5.928   0.854
 3072SOL    HW110115   0.973   6.026   0.875
 3072SOL    HW210116   1.068   5.896   0.848
 3073SOL     OW10117   0.924   3.898   5.219
 3073SOL    HW110118   0.847   3.900   5.283
 3073SOL    HW210119   0.892   3.874   5.128
 3074SOL     OW10120   5.479   2.727   0.827
 3074SOL    HW110121   5.394   2.760   0.868
 3074SOL    HW210122   5.498   2.634   0.858
 3075SOL     OW10123   1.792   6.125   1.442
 3075SOL    HW110124   1.817   6.118   1.346
 3075SOL    HW210125   1.732   6.048   1.466
 3076SOL     OW10126   6.837   0.938   4.321
 3076SOL    HW110127   6.843   0.958   4.418
 3076SOL    HW210128   6.925   0.955   4.277
 3077SOL     OW10129   5.373   4.727   2.599
 3077SOL    HW110130   5.402   4.700   2.691
 3077SOL    HW210131   5.274   4.722   2.592
 3078SOL     OW10132   2.114   3.819   1.220
 3078SOL    HW110133   2.157   3.857   1.302
 3078SOL    HW210134   2.071   3.731   1.242
 3079SOL     OW10135   1.851   2.545   4.646
 3079SOL    HW110136   1.838   2.481   4.722
 3079SOL    HW210137   1.887   2.632   4.681
 3080SOL     OW10138   5.475   5.021   2.233
 3080SOL    HW110139   5.533   4.942   2.214
 3080SOL    HW210140   5.383   4.989   2.259
 3081SOL     OW10141   0.724   4.316   5.997
 3081SOL    HW110142   0.719   4.257   5.916
 3081SOL    HW210143   0.640   4.368   6.006
 3082SOL     OW10144   4.000   6.759   3.654
 3082SOL    HW110145   3.994   6.680   3.715
 3082SOL    HW210146   3.926   6.755   3.587
 3083SOL     OW10147   4.096   6.478   2.915
 3083SOL    HW110148   4.111   6.542   2.840
 3083SOL    HW210149   4.159   6.499   2.990
 3084SOL     OW10150   4.891   4.663   4.323
 3084SOL    HW110151   4.990   4.648   4.328
 3084SOL    HW210152   4.851   4.649   4.414
 3085SOL     OW10153   6.992   4.523   2.865
 3085SOL    HW110154   7.007   4.536   2.963
 3085SOL    HW210155   6.936   4.441   2.851
 3086SOL     OW10156   4.445   1.614   1.657
 3086SOL    HW110157   4.355   1.657   1.651
 3086SOL    HW210158   4.466   1.595   1.753
 3087SOL     OW10159   0.225   4.805   3.888
 3087SOL    HW110160   0.133   4.843   3.887
 3087SOL    HW210161   0.240   4.754   3.972
 3088SOL     OW10162   2.924   5.214   5.592
 3088SOL    HW110163   2.996   5.255   5.536
 3088SOL    HW210164   2.952   5.122   5.618
 3089SOL     OW10165   1.378   2.846   0.145
 3089SOL    HW110166   1.397   2.878   0.238
 3089SOL    HW210167   1.370   2.924   0.083
 3090SOL     OW10168   1.766   1.794   1.593
 3090SOL    HW110169   1.865   1.801   1.609
 3090SOL    HW210170   1.719   1.786   1.681
 3091SOL     OW10171   2.730   6.544   0.571
 3091SOL    HW110172   2.747   6.447   0.552
 3091SOL    HW210173   2.772   6.600   0.499
 3092SOL     OW10174   5.225   0.104   0.067
 3092SOL    HW110175   5.224   0.010   0.099
 3092SOL    HW210176   5.219   0.166   0.145
 3093SOL     OW10177   5.629   5.261   5.609
 3093SOL    HW110178   5.609   5.333   5.675
 3093SOL    HW210179   5.598   5.290   5.518
 3094SOL     OW10180   3.446   0.096   4.979
 3094SOL    HW110181   3.542   0.106   5.006
 3094SOL    HW210182   3.420   7.019   4.985
 3095SOL     OW10183   2.581   4.702   4.305
 3095SOL    HW110184   2.488   4.684   4.335
 3095SOL    HW210185   2.593   4.669   4.211
 3096SOL     OW10186   0.484   0.442   4.278
 3096SOL    HW110187   0.516   0.444   4.373
 3096SOL    HW210188   0.386   0.422   4.276
 3097SOL     OW10189   0.788   2.473   0.410
 3097SOL    HW110190   0.812   2.377   0.423
 3097SOL    HW210191   0.690   2.481   0.394
 3098SOL     OW10192   2.134   3.512   1.479
 3098SOL    HW110193   2.169   3.606   1.481
 3098SOL    HW210194   2.210   3.449   1.462
 3099SOL     OW10195   0.346   5.904   5.170
 3099SOL    HW110196   0.348   5.961   5.088
 3099SOL    HW210197   0.373   5.959   5.249
 3100SOL     OW10198   6.803   0.257   4.425
 3100SOL    HW110199   6.828   0.161   4.429
 3100SOL    HW210200   6.707   0.268   4.452
 3101SOL     OW10201   4.500   6.338   5.337
 3101SOL    HW110202   4.417   6.393   5.336
 3101SOL    HW210203   4.578   6.394   5.310
 3102SOL     OW10204   1.179   4.958   1.990
 3102SOL    HW110205   1.153   5.039   1.937
 3102SOL    HW210206   1.278   4.948   1.989
 3103SOL     OW10207   3.442   1.757   1.392
 3103SOL    HW110208   3.473   1.707   1.473
 3103SOL    HW210209   3.388   1.836   1.420
 3104SOL     OW10210   5.923   6.291   4.054
 3104SOL    HW110211   5.868   6.247   3.982
 3104SOL    HW210212   5.895   6.387   4.062
 3105SOL     OW10213   6.133   5.654   3.675
 3105SOL    HW110214   6.153   5.742   3.717
 3105SOL    HW210215   6.145   5.659   3.576
 3106SOL     OW10216   6.979   1.767   2.671
 3106SOL    HW110217   7.002   1.837   2.604
 3106SOL    HW210218   6.885   1.781   2.703
 3107SOL     OW10219   3.513   0.346   4.346
 3107SOL    HW110220   3.582   0.409   4.380
 3107SOL    HW210221   3.543   0.252   4.364
 3108SOL     OW10222   1.763   0.832   4.548
 3108SOL    HW110223   1.802   0.912   4.593
 3108SOL    HW210224   1.703   0.783   4.611
 3109SOL     OW10225   5.865   5.880   2.877
 3109SOL    HW110226   5.956   5.915   2.899
 3109SOL    HW210227   5.829   5.928   2.798
 3110SOL     OW10228   0.830   1.782   4.066
 3110SOL    HW110229   0.753   1.829   4.022
 3110SOL    HW210230   0.817   1.683   4.058
 3111SOL     OW10231   6.135   5.292   4.244
 3111SOL    HW110232   6.216   5.319   4.193
 3111SOL    HW210233   6.054   5.331   4.200
 3112SOL     OW10234   5.066   2.412   5.930
 3112SOL    HW110235   5.106   2.490   5.883
 3112SOL    HW210236   5.043   2.437   6.024
 3113SOL     OW10237   2.081   0.260   4.350
 3113SOL    HW110238   2.173   0.254   4.389
 3113SOL    HW210239   2.088   0.281   4.252
 3114SOL     OW10240   5.102   3.431   6.855
 3114SOL    HW110241   5.005   3.419   6.833
 3114SOL    HW210242   5.153   3.452   6.772
 3115SOL     OW10243   4.494   3.587   0.460
 3115SOL    HW110244   4.563   3.655   0.482
 3115SOL    HW210245   4.489   3.519   0.533
 3116SOL     OW10246   0.176   3.403   6.839
 3116SOL    HW110247   0.194   3.441   6.748
 3116SOL    HW210248   0.099   3.452   6.881
 3117SOL     OW10249   4.537   3.859   5.350
 3117SOL    HW110250   4.446   3.885   5.320
 3117SOL    HW210251   4.551   3.762   5.334
 3118SOL     OW10252   6.684   4.361   6.398
 3118SOL    HW110253   6.593   4.353   6.356
 3118SOL    HW210254   6.691   4.447   6.447
 3119SOL     OW10255   1.922   3.752   5.455
 3119SOL    HW110256   1.929   3.727   5.359
 3119SOL    HW210257   1.934   3.851   5.465
 3120SOL     OW10258   2.315   6.184   4.732
 3120SOL    HW110259   2.270   6.106   4.690
 3120SOL    HW210260   2.246   6.245   4.771
 3121SOL     OW10261   0.515   1.401   2.415
 3121SOL    HW110262   0.601   1.407   2.466
 3121SOL    HW210263   0.446   1.354   2.469
 3122SOL     OW10264   3.582   5.871   6.098
 3122SOL    HW110265   3.501   5.887   6.155
 3122SOL    HW210266   3.665   5.883   6.153
 3123SOL     OW10267   3.358   6.543   3.761
 3123SOL    HW110268   3.419   6.464   3.756
 3123SOL    HW210269   3.389   6.613   3.697
 3124SOL     OW10270   3.767   0.676   5.232
 3124SOL    HW110271   3.830   0.610   5.273
 3124SOL    HW210272   3.780   0.678   5.133
 3125SOL     OW10273   6.143   2.079   6.301
 3125SOL    HW110274   6.148   2.144   6.225
 3125SOL    HW210275   6.161   2.126   6.387
 3126SOL     OW10276   5.080   4.930   6.513
 3126SOL    HW110277   5.108   4.983   6.593
 3126SOL    HW210278   4.981   4.938   6.501
 3127SOL     OW10279   0.698   2.341   2.985
 3127SOL    HW110280   0.634   2.340   2.908
 3127SOL    HW210281   0.791   2.351   2.951
 3128SOL     OW10282   1.383   0.447   0.513
 3128SOL    HW110283   1.392   0.537   0.471
 3128SOL    HW210284   1.326   0.389   0.456
 3129SOL     OW10285   0.609   4.604   6.304
 3129SOL    HW110286   0.693   4.612   6.358
 3129SOL    HW210287   0.532   4.588   6.365
 3130SOL     OW10288   2.520   4.513   2.376
 3130SOL    HW110289   2.578   4.566   2.315
 3130SOL    HW210290   2.534   4.542   2.471
 3131SOL     OW10291   1.171   2.813   2.891
 3131SOL    HW110292   1.203   2.740   2.953
 3131SOL    HW210293   1.087   2.853   2.928
 3132SOL     OW10294   5.365   6.429   5.164
 3132SOL    HW110295   5.441   6.441   5.228
 3132SOL    HW210296   5.341   6.332   5.159
 3133SOL     OW10297   2.519   2.122   4.107
 3133SOL    HW110298   2.438   2.130   4.050
 3133SOL    HW210299   2.491   2.112   4.203
 3134SOL     OW10300   5.284   3.726   1.876
 3134SOL    HW110301   5.251   3.733   1.782
 3134SOL    HW210302   5.240   3.796   1.932
 3135SOL     OW10303   4.118   1.898   4.776
 3135SOL    HW110304   4.109   1.874   4.679
 3135SOL    HW210305   4.143   1.995   4.783
 3136SOL     OW10306   5.996   6.710   5.617
 3136SOL    HW110307   6.081   6.700   5.566
 3136SOL    HW210308   5.938   6.779   5.574
 3137SOL     OW10309   5.292   1.103   3.743
 3137SOL    HW110310   5.386   1.074   3.758
 3137SOL    HW210311   5.246   1.037   3.683
 3138SOL     OW10312   6.139   1.885   4.422
 3138SOL    HW110313   6.065   1.943   4.456
 3138SOL    HW210314   6.175   1.923   4.337
 3139SOL     OW10315   5.102   6.915   6.668
 3139SOL    HW110316   5.032   6.973   6.709
 3139SOL    HW210317   5.174   6.897   6.735
 3140SOL     OW10318   6.727   6.076   6.354
 3140SOL    HW110319   6.658   6.049   6.286
 3140SOL    HW210320   6.683   6.083   6.443
 3141SOL     OW10321   0.908   6.463   6.436
 3141SOL    HW110322   0.859   6.448   6.522
 3141SOL    HW210323   1.007   6.465   6.454
 3142SOL     OW10324   5.060   6.173   0.070
 3142SOL    HW110325   5.123   6.233   0.020
 3142SOL    HW210326   4.994   6.227   0.120
 3143SOL     OW10327   6.837   2.389   6.608
 3143SOL    HW110328   6.847   2.482   6.571
 3143SOL    HW210329   6.888   2.325   6.551
 3144SOL     OW10330   2.353   3.261   1.000
 3144SOL    HW110331   2.288   3.189   0.976
 3144SOL    HW210332   2.446   3.228   0.988
 3145SOL     OW10333   2.599   5.679   2.720
 3145SOL    HW110334   2.582   5.726   2.633
 3145SOL    HW210335   2.692   5.643   2.721
 3146SOL     OW10336   1.451   6.062   3.142
 3146SOL    HW110337   1.502   6.142   3.112
 3146SOL    HW210338   1.431   6.070   3.240
 3147SOL     OW10339   4.118   5.351   6.927
 3147SOL    HW110340   4.207   5.394   6.913
 3147SOL    HW210341   4.045   5.416   6.902
 3148SOL     OW10342   4.351   5.534   4.106
 3148SOL    HW110343   4.324   5.452   4.056
 3148SOL    HW210344   4.378   5.509   4.199
 3149SOL     OW10345   3.175   0.341   5.564
 3149SOL    HW110346   3.212   0.413   5.624
 3149SOL    HW210347   3.075   0.342   5.570
 3150SOL     OW10348   5.332   6.006   4.357
 3150SOL    HW110349   5.364   6.037   4.268
 3150SOL    HW210350   5.340   6.080   4.423
 3151SOL     OW10351   4.668   1.390   6.496
 3151SOL    HW110352   4.688   1.298   6.529
 3151SOL    HW210353   4.630   1.384   6.403
 3152SOL     OW10354   0.919   5.292   1.645
 3152SOL    HW110355   0.942   5.204   1.604
 3152SOL    HW210356   0.834   5.326   1.606
 3153SOL     OW10357   6.305   4.307   1.900
 3153SOL    HW110358   6.224   4.267   1.942
 3153SOL    HW210359   6.386   4.254   1.926
 3154SOL     OW10360   6.336   2.236   0.225
 3154SOL    HW110361   6.364   2.215   0.131
 3154SOL    HW210362   6.418   2.249   0.282
 3155SOL     OW10363   0.470   4.943   1.799
 3155SOL    HW110364   0.559   4.987   1.811
 3155SOL    HW210365   0.481   4.844   1.798
 3156SOL     OW10366   4.021   3.783   3.843
 3156SOL    HW110367   4.071   3.746   3.765
 3156SOL    HW210368   4.048   3.734   3.926
 3157SOL     OW10369   1.722   2.928   4.488
 3157SOL    HW110370   1.627   2.960   4.491
 3157SOL    HW210371   1.784   3.006   4.491
 3158SOL     OW10372   4.831   0.324   1.512
 3158SOL    HW110373   4.771   0.404   1.520
 3158SOL    HW210374   4.825   0.288   1.419
 3159SOL     OW10375   5.060   6.237   6.648
 3159SOL    HW110376   5.008   6.322   6.643
 3159SOL    HW210377   5.019   6.177   6.717
 3160SOL     OW10378   6.078   4.480   6.228
 3160SOL    HW110379   6.000   4.418   6.227
 3160SOL    HW210380   6.148   4.447   6.164
 3161SOL     OW10381   1.655   1.263   3.008
 3161SOL    HW110382   1.747   1.241   3.041
 3161SOL    HW210383   1.620   1.186   2.954
 3162SOL     OW10384   6.978   5.430   0.310
 3162SOL    HW110385   7.003   5.517   0.351
 3162SOL    HW210386   6.940   5.370   0.380
 3163SOL     OW10387   3.786   2.913   6.266
 3163SOL    HW110388   3.784   3.009   6.238
 3163SOL    HW210389   3.719   2.862   6.213
 3164SOL     OW10390   4.842   4.053   1.438
 3164SOL    HW110391   4.827   4.138   1.489
 3164SOL    HW210392   4.931   4.056   1.393
 3165SOL     OW10393   1.000   6.572   2.055
 3165SOL    HW110394   1.046   6.638   1.996
 3165SOL    HW210395   0.912   6.548   2.016
 3166SOL     OW10396   5.008   3.132   6.100
 3166SOL    HW110397   4.917   3.174   6.104
 3166SOL    HW210398   5.074   3.191   6.147
 3167SOL     OW10399   6.643   4.631   1.799
 3167SOL    HW110400   6.633   4.718   1.752
 3167SOL    HW210401   6.554   4.586   1.806
 3168SOL     OW10402   5.095   2.967   0.853
 3168SOL    HW110403   5.082   2.912   0.771
 3168SOL    HW210404   5.173   2.932   0.905
 3169SOL     OW10405   0.858   3.616   6.045
 3169SOL    HW110406   0.798   3.585   5.971
 3169SOL    HW210407   0.932   3.551   6.058
 3170SOL     OW10408   4.073   0.507   0.118
 3170SOL    HW110409   4.157   0.480   0.165
 3170SOL    HW210410   4.056   0.445   0.042
 3171SOL     OW10411   6.230   0.064   1.539
 3171SOL    HW110412   6.315   0.103   1.576
 3171SOL    HW210413   6.207   0.110   1.454
 3172SOL     OW10414   6.642   6.506   5.023
 3172SOL    HW110415   6.571   6.460   4.969
 3172SOL    HW210416   6.636   6.475   5.118
 3173SOL     OW10417   2.222   0.575   2.426
 3173SOL    HW110418   2.246   0.495   2.371
 3173SOL    HW210419   2.165   0.547   2.503
 3174SOL     OW10420   2.839   3.157   6.242
 3174SOL    HW110421   2.818   3.059   6.249
 3174SOL    HW210422   2.792   3.196   6.163
 3175SOL     OW10423   0.890   6.172   6.764
 3175SOL    HW110424   0.946   6.127   6.695
 3175SOL    HW210425   0.908   6.270   6.763
 3176SOL     OW10426   1.664   4.387   6.035
 3176SOL    HW110427   1.644   4.413   5.941
 3176SOL    HW210428   1.733   4.314   6.035
 3177SOL     OW10429   5.874   4.871   6.037
 3177SOL    HW110430   5.780   4.853   6.009
 3177SOL    HW210431   5.874   4.939   6.111
 3178SOL     OW10432   0.310   3.940   1.926
 3178SOL    HW110433   0.285   3.852   1.967
 3178SOL    HW210434   0.376   3.925   1.853
 3179SOL     OW10435   2.012   2.199   1.898
 3179SOL    HW110436   2.065   2.237   1.822
 3179SOL    HW210437   2.071   2.190   1.978
 3180SOL     OW10438   4.554   0.770   5.320
 3180SOL    HW110439   4.608   0.693   5.287
 3180SOL    HW210440   4.460   0.761   5.287
 3181SOL     OW10441   0.981   0.952   3.718
 3181SOL    HW110442   1.021   0.915   3.802
 3181SOL    HW210443   1.022   0.906   3.639
 3182SOL     OW10444   0.394   0.254   5.634
 3182SOL    HW110445   0.338   0.183   5.592
 3182SOL    HW210446   0.489   0.222   5.641
 3183SOL     OW10447   4.106   4.835   1.587
 3183SOL    HW110448   4.172   4.762   1.571
 3183SOL    HW210449   4.036   4.803   1.651
 3184SOL     OW10450   2.314   1.684   2.283
 3184SOL    HW110451   2.336   1.606   2.341
 3184SOL    HW210452   2.328   1.769   2.333
 3185SOL     OW10453   0.172   0.094   5.492
 3185SOL    HW110454   0.144   0.045   5.575
 3185SOL    HW210455   0.149   0.191   5.500
 3186SOL     OW10456   3.487   1.111   2.829
 3186SOL    HW110457   3.435   1.186   2.870
 3186SOL    HW210458   3.447   1.087   2.741
 3187SOL     OW10459   3.909   4.128   0.128
 3187SOL    HW110460   3.849   4.133   0.048
 3187SOL    HW210461   3.997   4.091   0.101
 3188SOL     OW10462   3.377   5.763   2.958
 3188SOL    HW110463   3.452   5.827   2.975
 3188SOL    HW210464   3.364   5.754   2.859
 3189SOL     OW10465   1.353   0.890   3.124
 3189SOL    HW110466   1.389   0.846   3.042
 3189SOL    HW210467   1.370   0.832   3.203
 3190SOL     OW10468   1.734   6.352   1.573
 3190SOL    HW110469   1.725   6.266   1.522
 3190SOL    HW210470   1.732   6.429   1.510
 3191SOL     OW10471   3.725   0.469   1.197
 3191SOL    HW110472   3.688   0.408   1.127
 3191SOL    HW210473   3.649   0.517   1.241
 3192SOL     OW10474   0.973   1.744   0.888
 3192SOL    HW110475   0.982   1.833   0.932
 3192SOL    HW210476   0.884   1.739   0.841
 3193SOL     OW10477   4.468   2.405   6.440
 3193SOL    HW110478   4.501   2.329   6.385
 3193SOL    HW210479   4.390   2.375   6.496
 3194SOL     OW10480   1.437   3.512   6.683
 3194SOL    HW110481   1.531   3.514   6.717
 3194SOL    HW210482   1.399   3.605   6.686
 3195SOL     OW10483   1.667   2.637   3.283
 3195SOL    HW110484   1.678   2.672   3.190
 3195SOL    HW210485   1.675   2.712   3.348
 3196SOL     OW10486   0.329   0.209   4.545
 3196SOL    HW110487   0.275   0.133   4.581
 3196SOL    HW210488   0.300   0.294   4.589
 3197SOL     OW10489   1.127   5.844   3.355
 3197SOL    HW110490   1.209   5.793   3.329
 3197SOL    HW210491   1.148   5.904   3.432
 3198SOL     OW10492   6.888   1.953   6.058
 3198SOL    HW110493   6.842   1.864   6.065
 3198SOL    HW210494   6.836   2.012   5.997
 3199SOL     OW10495   4.776   1.811   2.116
 3199SOL    HW110496   4.689   1.858   2.103
 3199SOL    HW210497   4.799   1.758   2.034
 3200SOL     OW10498   0.225   2.546   0.721
 3200SOL    HW110499   0.186   2.454   0.719
 3200SOL    HW210500   0.163   2.608   0.770
 3201SOL     OW10501   5.189   3.837   3.905
 3201SOL    HW110502   5.163   3.846   3.809
 3201SOL    HW210503   5.288   3.837   3.914
 3202SOL     OW10504   1.993   4.645   2.300
 3202SOL    HW110505   2.021   4.715   2.366
 3202SOL    HW210506   1.895   4.627   2.311
 3203SOL     OW10507   6.556   0.860   1.174
 3203SOL    HW110508   6.627   0.790   1.164
 3203SOL    HW210509   6.507   0.870   1.087
 3204SOL     OW10510   6.437   5.612   1.547
 3204SOL    HW110511   6.476   5.551   1.478
 3204SOL    HW210512   6.496   5.614   1.627
 3205SOL     OW10513   6.476   3.633   6.056
 3205SOL    HW110514   6.535   3.707   6.023
 3205SOL    HW210515   6.381   3.655   6.036
 3206SOL     OW10516   0.134   6.655   5.780
 3206SOL    HW110517   0.157   6.670   5.876
 3206SOL    HW210518   0.067   6.725   5.752
 3207SOL     OW10519   0.967   1.193   5.181
 3207SOL    HW110520   0.871   1.200   5.205
 3207SOL    HW210521   0.977   1.202   5.082
 3208SOL     OW10522   4.606   5.669   4.884
 3208SOL    HW110523   4.646   5.588   4.841
 3208SOL    HW210524   4.506   5.660   4.885
 3209SOL     OW10525   2.999   6.843   4.164
 3209SOL    HW110526   2.926   6.784   4.199
 3209SOL    HW210527   3.080   6.788   4.145
 3210SOL     OW10528   6.650   3.661   2.242
 3210SOL    HW110529   6.726   3.712   2.282
 3210SOL    HW210530   6.578   3.650   2.311
 3211SOL     OW10531   2.125   4.574   1.164
 3211SOL    HW110532   2.123   4.641   1.238
 3211SOL    HW210533   2.083   4.489   1.195
 3212SOL     OW10534   4.540   2.599   6.691
 3212SOL    HW110535   4.516   2.686   6.648
 3212SOL    HW210536   4.575   2.536   6.621
 3213SOL     OW10537   5.648   5.615   3.375
 3213SOL    HW110538   5.710   5.621   3.297
 3213SOL    HW210539   5.698   5.634   3.459
 3214SOL     OW10540   4.197   6.358   6.789
 3214SOL    HW110541   4.103   6.336   6.765
 3214SOL    HW210542   4.204   6.455   6.814
 3215SOL     OW10543   6.678   2.394   0.097
 3215SOL    HW110544   6.708   2.375   0.003
 3215SOL    HW210545   6.684   2.493   0.114
 3216SOL     OW10546   5.703   6.449   3.737
 3216SOL    HW110547   5.754   6.527   3.773
 3216SOL    HW210548   5.646   6.480   3.661
 3217SOL     OW10549   0.585   4.563   2.659
 3217SOL    HW110550   0.659   4.552   2.724
 3217SOL    HW210551   0.527   4.640   2.687
 3218SOL     OW10552   3.486   6.733   3.065
 3218SOL    HW110553   3.412   6.752   3.130
 3218SOL    HW210554   3.449   6.720   2.974
 3219SOL     OW10555   0.279   0.184   2.988
 3219SOL    HW110556   0.343   0.256   2.959
 3219SOL    HW210557   0.226   0.153   2.909
 3220SOL     OW10558   0.089   4.594   4.975
 3220SOL    HW110559   0.051   4.583   4.884
 3220SOL    HW210560   0.119   4.505   5.010
 3221SOL     OW10561   2.341   6.381   3.634
 3221SOL    HW110562   2.387   6.467   3.615
 3221SOL    HW210563   2.287   6.390   3.718
 3222SOL     OW10564   5.212   1.797   3.099
 3222SOL    HW110565   5.255   1.769   3.013
 3222SOL    HW210566   5.136   1.858   3.080
 3223SOL     OW10567   2.666   5.173   5.894
 3223SOL    HW110568   2.646   5.235   5.970
 3223SOL    HW210569   2.724   5.220   5.828
 3224SOL     OW10570   4.452   5.796   6.712
 3224SOL    HW110571   4.403   5.712   6.692
 3224SOL    HW210572   4.539   5.796   6.661
 3225SOL     OW10573   3.881   3.215   0.435
 3225SOL    HW110574   3.972   3.188   0.404
 3225SOL    HW210575   3.831   3.135   0.466
 3226SOL     OW10576   2.134   0.824   4.110
 3226SOL    HW110577   2.139   0.734   4.155
 3226SOL    HW210578   2.112   0.894   4.179
 3227SOL     OW10579   3.718   1.649   5.609
 3227SOL    HW110580   3.750   1.618   5.519
 3227SOL    HW210581   3.678   1.571   5.658
 3228SOL     OW10582   6.084   3.073   3.941
 3228SOL    HW110583   6.016   3.125   3.890
 3228SOL    HW210584   6.167   3.129   3.951
 3229SOL     OW10585   3.780   2.190   5.716
 3229SOL    HW110586   3.725   2.109   5.697
 3229SOL    HW210587   3.721   2.267   5.740
 3230SOL     OW10588   0.284   0.914   2.962
 3230SOL    HW110589   0.341   0.863   2.898
 3230SOL    HW210590   0.227   0.979   2.912
 3231SOL     OW10591   4.533   5.646   1.325
 3231SOL    HW110592   4.482   5.730   1.345
 3231SOL    HW210593   4.523   5.623   1.228
 3232SOL     OW10594   3.374   5.281   4.542
 3232SOL    HW110595   3.391   5.247   4.634
 3232SOL    HW210596   3.379   5.205   4.477
 3233SOL     OW10597   0.538   3.737   1.062
 3233SOL    HW110598   0.447   3.706   1.032
 3233SOL    HW210599   0.529   3.782   1.151
 3234SOL     OW10600   0.003   2.122   0.109
 3234SOL    HW110601   0.062   2.203   0.104
 3234SOL    HW210602   6.982   2.105   0.019
 3235SOL     OW10603   5.854   0.026   2.981
 3235SOL    HW110604   5.902   0.051   3.065
 3235SOL    HW210605   5.762   7.013   3.004
 3236SOL     OW10606   1.179   2.714   2.551
 3236SOL    HW110607   1.258   2.756   2.506
 3236SOL    HW210608   1.207   2.676   2.640
 3237SOL     OW10609   4.061   6.416   4.784
 3237SOL    HW110610   4.059   6.489   4.853
 3237SOL    HW210611   3.972   6.371   4.781
 3238SOL     OW10612   0.312   5.418   6.479
 3238SOL    HW110613   0.365   5.365   6.545
 3238SOL    HW210614   0.255   5.357   6.424
 3239SOL     OW10615   6.230   0.653   5.963
 3239SOL    HW110616   6.305   0.623   5.903
 3239SOL    HW210617   6.143   0.624   5.924
 3240SOL     OW10618   0.908   0.161   4.876
 3240SOL    HW110619   0.915   0.063   4.897
 3240SOL    HW210620   0.999   0.201   4.876
 3241SOL     OW10621   4.881   1.273   3.700
 3241SOL    HW110622   4.836   1.292   3.612
 3241SOL    HW210623   4.857   1.181   3.731
 3242SOL     OW10624   3.742   5.986   6.314
 3242SOL    HW110625   3.839   5.971   6.335
 3242SOL    HW210626   3.728   6.083   6.294
 3243SOL     OW10627   4.370   5.472   0.038
 3243SOL    HW110628   4.355   5.564   0.001
 3243SOL    HW210629   4.456   5.435   0.003
 3244SOL     OW10630   4.154   5.912   5.851
 3244SOL    HW110631   4.147   5.991   5.789
 3244SOL    HW210632   4.248   5.905   5.885
 3245SOL     OW10633   4.129   3.394   6.320
 3245SOL    HW110634   4.139   3.385   6.221
 3245SOL    HW210635   4.150   3.306   6.364
 3246SOL     OW10636   5.613   6.551   2.732
 3246SOL    HW110637   5.542   6.621   2.718
 3246SOL    HW210638   5.694   6.593   2.773
 3247SOL     OW10639   0.012   3.333   3.984
 3247SOL    HW110640   0.049   3.256   3.933
 3247SOL    HW210641   6.991   3.301   4.069
 3248SOL     OW10642   5.974   3.018   2.011
 3248SOL    HW110643   6.041   2.952   1.977
 3248SOL    HW210644   5.903   3.031   1.943
 3249SOL     OW10645   3.169   4.939   4.743
 3249SOL    HW110646   3.118   4.900   4.666
 3249SOL    HW210647   3.135   4.900   4.828
 3250SOL     OW10648   4.780   6.688   2.442
 3250SOL    HW110649   4.682   6.683   2.463
 3250SOL    HW210650   4.804   6.614   2.380
 3251SOL     OW10651   3.786   2.014   2.832
 3251SOL    HW110652   3.820   2.084   2.895
 3251SOL    HW210653   3.792   1.924   2.875
 3252SOL     OW10654   3.153   1.140   2.867
 3252SOL    HW110655   3.128   1.237   2.874
 3252SOL    HW210656   3.191   1.109   2.954
 3253SOL     OW10657   5.062   2.900   1.602
 3253SOL    HW110658   5.111   2.974   1.554
 3253SOL    HW210659   4.982   2.938   1.649
 3254SOL     OW10660   4.227   4.716   3.466
 3254SOL    HW110661   4.245   4.806   3.506
 3254SOL    HW210662   4.185   4.727   3.376
 3255SOL     OW10663   4.495   5.882   0.139
 3255SOL    HW110664   4.588   5.888   0.176
 3255SOL    HW210665   4.468   5.971   0.102
 3256SOL     OW10666   5.042   6.556   5.746
 3256SOL    HW110667   5.128   6.549   5.797
 3256SOL    HW210668   4.969   6.509   5.797
 3257SOL     OW10669   1.836   1.797   1.129
 3257SOL    HW110670   1.753   1.742   1.137
 3257SOL    HW210671   1.914   1.738   1.108
 3258SOL     OW10672   4.880   6.630   1.572
 3258SOL    HW110673   4.929   6.557   1.619
 3258SOL    HW210674   4.946   6.693   1.530
 3259SOL     OW10675   4.198   5.933   4.318
 3259SOL    HW110676   4.249   5.885   4.246
 3259SOL    HW210677   4.107   5.893   4.326
 3260SOL     OW10678   1.719   1.543   6.863
 3260SOL    HW110679   1.772   1.481   6.922
 3260SOL    HW210680   1.698   1.627   6.913
 3261SOL     OW10681   4.355   6.806   1.186
 3261SOL    HW110682   4.440   6.805   1.238
 3261SOL    HW210683   4.328   6.713   1.163
 3262SOL     OW10684   3.413   1.673   3.181
 3262SOL    HW110685   3.379   1.686   3.087
 3262SOL    HW210686   3.394   1.755   3.235
 3263SOL     OW10687   4.247   6.777   1.860
 3263SOL    HW110688   4.221   6.717   1.784
 3263SOL    HW210689   4.343   6.805   1.849
 3264SOL     OW10690   0.097   5.242   0.200
 3264SOL    HW110691   0.047   5.304   0.259
 3264SOL    HW210692   0.034   5.180   0.154
 3265SOL     OW10693   4.454   1.668   6.466
 3265SOL    HW110694   4.509   1.644   6.546
 3265SOL    HW210695   4.479   1.608   6.390
 3266SOL     OW10696   0.411   2.586   6.256
 3266SOL    HW110697   0.380   2.591   6.161
 3266SOL    HW210698   0.505   2.551   6.258
 3267SOL     OW10699   3.380   1.992   1.136
 3267SOL    HW110700   3.445   2.066   1.153
 3267SOL    HW210701   3.428   1.905   1.136
 3268SOL     OW10702   0.644   4.233   0.265
 3268SOL    HW110703   0.646   4.300   0.340
 3268SOL    HW210704   0.587   4.156   0.292
 3269SOL     OW10705   4.146   4.424   1.164
 3269SOL    HW110706   4.112   4.330   1.171
 3269SOL    HW210707   4.089   4.476   1.100
 3270SOL     OW10708   0.725   5.362   3.970
 3270SOL    HW110709   0.795   5.401   4.029
 3270SOL    HW210710   0.664   5.303   4.023
 3271SOL     OW10711   6.476   2.660   1.419
 3271SOL    HW110712   6.556   2.703   1.461
 3271SOL    HW210713   6.446   2.716   1.341
 3272SOL     OW10714   3.918   0.694   0.570
 3272SOL    HW110715   3.919   0.769   0.637
 3272SOL    HW210716   3.838   0.704   0.511
 3273SOL     OW10717   0.679   6.443   2.298
 3273SOL    HW110718   0.631   6.467   2.213
 3273SOL    HW210719   0.762   6.393   2.276
 3274SOL     OW10720   2.697   2.017   5.682
 3274SOL    HW110721   2.600   2.009   5.659
 3274SOL    HW210722   2.715   2.109   5.716
 3275SOL     OW10723   2.116   0.451   6.918
 3275SOL    HW110724   2.093   0.504   7.000
 3275SOL    HW210725   2.133   0.514   6.842
 3276SOL     OW10726   3.197   5.824   6.412
 3276SOL    HW110727   3.210   5.865   6.503
 3276SOL    HW210728   3.102   5.838   6.383
 3277SOL     OW10729   6.888   6.447   5.904
 3277SOL    HW110730   6.881   6.418   5.809
 3277SOL    HW210731   6.971   6.410   5.945
 3278SOL     OW10732   1.452   0.869   5.427
 3278SOL    HW110733   1.544   0.834   5.444
 3278SOL    HW210734   1.432   0.941   5.493
 3279SOL     OW10735   0.183   6.796   0.835
 3279SOL    HW110736   0.137   6.707   0.843
 3279SOL    HW210737   0.177   6.828   0.741
 3280SOL     OW10738   2.012   5.383   6.273
 3280SOL    HW110739   1.932   5.387   6.213
 3280SOL    HW210740   2.009   5.300   6.327
 3281SOL     OW10741   2.394   5.476   0.161
 3281SOL    HW110742   2.382   5.575   0.172
 3281SOL    HW210743   2.345   5.445   0.080
 3282SOL     OW10744   2.634   5.390   4.172
 3282SOL    HW110745   2.548   5.427   4.135
 3282SOL    HW210746   2.695   5.465   4.195
 3283SOL     OW10747   2.924   0.949   3.530
 3283SOL    HW110748   2.999   0.886   3.550
 3283SOL    HW210749   2.952   1.042   3.553
 3284SOL     OW10750   6.730   5.625   6.946
 3284SOL    HW110751   6.689   5.588   6.862
 3284SOL    HW210752   6.735   5.724   6.940
 3285SOL     OW10753   0.451   2.080   3.001
 3285SOL    HW110754   0.386   2.153   3.022
 3285SOL    HW210755   0.417   1.994   3.037
 3286SOL     OW10756   3.384   3.752   4.934
 3286SOL    HW110757   3.404   3.843   4.897
 3286SOL    HW210758   3.444   3.733   5.011
 3287SOL     OW10759   2.020   5.330   0.246
 3287SOL    HW110760   2.064   5.246   0.213
 3287SOL    HW210761   1.927   5.309   0.276
 3288SOL     OW10762   0.765   5.893   6.209
 3288SOL    HW110763   0.800   5.953   6.282
 3288SOL    HW210764   0.668   5.914   6.194
 3289SOL     OW10765   0.629   6.303   5.224
 3289SOL    HW110766   0.529   6.302   5.215
 3289SOL    HW210767   0.666   6.216   5.192
 3290SOL     OW10768   0.081   5.684   1.992
 3290SOL    HW110769   0.026   5.744   1.934
 3290SOL    HW210770   0.094   5.596   1.947
 3291SOL     OW10771   1.502   6.156   6.822
 3291SOL    HW110772   1.408   6.139   6.792
 3291SOL    HW210773   1.510   6.249   6.856
 3292SOL     OW10774   6.581   0.067   6.273
 3292SOL    HW110775   6.570   0.112   6.185
 3292SOL    HW210776   6.581   0.136   6.346
 3293SOL     OW10777   6.918   1.198   2.957
 3293SOL    HW110778   6.841   1.156   2.910
 3293SOL    HW210779   6.945   1.281   2.909
 3294SOL     OW10780   6.773   0.555   6.021
 3294SOL    HW110781   6.767   0.586   5.926
 3294SOL    HW210782   6.707   0.605   6.078
 3295SOL     OW10783   2.203   3.062   0.889
 3295SOL    HW110784   2.186   3.119   0.808
 3295SOL    HW210785   2.140   2.983   0.887
 3296SOL     OW10786   2.199   6.513   2.526
 3296SOL    HW110787   2.229   6.574   2.600
 3296SOL    HW210788   2.102   6.531   2.505
 3297SOL     OW10789   3.102   2.409   5.769
 3297SOL    HW110790   3.026   2.406   5.705
 3297SOL    HW210791   3.178   2.460   5.729
 3298SOL     OW10792   6.800   3.251   2.751
 3298SOL    HW110793   6.718   3.259   2.694
 3298SOL    HW210794   6.780   3.279   2.844
 3299SOL     OW10795   1.453   0.170   4.890
 3299SOL    HW110796   1.406   0.203   4.808
 3299SOL    HW210797   1.494   0.247   4.939
 3300SOL     OW10798   6.189   6.683   4.721
 3300SOL    HW110799   6.216   6.647   4.811
 3300SOL    HW210800   6.202   6.612   4.652
 3301SOL     OW10801   0.082   3.302   3.217
 3301SOL    HW110802   7.016   3.339   3.180
 3301SOL    HW210803   0.061   3.240   3.293
 3302SOL     OW10804   1.360   4.827   3.655
 3302SOL    HW110805   1.309   4.911   3.639
 3302SOL    HW210806   1.454   4.839   3.624
 3303SOL     OW10807   4.073   3.623   4.036
 3303SOL    HW110808   4.142   3.604   4.106
 3303SOL    HW210809   4.075   3.551   3.967
 3304SOL     OW10810   0.529   6.386   4.061
 3304SOL    HW110811   0.570   6.477   4.046
 3304SOL    HW210812   0.533   6.363   4.158
 3305SOL     OW10813   1.983   0.860   1.888
 3305SOL    HW110814   1.900   0.811   1.861
 3305SOL    HW210815   1.976   0.955   1.859
 3306SOL     OW10816   1.996   3.879   3.434
 3306SOL    HW110817   2.059   3.916   3.366
 3306SOL    HW210818   2.043   3.873   3.522
 3307SOL     OW10819   6.220   6.167   0.785
 3307SOL    HW110820   6.303   6.159   0.731
 3307SOL    HW210821   6.142   6.134   0.731
 3308SOL     OW10822   4.720   5.879   0.714
 3308SOL    HW110823   4.673   5.952   0.665
 3308SOL    HW210824   4.782   5.831   0.652
 3309SOL     OW10825   0.922   4.857   3.321
 3309SOL    HW110826   1.001   4.837   3.380
 3309SOL    HW210827   0.842   4.808   3.354
 3310SOL     OW10828   0.471   4.799   2.725
 3310SOL    HW110829   0.374   4.822   2.717
 3310SOL    HW210830   0.524   4.862   2.669
 3311SOL     OW10831   4.200   0.017   1.159
 3311SOL    HW110832   4.138   0.034   1.236
 3311SOL    HW210833   4.245   6.948   1.172
 3312SOL     OW10834   3.497   3.689   6.072
 3312SOL    HW110835   3.571   3.684   6.138
 3312SOL    HW210836   3.409   3.674   6.119
 3313SOL     OW10837   0.625   4.879   3.517
 3313SOL    HW110838   0.546   4.888   3.458
 3313SOL    HW210839   0.634   4.961   3.574
 3314SOL     OW10840   1.777   3.190   5.206
 3314SOL    HW110841   1.844   3.183   5.133
 3314SOL    HW210842   1.819   3.164   5.293
 3315SOL     OW10843   6.860   2.056   3.733
 3315SOL    HW110844   6.814   1.998   3.799
 3315SOL    HW210845   6.817   2.045   3.643
 3316SOL     OW10846   4.685   2.342   6.246
 3316SOL    HW110847   4.588   2.331   6.227
 3316SOL    HW210848   4.738   2.321   6.164
 3317SOL     OW10849   4.327   2.699   1.591
 3317SOL    HW110850   4.282   2.710   1.502
 3317SOL    HW210851   4.426   2.696   1.577
 3318SOL     OW10852   2.623   5.848   5.105
 3318SOL    HW110853   2.654   5.928   5.053
 3318SOL    HW210854   2.644   5.862   5.202
 3319SOL     OW10855   0.821   6.252   4.464
 3319SOL    HW110856   0.752   6.198   4.415
 3319SOL    HW210857   0.795   6.348   4.463
 3320SOL     OW10858   5.839   0.854   5.504
 3320SOL    HW110859   5.842   0.952   5.520
 3320SOL    HW210860   5.928   0.824   5.468
 3321SOL     OW10861   3.172   2.981   3.294
 3321SOL    HW110862   3.108   3.024   3.357
 3321SOL    HW210863   3.174   3.032   3.208
 3322SOL     OW10864   3.956   2.268   0.868
 3322SOL    HW110865   3.907   2.354   0.856
 3322SOL    HW210866   3.893   2.198   0.903
 3323SOL     OW10867   2.179   4.863   0.268
 3323SOL    HW110868   2.219   4.782   0.225
 3323SOL    HW210869   2.201   4.863   0.365
 3324SOL     OW10870   1.204   3.243   0.288
 3324SOL    HW110871   1.126   3.256   0.349
 3324SOL    HW210872   1.187   3.291   0.201
 3325SOL     OW10873   1.572   2.690   0.682
 3325SOL    HW110874   1.519   2.692   0.597
 3325SOL    HW210875   1.591   2.784   0.711
 3326SOL     OW10876   6.582   1.807   0.867
 3326SOL    HW110877   6.593   1.816   0.768
 3326SOL    HW210878   6.485   1.804   0.889
 3327SOL     OW10879   3.109   6.468   1.998
 3327SOL    HW110880   3.085   6.454   2.094
 3327SOL    HW210881   3.050   6.538   1.958
 3328SOL     OW10882   5.053   1.310   2.335
 3328SOL    HW110883   5.075   1.337   2.428
 3328SOL    HW210884   5.125   1.340   2.273
 3329SOL     OW10885   4.187   0.671   4.980
 3329SOL    HW110886   4.098   0.636   4.949
 3329SOL    HW210887   4.255   0.598   4.975
 3330SOL     OW10888   5.756   6.595   2.240
 3330SOL    HW110889   5.792   6.627   2.152
 3330SOL    HW210890   5.799   6.509   2.264
 3331SOL     OW10891   2.116   3.445   3.160
 3331SOL    HW110892   2.185   3.373   3.171
 3331SOL    HW210893   2.112   3.473   3.064
 3332SOL     OW10894   4.324   5.358   0.286
 3332SOL    HW110895   4.398   5.307   0.330
 3332SOL    HW210896   4.353   5.387   0.195
 3333SOL     OW10897   3.591   3.602   2.059
 3333SOL    HW110898   3.618   3.697   2.046
 3333SOL    HW210899   3.503   3.598   2.106
 3334SOL     OW10900   1.611   2.244   2.679
 3334SOL    HW110901   1.707   2.224   2.699
 3334SOL    HW210902   1.571   2.167   2.629
 3335SOL     OW10903   3.791   4.380   5.220
 3335SOL    HW110904   3.746   4.448   5.277
 3335SOL    HW210905   3.774   4.400   5.123
 3336SOL     OW10906   3.980   6.970   3.827
 3336SOL    HW110907   3.981   6.893   3.763
 3336SOL    HW210908   3.886   6.999   3.842
 3337SOL     OW10909   3.258   4.053   2.905
 3337SOL    HW110910   3.282   4.085   2.997
 3337SOL    HW210911   3.169   4.091   2.879
 3338SOL     OW10912   2.199   1.301   1.414
 3338SOL    HW110913   2.167   1.223   1.362
 3338SOL    HW210914   2.229   1.271   1.505
 3339SOL     OW10915   2.341   0.569   5.874
 3339SOL    HW110916   2.271   0.529   5.933
 3339SOL    HW210917   2.321   0.666   5.859
 3340SOL     OW10918   4.008   1.349   4.106
 3340SOL    HW110919   3.915   1.319   4.128
 3340SOL    HW210920   4.073   1.299   4.162
 3341SOL     OW10921   2.381   5.008   2.738
 3341SOL    HW110922   2.399   4.928   2.682
 3341SOL    HW210923   2.410   5.091   2.689
 3342SOL     OW10924   6.431   0.072   2.779
 3342SOL    HW110925   6.424   7.010   2.722
 3342SOL    HW210926   6.342   0.118   2.783
 3343SOL     OW10927   4.920   5.345   6.505
 3343SOL    HW110928   4.904   5.424   6.446
 3343SOL    HW210929   4.976   5.279   6.456
 3344SOL     OW10930   0.067   3.081   1.418
 3344SOL    HW110931   0.007   3.059   1.495
 3344SOL    HW210932   0.144   3.136   1.451
 3345SOL     OW10933   0.334   4.550   0.889
 3345SOL    HW110934   0.256   4.607   0.865
 3345SOL    HW210935   0.386   4.593   0.962
 3346SOL     OW10936   1.939   1.047   6.902
 3346SOL    HW110937   1.957   0.966   6.846
 3346SOL    HW210938   1.950   1.024   6.999
 3347SOL     OW10939   0.843   3.208   6.415
 3347SOL    HW110940   0.905   3.172   6.484
 3347SOL    HW210941   0.758   3.156   6.415
 3348SOL     OW10942   3.936   4.182   5.971
 3348SOL    HW110943   3.951   4.231   6.056
 3348SOL    HW210944   3.941   4.246   5.894
 3349SOL     OW10945   2.821   4.718   3.555
 3349SOL    HW110946   2.881   4.680   3.486
 3349SOL    HW210947   2.726   4.699   3.532
 3350SOL     OW10948   0.009   4.113   5.583
 3350SOL    HW110949   0.059   4.126   5.497
 3350SOL    HW210950   0.051   4.168   5.655
 3351SOL     OW10951   5.078   0.774   0.713
 3351SOL    HW110952   5.087   0.674   0.716
 3351SOL    HW210953   5.009   0.803   0.779
 3352SOL     OW10954   5.506   3.016   6.269
 3352SOL    HW110955   5.521   3.111   6.242
 3352SOL    HW210956   5.410   3.002   6.294
 3353SOL     OW10957   2.433   1.153   1.884
 3353SOL    HW110958   2.477   1.081   1.829
 3353SOL    HW210959   2.334   1.139   1.883
 3354SOL     OW10960   3.727   2.886   5.892
 3354SOL    HW110961   3.692   2.899   5.799
 3354SOL    HW210962   3.661   2.923   5.957
 3355SOL     OW10963   1.814   0.683   4.900
 3355SOL    HW110964   1.751   0.692   4.823
 3355SOL    HW210965   1.887   0.750   4.891
 3356SOL     OW10966   1.733   6.671   5.236
 3356SOL    HW110967   1.709   6.761   5.199
 3356SOL    HW210968   1.712   6.601   5.168
 3357SOL     OW10969   3.375   3.222   1.760
 3357SOL    HW110970   3.406   3.315   1.742
 3357SOL    HW210971   3.404   3.193   1.851
 3358SOL     OW10972   6.389   0.657   2.929
 3358SOL    HW110973   6.290   0.654   2.947
 3358SOL    HW210974   6.418   0.752   2.916
 3359SOL     OW10975   6.826   5.728   4.149
 3359SOL    HW110976   6.795   5.665   4.078
 3359SOL    HW210977   6.904   5.781   4.115
 3360SOL     OW10978   0.095   2.850   5.513
 3360SOL    HW110979   0.062   2.821   5.603
 3360SOL    HW210980   0.124   2.945   5.517
 3361SOL     OW10981   0.456   1.017   4.869
 3361SOL    HW110982   0.533   1.073   4.900
 3361SOL    HW210983   0.491   0.941   4.815
 3362SOL     OW10984   3.473   1.701   3.998
 3362SOL    HW110985   3.423   1.676   4.080
 3362SOL    HW210986   3.475   1.800   3.988
 3363SOL     OW10987   5.948   3.377   1.355
 3363SOL    HW110988   5.857   3.345   1.382
 3363SOL    HW210989   6.004   3.298   1.328
 3364SOL     OW10990   2.275   4.372   3.165
 3364SOL    HW110991   2.225   4.403   3.246
 3364SOL    HW210992   2.353   4.432   3.149
 3365SOL     OW10993   1.925   3.124   4.514
 3365SOL    HW110994   1.881   3.213   4.503
 3365SOL    HW210995   1.989   3.127   4.591
 3366SOL     OW10996   6.208   3.706   4.305
 3366SOL    HW110997   6.264   3.690   4.225
 3366SOL    HW210998   6.259   3.682   4.388
 3367SOL     OW10999   3.754   3.402   4.517
 3367SOL    HW111000   3.846   3.409   4.555
 3367SOL    HW211001   3.723   3.492   4.488
 3368SOL     OW11002   1.680   5.846   0.164
 3368SOL    HW111003   1.696   5.747   0.160
 3368SOL    HW211004   1.711   5.881   0.253
 3369SOL     OW11005   4.494   2.450   1.269
 3369SOL    HW111006   4.470   2.408   1.357
 3369SOL    HW211007   4.581   2.414   1.237
 3370SOL     OW11008   0.382   5.776   1.722
 3370SOL    HW111009   0.392   5.676   1.722
 3370SOL    HW211010   0.471   5.818   1.740
 3371SOL     OW11011   2.274   2.907   3.225
 3371SOL    HW111012   2.207   2.848   3.180
 3371SOL    HW211013   2.276   2.996   3.179
 3372SOL     OW11014   6.630   3.302   1.234
 3372SOL    HW111015   6.558   3.255   1.182
 3372SOL    HW211016   6.625   3.274   1.330
 3373SOL     OW11017   0.387   2.386   1.574
 3373SOL    HW111018   0.348   2.446   1.504
 3373SOL    HW211019   0.314   2.348   1.630
 3374SOL     OW11020   0.820   0.656   3.327
 3374SOL    HW111021   0.730   0.685   3.359
 3374SOL    HW211022   0.889   0.721   3.360
 3375SOL     OW11023   6.934   4.838   6.672
 3375SOL    HW111024   6.994   4.758   6.664
 3375SOL    HW211025   6.976   4.905   6.733
 3376SOL     OW11026   2.567   3.564   5.602
 3376SOL    HW111027   2.615   3.622   5.536
 3376SOL    HW211028   2.567   3.608   5.691
 3377SOL     OW11029   5.663   4.239   2.956
 3377SOL    HW111030   5.585   4.206   3.009
 3377SOL    HW211031   5.656   4.339   2.945
 3378SOL     OW11032   1.522   6.416   6.879
 3378SOL    HW111033   1.552   6.428   6.974
 3378SOL    HW211034   1.467   6.495   6.851
 3379SOL     OW11035   0.385   4.038   3.798
 3379SOL    HW111036   0.432   4.004   3.879
 3379SOL    HW211037   0.451   4.079   3.735
 3380SOL     OW11038   3.649   4.484   6.104
 3380SOL    HW111039   3.641   4.570   6.054
 3380SOL    HW211040   3.638   4.407   6.040
 3381SOL     OW11041   1.424   3.283   1.599
 3381SOL    HW111042   1.347   3.311   1.541
 3381SOL    HW211043   1.485   3.361   1.611
 3382SOL     OW11044   6.837   2.349   0.712
 3382SOL    HW111045   6.779   2.351   0.631
 3382SOL    HW211046   6.843   2.441   0.752
 3383SOL     OW11047   4.823   5.269   0.017
 3383SOL    HW111048   4.879   5.338   0.062
 3383SOL    HW211049   4.810   5.191   0.078
 3384SOL     OW11050   2.678   4.298   0.857
 3384SOL    HW111051   2.742   4.286   0.933
 3384SOL    HW211052   2.595   4.244   0.875
 3385SOL     OW11053   0.620   2.348   3.258
 3385SOL    HW111054   0.670   2.264   3.280
 3385SOL    HW211055   0.640   2.376   3.165
 3386SOL     OW11056   6.629   4.769   6.850
 3386SOL    HW111057   6.610   4.690   6.791
 3386SOL    HW211058   6.546   4.793   6.901
 3387SOL     OW11059   6.323   0.288   3.090
 3387SOL    HW111060   6.359   0.335   3.009
 3387SOL    HW211061   6.374   0.203   3.104
 3388SOL     OW11062   6.127   3.055   1.562
 3388SOL    HW111063   6.204   3.029   1.620
 3388SOL    HW211064   6.059   3.105   1.616
 3389SOL     OW11065   6.131   6.159   1.054
 3389SOL    HW111066   6.158   6.173   0.959
 3389SOL    HW211067   6.074   6.235   1.084
 3390SOL     OW11068   4.005   6.230   6.093
 3390SOL    HW111069   3.990   6.281   6.177
 3390SOL    HW211070   3.917   6.211   6.049
 3391SOL     OW11071   5.493   2.998   3.200
 3391SOL    HW111072   5.462   3.046   3.282
 3391SOL    HW211073   5.481   2.899   3.213
 3392SOL     OW11074   4.278   6.841   5.736
 3392SOL    HW111075   4.361   6.786   5.749
 3392SOL    HW211076   4.210   6.786   5.688
 3393SOL     OW11077   5.129   6.693   1.072
 3393SOL    HW111078   5.133   6.739   1.160
 3393SOL    HW211079   5.044   6.641   1.065
 3394SOL     OW11080   3.095   5.479   1.699
 3394SOL    HW111081   3.077   5.381   1.691
 3394SOL    HW211082   3.104   5.519   1.608
 3395SOL     OW11083   3.907   0.233   2.974
 3395SOL    HW111084   3.900   0.318   2.921
 3395SOL    HW211085   3.988   0.183   2.947
 3396SOL     OW11086   4.114   1.760   3.871
 3396SOL    HW111087   4.083   1.773   3.965
 3396SOL    HW211088   4.064   1.684   3.830
 3397SOL     OW11089   2.334   5.469   6.433
 3397SOL    HW111090   2.256   5.520   6.396
 3397SOL    HW211091   2.418   5.521   6.416
 3398SOL     OW11092   6.707   2.129   4.914
 3398SOL    HW111093   6.614   2.124   4.878
 3398SOL    HW211094   6.709   2.189   4.994
 3399SOL     OW11095   6.967   5.079   2.961
 3399SOL    HW111096   6.943   5.042   2.872
 3399SOL    HW211097   6.989   5.003   3.023
 3400SOL     OW11098   5.641   2.475   5.534
 3400SOL    HW111099   5.567   2.452   5.597
 3400SOL    HW211100   5.622   2.434   5.444
 3401SOL     OW11101   6.812   3.630   5.529
 3401SOL    HW111102   6.852   3.720   5.514
 3401SOL    HW211103   6.794   3.617   5.627
 3402SOL     OW11104   6.747   4.913   1.456
 3402SOL    HW111105   6.726   4.902   1.553
 3402SOL    HW211106   6.709   5.000   1.424
 3403SOL     OW11107   4.184   6.650   6.844
 3403SOL    HW111108   4.201   6.746   6.824
 3403SOL    HW211109   4.089   6.627   6.820
 3404SOL     OW11110   5.164   3.419   5.344
 3404SOL    HW111111   5.170   3.418   5.444
 3404SOL    HW211112   5.076   3.457   5.317
 3405SOL     OW11113   5.591   6.093   5.805
 3405SOL    HW111114   5.621   6.099   5.900
 3405SOL    HW211115   5.588   6.185   5.766
 3406SOL     OW11116   1.953   3.826   1.915
 3406SOL    HW111117   1.993   3.896   1.856
 3406SOL    HW211118   2.014   3.808   1.992
 3407SOL     OW11119   1.695   3.859   0.148
 3407SOL    HW111120   1.764   3.881   0.217
 3407SOL    HW211121   1.721   3.776   0.099
 3408SOL     OW11122   4.934   2.308   3.700
 3408SOL    HW111123   4.851   2.253   3.689
 3408SOL    HW211124   5.001   2.281   3.631
 3409SOL     OW11125   4.752   1.340   0.848
 3409SOL    HW111126   4.795   1.282   0.918
 3409SOL    HW211127   4.657   1.357   0.874
 3410SOL     OW11128   5.328   0.051   2.061
 3410SOL    HW111129   5.347   0.010   2.151
 3410SOL    HW211130   5.330   0.151   2.070
 3411SOL     OW11131   6.815   2.100   0.822
 3411SOL    HW111132   6.785   2.047   0.743
 3411SOL    HW211133   6.828   2.195   0.796
 3412SOL     OW11134   5.555   3.216   1.680
 3412SOL    HW111135   5.611   3.292   1.712
 3412SOL    HW211136   5.463   3.249   1.656
 3413SOL     OW11137   0.111   2.031   5.894
 3413SOL    HW111138   0.055   1.985   5.963
 3413SOL    HW211139   0.208   2.026   5.920
 3414SOL     OW11140   4.119   3.122   1.090
 3414SOL    HW111141   4.125   3.200   1.028
 3414SOL    HW211142   4.095   3.040   1.039
 3415SOL     OW11143   2.158   2.690   4.987
 3415SOL    HW111144   2.162   2.766   4.922
 3415SOL    HW211145   2.228   2.702   5.057
 3416SOL     OW11146   6.321   0.032   6.625
 3416SOL    HW111147   6.419   0.045   6.641
 3416SOL    HW211148   6.287   6.980   6.686
 3417SOL     OW11149   6.844   6.861   2.829
 3417SOL    HW111150   6.835   6.910   2.915
 3417SOL    HW211151   6.758   6.813   2.808
 3418SOL     OW11152   4.402   4.791   1.713
 3418SOL    HW111153   4.364   4.883   1.720
 3418SOL    HW211154   4.383   4.754   1.622
 3419SOL     OW11155   3.105   6.055   6.181
 3419SOL    HW111156   3.014   6.013   6.180
 3419SOL    HW211157   3.116   6.112   6.100
 3420SOL     OW11158   4.278   2.369   3.748
 3420SOL    HW111159   4.212   2.392   3.820
 3420SOL    HW211160   4.237   2.303   3.685
 3421SOL     OW11161   5.628   2.523   3.401
 3421SOL    HW111162   5.578   2.562   3.478
 3421SOL    HW211163   5.720   2.496   3.432
 3422SOL     OW11164   1.992   6.902   1.072
 3422SOL    HW111165   2.059   6.975   1.059
 3422SOL    HW211166   2.003   6.834   1.000
 3423SOL     OW11167   0.909   4.385   5.481
 3423SOL    HW111168   0.863   4.464   5.440
 3423SOL    HW211169   0.848   4.306   5.478
 3424SOL     OW11170   4.689   0.239   1.753
 3424SOL    HW111171   4.729   0.251   1.662
 3424SOL    HW211172   4.754   0.270   1.822
 3425SOL     OW11173   5.832   4.166   1.494
 3425SOL    HW111174   5.774   4.085   1.502
 3425SOL    HW211175   5.850   4.184   1.397
 3426SOL     OW11176   5.471   3.454   0.130
 3426SOL    HW111177   5.525   3.473   0.049
 3426SOL    HW211178   5.517   3.383   0.184
 3427SOL     OW11179   1.238   2.545   0.583
 3427SOL    HW111180   1.155   2.594   0.554
 3427SOL    HW211181   1.251   2.556   0.681
 3428SOL     OW11182   5.598   6.123   5.215
 3428SOL    HW111183   5.647   6.210   5.221
 3428SOL    HW211184   5.639   6.057   5.279
 3429SOL     OW11185   6.927   0.377   1.384
 3429SOL    HW111186   7.009   0.323   1.363
 3429SOL    HW211187   6.911   0.444   1.312
 3430SOL     OW11188   2.272   4.520   5.513
 3430SOL    HW111189   2.279   4.459   5.434
 3430SOL    HW211190   2.334   4.598   5.502
 3431SOL     OW11191   2.345   6.070   2.719
 3431SOL    HW111192   2.399   6.012   2.780
 3431SOL    HW211193   2.307   6.146   2.771
 3432SOL     OW11194   2.350   4.351   0.772
 3432SOL    HW111195   2.378   4.420   0.838
 3432SOL    HW211196   2.397   4.265   0.792
 3433SOL     OW11197   2.582   1.135   6.362
 3433SOL    HW111198   2.582   1.185   6.449
 3433SOL    HW211199   2.677   1.124   6.330
 3434SOL     OW11200   3.034   2.094   1.559
 3434SOL    HW111201   3.089   2.011   1.564
 3434SOL    HW211202   3.093   2.174   1.554
 3435SOL     OW11203   2.132   0.663   0.221
 3435SOL    HW111204   2.141   0.565   0.239
 3435SOL    HW211205   2.085   0.707   0.297
 3436SOL     OW11206   3.361   5.876   0.607
 3436SOL    HW111207   3.400   5.787   0.631
 3436SOL    HW211208   3.402   5.947   0.666
 3437SOL     OW11209   1.330   6.402   6.035
 3437SOL    HW111210   1.266   6.439   6.102
 3437SOL    HW211211   1.308   6.305   6.019
 3438SOL     OW11212   1.278   4.232   1.256
 3438SOL    HW111213   1.342   4.157   1.271
 3438SOL    HW211214   1.203   4.225   1.322
 3439SOL     OW11215   1.893   5.447   2.167
 3439SOL    HW111216   1.856   5.362   2.206
 3439SOL    HW211217   1.840   5.472   2.086
 3440SOL     OW11218   4.120   3.750   4.572
 3440SOL    HW111219   4.145   3.753   4.475
 3440SOL    HW211220   4.125   3.656   4.605
 3441SOL     OW11221   5.775   5.979   5.393
 3441SOL    HW111222   5.869   5.953   5.374
 3441SOL    HW211223   5.752   5.956   5.487
 3442SOL     OW11224   3.695   3.185   1.443
 3442SOL    HW111225   3.779   3.191   1.388
 3442SOL    HW211226   3.673   3.275   1.480
 3443SOL     OW11227   2.213   5.782   2.235
 3443SOL    HW111228   2.159   5.711   2.282
 3443SOL    HW211229   2.200   5.869   2.281
 3444SOL     OW11230   5.891   3.713   1.469
 3444SOL    HW111231   5.966   3.646   1.467
 3444SOL    HW211232   5.896   3.771   1.388
 3445SOL     OW11233   6.107   4.275   3.575
 3445SOL    HW111234   6.172   4.230   3.514
 3445SOL    HW211235   6.061   4.206   3.632
 3446SOL     OW11236   5.235   1.072   1.352
 3446SOL    HW111237   5.323   1.093   1.308
 3446SOL    HW211238   5.220   0.973   1.351
 3447SOL     OW11239   4.770   0.732   0.302
 3447SOL    HW111240   4.826   0.778   0.371
 3447SOL    HW211241   4.682   0.705   0.342
 3448SOL     OW11242   1.473   6.071   4.688
 3448SOL    HW111243   1.384   6.116   4.686
 3448SOL    HW211244   1.465   5.977   4.657
 3449SOL     OW11245   6.397   4.234   5.181
 3449SOL    HW111246   6.305   4.194   5.186
 3449SOL    HW211247   6.463   4.173   5.224
 3450SOL     OW11248   1.505   6.251   0.531
 3450SOL    HW111249   1.455   6.169   0.557
 3450SOL    HW211250   1.446   6.311   0.477
 3451SOL     OW11251   2.079   6.262   1.147
 3451SOL    HW111252   2.158   6.265   1.086
 3451SOL    HW211253   2.037   6.352   1.151
 3452SOL     OW11254   4.968   0.209   5.463
 3452SOL    HW111255   5.032   0.282   5.440
 3452SOL    HW211256   5.009   0.120   5.442
 3453SOL     OW11257   5.134   6.272   5.679
 3453SOL    HW111258   5.199   6.257   5.605
 3453SOL    HW211259   5.052   6.316   5.643
 3454SOL     OW11260   1.385   2.337   2.417
 3454SOL    HW111261   1.426   2.376   2.335
 3454SOL    HW211262   1.355   2.244   2.399
 3455SOL     OW11263   1.375   3.485   6.041
 3455SOL    HW111264   1.419   3.572   6.065
 3455SOL    HW211265   1.397   3.462   5.946
 3456SOL     OW11266   5.130   3.896   2.567
 3456SOL    HW111267   5.151   3.943   2.653
 3456SOL    HW211268   5.092   3.961   2.502
 3457SOL     OW11269   3.920   5.960   5.143
 3457SOL    HW111270   4.004   5.989   5.189
 3457SOL    HW211271   3.922   5.862   5.126
 3458SOL     OW11272   4.369   1.633   2.964
 3458SOL    HW111273   4.461   1.598   2.984
 3458SOL    HW211274   4.315   1.636   3.048
 3459SOL     OW11275   3.983   0.281   3.265
 3459SOL    HW111276   4.004   0.373   3.297
 3459SOL    HW211277   3.959   0.284   3.168
 3460SOL     OW11278   4.018   2.007   5.587
 3460SOL    HW111279   3.985   1.948   5.661
 3460SOL    HW211280   4.015   2.102   5.618
 3461SOL     OW11281   5.378   4.848   6.146
 3461SOL    HW111282   5.468   4.871   6.110
 3461SOL    HW211283   5.343   4.925   6.200
 3462SOL     OW11284   2.723   3.644   6.697
 3462SOL    HW111285   2.661   3.612   6.625
 3462SOL    HW211286   2.683   3.724   6.742
 3463SOL     OW11287   6.160   4.434   1.029
 3463SOL    HW111288   6.151   4.402   1.124
 3463SOL    HW211289   6.151   4.533   1.027
 3464SOL     OW11290   6.890   4.832   5.976
 3464SOL    HW111291   6.855   4.755   5.922
 3464SOL    HW211292   6.883   4.812   6.073
 3465SOL     OW11293   1.842   0.254   1.717
 3465SOL    HW111294   1.938   0.240   1.696
 3465SOL    HW211295   1.799   0.166   1.737
 3466SOL     OW11296   6.678   3.682   5.074
 3466SOL    HW111297   6.707   3.675   4.978
 3466SOL    HW211298   6.738   3.626   5.131
 3467SOL     OW11299   1.635   2.221   6.449
 3467SOL    HW111300   1.733   2.240   6.441
 3467SOL    HW211301   1.587   2.258   6.370
 3468SOL     OW11302   3.307   0.314   3.842
 3468SOL    HW111303   3.282   0.359   3.928
 3468SOL    HW211304   3.259   0.358   3.767
 3469SOL     OW11305   5.633   2.474   3.039
 3469SOL    HW111306   5.571   2.407   3.081
 3469SOL    HW211307   5.580   2.554   3.011
 3470SOL     OW11308   0.258   5.663   0.910
 3470SOL    HW111309   0.286   5.678   0.815
 3470SOL    HW211310   0.258   5.565   0.929
 3471SOL     OW11311   3.973   5.966   4.644
 3471SOL    HW111312   3.979   6.057   4.605
 3471SOL    HW211313   3.882   5.951   4.683
 3472SOL     OW11314   3.256   1.075   5.385
 3472SOL    HW111315   3.310   0.997   5.416
 3472SOL    HW211316   3.227   1.060   5.290
 3473SOL     OW11317   5.598   0.811   6.188
 3473SOL    HW111318   5.576   0.730   6.135
 3473SOL    HW211319   5.639   0.880   6.128
 3474SOL     OW11320   4.017   5.132   1.910
 3474SOL    HW111321   3.965   5.055   1.948
 3474SOL    HW211322   4.029   5.119   1.812
 3475SOL     OW11323   1.309   5.646   4.322
 3475SOL    HW111324   1.321   5.625   4.225
 3475SOL    HW211325   1.218   5.684   4.337
 3476SOL     OW11326   4.380   0.956   4.204
 3476SOL    HW111327   4.478   0.965   4.220
 3476SOL    HW211328   4.364   0.932   4.108
 3477SOL     OW11329   3.654   6.255   1.181
 3477SOL    HW111330   3.706   6.340   1.193
 3477SOL    HW211331   3.586   6.267   1.109
 3478SOL     OW11332   3.692   5.409   6.888
 3478SOL    HW111333   3.705   5.370   6.979
 3478SOL    HW211334   3.781   5.432   6.849
 3479SOL     OW11335   0.975   0.470   1.625
 3479SOL    HW111336   0.980   0.384   1.574
 3479SOL    HW211337   0.977   0.450   1.723
 3480SOL     OW11338   0.406   1.533   3.081
 3480SOL    HW111339   0.411   1.630   3.059
 3480SOL    HW211340   0.493   1.502   3.119
 3481SOL     OW11341   2.568   6.374   6.537
 3481SOL    HW111342   2.621   6.429   6.602
 3481SOL    HW211343   2.622   6.361   6.454
 3482SOL     OW11344   0.108   2.272   0.690
 3482SOL    HW111345   0.129   2.236   0.599
 3482SOL    HW211346   0.013   2.303   0.693
 3483SOL     OW11347   2.473   0.530   1.540
 3483SOL    HW111348   2.553   0.521   1.600
 3483SOL    HW211349   2.450   0.626   1.530
 3484SOL     OW11350   3.773   3.524   3.886
 3484SOL    HW111351   3.853   3.583   3.895
 3484SOL    HW211352   3.802   3.431   3.863
 3485SOL     OW11353   1.172   3.197   5.132
 3485SOL    HW111354   1.166   3.103   5.101
 3485SOL    HW211355   1.202   3.199   5.228
 3486SOL     OW11356   4.594   2.119   1.432
 3486SOL    HW111357   4.657   2.081   1.365
 3486SOL    HW211358   4.541   2.046   1.474
 3487SOL     OW11359   6.006   1.651   6.585
 3487SOL    HW111360   6.046   1.652   6.676
 3487SOL    HW211361   6.079   1.639   6.517
 3488SOL     OW11362   5.589   3.471   3.492
 3488SOL    HW111363   5.568   3.374   3.481
 3488SOL    HW211364   5.643   3.503   3.414
 3489SOL     OW11365   3.300   0.622   1.328
 3489SOL    HW111366   3.246   0.672   1.396
 3489SOL    HW211367   3.256   0.630   1.239
 3490SOL     OW11368   4.682   3.879   0.048
 3490SOL    HW111369   4.729   3.967   0.040
 3490SOL    HW211370   4.636   3.873   0.136
 3491SOL     OW11371   0.455   3.122   5.509
 3491SOL    HW111372   0.438   3.027   5.482
 3491SOL    HW211373   0.546   3.129   5.549
 3492SOL     OW11374   6.810   4.587   6.529
 3492SOL    HW111375   6.756   4.671   6.541
 3492SOL    HW211376   6.907   4.609   6.533
 3493SOL     OW11377   6.468   4.794   0.901
 3493SOL    HW111378   6.552   4.742   0.890
 3493SOL    HW211379   6.393   4.748   0.853
 3494SOL     OW11380   3.123   0.355   1.617
 3494SOL    HW111381   3.102   0.436   1.562
 3494SOL    HW211382   3.051   0.286   1.603
 3495SOL     OW11383   4.462   4.860   1.175
 3495SOL    HW111384   4.523   4.896   1.245
 3495SOL    HW211385   4.383   4.920   1.165
 3496SOL     OW11386   1.945   2.845   0.624
 3496SOL    HW111387   1.893   2.765   0.594
 3496SOL    HW211388   2.037   2.842   0.584
 3497SOL     OW11389   4.381   0.792   3.976
 3497SOL    HW111390   4.290   0.761   3.949
 3497SOL    HW211391   4.446   0.717   3.964
 3498SOL     OW11392   2.650   1.521   1.842
 3498SOL    HW111393   2.698   1.597   1.799
 3498SOL    HW211394   2.684   1.509   1.935
 3499SOL     OW11395   6.443   2.908   4.436
 3499SOL    HW111396   6.409   2.995   4.400
 3499SOL    HW211397   6.464   2.917   4.533
 3500SOL     OW11398   5.929   3.943   6.921
 3500SOL    HW111399   5.862   3.890   6.973
 3500SOL    HW211400   5.949   3.897   6.835
 3501SOL     OW11401   1.925   4.240   4.918
 3501SOL    HW111402   1.946   4.231   4.821
 3501SOL    HW211403   2.008   4.259   4.969
 3502SOL     OW11404   1.010   2.145   0.716
 3502SOL    HW111405   1.092   2.192   0.682
 3502SOL    HW211406   0.948   2.128   0.640
 3503SOL     OW11407   5.172   5.963   5.294
 3503SOL    HW111408   5.124   5.890   5.245
 3503SOL    HW211409   5.108   6.011   5.353
 3504SOL     OW11410   2.165   3.294   1.707
 3504SOL    HW111411   2.253   3.337   1.727
 3504SOL    HW211412   2.178   3.196   1.695
 3505SOL     OW11413   5.562   5.638   5.542
 3505SOL    HW111414   5.589   5.734   5.546
 3505SOL    HW211415   5.565   5.599   5.634
 3506SOL     OW11416   4.828   5.389   3.025
 3506SOL    HW111417   4.772   5.415   3.104
 3506SOL    HW211418   4.816   5.456   2.952
 3507SOL     OW11419   0.677   0.223   6.525
 3507SOL    HW111420   0.609   0.231   6.597
 3507SOL    HW211421   0.655   0.147   6.465
 3508SOL     OW11422   5.551   3.955   0.007
 3508SOL    HW111423   5.581   3.903   6.947
 3508SOL    HW211424   5.511   3.893   0.075
 3509SOL     OW11425   6.410   6.259   6.892
 3509SOL    HW111426   6.460   6.264   6.978
 3509SOL    HW211427   6.334   6.195   6.900
 3510SOL     OW11428   2.501   2.309   1.965
 3510SOL    HW111429   2.434   2.352   1.905
 3510SOL    HW211430   2.579   2.278   1.910
 3511SOL     OW11431   0.442   2.722   6.693
 3511SOL    HW111432   0.419   2.703   6.597
 3511SOL    HW211433   0.376   2.788   6.730
 3512SOL     OW11434   2.893   2.890   0.802
 3512SOL    HW111435   2.957   2.821   0.835
 3512SOL    HW211436   2.931   2.982   0.817
 3513SOL     OW11437   6.536   4.107   1.473
 3513SOL    HW111438   6.569   4.030   1.526
 3513SOL    HW211439   6.459   4.150   1.520
 3514SOL     OW11440   0.713   6.168   1.033
 3514SOL    HW111441   0.777   6.200   0.963
 3514SOL    HW211442   0.761   6.112   1.100
 3515SOL     OW11443   3.195   6.395   3.121
 3515SOL    HW111444   3.262   6.447   3.069
 3515SOL    HW211445   3.242   6.338   3.188
 3516SOL     OW11446   2.853   1.203   0.841
 3516SOL    HW111447   2.761   1.234   0.818
 3516SOL    HW211448   2.882   1.247   0.926
 3517SOL     OW11449   1.249   1.646   6.395
 3517SOL    HW111450   1.195   1.663   6.313
 3517SOL    HW211451   1.213   1.701   6.471
 3518SOL     OW11452   4.550   3.326   6.255
 3518SOL    HW111453   4.500   3.405   6.220
 3518SOL    HW211454   4.506   3.295   6.340
 3519SOL     OW11455   2.204   6.559   6.547
 3519SOL    HW111456   2.125   6.592   6.598
 3519SOL    HW211457   2.267   6.511   6.609
 3520SOL     OW11458   3.699   5.704   1.156
 3520SOL    HW111459   3.686   5.621   1.209
 3520SOL    HW211460   3.629   5.771   1.181
 3521SOL     OW11461   5.766   2.487   1.523
 3521SOL    HW111462   5.838   2.487   1.454
 3521SOL    HW211463   5.804   2.514   1.611
 3522SOL     OW11464   3.363   4.908   2.280
 3522SOL    HW111465   3.374   5.007   2.285
 3522SOL    HW211466   3.445   4.868   2.241
 3523SOL     OW11467   2.723   4.912   4.700
 3523SOL    HW111468   2.798   4.888   4.638
 3523SOL    HW211469   2.686   4.829   4.742
 3524SOL     OW11470   2.787   0.750   0.776
 3524SOL    HW111471   2.838   0.779   0.694
 3524SOL    HW211472   2.821   0.661   0.806
 3525SOL     OW11473   0.683   2.822   2.315
 3525SOL    HW111474   0.757   2.872   2.361
 3525SOL    HW211475   0.709   2.804   2.220
 3526SOL     OW11476   1.338   0.652   2.323
 3526SOL    HW111477   1.254   0.705   2.320
 3526SOL    HW211478   1.406   0.693   2.261
 3527SOL     OW11479   5.496   3.296   6.206
 3527SOL    HW111480   5.560   3.322   6.133
 3527SOL    HW211481   5.471   3.377   6.258
 3528SOL     OW11482   0.646   6.674   4.020
 3528SOL    HW111483   0.673   6.662   3.925
 3528SOL    HW211484   0.639   6.771   4.041
 3529SOL     OW11485   4.399   6.351   5.884
 3529SOL    HW111486   4.315   6.393   5.917
 3529SOL    HW211487   4.457   6.421   5.840
 3530SOL     OW11488   2.353   5.533   2.780
 3530SOL    HW111489   2.443   5.576   2.769
 3530SOL    HW211490   2.282   5.601   2.760
 3531SOL     OW11491   5.848   4.484   0.316
 3531SOL    HW111492   5.794   4.401   0.331
 3531SOL    HW211493   5.942   4.468   0.346
 3532SOL     OW11494   2.287   0.202   0.033
 3532SOL    HW111495   2.297   0.165   6.960
 3532SOL    HW211496   2.290   0.127   0.099
 3533SOL     OW11497   0.983   1.597   3.613
 3533SOL    HW111498   1.010   1.659   3.539
 3533SOL    HW211499   0.888   1.615   3.639
 3534SOL     OW11500   4.971   1.096   4.444
 3534SOL    HW111501   5.020   1.066   4.362
 3534SOL    HW211502   4.879   1.126   4.418
 3535SOL     OW11503   5.287   5.380   5.891
 3535SOL    HW111504   5.313   5.287   5.866
 3535SOL    HW211505   5.218   5.377   5.964
 3536SOL     OW11506   1.787   3.491   2.955
 3536SOL    HW111507   1.740   3.430   3.019
 3536SOL    HW211508   1.724   3.520   2.884
 3537SOL     OW11509   1.930   5.351   0.921
 3537SOL    HW111510   1.876   5.272   0.949
 3537SOL    HW211511   1.989   5.379   0.997
 3538SOL     OW11512   2.899   0.272   3.436
 3538SOL    HW111513   2.878   0.318   3.522
 3538SOL    HW211514   2.901   0.339   3.361
 3539SOL     OW11515   5.084   4.857   5.899
 3539SOL    HW111516   5.028   4.915   5.838
 3539SOL    HW211517   5.047   4.862   5.992
 3540SOL     OW11518   3.339   3.468   6.739
 3540SOL    HW111519   3.276   3.394   6.715
 3540SOL    HW211520   3.305   3.554   6.702
 3541SOL     OW11521   3.077   2.254   0.740
 3541SOL    HW111522   3.164   2.236   0.785
 3541SOL    HW211523   3.064   2.353   0.732
 3542SOL     OW11524   5.523   2.086   6.308
 3542SOL    HW111525   5.518   1.995   6.266
 3542SOL    HW211526   5.594   2.085   6.378
 3543SOL     OW11527   1.747   2.820   3.566
 3543SOL    HW111528   1.834   2.861   3.539
 3543SOL    HW211529   1.759   2.721   3.576
 3544SOL     OW11530   2.628   4.651   6.007
 3544SOL    HW111531   2.542   4.648   5.956
 3544SOL    HW211532   2.687   4.575   5.978
 3545SOL     OW11533   3.380   0.271   0.870
 3545SOL    HW111534   3.442   0.286   0.792
 3545SOL    HW211535   3.417   0.199   0.928
 3546SOL     OW11536   6.766   3.429   3.215
 3546SOL    HW111537   6.736   3.404   3.307
 3546SOL    HW211538   6.722   3.515   3.188
 3547SOL     OW11539   0.363   3.567   5.864
 3547SOL    HW111540   0.393   3.564   5.959
 3547SOL    HW211541   0.264   3.574   5.860
 3548SOL     OW11542   5.498   0.811   5.758
 3548SOL    HW111543   5.538   0.868   5.830
 3548SOL    HW211544   5.567   0.748   5.722
 3549SOL     OW11545   2.600   5.620   6.378
 3549SOL    HW111546   2.667   5.625   6.453
 3549SOL    HW211547   2.644   5.579   6.298
 3550SOL     OW11548   4.983   1.142   4.940
 3550SOL    HW111549   4.930   1.214   4.984
 3550SOL    HW211550   5.004   1.070   5.006
 3551SOL     OW11551   4.341   2.138   4.495
 3551SOL    HW111552   4.251   2.119   4.534
 3551SOL    HW211553   4.405   2.158   4.569
 3552SOL     OW11554   6.984   6.232   2.998
 3552SOL    HW111555   6.979   6.132   3.000
 3552SOL    HW211556   6.986   6.266   3.092
 3553SOL     OW11557   3.930   5.239   6.548
 3553SOL    HW111558   3.915   5.143   6.571
 3553SOL    HW211559   3.931   5.249   6.449
 3554SOL     OW11560   4.554   3.400   1.477
 3554SOL    HW111561   4.504   3.485   1.460
 3554SOL    HW211562   4.640   3.420   1.524
 3555SOL     OW11563   2.466   2.121   4.373
 3555SOL    HW111564   2.500   2.039   4.420
 3555SOL    HW211565   2.533   2.194   4.382
 3556SOL     OW11566   4.497   1.030   5.363
 3556SOL    HW111567   4.581   1.080   5.379
 3556SOL    HW211568   4.518   0.934   5.345
 3557SOL     OW11569   6.354   1.497   1.413
 3557SOL    HW111570   6.370   1.400   1.432
 3557SOL    HW211571   6.262   1.522   1.444
 3558SOL     OW11572   3.088   6.925   1.221
 3558SOL    HW111573   3.000   6.897   1.260
 3558SOL    HW211574   3.073   6.962   1.129
 3559SOL     OW11575   3.790   6.117   4.469
 3559SOL    HW111576   3.730   6.038   4.484
 3559SOL    HW211577   3.837   6.108   4.382
 3560SOL     OW11578   1.922   5.949   4.405
 3560SOL    HW111579   1.939   5.859   4.447
 3560SOL    HW211580   1.995   5.969   4.339
 3561SOL     OW11581   4.744   4.185   5.119
 3561SOL    HW111582   4.672   4.235   5.069
 3561SOL    HW211583   4.833   4.212   5.084
 3562SOL     OW11584   2.356   1.288   5.714
 3562SOL    HW111585   2.385   1.382   5.728
 3562SOL    HW211586   2.317   1.278   5.622
 3563SOL     OW11587   5.914   2.418   5.634
 3563SOL    HW111588   5.953   2.504   5.603
 3563SOL    HW211589   5.821   2.408   5.600
 3564SOL     OW11590   6.471   4.285   2.705
 3564SOL    HW111591   6.541   4.230   2.661
 3564SOL    HW211592   6.514   4.362   2.752
 3565SOL     OW11593   3.870   5.887   3.314
 3565SOL    HW111594   3.904   5.914   3.224
 3565SOL    HW211595   3.772   5.869   3.308
 3566SOL     OW11596   0.264   1.359   5.747
 3566SOL    HW111597   0.310   1.346   5.659
 3566SOL    HW211598   0.245   1.456   5.760
 3567SOL     OW11599   0.327   4.795   6.705
 3567SOL    HW111600   0.304   4.832   6.615
 3567SOL    HW211601   0.343   4.696   6.697
 3568SOL     OW11602   6.197   3.652   6.003
 3568SOL    HW111603   6.180   3.554   5.991
 3568SOL    HW211604   6.120   3.694   6.051
 3569SOL     OW11605   2.186   2.541   5.370
 3569SOL    HW111606   2.180   2.548   5.270
 3569SOL    HW211607   2.248   2.612   5.404
 3570SOL     OW11608   6.645   1.336   4.065
 3570SOL    HW111609   6.711   1.261   4.061
 3570SOL    HW211610   6.611   1.354   3.973
 3571SOL     OW11611   6.539   5.501   6.453
 3571SOL    HW111612   6.528   5.481   6.356
 3571SOL    HW211613   6.573   5.595   6.464
 3572SOL     OW11614   5.854   3.620   4.903
 3572SOL    HW111615   5.822   3.641   4.995
 3572SOL    HW211616   5.824   3.692   4.840
 3573SOL     OW11617   1.374   3.337   3.327
 3573SOL    HW111618   1.454   3.286   3.296
 3573SOL    HW211619   1.318   3.363   3.248
 3574SOL     OW11620   0.347   4.231   0.539
 3574SOL    HW111621   0.291   4.271   0.611
 3574SOL    HW211622   0.325   4.134   0.530
 3575SOL     OW11623   6.269   5.537   2.879
 3575SOL    HW111624   6.214   5.456   2.898
 3575SOL    HW211625   6.316   5.566   2.962
 3576SOL     OW11626   0.583   1.179   6.260
 3576SOL    HW111627   0.676   1.142   6.256
 3576SOL    HW211628   0.540   1.172   6.170
 3577SOL     OW11629   0.874   2.884   6.383
 3577SOL    HW111630   0.955   2.937   6.411
 3577SOL    HW211631   0.791   2.936   6.403
 3578SOL     OW11632   3.140   4.886   0.375
 3578SOL    HW111633   3.109   4.961   0.433
 3578SOL    HW211634   3.122   4.798   0.420
 3579SOL     OW11635   6.557   3.179   4.885
 3579SOL    HW111636   6.540   3.274   4.859
 3579SOL    HW211637   6.548   3.121   4.804
 3580SOL     OW11638   6.151   1.362   2.112
 3580SOL    HW111639   6.193   1.431   2.172
 3580SOL    HW211640   6.210   1.281   2.109
 3581SOL     OW11641   6.931   0.343   2.490
 3581SOL    HW111642   0.012   0.343   2.487
 3581SOL    HW211643   6.900   0.412   2.556
 3582SOL     OW11644   1.037   0.530   5.887
 3582SOL    HW111645   0.962   0.580   5.844
 3582SOL    HW211646   1.102   0.594   5.927
 3583SOL     OW11647   0.949   4.712   6.724
 3583SOL    HW111648   0.997   4.666   6.798
 3583SOL    HW211649   0.882   4.776   6.762
 3584SOL     OW11650   5.503   6.403   6.851
 3584SOL    HW111651   5.504   6.472   6.923
 3584SOL    HW211652   5.524   6.447   6.763
 3585SOL     OW11653   3.930   4.939   4.183
 3585SOL    HW111654   4.013   4.892   4.215
 3585SOL    HW211655   3.850   4.884   4.206
 3586SOL     OW11656   6.433   3.301   5.770
 3586SOL    HW111657   6.531   3.281   5.778
 3586SOL    HW211658   6.381   3.216   5.771
 3587SOL     OW11659   3.693   6.891   0.606
 3587SOL    HW111660   3.663   6.981   0.574
 3587SOL    HW211661   3.766   6.902   0.673
 3588SOL     OW11662   1.764   2.143   5.848
 3588SOL    HW111663   1.691   2.211   5.845
 3588SOL    HW211664   1.737   2.067   5.908
 3589SOL     OW11665   3.110   0.752   5.315
 3589SOL    HW111666   3.174   0.788   5.382
 3589SOL    HW211667   3.031   0.813   5.308
 3590SOL     OW11668   1.495   5.359   6.001
 3590SOL    HW111669   1.432   5.364   5.924
 3590SOL    HW211670   1.567   5.293   5.981
 3591SOL     OW11671   5.388   2.712   5.818
 3591SOL    HW111672   5.433   2.798   5.792
 3591SOL    HW211673   5.369   2.712   5.916
 3592SOL     OW11674   5.075   3.013   2.774
 3592SOL    HW111675   5.075   2.956   2.692
 3592SOL    HW211676   5.136   2.972   2.843
 3593SOL     OW11677   2.066   6.846   4.057
 3593SOL    HW111678   2.164   6.864   4.063
 3593SOL    HW211679   2.041   6.832   3.961
 3594SOL     OW11680   2.500   0.930   3.288
 3594SOL    HW111681   2.449   1.013   3.306
 3594SOL    HW211682   2.477   0.896   3.196
 3595SOL     OW11683   2.270   6.529   6.150
 3595SOL    HW111684   2.270   6.529   6.050
 3595SOL    HW211685   2.192   6.477   6.183
 3596SOL     OW11686   6.821   0.934   1.963
 3596SOL    HW111687   6.875   0.998   2.018
 3596SOL    HW211688   6.768   0.985   1.895
 3597SOL     OW11689   4.358   6.147   4.411
 3597SOL    HW111690   4.311   6.063   4.386
 3597SOL    HW211691   4.349   6.162   4.510
 3598SOL     OW11692   0.662   0.018   6.343
 3598SOL    HW111693   0.731   6.976   6.306
 3598SOL    HW211694   0.573   6.991   6.345
 3599SOL     OW11695   6.817   2.138   4.637
 3599SOL    HW111696   6.767   2.134   4.724
 3599SOL    HW211697   6.760   2.183   4.568
 3600SOL     OW11698   6.370   3.048   1.241
 3600SOL    HW111699   6.390   3.123   1.178
 3600SOL    HW211700   6.424   2.968   1.216
 3601SOL     OW11701   0.254   3.488   0.374
 3601SOL    HW111702   0.334   3.437   0.343
 3601SOL    HW211703   0.179   3.474   0.310
 3602SOL     OW11704   1.870   0.730   0.034
 3602SOL    HW111705   1.822   0.642   0.039
 3602SOL    HW211706   1.906   0.744   6.962
 3603SOL     OW11707   4.295   5.065   3.921
 3603SOL    HW111708   4.249   5.029   4.002
 3603SOL    HW211709   4.377   5.011   3.902
 3604SOL     OW11710   6.752   2.300   2.627
 3604SOL    HW111711   6.666   2.257   2.656
 3604SOL    HW211712   6.828   2.238   2.645
 3605SOL     OW11713   5.942   4.123   6.433
 3605SOL    HW111714   6.032   4.161   6.451
 3605SOL    HW211715   5.886   4.128   6.516
 3606SOL     OW11716   6.733   4.161   5.530
 3606SOL    HW111717   6.806   4.101   5.498
 3606SOL    HW211718   6.761   4.257   5.518
 3607SOL     OW11719   5.284   0.758   0.527
 3607SOL    HW111720   5.211   0.786   0.589
 3607SOL    HW211721   5.373   0.778   0.569
 3608SOL     OW11722   0.610   1.705   1.481
 3608SOL    HW111723   0.655   1.681   1.567
 3608SOL    HW211724   0.596   1.622   1.427
 3609SOL     OW11725   6.791   0.679   4.733
 3609SOL    HW111726   6.800   0.769   4.690
 3609SOL    HW211727   6.878   0.654   4.776
 3610SOL     OW11728   0.710   6.393   5.486
 3610SOL    HW111729   0.768   6.468   5.454
 3610SOL    HW211730   0.665   6.349   5.408
 3611SOL     OW11731   3.412   5.361   5.306
 3611SOL    HW111732   3.475   5.393   5.376
 3611SOL    HW211733   3.371   5.275   5.335
 3612SOL     OW11734   1.212   6.213   7.015
 3612SOL    HW111735   1.288   6.272   0.024
 3612SOL    HW211736   1.239   6.158   6.936
 3613SOL     OW11737   5.150   4.839   0.642
 3613SOL    HW111738   5.210   4.841   0.722
 3613SOL    HW211739   5.189   4.897   0.570
 3614SOL     OW11740   4.034   3.725   3.550
 3614SOL    HW111741   4.072   3.634   3.531
 3614SOL    HW211742   3.938   3.716   3.576
 3615SOL     OW11743   6.039   5.392   5.542
 3615SOL    HW111744   5.997   5.323   5.602
 3615SOL    HW211745   5.968   5.454   5.508
 3616SOL     OW11746   6.642   2.056   6.448
 3616SOL    HW111747   6.557   2.104   6.470
 3616SOL    HW211748   6.643   1.967   6.494
 3617SOL     OW11749   5.929   2.295   6.680
 3617SOL    HW111750   5.860   2.345   6.732
 3617SOL    HW211751   5.946   2.342   6.594
 3618SOL     OW11752   1.761   1.795   5.805
 3618SOL    HW111753   1.761   1.861   5.880
 3618SOL    HW211754   1.840   1.812   5.746
 3619SOL     OW11755   6.093   2.594   3.694
 3619SOL    HW111756   6.096   2.640   3.783
 3619SOL    HW211757   6.174   2.538   3.683
 3620SOL     OW11758   5.798   0.449   5.512
 3620SOL    HW111759   5.894   0.419   5.506
 3620SOL    HW211760   5.738   0.369   5.509
 3621SOL     OW11761   2.688   2.768   5.805
 3621SOL    HW111762   2.762   2.755   5.738
 3621SOL    HW211763   2.688   2.693   5.870
 3622SOL     OW11764   0.626   1.357   2.776
 3622SOL    HW111765   0.682   1.365   2.858
 3622SOL    HW211766   0.535   1.324   2.801
 3623SOL     OW11767   5.809   5.056   4.047
 3623SOL    HW111768   5.906   5.082   4.051
 3623SOL    HW211769   5.801   4.968   3.999
 3624SOL     OW11770   2.376   6.376   3.359
 3624SOL    HW111771   2.349   6.374   3.455
 3624SOL    HW211772   2.407   6.285   3.331
 3625SOL     OW11773   6.182   3.351   6.023
 3625SOL    HW111774   6.107   3.285   6.029
 3625SOL    HW211775   6.263   3.314   6.069
 3626SOL     OW11776   2.147   3.348   4.806
 3626SOL    HW111777   2.213   3.316   4.873
 3626SOL    HW211778   2.109   3.436   4.836
 3627SOL     OW11779   3.971   3.925   3.212
 3627SOL    HW111780   3.979   3.943   3.310
 3627SOL    HW211781   3.961   3.827   3.197
 3628SOL     OW11782   2.263   5.480   1.955
 3628SOL    HW111783   2.248   5.395   2.004
 3628SOL    HW211784   2.186   5.542   1.971
 3629SOL     OW11785   6.195   2.313   5.633
 3629SOL    HW111786   6.110   2.362   5.655
 3629SOL    HW211787   6.270   2.378   5.625
 3630SOL     OW11788   5.621   2.175   4.672
 3630SOL    HW111789   5.632   2.173   4.572
 3630SOL    HW211790   5.611   2.270   4.702
 3631SOL     OW11791   2.511   6.891   4.645
 3631SOL    HW111792   2.551   6.980   4.623
 3631SOL    HW211793   2.538   6.824   4.576
 3632SOL     OW11794   5.231   0.850   0.982
 3632SOL    HW111795   5.236   0.826   1.078
 3632SOL    HW211796   5.158   0.798   0.938
 3633SOL     OW11797   2.568   2.411   5.956
 3633SOL    HW111798   2.649   2.355   5.973
 3633SOL    HW211799   2.509   2.365   5.889
 3634SOL     OW11800   1.102   6.628   4.689
 3634SOL    HW111801   1.053   6.557   4.739
 3634SOL    HW211802   1.135   6.698   4.754
 3635SOL     OW11803   3.271   1.538   4.965
 3635SOL    HW111804   3.237   1.567   5.054
 3635SOL    HW211805   3.200   1.554   4.896
 3636SOL     OW11806   0.317   5.721   6.078
 3636SOL    HW111807   0.236   5.666   6.099
 3636SOL    HW211808   0.397   5.682   6.123
 3637SOL     OW11809   6.018   2.297   1.125
 3637SOL    HW111810   6.018   2.377   1.185
 3637SOL    HW211811   5.935   2.296   1.071
 3638SOL     OW11812   6.712   4.435   4.414
 3638SOL    HW111813   6.785   4.482   4.365
 3638SOL    HW211814   6.644   4.502   4.445
 3639SOL     OW11815   3.713   3.825   1.098
 3639SOL    HW111816   3.715   3.908   1.043
 3639SOL    HW211817   3.731   3.746   1.039
 3640SOL     OW11818   3.574   6.205   6.993
 3640SOL    HW111819   3.621   6.226   0.059
 3640SOL    HW211820   3.492   6.152   7.012
 3641SOL     OW11821   3.652   1.363   4.611
 3641SOL    HW111822   3.686   1.457   4.605
 3641SOL    HW211823   3.569   1.354   4.555
 3642SOL     OW11824   4.695   1.204   5.427
 3642SOL    HW111825   4.794   1.188   5.435
 3642SOL    HW211826   4.677   1.260   5.347
 3643SOL     OW11827   3.333   5.892   4.269
 3643SOL    HW111828   3.303   5.988   4.269
 3643SOL    HW211829   3.371   5.868   4.358
 3644SOL     OW11830   0.041   2.258   1.455
 3644SOL    HW111831   6.998   2.184   1.432
 3644SOL    HW211832   0.009   2.343   1.412
 3645SOL     OW11833   5.617   1.685   3.832
 3645SOL    HW111834   5.683   1.673   3.759
 3645SOL    HW211835   5.662   1.669   3.920
 3646SOL     OW11836   6.693   4.391   5.062
 3646SOL    HW111837   6.602   4.431   5.050
 3646SOL    HW211838   6.696   4.300   5.020
 3647SOL     OW11839   1.413   3.409   0.320
 3647SOL    HW111840   1.504   3.366   0.322
 3647SOL    HW211841   1.343   3.338   0.325
 3648SOL     OW11842   3.983   5.479   2.612
 3648SOL    HW111843   3.909   5.494   2.677
 3648SOL    HW211844   4.014   5.385   2.619
 3649SOL     OW11845   4.204   3.359   0.873
 3649SOL    HW111846   4.116   3.357   0.827
 3649SOL    HW211847   4.263   3.427   0.829
 3650SOL     OW11848   6.511   6.203   1.154
 3650SOL    HW111849   6.516   6.178   1.250
 3650SOL    HW211850   6.454   6.285   1.144
 3651SOL     OW11851   0.268   6.099   2.074
 3651SOL    HW111852   0.269   6.199   2.073
 3651SOL    HW211853   0.257   6.065   1.981
 3652SOL     OW11854   4.813   6.553   3.437
 3652SOL    HW111855   4.903   6.531   3.473
 3652SOL    HW211856   4.746   6.488   3.473
 3653SOL     OW11857   6.149   0.972   3.227
 3653SOL    HW111858   6.099   0.886   3.222
 3653SOL    HW211859   6.191   0.981   3.318
 3654SOL     OW11860   2.257   6.549   1.015
 3654SOL    HW111861   2.284   6.595   0.930
 3654SOL    HW211862   2.306   6.463   1.023
 3655SOL     OW11863   1.342   6.671   4.051
 3655SOL    HW111864   1.294   6.620   4.123
 3655SOL    HW211865   1.406   6.610   4.004
 3656SOL     OW11866   1.858   2.425   1.859
 3656SOL    HW111867   1.812   2.419   1.770
 3656SOL    HW211868   1.912   2.342   1.874
 3657SOL     OW11869   3.964   5.568   6.860
 3657SOL    HW111870   3.904   5.637   6.899
 3657SOL    HW211871   4.016   5.608   6.784
 3658SOL     OW11872   0.819   5.651   5.324
 3658SOL    HW111873   0.744   5.672   5.387
 3658SOL    HW211874   0.902   5.633   5.376
 3659SOL     OW11875   2.629   4.288   6.842
 3659SOL    HW111876   2.710   4.341   6.820
 3659SOL    HW211877   2.569   4.284   6.761
 3660SOL     OW11878   4.558   6.324   2.101
 3660SOL    HW111879   4.502   6.381   2.161
 3660SOL    HW211880   4.631   6.379   2.061
 3661SOL     OW11881   5.098   2.627   6.668
 3661SOL    HW111882   5.005   2.595   6.654
 3661SOL    HW211883   5.161   2.549   6.664
 3662SOL     OW11884   3.686   6.868   4.881
 3662SOL    HW111885   3.597   6.886   4.839
 3662SOL    HW211886   3.754   6.931   4.844
 3663SOL     OW11887   1.413   1.372   0.260
 3663SOL    HW111888   1.338   1.435   0.236
 3663SOL    HW211889   1.408   1.291   0.202
 3664SOL     OW11890   4.770   1.393   0.291
 3664SOL    HW111891   4.807   1.362   0.203
 3664SOL    HW211892   4.787   1.491   0.301
 3665SOL     OW11893   0.311   6.095   5.592
 3665SOL    HW111894   0.235   6.031   5.599
 3665SOL    HW211895   0.292   6.160   5.519
 3666SOL     OW11896   1.576   4.414   3.799
 3666SOL    HW111897   1.557   4.383   3.892
 3666SOL    HW211898   1.651   4.480   3.800
 3667SOL     OW11899   5.932   0.847   0.297
 3667SOL    HW111900   5.898   0.848   0.203
 3667SOL    HW211901   5.855   0.834   0.360
 3668SOL     OW11902   1.412   6.472   2.522
 3668SOL    HW111903   1.321   6.443   2.549
 3668SOL    HW211904   1.463   6.504   2.602
 3669SOL     OW11905   5.877   1.508   4.308
 3669SOL    HW111906   5.964   1.554   4.290
 3669SOL    HW211907   5.820   1.566   4.365
 3670SOL     OW11908   2.158   5.551   0.389
 3670SOL    HW111909   2.192   5.618   0.323
 3670SOL    HW211910   2.119   5.473   0.340
 3671SOL     OW11911   6.471   0.056   3.055
 3671SOL    HW111912   6.529   6.995   3.059
 3671SOL    HW211913   6.445   0.075   2.960
 3672SOL     OW11914   6.036   1.888   0.510
 3672SOL    HW111915   6.059   1.952   0.437
 3672SOL    HW211916   6.002   1.939   0.589
 3673SOL     OW11917   3.959   0.985   6.232
 3673SOL    HW111918   3.876   0.937   6.203
 3673SOL    HW211919   4.017   0.923   6.285
 3674SOL     OW11920   0.559   6.524   6.484
 3674SOL    HW111921   0.655   6.493   6.486
 3674SOL    HW211922   0.502   6.451   6.447
 3675SOL     OW11923   1.924   2.626   5.334
 3675SOL    HW111924   1.858   2.567   5.288
 3675SOL    HW211925   2.004   2.573   5.362
 3676SOL     OW11926   4.239   5.327   3.948
 3676SOL    HW111927   4.266   5.236   3.916
 3676SOL    HW211928   4.140   5.329   3.964
 3677SOL     OW11929   0.928   5.873   3.163
 3677SOL    HW111930   0.938   5.964   3.123
 3677SOL    HW211931   1.000   5.858   3.231
 3678SOL     OW11932   0.976   2.331   3.409
 3678SOL    HW111933   1.075   2.336   3.421
 3678SOL    HW211934   0.940   2.422   3.389
 3679SOL     OW11935   0.208   0.715   2.628
 3679SOL    HW111936   0.294   0.732   2.675
 3679SOL    HW211937   0.220   0.730   2.529
 3680SOL     OW11938   6.327   3.198   3.931
 3680SOL    HW111939   6.366   3.107   3.946
 3680SOL    HW211940   6.353   3.230   3.839
 3681SOL     OW11941   0.834   0.668   5.796
 3681SOL    HW111942   0.779   0.690   5.715
 3681SOL    HW211943   0.844   0.749   5.853
 3682SOL     OW11944   6.118   2.121   5.792
 3682SOL    HW111945   6.018   2.120   5.787
 3682SOL    HW211946   6.154   2.190   5.729
 3683SOL     OW11947   6.502   0.040   4.588
 3683SOL    HW111948   6.549   6.983   4.630
 3683SOL    HW211949   6.431   0.006   4.526
 3684SOL     OW11950   1.935   3.071   1.513
 3684SOL    HW111951   1.880   3.149   1.543
 3684SOL    HW211952   2.031   3.098   1.506
 3685SOL     OW11953   6.335   6.215   6.004
 3685SOL    HW111954   6.302   6.136   5.953
 3685SOL    HW211955   6.258   6.266   6.041
 3686SOL     OW11956   6.414   5.174   3.114
 3686SOL    HW111957   6.371   5.130   3.035
 3686SOL    HW211958   6.346   5.186   3.187
 3687SOL     OW11959   3.104   6.590   5.809
 3687SOL    HW111960   3.106   6.491   5.800
 3687SOL    HW211961   3.010   6.621   5.822
 3688SOL     OW11962   0.923   4.035   6.851
 3688SOL    HW111963   0.875   3.957   6.894
 3688SOL    HW211964   0.971   4.087   6.922
 3689SOL     OW11965   0.776   0.547   5.151
 3689SOL    HW111966   0.799   0.640   5.121
 3689SOL    HW211967   0.711   0.552   5.227
 3690SOL     OW11968   4.469   0.769   6.013
 3690SOL    HW111969   4.499   0.858   6.046
 3690SOL    HW211970   4.372   0.756   6.034
 3691SOL     OW11971   2.542   2.780   6.550
 3691SOL    HW111972   2.506   2.702   6.600
 3691SOL    HW211973   2.610   2.827   6.606
 3692SOL     OW11974   0.951   5.520   4.849
 3692SOL    HW111975   0.875   5.484   4.903
 3692SOL    HW211976   0.979   5.609   4.885
 3693SOL     OW11977   1.574   2.675   2.828
 3693SOL    HW111978   1.624   2.610   2.885
 3693SOL    HW211979   1.499   2.628   2.781
 3694SOL     OW11980   0.685   5.476   3.517
 3694SOL    HW111981   0.672   5.382   3.549
 3694SOL    HW211982   0.687   5.538   3.595
 3695SOL     OW11983   0.618   2.359   2.726
 3695SOL    HW111984   0.693   2.422   2.704
 3695SOL    HW211985   0.575   2.327   2.642
 3696SOL     OW11986   4.714   6.286   5.722
 3696SOL    HW111987   4.677   6.202   5.684
 3696SOL    HW211988   4.643   6.357   5.721
 3697SOL     OW11989   0.002   6.309   3.258
 3697SOL    HW111990   7.002   6.273   3.350
 3697SOL    HW211991   0.022   6.406   3.263
 3698SOL     OW11992   3.739   0.362   5.540
 3698SOL    HW111993   3.816   0.421   5.516
 3698SOL    HW211994   3.663   0.379   5.478
 3699SOL     OW11995   6.656   3.688   3.190
 3699SOL    HW111996   6.695   3.754   3.125
 3699SOL    HW211997   6.559   3.674   3.168
 3700SOL     OW11998   6.089   0.603   3.736
 3700SOL    HW111999   6.039   0.667   3.794
 3700SOL    HW212000   6.033   0.521   3.721
 3701SOL     OW12001   0.444   0.891   4.013
 3701SOL    HW112002   0.443   0.975   3.960
 3701SOL    HW212003   0.510   0.900   4.088
 3702SOL     OW12004   4.189   0.260   1.831
 3702SOL    HW112005   4.202   0.220   1.921
 3702SOL    HW212006   4.187   0.188   1.762
 3703SOL     OW12007   4.245   3.938   5.701
 3703SOL    HW112008   4.317   3.877   5.669
 3703SOL    HW212009   4.204   3.985   5.623
 3704SOL     OW12010   3.088   0.695   2.152
 3704SOL    HW112011   3.065   0.622   2.087
 3704SOL    HW212012   3.007   0.714   2.209
 3705SOL     OW12013   4.787   6.961   3.802
 3705SOL    HW112014   4.832   0.015   3.854
 3705SOL    HW212015   4.739   7.001   3.724
 3706SOL     OW12016   1.949   2.545   4.235
 3706SOL    HW112017   2.013   2.514   4.305
 3706SOL    HW212018   1.886   2.612   4.275
 3707SOL     OW12019   5.371   3.215   5.479
 3707SOL    HW112020   5.328   3.133   5.518
 3707SOL    HW212021   5.311   3.294   5.494
 3708SOL     OW12022   5.847   0.279   6.327
 3708SOL    HW112023   5.903   0.357   6.355
 3708SOL    HW212024   5.770   0.268   6.391
 3709SOL     OW12025   3.734   0.875   6.390
 3709SOL    HW112026   3.642   0.863   6.352
 3709SOL    HW212027   3.738   0.961   6.441
 3710SOL     OW12028   6.542   6.300   0.139
 3710SOL    HW112029   6.615   6.366   0.157
 3710SOL    HW212030   6.477   6.299   0.214
 3711SOL     OW12031   0.268   5.843   2.673
 3711SOL    HW112032   0.177   5.802   2.672
 3711SOL    HW212033   0.263   5.938   2.642
 3712SOL     OW12034   6.834   6.420   6.717
 3712SOL    HW112035   6.792   6.370   6.793
 3712SOL    HW212036   6.868   6.354   6.649
 3713SOL     OW12037   1.977   6.059   4.876
 3713SOL    HW112038   2.058   6.011   4.842
 3713SOL    HW212039   1.947   6.126   4.809
 3714SOL     OW12040   4.962   6.419   4.781
 3714SOL    HW112041   4.984   6.505   4.828
 3714SOL    HW212042   4.862   6.411   4.773
 3715SOL     OW12043   5.806   4.193   4.773
 3715SOL    HW112044   5.861   4.114   4.748
 3715SOL    HW212045   5.808   4.260   4.698
 3716SOL     OW12046   0.039   6.753   4.593
 3716SOL    HW112047   6.981   6.769   4.531
 3716SOL    HW212048   0.024   6.667   4.642
 3717SOL     OW12049   5.967   5.678   0.376
 3717SOL    HW112050   6.008   5.738   0.444
 3717SOL    HW212051   6.019   5.684   0.291
 3718SOL     OW12052   1.539   6.754   6.621
 3718SOL    HW112053   1.540   6.665   6.575
 3718SOL    HW212054   1.554   6.741   6.719
 3719SOL     OW12055   4.634   4.299   0.936
 3719SOL    HW112056   4.700   4.362   0.977
 3719SOL    HW212057   4.589   4.245   1.007
 3720SOL     OW12058   6.541   2.557   6.728
 3720SOL    HW112059   6.611   2.611   6.775
 3720SOL    HW212060   6.577   2.466   6.708
 3721SOL     OW12061   5.308   4.899   0.031
 3721SOL    HW112062   5.237   4.833   0.007
 3721SOL    HW212063   5.291   4.935   0.122
 3722SOL     OW12064   6.728   6.455   2.303
 3722SOL    HW112065   6.737   6.436   2.205
 3722SOL    HW212066   6.800   6.406   2.353
 3723SOL     OW12067   5.556   6.814   2.094
 3723SOL    HW112068   5.559   6.911   2.118
 3723SOL    HW212069   5.567   6.758   2.176
 3724SOL     OW12070   1.790   5.124   6.595
 3724SOL    HW112071   1.865   5.134   6.530
 3724SOL    HW212072   1.814   5.054   6.663
 3725SOL     OW12073   6.207   6.093   6.954
 3725SOL    HW112074   6.137   6.163   6.961
 3725SOL    HW212075   6.211   6.041   0.020
 3726SOL     OW12076   6.868   4.062   1.456
 3726SOL    HW112077   6.957   4.081   1.416
 3726SOL    HW212078   6.805   4.031   1.385
 3727SOL     OW12079   0.624   3.247   5.902
 3727SOL    HW112080   0.583   3.155   5.898
 3727SOL    HW212081   0.665   3.261   5.992
 3728SOL     OW12082   2.166   3.638   0.115
 3728SOL    HW112083   2.253   3.590   0.106
 3728SOL    HW212084   2.157   3.674   0.208
 3729SOL     OW12085   0.956   2.391   2.856
 3729SOL    HW112086   0.958   2.335   2.772
 3729SOL    HW212087   0.967   2.487   2.832
 3730SOL     OW12088   2.383   6.639   0.163
 3730SOL    HW112089   2.394   6.730   0.201
 3730SOL    HW212090   2.370   6.645   0.064
 3731SOL     OW12091   5.073   1.830   0.519
 3731SOL    HW112092   5.084   1.768   0.442
 3731SOL    HW212093   4.989   1.809   0.568
 3732SOL     OW12094   2.233   3.470   5.799
 3732SOL    HW112095   2.165   3.442   5.866
 3732SOL    HW212096   2.195   3.463   5.707
 3733SOL     OW12097   2.219   3.921   1.814
 3733SOL    HW112098   2.175   3.836   1.841
 3733SOL    HW212099   2.235   3.920   1.715
 3734SOL     OW12100   4.504   1.568   1.913
 3734SOL    HW112101   4.458   1.569   2.002
 3734SOL    HW212102   4.574   1.497   1.912
 3735SOL     OW12103   1.288   1.741   2.801
 3735SOL    HW112104   1.229   1.760   2.723
 3735SOL    HW212105   1.262   1.799   2.878
 3736SOL     OW12106   0.007   2.979   0.704
 3736SOL    HW112107   6.955   2.915   0.733
 3736SOL    HW212108   7.017   2.997   0.606
 3737SOL     OW12109   4.941   0.484   3.528
 3737SOL    HW112110   4.991   0.413   3.479
 3737SOL    HW212111   4.928   0.563   3.467
 3738SOL     OW12112   6.085   5.582   3.107
 3738SOL    HW112113   6.145   5.662   3.113
 3738SOL    HW212114   6.039   5.581   3.019
 3739SOL     OW12115   1.668   4.009   2.846
 3739SOL    HW112116   1.573   4.023   2.874
 3739SOL    HW212117   1.700   4.090   2.796
 3740SOL     OW12118   4.343   0.605   6.498
 3740SOL    HW112119   4.422   0.667   6.491
 3740SOL    HW212120   4.332   0.555   6.412
 3741SOL     OW12121   4.649   3.712   1.052
 3741SOL    HW112122   4.733   3.736   1.101
 3741SOL    HW212123   4.570   3.747   1.102
 3742SOL     OW12124   2.882   2.395   5.586
 3742SOL    HW112125   2.955   2.347   5.538
 3742SOL    HW212126   2.793   2.358   5.559
 3743SOL     OW12127   6.095   4.953   0.624
 3743SOL    HW112128   6.067   4.980   0.532
 3743SOL    HW212129   6.182   4.903   0.618
 3744SOL     OW12130   0.463   5.712   4.230
 3744SOL    HW112131   0.414   5.796   4.206
 3744SOL    HW212132   0.397   5.637   4.239
 3745SOL     OW12133   3.268   5.323   3.072
 3745SOL    HW112134   3.303   5.233   3.100
 3745SOL    HW212135   3.345   5.382   3.046
 3746SOL     OW12136   4.586   1.501   1.428
 3746SOL    HW112137   4.530   1.442   1.369
 3746SOL    HW212138   4.528   1.546   1.495
 3747SOL     OW12139   3.168   6.682   6.227
 3747SOL    HW112140   3.166   6.755   6.295
 3747SOL    HW212141   3.159   6.593   6.272
 3748SOL     OW12142   5.722   1.178   1.531
 3748SOL    HW112143   5.769   1.265   1.519
 3748SOL    HW212144   5.639   1.192   1.586
 3749SOL     OW12145   2.061   6.721   4.471
 3749SOL    HW112146   2.081   6.661   4.394
 3749SOL    HW212147   2.095   6.813   4.452
 3750SOL     OW12148   1.335   4.070   0.636
 3750SOL    HW112149   1.429   4.041   0.621
 3750SOL    HW212150   1.324   4.103   0.729
 3751SOL     OW12151   0.000   3.829   2.876
 3751SOL    HW112152   0.093   3.811   2.911
 3751SOL    HW212153   6.967   3.744   2.879
 3752SOL     OW12154   4.974   0.781   5.766
 3752SOL    HW112155   4.941   0.874   5.780
 3752SOL    HW212156   5.068   0.773   5.799
 3753SOL     OW12157   6.437   0.871   4.469
 3753SOL    HW112158   6.483   0.903   4.385
 3753SOL    HW212159   6.482   0.788   4.502
 3754SOL     OW12160   2.097   0.527   1.998
 3754SOL    HW112161   2.013   0.475   2.011
 3754SOL    HW212162   2.080   0.624   2.016
 3755SOL     OW12163   3.420   4.935   4.602
 3755SOL    HW112164   3.492   4.965   4.665
 3755SOL    HW212165   3.332   4.933   4.650
 3756SOL     OW12166   2.907   6.065   0.091
 3756SOL    HW112167   2.917   6.056   0.191
 3756SOL    HW212168   2.926   5.977   0.048
 3757SOL     OW12169   6.202   4.962   1.751
 3757SOL    HW112170   6.296   4.936   1.772
 3757SOL    HW212171   6.184   5.054   1.785
 3758SOL     OW12172   1.986   0.704   4.382
 3758SOL    HW112173   2.017   0.798   4.368
 3758SOL    HW212174   1.896   0.704   4.425
 3759SOL     OW12175   5.358   0.959   4.435
 3759SOL    HW112176   5.264   0.925   4.436
 3759SOL    HW212177   5.364   1.040   4.377
 3760SOL     OW12178   0.253   0.450   3.940
 3760SOL    HW112179   0.273   0.501   4.024
 3760SOL    HW212180   0.155   0.460   3.919
 3761SOL     OW12181   5.710   1.632   4.488
 3761SOL    HW112182   5.718   1.665   4.582
 3761SOL    HW212183   5.616   1.646   4.456
 3762SOL     OW12184   1.549   4.007   2.386
 3762SOL    HW112185   1.571   3.916   2.423
 3762SOL    HW212186   1.585   4.015   2.293
 3763SOL     OW12187   6.902   4.180   0.488
 3763SOL    HW112188   6.817   4.191   0.437
 3763SOL    HW212189   6.888   4.116   0.563
 3764SOL     OW12190   2.093   6.954   3.141
 3764SOL    HW112191   2.161   6.890   3.176
 3764SOL    HW212192   2.119   0.028   3.165
 3765SOL     OW12193   6.422   1.844   1.187
 3765SOL    HW112194   6.423   1.914   1.116
 3765SOL    HW212195   6.329   1.835   1.223
 3766SOL     OW12196   2.049   2.776   3.830
 3766SOL    HW112197   1.961   2.732   3.848
 3766SOL    HW212198   2.080   2.823   3.912
 3767SOL     OW12199   2.883   4.423   6.244
 3767SOL    HW112200   2.885   4.497   6.177
 3767SOL    HW212201   2.808   4.361   6.222
 3768SOL     OW12202   1.279   1.070   4.227
 3768SOL    HW112203   1.219   1.139   4.186
 3768SOL    HW212204   1.344   1.114   4.289
 3769SOL     OW12205   5.659   5.737   4.898
 3769SOL    HW112206   5.610   5.752   4.812
 3769SOL    HW212207   5.668   5.639   4.915
 3770SOL     OW12208   0.929   0.890   0.619
 3770SOL    HW112209   0.876   0.870   0.701
 3770SOL    HW212210   0.879   0.953   0.561
 3771SOL     OW12211   6.973   5.117   1.025
 3771SOL    HW112212   6.899   5.068   1.072
 3771SOL    HW212213   6.937   5.156   0.940
 3772SOL     OW12214   1.179   6.296   0.619
 3772SOL    HW112215   1.128   6.214   0.594
 3772SOL    HW212216   1.207   6.345   0.537
 3773SOL     OW12217   5.853   3.728   5.850
 3773SOL    HW112218   5.771   3.704   5.799
 3773SOL    HW212219   5.934   3.699   5.799
 3774SOL     OW12220   5.154   5.363   1.636
 3774SOL    HW112221   5.096   5.320   1.704
 3774SOL    HW212222   5.240   5.391   1.679
 3775SOL     OW12223   4.148   4.765   3.214
 3775SOL    HW112224   4.107   4.847   3.176
 3775SOL    HW212225   4.167   4.700   3.141
 3776SOL     OW12226   4.080   2.980   6.045
 3776SOL    HW112227   3.989   3.018   6.062
 3776SOL    HW212228   4.102   2.915   6.118
 3777SOL     OW12229   2.446   6.456   4.247
 3777SOL    HW112230   2.410   6.400   4.322
 3777SOL    HW212231   2.517   6.404   4.198
 3778SOL     OW12232   3.072   6.101   4.386
 3778SOL    HW112233   3.033   6.137   4.471
 3778SOL    HW212234   3.055   6.003   4.380
 3779SOL     OW12235   0.167   5.263   0.613
 3779SOL    HW112236   0.208   5.326   0.547
 3779SOL    HW212237   0.238   5.220   0.668
 3780SOL     OW12238   0.073   2.277   2.155
 3780SOL    HW112239   0.158   2.229   2.173
 3780SOL    HW212240   0.093   2.374   2.138
 3781SOL     OW12241   1.189   6.822   4.855
 3781SOL    HW112242   1.259   6.892   4.869
 3781SOL    HW212243   1.154   6.792   4.943
 3782SOL     OW12244   3.763   6.195   2.068
 3782SOL    HW112245   3.803   6.110   2.035
 3782SOL    HW212246   3.789   6.270   2.007
 3783SOL     OW12247   5.421   4.887   5.347
 3783SOL    HW112248   5.339   4.898   5.291
 3783SOL    HW212249   5.400   4.834   5.429
 3784SOL     OW12250   5.364   2.514   2.631
 3784SOL    HW112251   5.402   2.605   2.643
 3784SOL    HW212252   5.316   2.509   2.543
 3785SOL     OW12253   0.751   3.177   4.824
 3785SOL    HW112254   0.656   3.161   4.797
 3785SOL    HW212255   0.759   3.180   4.923
 3786SOL     OW12256   2.587   2.109   3.675
 3786SOL    HW112257   2.579   2.060   3.588
 3786SOL    HW212258   2.545   2.054   3.748
 3787SOL     OW12259   4.120   0.535   2.732
 3787SOL    HW112260   4.097   0.612   2.674
 3787SOL    HW212261   4.170   0.467   2.679
 3788SOL     OW12262   0.139   3.695   4.850
 3788SOL    HW112263   0.179   3.672   4.761
 3788SOL    HW212264   0.135   3.794   4.860
 3789SOL     OW12265   1.064   2.248   3.108
 3789SOL    HW112266   1.032   2.282   3.196
 3789SOL    HW212267   0.996   2.267   3.037
 3790SOL     OW12268   1.082   5.578   0.420
 3790SOL    HW112269   1.173   5.620   0.412
 3790SOL    HW212270   1.032   5.624   0.493
 3791SOL     OW12271   5.382   1.867   5.667
 3791SOL    HW112272   5.395   1.903   5.759
 3791SOL    HW212273   5.294   1.898   5.631
 3792SOL     OW12274   0.889   0.765   4.409
 3792SOL    HW112275   0.839   0.721   4.334
 3792SOL    HW212276   0.874   0.714   4.494
 3793SOL     OW12277   6.040   6.070   0.613
 3793SOL    HW112278   6.018   6.132   0.537
 3793SOL    HW212279   5.956   6.028   0.647
 3794SOL     OW12280   1.805   3.716   1.345
 3794SOL    HW112281   1.836   3.625   1.319
 3794SOL    HW212282   1.782   3.717   1.442
 3795SOL     OW12283   2.878   5.847   1.019
 3795SOL    HW112284   2.948   5.911   0.988
 3795SOL    HW212285   2.885   5.762   0.968
 3796SOL     OW12286   4.113   2.234   1.111
 3796SOL    HW112287   4.207   2.266   1.099
 3796SOL    HW212288   4.065   2.240   1.023
 3797SOL     OW12289   1.082   3.999   2.694
 3797SOL    HW112290   1.126   4.001   2.783
 3797SOL    HW212291   1.051   3.906   2.674
 3798SOL     OW12292   2.708   6.738   3.128
 3798SOL    HW112293   2.675   6.659   3.181
 3798SOL    HW212294   2.647   6.754   3.051
 3799SOL     OW12295   6.564   2.464   2.908
 3799SOL    HW112296   6.638   2.509   2.858
 3799SOL    HW212297   6.564   2.366   2.885
 3800SOL     OW12298   5.549   1.550   3.238
 3800SOL    HW112299   5.639   1.543   3.194
 3800SOL    HW212300   5.514   1.643   3.228
 3801SOL     OW12301   5.236   6.563   2.105
 3801SOL    HW112302   5.248   6.610   2.018
 3801SOL    HW212303   5.294   6.481   2.107
 3802SOL     OW12304   0.107   1.779   2.234
 3802SOL    HW112305   0.094   1.839   2.313
 3802SOL    HW212306   0.179   1.817   2.175
 3803SOL     OW12307   3.141   4.054   3.626
 3803SOL    HW112308   3.059   4.088   3.671
 3803SOL    HW212309   3.208   4.026   3.694
 3804SOL     OW12310   3.722   0.539   4.395
 3804SOL    HW112311   3.808   0.529   4.344
 3804SOL    HW212312   3.736   0.602   4.471
 3805SOL     OW12313   2.173   2.609   0.864
 3805SOL    HW112314   2.114   2.689   0.878
 3805SOL    HW212315   2.257   2.620   0.917
 3806SOL     OW12316   4.048   4.475   6.472
 3806SOL    HW112317   4.136   4.441   6.439
 3806SOL    HW212318   3.984   4.481   6.396
 3807SOL     OW12319   1.612   5.025   4.432
 3807SOL    HW112320   1.656   5.099   4.482
 3807SOL    HW212321   1.565   5.061   4.351
 3808SOL     OW12322   4.833   0.288   5.676
 3808SOL    HW112323   4.855   0.238   5.760
 3808SOL    HW212324   4.891   0.255   5.602
 3809SOL     OW12325   5.903   2.139   1.309
 3809SOL    HW112326   5.960   2.058   1.314
 3809SOL    HW212327   5.949   2.209   1.255
 3810SOL     OW12328   6.362   2.563   3.137
 3810SOL    HW112329   6.422   2.544   3.214
 3810SOL    HW212330   6.398   2.520   3.055
 3811SOL     OW12331   0.047   5.160   4.664
 3811SOL    HW112332   0.139   5.198   4.655
 3811SOL    HW212333   0.049   5.082   4.727
 3812SOL     OW12334   3.393   6.034   6.791
 3812SOL    HW112335   3.344   6.069   6.871
 3812SOL    HW212336   3.432   6.110   6.740
 3813SOL     OW12337   6.043   3.796   1.063
 3813SOL    HW112338   6.127   3.846   1.044
 3813SOL    HW212339   6.066   3.706   1.101
 3814SOL     OW12340   0.080   6.935   3.878
 3814SOL    HW112341   0.166   6.945   3.828
 3814SOL    HW212342   0.058   0.002   3.923
 3815SOL     OW12343   5.437   3.201   0.501
 3815SOL    HW112344   5.437   3.103   0.483
 3815SOL    HW212345   5.450   3.217   0.599
 3816SOL     OW12346   0.433   6.528   5.399
 3816SOL    HW112347   0.464   6.433   5.407
 3816SOL    HW212348   0.442   6.574   5.487
 3817SOL     OW12349   4.887   3.428   2.829
 3817SOL    HW112350   4.878   3.449   2.926
 3817SOL    HW212351   4.863   3.509   2.775
 3818SOL     OW12352   0.293   0.418   1.219
 3818SOL    HW112353   0.346   0.485   1.271
 3818SOL    HW212354   0.316   0.424   1.122
 3819SOL     OW12355   6.330   4.468   2.909
 3819SOL    HW112356   6.411   4.505   2.864
 3819SOL    HW212357   6.352   4.442   3.003
 3820SOL     OW12358   5.560   6.612   3.992
 3820SOL    HW112359   5.590   6.702   3.960
 3820SOL    HW212360   5.528   6.557   3.915
 3821SOL     OW12361   0.600   6.746   7.003
 3821SOL    HW112362   0.596   6.827   6.945
 3821SOL    HW212363   0.578   6.771   0.078
 3822SOL     OW12364   3.456   0.610   6.652
 3822SOL    HW112365   3.376   0.603   6.592
 3822SOL    HW212366   3.469   0.524   6.701
 3823SOL     OW12367   5.090   4.878   6.196
 3823SOL    HW112368   5.092   4.934   6.279
 3823SOL    HW212369   5.181   4.877   6.155
 3824SOL     OW12370   1.257   3.079   0.681
 3824SOL    HW112371   1.186   3.128   0.732
 3824SOL    HW212372   1.215   3.032   0.603
 3825SOL     OW12373   0.904   4.279   0.888
 3825SOL    HW112374   0.908   4.180   0.904
 3825SOL    HW212375   0.913   4.327   0.975
 3826SOL     OW12376   6.863   3.863   2.674
 3826SOL    HW112377   6.902   3.844   2.583
 3826SOL    HW212378   6.936   3.857   2.742
 3827SOL     OW12379   0.951   0.888   0.964
 3827SOL    HW112380   0.882   0.916   0.897
 3827SOL    HW212381   0.927   0.926   1.054
 3828SOL     OW12382   3.668   4.169   4.950
 3828SOL    HW112383   3.582   4.143   4.907
 3828SOL    HW212384   3.655   4.179   5.049
 3829SOL     OW12385   0.839   5.509   2.347
 3829SOL    HW112386   0.795   5.425   2.316
 3829SOL    HW212387   0.814   5.527   2.442
 3830SOL     OW12388   0.190   0.541   5.206
 3830SOL    HW112389   0.182   0.474   5.131
 3830SOL    HW212390   0.221   0.494   5.289
 3831SOL     OW12391   4.125   2.253   2.963
 3831SOL    HW112392   4.198   2.316   2.987
 3831SOL    HW212393   4.140   2.165   3.009
 3832SOL     OW12394   0.325   0.291   1.646
 3832SOL    HW112395   0.390   0.215   1.649
 3832SOL    HW212396   0.366   0.367   1.594
 3833SOL     OW12397   1.757   6.293   6.688
 3833SOL    HW112398   1.679   6.327   6.740
 3833SOL    HW212399   1.755   6.332   6.596
 3834SOL     OW12400   4.209   4.166   1.472
 3834SOL    HW112401   4.195   4.152   1.570
 3834SOL    HW212402   4.249   4.257   1.456
 3835SOL     OW12403   3.801   6.195   5.355
 3835SOL    HW112404   3.859   6.178   5.436
 3835SOL    HW212405   3.777   6.108   5.312
 3836SOL     OW12406   0.684   4.738   5.929
 3836SOL    HW112407   0.762   4.719   5.869
 3836SOL    HW212408   0.642   4.826   5.902
 3837SOL     OW12409   3.926   5.193   5.231
 3837SOL    HW112410   3.923   5.139   5.147
 3837SOL    HW212411   3.944   5.133   5.308
 3838SOL     OW12412   1.608   1.434   3.371
 3838SOL    HW112413   1.633   1.340   3.395
 3838SOL    HW212414   1.537   1.432   3.301
 3839SOL     OW12415   4.471   0.569   3.087
 3839SOL    HW112416   4.550   0.631   3.090
 3839SOL    HW212417   4.424   0.571   3.176
 3840SOL     OW12418   2.385   1.469   6.234
 3840SOL    HW112419   2.384   1.369   6.223
 3840SOL    HW212420   2.476   1.499   6.262
 3841SOL     OW12421   0.774   4.431   3.980
 3841SOL    HW112422   0.826   4.436   4.065
 3841SOL    HW212423   0.679   4.458   3.997
 3842SOL     OW12424   2.289   2.363   4.249
 3842SOL    HW112425   2.318   2.369   4.344
 3842SOL    HW212426   2.360   2.400   4.189
 3843SOL     OW12427   5.595   3.584   1.067
 3843SOL    HW112428   5.515   3.529   1.046
 3843SOL    HW212429   5.632   3.557   1.156
 3844SOL     OW12430   1.451   4.651   0.133
 3844SOL    HW112431   1.459   4.662   0.232
 3844SOL    HW212432   1.369   4.698   0.101
 3845SOL     OW12433   2.539   6.164   0.033
 3845SOL    HW112434   2.558   6.100   0.108
 3845SOL    HW212435   2.591   6.136   6.972
 3846SOL     OW12436   0.834   3.296   4.587
 3846SOL    HW112437   0.807   3.234   4.660
 3846SOL    HW212438   0.795   3.386   4.604
 3847SOL     OW12439   5.371   2.072   4.274
 3847SOL    HW112440   5.302   2.134   4.235
 3847SOL    HW212441   5.326   1.991   4.311
 3848SOL     OW12442   4.898   3.215   3.210
 3848SOL    HW112443   4.910   3.276   3.132
 3848SOL    HW212444   4.839   3.139   3.185
 3849SOL     OW12445   0.068   6.966   6.656
 3849SOL    HW112446   0.129   6.902   6.704
 3849SOL    HW212447   7.004   6.979   6.710
 3850SOL     OW12448   3.381   3.017   1.176
 3850SOL    HW112449   3.479   3.002   1.191
 3850SOL    HW212450   3.337   3.045   1.261
 3851SOL     OW12451   6.720   4.901   3.741
 3851SOL    HW112452   6.647   4.888   3.807
 3851SOL    HW212453   6.708   4.837   3.665
 3852SOL     OW12454   3.477   6.493   4.069
 3852SOL    HW112455   3.547   6.471   4.002
 3852SOL    HW212456   3.404   6.425   4.065
 3853SOL     OW12457   2.088   1.741   3.428
 3853SOL    HW112458   2.049   1.662   3.475
 3853SOL    HW212459   2.133   1.801   3.494
 3854SOL     OW12460   1.239   3.138   3.122
 3854SOL    HW112461   1.294   3.056   3.136
 3854SOL    HW212462   1.277   3.193   3.047
 3855SOL     OW12463   4.109   6.428   0.595
 3855SOL    HW112464   4.097   6.340   0.550
 3855SOL    HW212465   4.197   6.467   0.568
 3856SOL     OW12466   0.569   1.471   5.877
 3856SOL    HW112467   0.483   1.455   5.926
 3856SOL    HW212468   0.554   1.539   5.806
 3857SOL     OW12469   1.657   6.410   5.547
 3857SOL    HW112470   1.732   6.430   5.610
 3857SOL    HW212471   1.692   6.356   5.471
 3858SOL     OW12472   3.334   1.302   5.810
 3858SOL    HW112473   3.331   1.321   5.908
 3858SOL    HW212474   3.240   1.292   5.775
 3859SOL     OW12475   6.155   1.084   1.171
 3859SOL    HW112476   6.078   1.146   1.181
 3859SOL    HW212477   6.239   1.136   1.162
 3860SOL     OW12478   1.908   1.046   4.624
 3860SOL    HW112479   1.894   1.135   4.669
 3860SOL    HW212480   2.006   1.029   4.614
 3861SOL     OW12481   4.665   5.915   2.850
 3861SOL    HW112482   4.761   5.890   2.861
 3861SOL    HW212483   4.656   6.014   2.858
 3862SOL     OW12484   0.799   0.567   4.568
 3862SOL    HW112485   0.709   0.523   4.571
 3862SOL    HW212486   0.867   0.503   4.533
 3863SOL     OW12487   5.877   1.541   6.990
 3863SOL    HW112488   5.887   1.614   6.922
 3863SOL    HW212489   5.848   1.581   0.057
 3864SOL     OW12490   2.353   0.434   4.938
 3864SOL    HW112491   2.375   0.525   4.975
 3864SOL    HW212492   2.380   0.365   5.005
 3865SOL     OW12493   4.388   1.397   0.613
 3865SOL    HW112494   4.319   1.325   0.623
 3865SOL    HW212495   4.346   1.478   0.571
 3866SOL     OW12496   3.415   1.411   6.711
 3866SOL    HW112497   3.496   1.384   6.763
 3866SOL    HW212498   3.411   1.511   6.705
 3867SOL     OW12499   1.580   4.089   3.282
 3867SOL    HW112500   1.537   4.011   3.328
 3867SOL    HW212501   1.654   4.056   3.223
 3868SOL     OW12502   4.365   0.569   6.760
 3868SOL    HW112503   4.440   0.504   6.767
 3868SOL    HW212504   4.350   0.593   6.664
 3869SOL     OW12505   6.386   3.095   3.660
 3869SOL    HW112506   6.297   3.063   3.625
 3869SOL    HW212507   6.411   3.040   3.740
 3870SOL     OW12508   6.495   6.501   1.965
 3870SOL    HW112509   6.514   6.587   1.916
 3870SOL    HW212510   6.551   6.428   1.927
 3871SOL     OW12511   2.941   6.798   3.368
 3871SOL    HW112512   3.029   6.776   3.410
 3871SOL    HW212513   2.869   6.741   3.410
 3872SOL     OW12514   3.188   3.074   4.408
 3872SOL    HW112515   3.095   3.103   4.382
 3872SOL    HW212516   3.247   3.154   4.417
 3873SOL     OW12517   5.066   4.062   1.295
 3873SOL    HW112518   5.130   4.006   1.242
 3873SOL    HW212519   5.105   4.152   1.311
 3874SOL     OW12520   4.318   0.980   0.274
 3874SOL    HW112521   4.272   0.915   0.334
 3874SOL    HW212522   4.251   1.046   0.239
 3875SOL     OW12523   1.926   3.136   3.719
 3875SOL    HW112524   1.880   3.163   3.635
 3875SOL    HW212525   2.025   3.132   3.703
 3876SOL     OW12526   3.454   5.534   1.131
 3876SOL    HW112527   3.427   5.628   1.111
 3876SOL    HW212528   3.498   5.530   1.220
 3877SOL     OW12529   6.627   2.620   1.003
 3877SOL    HW112530   6.702   2.636   0.938
 3877SOL    HW212531   6.662   2.568   1.081
 3878SOL     OW12532   4.753   6.550   4.611
 3878SOL    HW112533   4.815   6.598   4.549
 3878SOL    HW212534   4.667   6.601   4.619
 3879SOL     OW12535   5.432   5.381   0.680
 3879SOL    HW112536   5.481   5.321   0.743
 3879SOL    HW212537   5.343   5.406   0.720
 3880SOL     OW12538   5.057   4.094   4.500
 3880SOL    HW112539   4.984   4.031   4.525
 3880SOL    HW212540   5.025   4.156   4.429
 3881SOL     OW12541   1.358   3.554   1.771
 3881SOL    HW112542   1.441   3.504   1.797
 3881SOL    HW212543   1.363   3.647   1.807
 3882SOL     OW12544   0.483   1.103   6.922
 3882SOL    HW112545   0.398   1.113   6.974
 3882SOL    HW212546   0.561   1.114   6.983
 3883SOL     OW12547   3.954   1.029   2.717
 3883SOL    HW112548   4.037   1.066   2.759
 3883SOL    HW212549   3.874   1.059   2.769
 3884SOL     OW12550   0.471   5.812   2.362
 3884SOL    HW112551   0.382   5.799   2.318
 3884SOL    HW212552   0.459   5.825   2.460
 3885SOL     OW12553   6.216   5.688   3.357
 3885SOL    HW112554   6.227   5.622   3.283
 3885SOL    HW212555   6.305   5.708   3.398
 3886SOL     OW12556   4.473   5.862   5.292
 3886SOL    HW112557   4.416   5.830   5.368
 3886SOL    HW212558   4.541   5.792   5.270
 3887SOL     OW12559   0.780   6.586   6.885
 3887SOL    HW112560   0.833   6.638   6.819
 3887SOL    HW212561   0.715   6.647   6.931
 3888SOL     OW12562   6.541   0.205   5.241
 3888SOL    HW112563   6.623   0.257   5.217
 3888SOL    HW212564   6.565   0.131   5.304
 3889SOL     OW12565   6.771   3.062   0.566
 3889SOL    HW112566   6.822   2.998   0.508
 3889SOL    HW212567   6.676   3.066   0.534
 3890SOL     OW12568   5.881   5.240   3.555
 3890SOL    HW112569   5.927   5.250   3.643
 3890SOL    HW212570   5.911   5.156   3.511
 3891SOL     OW12571   5.284   3.859   4.261
 3891SOL    HW112572   5.320   3.903   4.343
 3891SOL    HW212573   5.234   3.926   4.206
 3892SOL     OW12574   0.408   2.377   0.599
 3892SOL    HW112575   0.478   2.446   0.612
 3892SOL    HW212576   0.343   2.380   0.675
 3893SOL     OW12577   4.268   3.733   0.396
 3893SOL    HW112578   4.333   3.662   0.426
 3893SOL    HW212579   4.319   3.815   0.368
 3894SOL     OW12580   5.032   0.863   6.984
 3894SOL    HW112581   5.054   0.943   0.022
 3894SOL    HW212582   5.000   0.789   0.023
 3895SOL     OW12583   0.825   6.934   5.710
 3895SOL    HW112584   0.725   6.924   5.708
 3895SOL    HW212585   0.849   7.017   5.760
 3896SOL     OW12586   0.779   0.901   5.970
 3896SOL    HW112587   0.877   0.923   5.967
 3896SOL    HW212588   0.749   0.893   6.065
 3897SOL     OW12589   3.987   5.693   2.425
 3897SOL    HW112590   3.890   5.716   2.416
 3897SOL    HW212591   3.998   5.624   2.496
 3898SOL     OW12592   2.661   2.636   6.044
 3898SOL    HW112593   2.609   2.558   6.011
 3898SOL    HW212594   2.750   2.605   6.077
 3899SOL     OW12595   4.534   6.734   5.573
 3899SOL    HW112596   4.625   6.705   5.545
 3899SOL    HW212597   4.528   6.834   5.568
 3900SOL     OW12598   4.524   2.511   3.660
 3900SOL    HW112599   4.426   2.522   3.645
 3900SOL    HW212600   4.550   2.558   3.744
 3901SOL     OW12601   3.573   0.583   6.268
 3901SOL    HW112602   3.550   0.679   6.275
 3901SOL    HW212603   3.490   0.527   6.273
 3902SOL     OW12604   6.537   2.865   1.819
 3902SOL    HW112605   6.515   2.783   1.872
 3902SOL    HW212606   6.598   2.840   1.743
 3903SOL     OW12607   3.760   6.247   0.491
 3903SOL    HW112608   3.706   6.288   0.565
 3903SOL    HW212609   3.758   6.147   0.500
 3904SOL     OW12610   1.878   1.072   6.129
 3904SOL    HW112611   1.861   1.149   6.067
 3904SOL    HW212612   1.894   1.107   6.221
 3905SOL     OW12613   6.729   6.903   6.439
 3905SOL    HW112614   6.673   6.949   6.369
 3905SOL    HW212615   6.807   6.961   6.462
 3906SOL     OW12616   5.800   6.314   5.236
 3906SOL    HW112617   5.851   6.386   5.282
 3906SOL    HW212618   5.781   6.341   5.142
 3907SOL     OW12619   6.320   0.669   3.897
 3907SOL    HW112620   6.239   0.666   3.839
 3907SOL    HW212621   6.295   0.648   3.991
 3908SOL     OW12622   0.802   2.335   6.862
 3908SOL    HW112623   0.893   2.362   6.891
 3908SOL    HW212624   0.733   2.380   6.919
 3909SOL     OW12625   6.382   5.991   5.282
 3909SOL    HW112626   6.370   6.031   5.191
 3909SOL    HW212627   6.419   5.898   5.273
 3910SOL     OW12628   3.014   3.707   2.751
 3910SOL    HW112629   2.974   3.688   2.661
 3910SOL    HW212630   2.987   3.634   2.815
 3911SOL     OW12631   5.464   1.911   5.253
 3911SOL    HW112632   5.525   1.889   5.329
 3911SOL    HW212633   5.370   1.919   5.287
 3912SOL     OW12634   5.291   0.801   5.384
 3912SOL    HW112635   5.349   0.720   5.378
 3912SOL    HW212636   5.328   0.872   5.324
 3913SOL     OW12637   2.565   6.468   5.668
 3913SOL    HW112638   2.510   6.470   5.585
 3913SOL    HW212639   2.593   6.561   5.692
 3914SOL     OW12640   2.630   1.008   1.727
 3914SOL    HW112641   2.688   1.077   1.769
 3914SOL    HW212642   2.648   1.004   1.629
 3915SOL     OW12643   4.801   5.219   1.165
 3915SOL    HW112644   4.874   5.248   1.228
 3915SOL    HW212645   4.833   5.226   1.071
 3916SOL     OW12646   1.132   0.053   4.094
 3916SOL    HW112647   1.061   0.111   4.134
 3916SOL    HW212648   1.221   0.095   4.110
 3917SOL     OW12649   6.728   6.273   6.936
 3917SOL    HW112650   6.811   6.236   6.978
 3917SOL    HW212651   6.655   6.277   7.004
 3918SOL     OW12652   5.420   5.440   1.697
 3918SOL    HW112653   5.436   5.470   1.603
 3918SOL    HW212654   5.435   5.517   1.759
 3919SOL     OW12655   3.785   6.686   0.402
 3919SOL    HW112656   3.741   6.774   0.421
 3919SOL    HW212657   3.814   6.645   0.489
 3920SOL     OW12658   3.254   3.139   0.751
 3920SOL    HW112659   3.220   3.230   0.724
 3920SOL    HW212660   3.336   3.118   0.699
 3921SOL     OW12661   0.316   3.638   1.702
 3921SOL    HW112662   0.288   3.550   1.663
 3921SOL    HW212663   0.262   3.711   1.660
 3922SOL     OW12664   6.569   3.413   2.179
 3922SOL    HW112665   6.581   3.511   2.193
 3922SOL    HW212666   6.480   3.384   2.216
 3923SOL     OW12667   6.894   1.014   0.421
 3923SOL    HW112668   6.964   1.081   0.447
 3923SOL    HW212669   6.921   0.969   0.336
 3924SOL     OW12670   6.210   5.210   3.297
 3924SOL    HW112671   6.125   5.257   3.323
 3924SOL    HW212672   6.285   5.241   3.356
 3925SOL     OW12673   2.302   5.460   1.701
 3925SOL    HW112674   2.317   5.464   1.800
 3925SOL    HW212675   2.233   5.389   1.681
 3926SOL     OW12676   6.422   5.496   3.097
 3926SOL    HW112677   6.453   5.479   3.190
 3926SOL    HW212678   6.401   5.409   3.052
 3927SOL     OW12679   6.608   2.535   4.104
 3927SOL    HW112680   6.559   2.565   4.186
 3927SOL    HW212681   6.702   2.571   4.107
 3928SOL     OW12682   3.988   5.906   6.122
 3928SOL    HW112683   4.043   5.823   6.123
 3928SOL    HW212684   4.001   5.956   6.207
 3929SOL     OW12685   6.898   0.833   5.151
 3929SOL    HW112686   6.845   0.851   5.234
 3929SOL    HW212687   6.995   0.842   5.170
 3930SOL     OW12688   2.880   1.841   3.672
 3930SOL    HW112689   2.912   1.923   3.719
 3930SOL    HW212690   2.945   1.766   3.688
 3931SOL     OW12691   1.509   0.573   1.384
 3931SOL    HW112692   1.601   0.606   1.361
 3931SOL    HW212693   1.500   0.478   1.354
 3932SOL     OW12694   1.984   4.721   3.155
 3932SOL    HW112695   1.917   4.665   3.203
 3932SOL    HW212696   1.938   4.797   3.110
 3933SOL     OW12697   2.018   6.303   6.773
 3933SOL    HW112698   1.930   6.350   6.777
 3933SOL    HW212699   2.029   6.259   6.684
 3934SOL     OW12700   6.760   1.258   6.797
 3934SOL    HW112701   6.727   1.165   6.810
 3934SOL    HW212702   6.775   1.275   6.700
 3935SOL     OW12703   2.789   6.630   0.093
 3935SOL    HW112704   2.717   6.560   0.097
 3935SOL    HW212705   2.876   6.587   0.070
 3936SOL     OW12706   0.109   5.395   5.432
 3936SOL    HW112707   0.088   5.480   5.479
 3936SOL    HW212708   0.186   5.409   5.370
 3937SOL     OW12709   6.631   1.750   3.502
 3937SOL    HW112710   6.647   1.709   3.413
 3937SOL    HW212711   6.546   1.714   3.541
 3938SOL     OW12712   0.367   2.255   4.110
 3938SOL    HW112713   0.451   2.308   4.111
 3938SOL    HW212714   0.328   2.252   4.202
 3939SOL     OW12715   2.383   2.550   2.602
 3939SOL    HW112716   2.350   2.644   2.617
 3939SOL    HW212717   2.317   2.500   2.545
 3940SOL     OW12718   5.120   4.601   0.924
 3940SOL    HW112719   5.066   4.618   0.842
 3940SOL    HW212720   5.190   4.672   0.934
 3941SOL     OW12721   5.046   3.335   5.742
 3941SOL    HW112722   5.039   3.398   5.819
 3941SOL    HW212723   4.979   3.262   5.754
 3942SOL     OW12724   0.454   6.767   6.558
 3942SOL    HW112725   0.494   6.675   6.548
 3942SOL    HW212726   0.444   6.809   6.468
 3943SOL     OW12727   0.024   3.090   2.994
 3943SOL    HW112728   0.009   3.095   3.093
 3943SOL    HW212729   0.021   2.995   2.965
 3944SOL     OW12730   4.452   2.584   5.003
 3944SOL    HW112731   4.472   2.537   4.917
 3944SOL    HW212732   4.357   2.567   5.029
 3945SOL     OW12733   0.673   1.733   0.214
 3945SOL    HW112734   0.741   1.660   0.206
 3945SOL    HW212735   0.620   1.739   0.129
 3946SOL     OW12736   5.770   5.232   5.196
 3946SOL    HW112737   5.865   5.261   5.205
 3946SOL    HW212738   5.711   5.298   5.243
 3947SOL     OW12739   5.197   6.244   0.584
 3947SOL    HW112740   5.118   6.194   0.620
 3947SOL    HW212741   5.264   6.179   0.548
 3948SOL     OW12742   0.478   4.835   2.145
 3948SOL    HW112743   0.423   4.866   2.222
 3948SOL    HW212744   0.541   4.907   2.117
 3949SOL     OW12745   4.957   0.471   3.109
 3949SOL    HW112746   4.922   0.543   3.169
 3949SOL    HW212747   4.904   0.388   3.122
 3950SOL     OW12748   1.643   4.294   0.673
 3950SOL    HW112749   1.697   4.306   0.590
 3950SOL    HW212750   1.634   4.197   0.694
 3951SOL     OW12751   5.009   0.099   1.378
 3951SOL    HW112752   5.059   0.182   1.404
 3951SOL    HW212753   5.016   0.032   1.452
 3952SOL     OW12754   6.624   2.518   2.488
 3952SOL    HW112755   6.660   2.436   2.532
 3952SOL    HW212756   6.696   2.587   2.482
 3953SOL     OW12757   3.485   4.809   1.458
 3953SOL    HW112758   3.578   4.790   1.489
 3953SOL    HW212759   3.485   4.890   1.399
 3954SOL     OW12760   3.954   5.322   4.847
 3954SOL    HW112761   3.887   5.391   4.875
 3954SOL    HW212762   4.025   5.366   4.792
 3955SOL     OW12763   3.025   6.447   6.438
 3955SOL    HW112764   2.928   6.467   6.451
 3955SOL    HW212765   3.037   6.349   6.422
 3956SOL     OW12766   1.055   0.537   2.624
 3956SOL    HW112767   0.969   0.535   2.673
 3956SOL    HW212768   1.087   0.444   2.608
 3957SOL     OW12769   4.980   6.517   3.993
 3957SOL    HW112770   4.900   6.501   4.050
 3957SOL    HW212771   5.048   6.446   4.010
 3958SOL     OW12772   5.489   1.310   4.880
 3958SOL    HW112773   5.478   1.320   4.781
 3958SOL    HW212774   5.583   1.335   4.905
 3959SOL     OW12775   3.817   0.156   0.761
 3959SOL    HW112776   3.879   0.206   0.821
 3959SOL    HW212777   3.742   0.118   0.815
 3960SOL     OW12778   4.875   1.940   6.316
 3960SOL    HW112779   4.775   1.935   6.319
 3960SOL    HW212780   4.912   1.924   6.407
 3961SOL     OW12781   5.564   1.325   3.003
 3961SOL    HW112782   5.585   1.408   3.054
 3961SOL    HW212783   5.647   1.291   2.958
 3962SOL     OW12784   2.940   4.189   6.902
 3962SOL    HW112785   2.860   4.139   6.935
 3962SOL    HW212786   3.023   4.149   6.941
 3963SOL     OW12787   5.080   5.474   3.388
 3963SOL    HW112788   5.073   5.375   3.377
 3963SOL    HW212789   5.035   5.502   3.472
 3964SOL     OW12790   4.790   5.337   4.092
 3964SOL    HW112791   4.750   5.425   4.067
 3964SOL    HW212792   4.890   5.346   4.095
 3965SOL     OW12793   5.089   2.913   4.872
 3965SOL    HW112794   5.014   2.956   4.823
 3965SOL    HW212795   5.087   2.814   4.856
 3966SOL     OW12796   4.942   6.136   6.390
 3966SOL    HW112797   4.963   6.198   6.314
 3966SOL    HW212798   4.944   6.187   6.476
 3967SOL     OW12799   2.139   3.835   2.381
 3967SOL    HW112800   2.238   3.823   2.393
 3967SOL    HW212801   2.093   3.823   2.469
 3968SOL     OW12802   4.471   0.210   1.309
 3968SOL    HW112803   4.517   0.165   1.386
 3968SOL    HW212804   4.429   0.295   1.341
 3969SOL     OW12805   1.244   4.034   2.412
 3969SOL    HW112806   1.315   3.964   2.405
 3969SOL    HW212807   1.224   4.051   2.508
 3970SOL     OW12808   5.986   6.274   3.337
 3970SOL    HW112809   5.921   6.339   3.295
 3970SOL    HW212810   5.990   6.290   3.435
 3971SOL     OW12811   3.410   5.317   3.565
 3971SOL    HW112812   3.447   5.238   3.516
 3971SOL    HW212813   3.363   5.377   3.500
 3972SOL     OW12814   1.252   4.203   0.844
 3972SOL    HW112815   1.208   4.278   0.795
 3972SOL    HW212816   1.288   4.237   0.931
 3973SOL     OW12817   1.663   5.743   6.365
 3973SOL    HW112818   1.585   5.713   6.420
 3973SOL    HW212819   1.711   5.664   6.330
 3974SOL     OW12820   2.198   0.212   5.517
 3974SOL    HW112821   2.113   0.168   5.487
 3974SOL    HW212822   2.275   0.175   5.466
 3975SOL     OW12823   4.773   1.575   5.275
 3975SOL    HW112824   4.830   1.552   5.354
 3975SOL    HW212825   4.684   1.608   5.306
 3976SOL     OW12826   1.453   6.238   1.827
 3976SOL    HW112827   1.465   6.140   1.841
 3976SOL    HW212828   1.543   6.282   1.818
 3977SOL     OW12829   2.549   3.737   5.828
 3977SOL    HW112830   2.640   3.753   5.866
 3977SOL    HW212831   2.495   3.821   5.834
 3978SOL     OW12832   5.979   5.155   4.439
 3978SOL    HW112833   6.048   5.208   4.390
 3978SOL    HW212834   5.940   5.211   4.512
 3979SOL     OW12835   3.151   0.362   6.859
 3979SOL    HW112836   3.131   0.441   6.801
 3979SOL    HW212837   3.202   0.391   6.939
 3980SOL     OW12838   5.710   6.193   0.340
 3980SOL    HW112839   5.743   6.246   0.418
 3980SOL    HW212840   5.648   6.249   0.285
 3981SOL     OW12841   3.527   0.322   0.631
 3981SOL    HW112842   3.622   0.293   0.617
 3981SOL    HW212843   3.523   0.422   0.633
 3982SOL     OW12844   2.454   6.622   3.564
 3982SOL    HW112845   2.374   6.676   3.537
 3982SOL    HW212846   2.537   6.670   3.538
 3983SOL     OW12847   5.163   4.910   4.094
 3983SOL    HW112848   5.261   4.900   4.075
 3983SOL    HW212849   5.149   4.987   4.157
 3984SOL     OW12850   6.683   1.053   2.441
 3984SOL    HW112851   6.676   1.012   2.350
 3984SOL    HW212852   6.612   1.124   2.451
 3985SOL     OW12853   2.395   4.640   6.940
 3985SOL    HW112854   2.391   4.619   6.842
 3985SOL    HW212855   2.465   4.584   6.984
 3986SOL     OW12856   5.111   1.724   2.622
 3986SOL    HW112857   5.084   1.813   2.586
 3986SOL    HW212858   5.064   1.707   2.708
 3987SOL     OW12859   3.907   4.883   3.092
 3987SOL    HW112860   3.970   4.953   3.060
 3987SOL    HW212861   3.852   4.850   3.015
 3988SOL     OW12862   3.193   4.829   0.108
 3988SOL    HW112863   3.286   4.848   0.077
 3988SOL    HW212864   3.177   4.873   0.196
 3989SOL     OW12865   6.944   2.758   0.061
 3989SOL    HW112866   6.868   2.774   0.124
 3989SOL    HW212867   6.957   2.660   0.047
 3990SOL     OW12868   4.341   2.096   2.818
 3990SOL    HW112869   4.297   2.176   2.778
 3990SOL    HW212870   4.281   2.016   2.809
 3991SOL     OW12871   6.655   0.858   2.622
 3991SOL    HW112872   6.659   0.939   2.563
 3991SOL    HW212873   6.570   0.809   2.605
 3992SOL     OW12874   3.074   1.647   0.405
 3992SOL    HW112875   3.148   1.581   0.418
 3992SOL    HW212876   3.051   1.653   0.308
 3993SOL     OW12877   1.274   1.878   2.131
 3993SOL    HW112878   1.319   1.963   2.159
 3993SOL    HW212879   1.259   1.879   2.033
 3994SOL     OW12880   1.407   0.071   6.217
 3994SOL    HW112881   1.348   0.115   6.149
 3994SOL    HW212882   1.365   0.078   6.308
 3995SOL     OW12883   2.740   3.312   6.022
 3995SOL    HW112884   2.641   3.316   6.022
 3995SOL    HW212885   2.778   3.397   6.057
 3996SOL     OW12886   0.907   6.884   4.783
 3996SOL    HW112887   0.815   6.862   4.814
 3996SOL    HW212888   0.974   6.855   4.852
 3997SOL     OW12889   5.669   1.236   3.316
 3997SOL    HW112890   5.685   1.334   3.315
 3997SOL    HW212891   5.587   1.215   3.263
 3998SOL     OW12892   4.134   1.122   3.666
 3998SOL    HW112893   4.095   1.046   3.615
 3998SOL    HW212894   4.219   1.153   3.622
 3999SOL     OW12895   5.153   3.246   3.972
 3999SOL    HW112896   5.181   3.258   3.877
 3999SOL    HW212897   5.193   3.161   4.008
 4000SOL     OW12898   3.177   6.791   3.482
 4000SOL    HW112899   3.257   6.850   3.467
 4000SOL    HW212900   3.142   6.805   3.574
 4001SOL     OW12901   2.796   1.455   3.587
 4001SOL    HW112902   2.733   1.528   3.561
 4001SOL    HW212903   2.773   1.422   3.679
 4002SOL     OW12904   2.978   4.171   0.567
 4002SOL    HW112905   2.987   4.265   0.599
 4002SOL    HW212906   3.067   4.136   0.538
 4003SOL     OW12907   3.573   6.952   4.135
 4003SOL    HW112908   3.544   6.976   4.042
 4003SOL    HW212909   3.629   0.005   4.172
 4004SOL     OW12910   5.597   1.954   3.847
 4004SOL    HW112911   5.568   1.858   3.847
 4004SOL    HW212912   5.548   2.004   3.776
 4005SOL     OW12913   5.063   5.585   6.760
 4005SOL    HW112914   5.057   5.486   6.770
 4005SOL    HW212915   5.148   5.610   6.714
 4006SOL     OW12916   4.319   5.444   2.510
 4006SOL    HW112917   4.322   5.515   2.439
 4006SOL    HW212918   4.408   5.399   2.516
 4007SOL     OW12919   0.214   2.631   6.903
 4007SOL    HW112920   0.188   2.715   6.856
 4007SOL    HW212921   0.132   2.585   6.937
 4008SOL     OW12922   2.804   1.803   4.721
 4008SOL    HW112923   2.803   1.815   4.622
 4008SOL    HW212924   2.745   1.726   4.746
 4009SOL     OW12925   4.361   3.285   1.261
 4009SOL    HW112926   4.312   3.208   1.301
 4009SOL    HW212927   4.435   3.313   1.323
 4010SOL     OW12928   2.558   2.962   1.155
 4010SOL    HW112929   2.476   2.904   1.161
 4010SOL    HW212930   2.631   2.922   1.210
 4011SOL     OW12931   0.198   1.057   1.989
 4011SOL    HW112932   0.284   1.024   2.029
 4011SOL    HW212933   0.191   1.156   2.001
 4012SOL     OW12934   6.364   4.560   1.797
 4012SOL    HW112935   6.346   4.462   1.807
 4012SOL    HW212936   6.353   4.606   1.885
 4013SOL     OW12937   3.537   1.601   5.015
 4013SOL    HW112938   3.442   1.575   4.994
 4013SOL    HW212939   3.596   1.575   4.938
 4014SOL     OW12940   5.153   6.373   2.366
 4014SOL    HW112941   5.211   6.329   2.298
 4014SOL    HW212942   5.194   6.362   2.457
 4015SOL     OW12943   4.794   5.132   5.910
 4015SOL    HW112944   4.891   5.112   5.895
 4015SOL    HW212945   4.772   5.221   5.870
 4016SOL     OW12946   2.832   6.110   5.972
 4016SOL    HW112947   2.886   6.191   5.996
 4016SOL    HW212948   2.745   6.138   5.932
 4017SOL     OW12949   6.756   6.054   0.573
 4017SOL    HW112950   6.787   6.096   0.487
 4017SOL    HW212951   6.813   6.086   0.648
 4018SOL     OW12952   3.566   5.700   2.578
 4018SOL    HW112953   3.562   5.798   2.594
 4018SOL    HW212954   3.644   5.679   2.518
 4019SOL     OW12955   4.951   4.494   3.371
 4019SOL    HW112956   4.893   4.426   3.416
 4019SOL    HW212957   5.030   4.447   3.331
 4020SOL     OW12958   4.782   2.022   4.744
 4020SOL    HW112959   4.797   1.939   4.798
 4020SOL    HW212960   4.860   2.084   4.756
 4021SOL     OW12961   3.544   4.998   6.044
 4021SOL    HW112962   3.447   5.021   6.035
 4021SOL    HW212963   3.598   5.058   5.986
 4022SOL     OW12964   5.088   1.427   6.746
 4022SOL    HW112965   5.087   1.328   6.732
 4022SOL    HW212966   5.182   1.460   6.740
 4023SOL     OW12967   6.234   1.816   4.690
 4023SOL    HW112968   6.194   1.802   4.600
 4023SOL    HW212969   6.311   1.753   4.703
 4024SOL     OW12970   3.298   6.889   3.930
 4024SOL    HW112971   3.220   6.929   3.882
 4024SOL    HW212972   3.382   6.937   3.903
 4025SOL     OW12973   0.748   4.114   2.872
 4025SOL    HW112974   0.709   4.124   2.780
 4025SOL    HW212975   0.846   4.132   2.868
 4026SOL     OW12976   5.970   5.855   4.026
 4026SOL    HW112977   6.005   5.764   4.049
 4026SOL    HW212978   5.881   5.868   4.069
 4027SOL     OW12979   3.652   4.055   2.320
 4027SOL    HW112980   3.660   4.079   2.417
 4027SOL    HW212981   3.707   4.117   2.265
 4028SOL     OW12982   1.799   1.868   4.655
 4028SOL    HW112983   1.727   1.799   4.641
 4028SOL    HW212984   1.876   1.848   4.595
 4029SOL     OW12985   2.634   4.231   5.691
 4029SOL    HW112986   2.655   4.174   5.769
 4029SOL    HW212987   2.708   4.225   5.624
 4030SOL     OW12988   1.058   2.239   5.528
 4030SOL    HW112989   1.086   2.188   5.447
 4030SOL    HW212990   1.096   2.196   5.609
 4031SOL     OW12991   4.712   5.747   3.594
 4031SOL    HW112992   4.617   5.718   3.602
 4031SOL    HW212993   4.727   5.789   3.504
 4032SOL     OW12994   6.549   6.520   4.075
 4032SOL    HW112995   6.606   6.593   4.036
 4032SOL    HW212996   6.575   6.432   4.035
 4033SOL     OW12997   3.229   4.136   4.476
 4033SOL    HW112998   3.212   4.089   4.563
 4033SOL    HW212999   3.215   4.072   4.400
 4034SOL     OW13000   6.368   1.305   4.518
 4034SOL    HW113001   6.350   1.396   4.482
 4034SOL    HW213002   6.462   1.278   4.497
 4035SOL     OW13003   0.322   4.659   6.372
 4035SOL    HW113004   0.324   4.560   6.363
 4035SOL    HW213005   0.296   4.700   6.284
 4036SOL     OW13006   6.261   6.264   2.878
 4036SOL    HW113007   6.252   6.288   2.782
 4036SOL    HW213008   6.175   6.282   2.926
 4037SOL     OW13009   1.395   3.777   6.486
 4037SOL    HW113010   1.330   3.850   6.463
 4037SOL    HW213011   1.472   3.780   6.422
 4038SOL     OW13012   5.013   4.295   2.964
 4038SOL    HW113013   5.102   4.309   3.007
 4038SOL    HW213014   4.975   4.383   2.936
 4039SOL     OW13015   5.279   5.812   0.643
 4039SOL    HW113016   5.303   5.890   0.584
 4039SOL    HW213017   5.363   5.767   0.675
 4040SOL     OW13018   2.955   0.394   1.347
 4040SOL    HW113019   2.927   0.366   1.255
 4040SOL    HW213020   2.938   0.492   1.359
 4041SOL     OW13021   1.158   6.272   3.053
 4041SOL    HW113022   1.173   6.292   2.957
 4041SOL    HW213023   1.241   6.289   3.105
 4042SOL     OW13024   5.983   5.626   1.987
 4042SOL    HW113025   6.040   5.654   1.909
 4042SOL    HW213026   5.910   5.694   2.000
 4043SOL     OW13027   5.354   1.950   2.397
 4043SOL    HW113028   5.367   1.857   2.365
 4043SOL    HW213029   5.439   2.002   2.385
 4044SOL     OW13030   6.029   0.058   3.216
 4044SOL    HW113031   6.095   7.005   3.198
 4044SOL    HW213032   6.069   0.125   3.277
 4045SOL     OW13033   2.087   5.137   6.902
 4045SOL    HW113034   2.123   5.163   6.812
 4045SOL    HW213035   1.987   5.131   6.896
 4046SOL     OW13036   0.595   2.276   1.853
 4046SOL    HW113037   0.648   2.261   1.769
 4046SOL    HW213038   0.554   2.367   1.851
 4047SOL     OW13039   3.098   3.623   1.766
 4047SOL    HW113040   3.160   3.693   1.732
 4047SOL    HW213041   3.059   3.572   1.689
 4048SOL     OW13042   5.329   1.093   0.948
 4048SOL    HW113043   5.424   1.110   0.972
 4048SOL    HW213044   5.308   0.996   0.962
 4049SOL     OW13045   5.516   6.849   5.738
 4049SOL    HW113046   5.466   6.910   5.798
 4049SOL    HW213047   5.578   6.792   5.792
 4050SOL     OW13048   1.648   6.126   0.323
 4050SOL    HW113049   1.601   6.186   0.388
 4050SOL    HW213050   1.700   6.182   0.259
 4051SOL     OW13051   3.211   4.702   0.767
 4051SOL    HW113052   3.186   4.628   0.830
 4051SOL    HW213053   3.142   4.708   0.695
 4052SOL     OW13054   0.268   0.706   0.060
 4052SOL    HW113055   0.294   0.642   7.007
 4052SOL    HW213056   0.230   0.789   0.020
 4053SOL     OW13057   3.434   4.907   3.785
 4053SOL    HW113058   3.366   4.850   3.740
 4053SOL    HW213059   3.521   4.900   3.735
 4054SOL     OW13060   3.508   2.310   0.866
 4054SOL    HW113061   3.444   2.242   0.903
 4054SOL    HW213062   3.491   2.398   0.909
 4055SOL     OW13063   3.040   2.476   6.390
 4055SOL    HW113064   3.045   2.487   6.290
 4055SOL    HW213065   3.109   2.409   6.419
 4056SOL     OW13066   3.670   2.770   6.791
 4056SOL    HW113067   3.690   2.778   6.694
 4056SOL    HW213068   3.586   2.820   6.812
 4057SOL     OW13069   4.829   3.360   6.421
 4057SOL    HW113070   4.846   3.427   6.349
 4057SOL    HW213071   4.741   3.315   6.404
 4058SOL     OW13072   2.253   1.113   5.467
 4058SOL    HW113073   2.188   1.037   5.470
 4058SOL    HW213074   2.229   1.174   5.391
 4059SOL     OW13075   1.867   1.994   4.902
 4059SOL    HW113076   1.848   1.962   4.809
 4059SOL    HW213077   1.948   2.053   4.900
 4060SOL     OW13078   4.228   4.858   4.115
 4060SOL    HW113079   4.295   4.793   4.079
 4060SOL    HW213080   4.199   4.830   4.206
 4061SOL     OW13081   3.540   4.312   1.737
 4061SOL    HW113082   3.522   4.397   1.788
 4061SOL    HW213083   3.453   4.271   1.709
 4062SOL     OW13084   3.504   1.153   2.510
 4062SOL    HW113085   3.498   1.055   2.495
 4062SOL    HW213086   3.413   1.194   2.498
 4063SOL     OW13087   3.307   5.530   6.040
 4063SOL    HW113088   3.248   5.521   6.120
 4063SOL    HW213089   3.257   5.577   5.967
 4064SOL     OW13090   0.497   0.126   3.176
 4064SOL    HW113091   0.489   0.204   3.239
 4064SOL    HW213092   0.416   0.121   3.118
 4065SOL     OW13093   6.895   6.800   0.701
 4065SOL    HW113094   6.875   6.750   0.786
 4065SOL    HW213095   6.983   6.847   0.711
 4066SOL     OW13096   5.439   4.185   1.797
 4066SOL    HW113097   5.461   4.261   1.735
 4066SOL    HW213098   5.350   4.202   1.839
 4067SOL     OW13099   6.127   0.973   2.693
 4067SOL    HW113100   6.107   0.882   2.656
 4067SOL    HW213101   6.193   0.965   2.768
 4068SOL     OW13102   5.767   0.505   4.261
 4068SOL    HW113103   5.761   0.563   4.342
 4068SOL    HW213104   5.705   0.428   4.270
 4069SOL     OW13105   5.573   5.249   0.877
 4069SOL    HW113106   5.513   5.197   0.937
 4069SOL    HW213107   5.602   5.333   0.924
 4070SOL     OW13108   1.840   3.733   3.119
 4070SOL    HW113109   1.833   3.634   3.120
 4070SOL    HW213110   1.932   3.760   3.092
 4071SOL     OW13111   1.870   0.385   4.516
 4071SOL    HW113112   1.823   0.452   4.458
 4071SOL    HW213113   1.946   0.346   4.466
 4072SOL     OW13114   1.370   6.944   4.256
 4072SOL    HW113115   1.363   6.980   4.349
 4072SOL    HW213116   1.378   6.844   4.258
 4073SOL     OW13117   2.685   5.987   6.567
 4073SOL    HW113118   2.772   5.937   6.569
 4073SOL    HW213119   2.635   5.964   6.484
 4074SOL     OW13120   1.107   2.544   0.962
 4074SOL    HW113121   1.152   2.616   0.909
 4074SOL    HW213122   1.039   2.499   0.906
 4075SOL     OW13123   4.982   1.018   3.282
 4075SOL    HW113124   5.061   1.026   3.221
 4075SOL    HW213125   4.909   1.079   3.251
 4076SOL     OW13126   1.784   3.328   4.422
 4076SOL    HW113127   1.775   3.427   4.410
 4076SOL    HW213128   1.741   3.281   4.345
 4077SOL     OW13129   3.463   1.054   0.323
 4077SOL    HW113130   3.459   0.955   0.327
 4077SOL    HW213131   3.557   1.085   0.337
 4078SOL     OW13132   6.391   4.050   1.257
 4078SOL    HW113133   6.294   4.031   1.267
 4078SOL    HW213134   6.431   4.064   1.348
 4079SOL     OW13135   0.726   1.207   3.808
 4079SOL    HW113136   0.803   1.218   3.745
 4079SOL    HW213137   0.753   1.145   3.882
 4080SOL     OW13138   3.253   3.563   1.459
 4080SOL    HW113139   3.159   3.547   1.490
 4080SOL    HW213140   3.252   3.621   1.378
 4081SOL     OW13141   1.961   1.753   5.499
 4081SOL    HW113142   1.980   1.745   5.597
 4081SOL    HW213143   1.999   1.840   5.465
 4082SOL     OW13144   1.099   2.930   5.066
 4082SOL    HW113145   1.117   2.980   4.981
 4082SOL    HW213146   1.143   2.841   5.062
 4083SOL     OW13147   5.916   4.963   3.670
 4083SOL    HW113148   5.870   4.885   3.629
 4083SOL    HW213149   5.859   5.003   3.741
 4084SOL     OW13150   4.215   1.326   3.493
 4084SOL    HW113151   4.204   1.402   3.558
 4084SOL    HW213152   4.148   1.335   3.420
 4085SOL     OW13153   3.027   5.282   2.246
 4085SOL    HW113154   3.096   5.352   2.263
 4085SOL    HW213155   2.998   5.286   2.151
 4086SOL     OW13156   6.659   5.739   6.463
 4086SOL    HW113157   6.688   5.785   6.379
 4086SOL    HW213158   6.727   5.753   6.534
 4087SOL     OW13159   2.257   0.210   2.563
 4087SOL    HW113160   2.339   0.201   2.620
 4087SOL    HW213161   2.220   0.302   2.574
 4088SOL     OW13162   0.160   1.114   5.796
 4088SOL    HW113163   0.062   1.115   5.774
 4088SOL    HW213164   0.195   1.207   5.798
 4089SOL     OW13165   0.309   6.675   3.416
 4089SOL    HW113166   0.321   6.774   3.421
 4089SOL    HW213167   0.229   6.649   3.469
 4090SOL     OW13168   2.453   0.056   5.433
 4090SOL    HW113169   2.528   7.013   5.411
 4090SOL    HW213170   2.384   0.052   5.360
 4091SOL     OW13171   2.033   5.477   1.134
 4091SOL    HW113172   2.031   5.563   1.184
 4091SOL    HW213173   2.043   5.401   1.198
 4092SOL     OW13174   4.922   3.238   4.457
 4092SOL    HW113175   4.902   3.302   4.384
 4092SOL    HW213176   4.841   3.229   4.516
 4093SOL     OW13177   5.191   5.889   3.351
 4093SOL    HW113178   5.266   5.868   3.288
 4093SOL    HW213179   5.105   5.855   3.314
 4094SOL     OW13180   0.086   5.751   6.738
 4094SOL    HW113181   0.096   5.661   6.695
 4094SOL    HW213182   0.089   5.740   6.837
 4095SOL     OW13183   0.200   4.825   0.160
 4095SOL    HW113184   0.224   4.913   0.200
 4095SOL    HW213185   0.284   4.778   0.131
 4096SOL     OW13186   2.114   2.003   6.669
 4096SOL    HW113187   2.134   2.031   6.763
 4096SOL    HW213188   2.021   1.968   6.663
 4097SOL     OW13189   0.283   4.356   5.057
 4097SOL    HW113190   0.381   4.350   5.077
 4097SOL    HW213191   0.230   4.330   5.138
 4098SOL     OW13192   2.169   5.026   3.090
 4098SOL    HW113193   2.147   5.049   2.996
 4098SOL    HW213194   2.259   5.062   3.113
 4099SOL     OW13195   4.430   4.774   6.092
 4099SOL    HW113196   4.463   4.846   6.030
 4099SOL    HW213197   4.371   4.712   6.041
 4100SOL     OW13198   1.693   1.017   3.621
 4100SOL    HW113199   1.716   1.080   3.547
 4100SOL    HW213200   1.772   1.005   3.681
 4101SOL     OW13201   5.862   0.807   0.015
 4101SOL    HW113202   5.934   0.829   6.969
 4101SOL    HW213203   5.773   0.835   6.997
 4102SOL     OW13204   1.826   0.455   0.065
 4102SOL    HW113205   1.794   0.435   6.992
 4102SOL    HW213206   1.901   0.393   0.089
 4103SOL     OW13207   1.664   6.654   1.893
 4103SOL    HW113208   1.621   6.699   1.971
 4103SOL    HW213209   1.604   6.659   1.813
 4104SOL     OW13210   0.528   5.530   3.886
 4104SOL    HW113211   0.500   5.568   3.974
 4104SOL    HW213212   0.613   5.479   3.897
 4105SOL     OW13213   4.397   1.078   0.962
 4105SOL    HW113214   4.440   1.008   0.906
 4105SOL    HW213215   4.423   1.065   1.058
 4106SOL     OW13216   0.108   2.081   3.778
 4106SOL    HW113217   0.009   2.094   3.776
 4106SOL    HW213218   0.153   2.159   3.734
 4107SOL     OW13219   0.382   6.355   6.377
 4107SOL    HW113220   0.454   6.318   6.317
 4107SOL    HW213221   0.304   6.293   6.377
 4108SOL     OW13222   6.997   5.424   4.209
 4108SOL    HW113223   6.962   5.365   4.137
 4108SOL    HW213224   6.939   5.416   4.290
 4109SOL     OW13225   6.136   6.144   3.132
 4109SOL    HW113226   6.223   6.192   3.142
 4109SOL    HW213227   6.067   6.186   3.191
 4110SOL     OW13228   4.755   3.600   6.995
 4110SOL    HW113229   4.823   3.573   0.043
 4110SOL    HW213230   4.726   3.695   7.012
 4111SOL     OW13231   6.641   4.163   4.920
 4111SOL    HW113232   6.567   4.201   4.864
 4111SOL    HW213233   6.607   4.081   4.967
 4112SOL     OW13234   4.305   0.322   5.184
 4112SOL    HW113235   4.257   0.241   5.149
 4112SOL    HW213236   4.331   0.381   5.108
 4113SOL     OW13237   4.835   4.342   4.778
 4113SOL    HW113238   4.830   4.243   4.787
 4113SOL    HW213239   4.908   4.366   4.714
 4114SOL     OW13240   6.772   1.505   2.788
 4114SOL    HW113241   6.741   1.570   2.719
 4114SOL    HW213242   6.871   1.513   2.799
 4115SOL     OW13243   3.166   4.961   3.668
 4115SOL    HW113244   3.080   4.926   3.706
 4115SOL    HW213245   3.204   5.029   3.731
 4116SOL     OW13246   5.000   2.733   3.261
 4116SOL    HW113247   5.083   2.681   3.282
 4116SOL    HW213248   4.996   2.751   3.163
 4117SOL     OW13249   1.436   2.570   2.624
 4117SOL    HW113250   1.406   2.479   2.594
 4117SOL    HW213251   1.454   2.627   2.544
 4118SOL     OW13252   6.729   6.629   6.275
 4118SOL    HW113253   6.651   6.681   6.239
 4118SOL    HW213254   6.705   6.592   6.365
 4119SOL     OW13255   2.081   0.979   3.294
 4119SOL    HW113256   2.093   1.007   3.390
 4119SOL    HW213257   2.129   1.043   3.234
 4120SOL     OW13258   2.171   1.085   6.356
 4120SOL    HW113259   2.215   1.031   6.428
 4120SOL    HW213260   2.075   1.057   6.347
 4121SOL     OW13261   6.772   6.823   1.922
 4121SOL    HW113262   6.708   6.770   1.867
 4121SOL    HW213263   6.729   6.848   2.009
 4122SOL     OW13264   0.313   4.700   4.137
 4122SOL    HW113265   0.380   4.679   4.208
 4122SOL    HW213266   0.296   4.618   4.083
 4123SOL     OW13267   3.559   4.861   2.655
 4123SOL    HW113268   3.467   4.858   2.618
 4123SOL    HW213269   3.621   4.902   2.587
 4124SOL     OW13270   6.750   5.842   0.720
 4124SOL    HW113271   6.712   5.880   0.804
 4124SOL    HW213272   6.765   5.916   0.654
 4125SOL     OW13273   5.859   2.492   1.797
 4125SOL    HW113274   5.864   2.398   1.765
 4125SOL    HW213275   5.785   2.501   1.864
 4126SOL     OW13276   1.025   2.627   2.136
 4126SOL    HW113277   1.090   2.635   2.212
 4126SOL    HW213278   1.023   2.532   2.104
 4127SOL     OW13279   3.757   1.999   4.162
 4127SOL    HW113280   3.760   1.899   4.151
 4127SOL    HW213281   3.850   2.033   4.180
 4128SOL     OW13282   0.646   3.313   1.068
 4128SOL    HW113283   0.689   3.345   1.152
 4128SOL    HW213284   0.570   3.373   1.044
 4129SOL     OW13285   2.611   2.931   0.765
 4129SOL    HW113286   2.593   2.835   0.787
 4129SOL    HW213287   2.708   2.950   0.777
 4130SOL     OW13288   6.130   3.163   1.314
 4130SOL    HW113289   6.133   3.117   1.403
 4130SOL    HW213290   6.222   3.166   1.275
 4131SOL     OW13291   4.687   1.037   2.209
 4131SOL    HW113292   4.615   0.980   2.169
 4131SOL    HW213293   4.666   1.134   2.192
 4132SOL     OW13294   6.843   4.161   4.499
 4132SOL    HW113295   6.857   4.217   4.418
 4132SOL    HW213296   6.840   4.220   4.580
 4133SOL     OW13297   5.705   6.740   1.875
 4133SOL    HW113298   5.675   6.778   1.963
 4133SOL    HW213299   5.695   6.810   1.804
 4134SOL     OW13300   2.238   3.112   1.481
 4134SOL    HW113301   2.267   3.043   1.547
 4134SOL    HW213302   2.308   3.183   1.475
 4135SOL     OW13303   6.902   1.325   2.303
 4135SOL    HW113304   6.936   1.419   2.309
 4135SOL    HW213305   6.847   1.315   2.220
 4136SOL     OW13306   1.283   4.260   2.272
 4136SOL    HW113307   1.283   4.185   2.338
 4136SOL    HW213308   1.249   4.343   2.315
 4137SOL     OW13309   1.670   3.214   0.428
 4137SOL    HW113310   1.627   3.151   0.362
 4137SOL    HW213311   1.608   3.231   0.504
 4138SOL     OW13312   3.944   6.368   0.914
 4138SOL    HW113313   3.867   6.362   0.851
 4138SOL    HW213314   4.021   6.316   0.878
 4139SOL     OW13315   1.896   2.307   3.191
 4139SOL    HW113316   1.882   2.320   3.290
 4139SOL    HW213317   1.994   2.310   3.171
 4140SOL     OW13318   2.461   2.318   4.614
 4140SOL    HW113319   2.425   2.390   4.556
 4140SOL    HW213320   2.561   2.318   4.610
 4141SOL     OW13321   4.507   0.255   0.051
 4141SOL    HW113322   4.426   0.302   0.016
 4141SOL    HW213323   4.521   0.280   0.147
 4142SOL     OW13324   6.719   4.394   2.949
 4142SOL    HW113325   6.748   4.477   2.996
 4142SOL    HW213326   6.639   4.355   2.996
 4143SOL     OW13327   5.944   2.974   0.827
 4143SOL    HW113328   5.998   2.890   0.819
 4143SOL    HW213329   5.939   3.000   0.924
 4144SOL     OW13330   5.654   2.157   0.380
 4144SOL    HW113331   5.653   2.237   0.320
 4144SOL    HW213332   5.698   2.181   0.467
 4145SOL     OW13333   0.138   6.688   1.229
 4145SOL    HW113334   0.176   6.606   1.187
 4145SOL    HW213335   0.202   6.724   1.297
 4146SOL     OW13336   5.851   6.679   3.797
 4146SOL    HW113337   5.921   6.608   3.802
 4146SOL    HW213338   5.889   6.765   3.833
 4147SOL     OW13339   5.013   4.512   5.428
 4147SOL    HW113340   4.936   4.575   5.443
 4147SOL    HW213341   4.987   4.420   5.459
 4148SOL     OW13342   3.197   0.882   5.780
 4148SOL    HW113343   3.287   0.914   5.752
 4148SOL    HW213344   3.186   0.897   5.879
 4149SOL     OW13345   1.943   3.301   0.803
 4149SOL    HW113346   1.886   3.222   0.776
 4149SOL    HW213347   1.908   3.338   0.889
 4150SOL     OW13348   6.035   2.446   6.461
 4150SOL    HW113349   6.121   2.403   6.488
 4150SOL    HW213350   6.033   2.458   6.362
 4151SOL     OW13351   2.331   6.589   4.851
 4151SOL    HW113352   2.407   6.645   4.884
 4151SOL    HW213353   2.338   6.578   4.751
 4152SOL     OW13354   2.953   5.631   1.903
 4152SOL    HW113355   2.970   5.624   1.805
 4152SOL    HW213356   2.881   5.698   1.919
 4153SOL     OW13357   6.660   4.896   1.701
 4153SOL    HW113358   6.740   4.923   1.753
 4153SOL    HW213359   6.578   4.905   1.758
 4154SOL     OW13360   0.707   5.567   5.036
 4154SOL    HW113361   0.782   5.633   5.024
 4154SOL    HW213362   0.628   5.614   5.076
 4155SOL     OW13363   0.996   1.934   1.449
 4155SOL    HW113364   0.947   2.003   1.395
 4155SOL    HW213365   0.955   1.928   1.540
 4156SOL     OW13366   6.845   4.626   5.033
 4156SOL    HW113367   6.811   4.534   5.013
 4156SOL    HW213368   6.940   4.634   5.004
 4157SOL     OW13369   6.616   6.219   1.920
 4157SOL    HW113370   6.566   6.163   1.987
 4157SOL    HW213371   6.712   6.222   1.945
 4158SOL     OW13372   1.913   2.678   1.870
 4158SOL    HW113373   1.947   2.696   1.963
 4158SOL    HW213374   1.889   2.581   1.862
 4159SOL     OW13375   2.809   1.369   2.880
 4159SOL    HW113376   2.749   1.444   2.906
 4159SOL    HW213377   2.803   1.296   2.948
 4160SOL     OW13378   6.434   0.146   6.936
 4160SOL    HW113379   6.458   0.054   6.967
 4160SOL    HW213380   6.344   0.144   6.893
 4161SOL     OW13381   2.012   2.128   1.247
 4161SOL    HW113382   2.075   2.177   1.188
 4161SOL    HW213383   2.047   2.036   1.264
 4162SOL     OW13384   6.713   5.683   1.092
 4162SOL    HW113385   6.786   5.628   1.131
 4162SOL    HW213386   6.647   5.624   1.046
 4163SOL     OW13387   4.042   6.483   1.187
 4163SOL    HW113388   4.007   6.503   1.278
 4163SOL    HW213389   3.966   6.461   1.126
 4164SOL     OW13390   0.016   6.630   5.213
 4164SOL    HW113391   6.947   6.676   5.215
 4164SOL    HW213392   0.002   6.532   5.195
 4165SOL     OW13393   3.965   1.112   5.301
 4165SOL    HW113394   3.986   1.052   5.378
 4165SOL    HW213395   3.876   1.156   5.316
 4166SOL     OW13396   5.991   0.740   2.607
 4166SOL    HW113397   5.963   0.676   2.535
 4166SOL    HW213398   5.911   0.764   2.662
 4167SOL     OW13399   3.519   5.255   5.838
 4167SOL    HW113400   3.429   5.258   5.794
 4167SOL    HW213401   3.578   5.326   5.799
 4168SOL     OW13402   6.426   4.293   0.215
 4168SOL    HW113403   6.356   4.229   0.245
 4168SOL    HW213404   6.419   4.306   0.116
 4169SOL     OW13405   5.090   3.979   4.972
 4169SOL    HW113406   5.058   4.013   4.884
 4169SOL    HW213407   5.167   4.035   5.004
 4170SOL     OW13408   5.124   3.189   4.827
 4170SOL    HW113409   5.026   3.205   4.839
 4170SOL    HW213410   5.149   3.103   4.871
 4171SOL     OW13411   1.419   4.011   1.280
 4171SOL    HW113412   1.518   4.023   1.283
 4171SOL    HW213413   1.393   3.934   1.338
 4172SOL     OW13414   3.475   3.571   0.955
 4172SOL    HW113415   3.472   3.487   1.008
 4172SOL    HW213416   3.506   3.551   0.862
 4173SOL     OW13417   4.518   2.972   5.258
 4173SOL    HW113418   4.611   2.982   5.220
 4173SOL    HW213419   4.482   2.882   5.235
 4174SOL     OW13420   4.718   0.263   4.325
 4174SOL    HW113421   4.747   0.210   4.405
 4174SOL    HW213422   4.683   0.201   4.256
 4175SOL     OW13423   1.597   4.355   6.319
 4175SOL    HW113424   1.682   4.390   6.359
 4175SOL    HW213425   1.602   4.358   6.220
 4176SOL     OW13426   4.777   6.597   0.070
 4176SOL    HW113427   4.770   6.647   7.003
 4176SOL    HW213428   4.717   6.639   0.138
 4177SOL     OW13429   4.681   4.854   4.646
 4177SOL    HW113430   4.740   4.775   4.633
 4177SOL    HW213431   4.605   4.829   4.706
 4178SOL     OW13432   3.054   5.683   2.203
 4178SOL    HW113433   2.998   5.723   2.276
 4178SOL    HW213434   3.003   5.686   2.117
 4179SOL     OW13435   5.149   3.112   4.341
 4179SOL    HW113436   5.136   3.067   4.253
 4179SOL    HW213437   5.062   3.149   4.374
 4180SOL     OW13438   5.535   3.192   0.819
 4180SOL    HW113439   5.437   3.203   0.837
 4180SOL    HW213440   5.579   3.282   0.822
 4181SOL     OW13441   5.130   0.465   5.471
 4181SOL    HW113442   5.179   0.385   5.437
 4181SOL    HW213443   5.192   0.523   5.523
 4182SOL     OW13444   0.596   6.028   3.960
 4182SOL    HW113445   0.676   6.078   3.992
 4182SOL    HW213446   0.516   6.088   3.961
 4183SOL     OW13447   2.127   1.136   2.175
 4183SOL    HW113448   2.180   1.069   2.122
 4183SOL    HW213449   2.122   1.108   2.270
 4184SOL     OW13450   2.945   6.401   2.702
 4184SOL    HW113451   2.872   6.348   2.745
 4184SOL    HW213452   2.985   6.464   2.769
 4185SOL     OW13453   0.064   3.595   3.153
 4185SOL    HW113454   0.133   3.637   3.096
 4185SOL    HW213455   0.080   3.496   3.159
 4186SOL     OW13456   1.859   5.901   6.472
 4186SOL    HW113457   1.919   5.828   6.505
 4186SOL    HW213458   1.783   5.862   6.420
 4187SOL     OW13459   2.434   3.539   0.073
 4187SOL    HW113460   2.488   3.478   0.132
 4187SOL    HW213461   2.429   3.500   7.001
 4188SOL     OW13462   5.096   0.213   6.165
 4188SOL    HW113463   5.163   0.147   6.198
 4188SOL    HW213464   5.143   0.293   6.127
 4189SOL     OW13465   5.010   5.710   3.255
 4189SOL    HW113466   5.029   5.620   3.294
 4189SOL    HW213467   5.031   5.709   3.157
 4190SOL     OW13468   0.046   6.562   0.852
 4190SOL    HW113469   6.979   6.537   0.897
 4190SOL    HW213470   0.118   6.500   0.882
 4191SOL     OW13471   4.954   3.974   5.827
 4191SOL    HW113472   4.997   3.885   5.844
 4191SOL    HW213473   4.954   4.027   5.912
 4192SOL     OW13474   1.225   1.448   2.201
 4192SOL    HW113475   1.296   1.382   2.177
 4192SOL    HW213476   1.208   1.444   2.300
 4193SOL     OW13477   5.741   0.761   0.461
 4193SOL    HW113478   5.679   0.840   0.453
 4193SOL    HW213479   5.709   0.688   0.400
 4194SOL     OW13480   3.970   0.560   5.449
 4194SOL    HW113481   4.059   0.529   5.417
 4194SOL    HW213482   3.982   0.627   5.522
 4195SOL     OW13483   4.701   6.489   1.960
 4195SOL    HW113484   4.747   6.578   1.955
 4195SOL    HW213485   4.734   6.430   1.887
 4196SOL     OW13486   6.734   2.624   3.753
 4196SOL    HW113487   6.803   2.555   3.773
 4196SOL    HW213488   6.680   2.595   3.674
 4197SOL     OW13489   3.815   6.048   5.963
 4197SOL    HW113490   3.894   6.008   6.007
 4197SOL    HW213491   3.738   5.984   5.966
 4198SOL     OW13492   6.591   0.570   1.943
 4198SOL    HW113493   6.595   0.555   1.844
 4198SOL    HW213494   6.614   0.486   1.991
 4199SOL     OW13495   1.704   4.100   6.477
 4199SOL    HW113496   1.654   4.032   6.530
 4199SOL    HW213497   1.641   4.168   6.441
 4200SOL     OW13498   3.783   0.727   4.950
 4200SOL    HW113499   3.816   0.819   4.927
 4200SOL    HW213500   3.690   0.715   4.916
 4201SOL     OW13501   6.483   6.981   3.570
 4201SOL    HW113502   6.394   0.001   3.591
 4201SOL    HW213503   6.553   0.033   3.569
 4202SOL     OW13504   3.509   5.660   6.917
 4202SOL    HW113505   3.526   5.705   7.004
 4202SOL    HW213506   3.583   5.596   6.897
 4203SOL     OW13507   5.183   5.089   0.318
 4203SOL    HW113508   5.254   5.083   0.389
 4203SOL    HW213509   5.143   4.999   0.302
 4204SOL     OW13510   3.659   3.247   5.771
 4204SOL    HW113511   3.579   3.214   5.820
 4204SOL    HW213512   3.632   3.285   5.683
 4205SOL     OW13513   3.479   5.811   4.880
 4205SOL    HW113514   3.444   5.881   4.943
 4205SOL    HW213515   3.423   5.728   4.887
 4206SOL     OW13516   1.188   1.396   5.013
 4206SOL    HW113517   1.178   1.432   5.106
 4206SOL    HW213518   1.154   1.302   5.010
 4207SOL     OW13519   1.738   2.175   1.177
 4207SOL    HW113520   1.725   2.117   1.097
 4207SOL    HW213521   1.830   2.160   1.215
 4208SOL     OW13522   1.729   4.363   5.437
 4208SOL    HW113523   1.687   4.420   5.507
 4208SOL    HW213524   1.661   4.341   5.367
 4209SOL     OW13525   6.877   5.837   2.792
 4209SOL    HW113526   6.892   5.748   2.749
 4209SOL    HW213527   6.943   5.849   2.867
 4210SOL     OW13528   3.750   3.350   4.951
 4210SOL    HW113529   3.665   3.355   5.004
 4210SOL    HW213530   3.759   3.259   4.911
 4211SOL     OW13531   3.838   1.806   5.145
 4211SOL    HW113532   3.835   1.707   5.132
 4211SOL    HW213533   3.900   1.827   5.222
 4212SOL     OW13534   0.287   1.054   3.409
 4212SOL    HW113535   0.380   1.027   3.432
 4212SOL    HW213536   0.246   0.985   3.350
 4213SOL     OW13537   3.131   1.099   3.250
 4213SOL    HW113538   3.092   1.094   3.342
 4213SOL    HW213539   3.060   1.078   3.183
 4214SOL     OW13540   0.473   5.478   4.441
 4214SOL    HW113541   0.532   5.461   4.520
 4214SOL    HW213542   0.413   5.555   4.461
 4215SOL     OW13543   4.864   6.508   5.278
 4215SOL    HW113544   4.852   6.513   5.179
 4215SOL    HW213545   4.958   6.482   5.299
 4216SOL     OW13546   1.627   0.607   2.710
 4216SOL    HW113547   1.713   0.595   2.761
 4216SOL    HW213548   1.563   0.661   2.765
 4217SOL     OW13549   0.900   0.208   1.779
 4217SOL    HW113550   0.963   0.131   1.796
 4217SOL    HW213551   0.895   0.225   1.681
 4218SOL     OW13552   3.240   1.163   1.333
 4218SOL    HW113553   3.175   1.120   1.270
 4218SOL    HW213554   3.322   1.106   1.342
 4219SOL     OW13555   4.473   6.218   4.662
 4219SOL    HW113556   4.427   6.305   4.679
 4219SOL    HW213557   4.571   6.233   4.654
 4220SOL     OW13558   5.271   2.146   1.770
 4220SOL    HW113559   5.263   2.245   1.783
 4220SOL    HW213560   5.180   2.106   1.762
 4221SOL     OW13561   6.480   5.274   6.944
 4221SOL    HW113562   6.409   5.257   6.875
 4221SOL    HW213563   6.436   5.294   0.012
 4222SOL     OW13564   5.572   1.973   3.192
 4222SOL    HW113565   5.654   1.975   3.250
 4222SOL    HW213566   5.511   1.901   3.223
 4223SOL     OW13567   4.304   4.000   1.029
 4223SOL    HW113568   4.235   4.065   0.997
 4223SOL    HW213569   4.258   3.915   1.058
 4224SOL     OW13570   5.463   4.368   4.886
 4224SOL    HW113571   5.526   4.427   4.936
 4224SOL    HW213572   5.397   4.327   4.949
 4225SOL     OW13573   1.443   2.099   5.659
 4225SOL    HW113574   1.360   2.118   5.711
 4225SOL    HW213575   1.456   2.000   5.652
 4226SOL     OW13576   0.618   5.979   4.636
 4226SOL    HW113577   0.614   6.040   4.715
 4226SOL    HW213578   0.583   6.027   4.555
 4227SOL     OW13579   4.929   5.561   1.832
 4227SOL    HW113580   4.872   5.558   1.750
 4227SOL    HW213581   4.999   5.490   1.827
 4228SOL     OW13582   0.837   5.926   4.873
 4228SOL    HW113583   0.739   5.905   4.875
 4228SOL    HW213584   0.881   5.887   4.953
 4229SOL     OW13585   5.613   5.915   5.608
 4229SOL    HW113586   5.517   5.902   5.582
 4229SOL    HW213587   5.620   5.988   5.675
 4230SOL     OW13588   1.413   0.097   2.697
 4230SOL    HW113589   1.386   0.184   2.656
 4230SOL    HW213590   1.333   0.037   2.704
 4231SOL     OW13591   5.060   0.864   5.510
 4231SOL    HW113592   5.153   0.848   5.475
 4231SOL    HW213593   5.055   0.835   5.605
 4232SOL     OW13594   2.499   5.527   3.573
 4232SOL    HW113595   2.589   5.554   3.608
 4232SOL    HW213596   2.434   5.522   3.649
 4233SOL     OW13597   0.121   0.112   4.273
 4233SOL    HW113598   0.071   0.040   4.319
 4233SOL    HW213599   0.211   0.078   4.246
 4234SOL     OW13600   1.827   5.460   5.470
 4234SOL    HW113601   1.803   5.453   5.373
 4234SOL    HW213602   1.904   5.522   5.481
 4235SOL     OW13603   6.741   5.150   5.571
 4235SOL    HW113604   6.827   5.157   5.521
 4235SOL    HW213605   6.755   5.181   5.666
 4236SOL     OW13606   0.570   5.345   2.576
 4236SOL    HW113607   0.507   5.390   2.513
 4236SOL    HW213608   0.658   5.394   2.576
 4237SOL     OW13609   6.578   4.358   4.203
 4237SOL    HW113610   6.640   4.384   4.277
 4237SOL    HW213611   6.500   4.421   4.201
 4238SOL     OW13612   1.637   0.975   3.152
 4238SOL    HW113613   1.541   1.000   3.147
 4238SOL    HW213614   1.682   0.997   3.065
 4239SOL     OW13615   4.152   0.987   3.102
 4239SOL    HW113616   4.067   0.985   3.049
 4239SOL    HW213617   4.170   1.081   3.133
 4240SOL     OW13618   2.161   5.117   0.154
 4240SOL    HW113619   2.130   5.118   0.060
 4240SOL    HW213620   2.201   5.027   0.175
 4241SOL     OW13621   6.482   1.676   0.586
 4241SOL    HW113622   6.576   1.707   0.597
 4241SOL    HW213623   6.478   1.576   0.592
 4242SOL     OW13624   2.365   2.358   3.866
 4242SOL    HW113625   2.328   2.450   3.860
 4242SOL    HW213626   2.460   2.361   3.897
 4243SOL     OW13627   5.026   1.662   2.879
 4243SOL    HW113628   5.021   1.734   2.947
 4243SOL    HW213629   5.045   1.575   2.924
 4244SOL     OW13630   3.800   3.444   2.061
 4244SOL    HW113631   3.802   3.366   1.998
 4244SOL    HW213632   3.711   3.488   2.056
 4245SOL     OW13633   6.679   1.815   6.575
 4245SOL    HW113634   6.669   1.757   6.656
 4245SOL    HW213635   6.776   1.832   6.558
 4246SOL     OW13636   6.402   4.463   3.184
 4246SOL    HW113637   6.479   4.517   3.150
 4246SOL    HW213638   6.383   4.488   3.279
 4247SOL     OW13639   0.458   6.394   4.350
 4247SOL    HW113640   0.543   6.429   4.390
 4247SOL    HW213641   0.402   6.353   4.423
 4248SOL     OW13642   2.235   1.815   5.115
 4248SOL    HW113643   2.153   1.773   5.075
 4248SOL    HW213644   2.225   1.914   5.116
 4249SOL     OW13645   6.583   2.688   5.582
 4249SOL    HW113646   6.679   2.668   5.597
 4249SOL    HW213647   6.545   2.626   5.514
 4250SOL     OW13648   6.666   4.615   3.176
 4250SOL    HW113649   6.743   4.566   3.218
 4250SOL    HW213650   6.662   4.708   3.213
 4251SOL     OW13651   6.211   4.658   0.696
 4251SOL    HW113652   6.221   4.576   0.640
 4251SOL    HW213653   6.127   4.652   0.749
 4252SOL     OW13654   6.643   6.187   4.945
 4252SOL    HW113655   6.715   6.162   4.880
 4252SOL    HW213656   6.633   6.287   4.947
 4253SOL     OW13657   3.252   0.103   2.729
 4253SOL    HW113658   3.293   0.133   2.815
 4253SOL    HW213659   3.203   0.179   2.687
 4254SOL     OW13660   1.201   2.938   1.579
 4254SOL    HW113661   1.122   2.955   1.520
 4254SOL    HW213662   1.260   2.870   1.537
 4255SOL     OW13663   5.901   2.505   3.497
 4255SOL    HW113664   5.953   2.553   3.567
 4255SOL    HW213665   5.901   2.407   3.516
 4256SOL     OW13666   1.234   6.443   0.828
 4256SOL    HW113667   1.236   6.389   0.912
 4256SOL    HW213668   1.221   6.381   0.750
 4257SOL     OW13669   3.575   0.559   5.405
 4257SOL    HW113670   3.486   0.521   5.381
 4257SOL    HW213671   3.609   0.613   5.328
 4258SOL     OW13672   6.096   6.869   1.999
 4258SOL    HW113673   6.162   6.852   2.073
 4258SOL    HW213674   6.083   6.786   1.945
 4259SOL     OW13675   2.276   1.112   6.725
 4259SOL    HW113676   2.224   1.127   6.810
 4259SOL    HW213677   2.270   1.193   6.668
 4260SOL     OW13678   4.422   5.938   3.859
 4260SOL    HW113679   4.386   5.852   3.895
 4260SOL    HW213680   4.519   5.927   3.837
 4261SOL     OW13681   2.517   0.374   2.097
 4261SOL    HW113682   2.518   0.296   2.034
 4261SOL    HW213683   2.611   0.400   2.118
 4262SOL     OW13684   1.535   4.795   5.711
 4262SOL    HW113685   1.445   4.788   5.668
 4262SOL    HW213686   1.528   4.770   5.808
 4263SOL     OW13687   2.528   6.685   4.449
 4263SOL    HW113688   2.518   6.661   4.353
 4263SOL    HW213689   2.462   6.632   4.504
 4264SOL     OW13690   6.958   1.602   1.653
 4264SOL    HW113691   6.880   1.664   1.646
 4264SOL    HW213692   6.927   1.507   1.647
 4265SOL     OW13693   6.176   1.771   6.964
 4265SOL    HW113694   6.077   1.766   6.971
 4265SOL    HW213695   6.217   1.691   7.007
 4266SOL     OW13696   2.711   5.469   0.410
 4266SOL    HW113697   2.655   5.414   0.472
 4266SOL    HW213698   2.668   5.558   0.397
 4267SOL     OW13699   2.122   3.636   4.867
 4267SOL    HW113700   2.134   3.670   4.960
 4267SOL    HW213701   2.142   3.708   4.801
 4268SOL     OW13702   1.487   6.659   0.386
 4268SOL    HW113703   1.586   6.657   0.377
 4268SOL    HW213704   1.448   6.721   0.318
 4269SOL     OW13705   2.150   1.745   0.512
 4269SOL    HW113706   2.098   1.659   0.507
 4269SOL    HW213707   2.184   1.757   0.606
 4270SOL     OW13708   3.970   3.104   4.127
 4270SOL    HW113709   3.954   3.043   4.204
 4270SOL    HW213710   3.923   3.191   4.142
 4271SOL     OW13711   0.243   0.431   5.450
 4271SOL    HW113712   0.305   0.430   5.528
 4271SOL    HW213713   0.149   0.417   5.481
 4272SOL     OW13714   7.016   4.964   4.846
 4272SOL    HW113715   0.012   4.866   4.829
 4272SOL    HW213716   6.921   4.987   4.822
 4273SOL     OW13717   4.732   6.485   4.182
 4273SOL    HW113718   4.735   6.558   4.250
 4273SOL    HW213719   4.686   6.518   4.099
 4274SOL     OW13720   1.008   6.754   3.255
 4274SOL    HW113721   0.918   6.712   3.260
 4274SOL    HW213722   1.078   6.687   3.278
 4275SOL     OW13723   6.717   1.287   6.232
 4275SOL    HW113724   6.652   1.217   6.204
 4275SOL    HW213725   6.672   1.352   6.294
 4276SOL     OW13726   1.315   5.091   2.894
 4276SOL    HW113727   1.396   5.148   2.912
 4276SOL    HW213728   1.235   5.150   2.885
 4277SOL     OW13729   0.210   4.506   3.965
 4277SOL    HW113730   0.281   4.462   3.909
 4277SOL    HW213731   0.127   4.517   3.910
 4278SOL     OW13732   6.680   0.504   5.053
 4278SOL    HW113733   6.614   0.577   5.072
 4278SOL    HW213734   6.772   0.535   5.080
 4279SOL     OW13735   3.632   6.408   5.354
 4279SOL    HW113736   3.681   6.327   5.387
 4279SOL    HW213737   3.619   6.472   5.430
 4280SOL     OW13738   5.370   1.504   5.284
 4280SOL    HW113739   5.410   1.417   5.314
 4280SOL    HW213740   5.431   1.547   5.217
 4281SOL     OW13741   1.942   4.552   4.629
 4281SOL    HW113742   1.938   4.613   4.708
 4281SOL    HW213743   1.948   4.457   4.660
 4282SOL     OW13744   2.250   2.016   0.182
 4282SOL    HW113745   2.234   2.080   0.257
 4282SOL    HW213746   2.291   1.932   0.217
 4283SOL     OW13747   1.612   0.313   4.162
 4283SOL    HW113748   1.658   0.371   4.228
 4283SOL    HW213749   1.642   0.337   4.069
 4284SOL     OW13750   5.379   6.920   2.321
 4284SOL    HW113751   5.386   6.821   2.330
 4284SOL    HW213752   5.344   6.959   2.407
 4285SOL     OW13753   0.458   6.898   6.302
 4285SOL    HW113754   0.415   6.954   6.231
 4285SOL    HW213755   0.458   6.802   6.273
 4286SOL     OW13756   5.243   5.740   6.300
 4286SOL    HW113757   5.342   5.743   6.301
 4286SOL    HW213758   5.207   5.789   6.380
 4287SOL     OW13759   5.658   0.658   5.586
 4287SOL    HW113760   5.688   0.563   5.582
 4287SOL    HW213761   5.735   0.719   5.568
 4288SOL     OW13762   0.854   6.403   3.292
 4288SOL    HW113763   0.947   6.424   3.320
 4288SOL    HW213764   0.818   6.328   3.348
 4289SOL     OW13765   5.625   2.416   2.267
 4289SOL    HW113766   5.611   2.450   2.174
 4289SOL    HW213767   5.717   2.378   2.274
 4290SOL     OW13768   2.568   6.601   1.081
 4290SOL    HW113769   2.508   6.566   1.153
 4290SOL    HW213770   2.651   6.639   1.121
 4291SOL     OW13771   4.728   3.478   1.709
 4291SOL    HW113772   4.739   3.416   1.787
 4291SOL    HW213773   4.707   3.570   1.743
 4292SOL     OW13774   6.237   4.567   5.447
 4292SOL    HW113775   6.226   4.656   5.491
 4292SOL    HW213776   6.165   4.555   5.378
 4293SOL     OW13777   6.375   4.007   6.365
 4293SOL    HW113778   6.435   4.006   6.445
 4293SOL    HW213779   6.424   4.046   6.287
 4294SOL     OW13780   4.664   3.367   6.888
 4294SOL    HW113781   4.695   3.455   6.924
 4294SOL    HW213782   4.660   3.299   6.961
 4295SOL     OW13783   3.867   0.060   4.830
 4295SOL    HW113784   3.966   0.071   4.819
 4295SOL    HW213785   3.823   0.150   4.826
 4296SOL     OW13786   2.858   1.543   0.530
 4296SOL    HW113787   2.795   1.620   0.539
 4296SOL    HW213788   2.938   1.572   0.476
 4297SOL     OW13789   5.201   6.984   5.174
 4297SOL    HW113790   5.268   6.928   5.126
 4297SOL    HW213791   5.203   0.058   5.138
 4298SOL     OW13792   1.456   5.459   6.734
 4298SOL    HW113793   1.526   5.412   6.680
 4298SOL    HW213794   1.385   5.394   6.761
 4299SOL     OW13795   1.340   2.984   6.895
 4299SOL    HW113796   1.242   2.966   6.901
 4299SOL    HW213797   1.384   2.911   6.843
 4300SOL     OW13798   2.862   1.728   6.203
 4300SOL    HW113799   2.810   1.644   6.220
 4300SOL    HW213800   2.825   1.802   6.259
 4301SOL     OW13801   2.744   1.289   0.505
 4301SOL    HW113802   2.776   1.379   0.535
 4301SOL    HW213803   2.821   1.226   0.500
 4302SOL     OW13804   1.390   6.531   5.802
 4302SOL    HW113805   1.364   6.483   5.885
 4302SOL    HW213806   1.405   6.464   5.729
 4303SOL     OW13807   6.000   4.415   3.187
 4303SOL    HW113808   6.100   4.409   3.194
 4303SOL    HW213809   5.964   4.461   3.268
 4304SOL     OW13810   3.257   3.956   4.269
 4304SOL    HW113811   3.186   3.887   4.284
 4304SOL    HW213812   3.346   3.917   4.292
 4305SOL     OW13813   6.125   1.937   3.910
 4305SOL    HW113814   6.174   1.906   3.828
 4305SOL    HW213815   6.048   1.876   3.927
 4306SOL     OW13816   0.117   3.767   6.783
 4306SOL    HW113817   0.155   3.855   6.812
 4306SOL    HW213818   0.132   3.755   6.684
 4307SOL     OW13819   4.745   4.894   5.625
 4307SOL    HW113820   4.657   4.942   5.624
 4307SOL    HW213821   4.805   4.936   5.693
 4308SOL     OW13822   5.425   5.962   6.067
 4308SOL    HW113823   5.418   5.895   5.993
 4308SOL    HW213824   5.333   5.996   6.088
 4309SOL     OW13825   0.550   6.754   0.297
 4309SOL    HW113826   0.572   6.656   0.296
 4309SOL    HW213827   0.455   6.766   0.324
 4310SOL     OW13828   2.157   2.444   3.574
 4310SOL    HW113829   2.128   2.404   3.661
 4310SOL    HW213830   2.092   2.515   3.546
 4311SOL     OW13831   1.345   5.679   3.257
 4311SOL    HW113832   1.339   5.711   3.162
 4311SOL    HW213833   1.386   5.588   3.258
 4312SOL     OW13834   1.181   5.671   1.431
 4312SOL    HW113835   1.118   5.671   1.353
 4312SOL    HW213836   1.143   5.615   1.505
 4313SOL     OW13837   5.845   1.406   1.642
 4313SOL    HW113838   5.884   1.411   1.734
 4313SOL    HW213839   5.791   1.488   1.624
 4314SOL     OW13840   4.994   3.115   3.594
 4314SOL    HW113841   4.946   3.123   3.682
 4314SOL    HW213842   5.069   3.182   3.591
 4315SOL     OW13843   1.810   0.641   2.897
 4315SOL    HW113844   1.906   0.660   2.873
 4315SOL    HW213845   1.801   0.638   2.996
 4316SOL     OW13846   4.788   0.038   1.237
 4316SOL    HW113847   4.866   0.080   1.284
 4316SOL    HW213848   4.744   0.107   1.179
 4317SOL     OW13849   3.080   1.284   4.807
 4317SOL    HW113850   2.996   1.257   4.855
 4317SOL    HW213851   3.159   1.255   4.860
 4318SOL     OW13852   0.485   3.752   3.270
 4318SOL    HW113853   0.490   3.698   3.186
 4318SOL    HW213854   0.573   3.797   3.285
 4319SOL     OW13855   2.797   3.063   0.361
 4319SOL    HW113856   2.750   3.148   0.386
 4319SOL    HW213857   2.783   2.995   0.432
 4320SOL     OW13858   1.643   6.255   2.061
 4320SOL    HW113859   1.587   6.291   2.136
 4320SOL    HW213860   1.651   6.325   1.989
 4321SOL     OW13861   6.607   0.670   4.286
 4321SOL    HW113862   6.673   0.603   4.253
 4321SOL    HW213863   6.628   0.695   4.380
 4322SOL     OW13864   6.128   1.334   6.666
 4322SOL    HW113865   6.226   1.354   6.669
 4322SOL    HW213866   6.088   1.349   6.757
 4323SOL     OW13867   5.506   3.359   2.017
 4323SOL    HW113868   5.474   3.406   1.935
 4323SOL    HW213869   5.597   3.393   2.042
 4324SOL     OW13870   5.969   4.862   0.057
 4324SOL    HW113871   5.952   4.955   0.090
 4324SOL    HW213872   6.041   4.864   7.007
 4325SOL     OW13873   0.920   0.910   0.195
 4325SOL    HW113874   0.994   0.976   0.198
 4325SOL    HW213875   0.914   0.870   0.104
 4326SOL     OW13876   7.005   2.988   5.120
 4326SOL    HW113877   6.950   3.061   5.079
 4326SOL    HW213878   7.005   2.999   5.219
 4327SOL     OW13879   6.258   5.720   2.564
 4327SOL    HW113880   6.342   5.672   2.589
 4327SOL    HW213881   6.244   5.714   2.465
 4328SOL     OW13882   4.576   4.922   5.928
 4328SOL    HW113883   4.617   4.889   5.843
 4328SOL    HW213884   4.615   5.011   5.951
 4329SOL     OW13885   2.980   2.000   6.102
 4329SOL    HW113886   3.064   1.955   6.134
 4329SOL    HW213887   2.953   1.962   6.014
 4330SOL     OW13888   2.940   0.537   5.387
 4330SOL    HW113889   2.930   0.513   5.483
 4330SOL    HW213890   3.001   0.615   5.377
 4331SOL     OW13891   5.115   3.325   1.247
 4331SOL    HW113892   5.118   3.425   1.251
 4331SOL    HW213893   5.023   3.296   1.222
 4332SOL     OW13894   5.516   3.582   2.267
 4332SOL    HW113895   5.493   3.631   2.183
 4332SOL    HW213896   5.458   3.501   2.275
 4333SOL     OW13897   4.664   1.584   4.998
 4333SOL    HW113898   4.572   1.545   4.997
 4333SOL    HW213899   4.698   1.587   5.092
 4334SOL     OW13900   2.547   2.041   2.292
 4334SOL    HW113901   2.615   2.101   2.252
 4334SOL    HW213902   2.587   1.951   2.309
 4335SOL     OW13903   3.041   3.590   3.489
 4335SOL    HW113904   2.970   3.523   3.510
 4335SOL    HW213905   3.025   3.629   3.398
 4336SOL     OW13906   0.947   6.921   5.457
 4336SOL    HW113907   0.892   6.947   5.536
 4336SOL    HW213908   0.890   6.923   5.375
 4337SOL     OW13909   1.124   4.742   0.348
 4337SOL    HW113910   1.098   4.815   0.412
 4337SOL    HW213911   1.168   4.668   0.398
 4338SOL     OW13912   4.931   5.973   4.768
 4338SOL    HW113913   4.840   5.941   4.793
 4338SOL    HW213914   4.995   5.896   4.765
 4339SOL     OW13915   5.820   3.006   5.782
 4339SOL    HW113916   5.776   2.916   5.778
 4339SOL    HW213917   5.789   3.055   5.863
 4340SOL     OW13918   6.189   3.645   2.906
 4340SOL    HW113919   6.162   3.550   2.920
 4340SOL    HW213920   6.260   3.649   2.836
 4341SOL     OW13921   0.917   4.081   1.505
 4341SOL    HW113922   0.854   4.152   1.474
 4341SOL    HW213923   1.011   4.116   1.499
 4342SOL     OW13924   6.649   3.149   4.135
 4342SOL    HW113925   6.675   3.219   4.069
 4342SOL    HW213926   6.665   3.183   4.228
 4343SOL     OW13927   2.961   6.933   0.041
 4343SOL    HW113928   2.995   6.934   6.966
 4343SOL    HW213929   2.974   0.003   0.082
 4344SOL     OW13930   1.696   5.502   3.538
 4344SOL    HW113931   1.658   5.427   3.592
 4344SOL    HW213932   1.778   5.537   3.583
 4345SOL     OW13933   1.443   3.044   5.590
 4345SOL    HW113934   1.422   3.011   5.682
 4345SOL    HW213935   1.518   2.989   5.552
 4346SOL     OW13936   2.237   2.981   1.728
 4346SOL    HW113937   2.178   2.914   1.682
 4346SOL    HW213938   2.246   2.957   1.824
 4347SOL     OW13939   6.735   1.118   1.481
 4347SOL    HW113940   6.831   1.096   1.466
 4347SOL    HW213941   6.708   1.091   1.573
 4348SOL     OW13942   0.258   2.984   2.513
 4348SOL    HW113943   0.169   2.973   2.468
 4348SOL    HW213944   0.290   3.079   2.501
 4349SOL     OW13945   0.203   1.771   2.901
 4349SOL    HW113946   0.143   1.692   2.889
 4349SOL    HW213947   0.151   1.855   2.882
 4350SOL     OW13948   4.588   2.273   4.144
 4350SOL    HW113949   4.523   2.302   4.213
 4350SOL    HW213950   4.663   2.339   4.138
 4351SOL     OW13951   2.395   6.516   1.310
 4351SOL    HW113952   2.323   6.484   1.249
 4351SOL    HW213953   2.371   6.495   1.405
 4352SOL     OW13954   0.636   1.996   1.413
 4352SOL    HW113955   0.724   2.018   1.372
 4352SOL    HW213956   0.632   1.898   1.433
 4353SOL     OW13957   3.201   4.986   0.919
 4353SOL    HW113958   3.172   4.892   0.936
 4353SOL    HW213959   3.223   4.998   0.823
 4354SOL     OW13960   1.959   6.458   5.557
 4354SOL    HW113961   1.979   6.525   5.628
 4354SOL    HW213962   1.945   6.504   5.470
 4355SOL     OW13963   3.672   0.135   1.795
 4355SOL    HW113964   3.767   0.110   1.775
 4355SOL    HW213965   3.640   0.200   1.726
 4356SOL     OW13966   4.769   4.318   1.890
 4356SOL    HW113967   4.679   4.287   1.921
 4356SOL    HW213968   4.759   4.405   1.841
 4357SOL     OW13969   6.175   0.188   6.813
 4357SOL    HW113970   6.096   0.239   6.781
 4357SOL    HW213971   6.233   0.163   6.736
 4358SOL     OW13972   6.467   6.143   0.675
 4358SOL    HW113973   6.532   6.068   0.687
 4358SOL    HW213974   6.480   6.210   0.749
 4359SOL     OW13975   1.410   2.082   4.844
 4359SOL    HW113976   1.370   2.001   4.801
 4359SOL    HW213977   1.450   2.056   4.932
 4360SOL     OW13978   1.635   3.504   2.725
 4360SOL    HW113979   1.619   3.422   2.670
 4360SOL    HW213980   1.681   3.573   2.669
 4361SOL     OW13981   3.098   2.581   1.643
 4361SOL    HW113982   3.067   2.540   1.728
 4361SOL    HW213983   3.041   2.549   1.567
 4362SOL     OW13984   5.907   3.986   5.121
 4362SOL    HW113985   5.837   4.022   5.060
 4362SOL    HW213986   5.869   3.974   5.213
 4363SOL     OW13987   4.988   2.033   5.781
 4363SOL    HW113988   5.026   1.976   5.708
 4363SOL    HW213989   5.024   2.003   5.869
 4364SOL     OW13990   2.946   3.886   5.496
 4364SOL    HW113991   3.032   3.835   5.492
 4364SOL    HW213992   2.938   3.945   5.416
 4365SOL     OW13993   2.882   1.474   2.293
 4365SOL    HW113994   2.933   1.544   2.343
 4365SOL    HW213995   2.817   1.430   2.356
 4366SOL     OW13996   5.348   6.631   0.863
 4366SOL    HW113997   5.372   6.716   0.909
 4366SOL    HW213998   5.336   6.559   0.932
 4367SOL     OW13999   1.130   5.143   5.644
 4367SOL    HW114000   1.134   5.072   5.714
 4367SOL    HW214001   1.216   5.145   5.593
 4368SOL     OW14002   3.877   5.110   1.182
 4368SOL    HW114003   3.809   5.054   1.136
 4368SOL    HW214004   3.920   5.057   1.255
 4369SOL     OW14005   4.564   5.779   2.634
 4369SOL    HW114006   4.484   5.834   2.610
 4369SOL    HW214007   4.617   5.826   2.705
 4370SOL     OW14008   5.300   4.297   2.952
 4370SOL    HW114009   5.347   4.242   3.021
 4370SOL    HW214010   5.341   4.388   2.949
 4371SOL     OW14011   6.128   0.134   1.289
 4371SOL    HW114012   6.073   0.211   1.256
 4371SOL    HW214013   6.101   0.051   1.241
 4372SOL     OW14014   4.467   1.349   2.621
 4372SOL    HW114015   4.399   1.401   2.673
 4372SOL    HW214016   4.545   1.329   2.680
 4373SOL     OW14017   0.244   3.244   6.504
 4373SOL    HW114018   0.266   3.236   6.407
 4373SOL    HW214019   0.317   3.203   6.559
 4374SOL     OW14020   1.214   2.076   1.623
 4374SOL    HW114021   1.133   2.037   1.579
 4374SOL    HW214022   1.284   2.094   1.554
 4375SOL     OW14023   2.502   0.138   4.017
 4375SOL    HW114024   2.488   0.179   4.107
 4375SOL    HW214025   2.520   0.210   3.950
 4376SOL     OW14026   6.939   0.172   2.263
 4376SOL    HW114027   6.846   0.135   2.252
 4376SOL    HW214028   6.940   0.234   2.341
 4377SOL     OW14029   5.339   3.773   0.843
 4377SOL    HW114030   5.305   3.785   0.750
 4377SOL    HW214031   5.408   3.843   0.863
 4378SOL     OW14032   1.818   0.944   2.929
 4378SOL    HW114033   1.874   1.012   2.881
 4378SOL    HW214034   1.857   0.853   2.916
 4379SOL     OW14035   2.774   1.558   4.507
 4379SOL    HW114036   2.780   1.657   4.495
 4379SOL    HW214037   2.707   1.537   4.579
 4380SOL     OW14038   1.562   0.617   1.644
 4380SOL    HW114039   1.582   0.715   1.641
 4380SOL    HW214040   1.538   0.585   1.552
 4381SOL     OW14041   1.609   5.593   4.978
 4381SOL    HW114042   1.646   5.511   4.936
 4381SOL    HW214043   1.509   5.586   4.983
 4382SOL     OW14044   6.733   3.299   5.836
 4382SOL    HW114045   6.723   3.243   5.753
 4382SOL    HW214046   6.809   3.263   5.890
 4383SOL     OW14047   6.118   3.882   6.387
 4383SOL    HW114048   6.077   3.904   6.298
 4383SOL    HW214049   6.211   3.919   6.390
 4384SOL     OW14050   6.450   0.739   3.470
 4384SOL    HW114051   6.534   0.712   3.422
 4384SOL    HW214052   6.370   0.710   3.417
 4385SOL     OW14053   4.370   2.365   4.763
 4385SOL    HW114054   4.305   2.382   4.837
 4385SOL    HW214055   4.428   2.287   4.787
 4386SOL     OW14056   1.193   3.832   5.269
 4386SOL    HW114057   1.098   3.864   5.274
 4386SOL    HW214058   1.218   3.788   5.355
 4387SOL     OW14059   6.830   2.537   1.549
 4387SOL    HW114060   6.797   2.442   1.551
 4387SOL    HW214061   6.809   2.580   1.637
 4388SOL     OW14062   5.178   1.987   5.990
 4388SOL    HW114063   5.274   1.983   5.963
 4388SOL    HW214064   5.167   2.042   6.072
 4389SOL     OW14065   6.930   3.931   1.704
 4389SOL    HW114066   6.882   3.985   1.635
 4389SOL    HW214067   0.000   3.905   1.669
 4390SOL     OW14068   5.068   6.797   0.540
 4390SOL    HW114069   5.061   6.698   0.531
 4390SOL    HW214070   5.064   6.822   0.637
 4391SOL     OW14071   1.981   5.137   6.401
 4391SOL    HW114072   2.059   5.080   6.425
 4391SOL    HW214073   1.947   5.111   6.311
 4392SOL     OW14074   0.393   1.722   4.262
 4392SOL    HW114075   0.382   1.626   4.237
 4392SOL    HW214076   0.305   1.768   4.260
 4393SOL     OW14077   6.134   0.559   2.007
 4393SOL    HW114078   6.149   0.559   1.908
 4393SOL    HW214079   6.123   0.653   2.039
 4394SOL     OW14080   1.024   6.987   1.725
 4394SOL    HW114081   1.011   6.967   1.628
 4394SOL    HW214082   1.106   0.024   1.737
 4395SOL     OW14083   1.952   0.156   1.422
 4395SOL    HW114084   1.938   0.111   1.511
 4395SOL    HW214085   2.047   0.147   1.394
 4396SOL     OW14086   1.701   1.676   3.800
 4396SOL    HW114087   1.722   1.580   3.820
 4396SOL    HW214088   1.636   1.681   3.724
 4397SOL     OW14089   1.837   3.021   3.948
 4397SOL    HW114090   1.874   3.046   3.859
 4397SOL    HW214091   1.902   2.962   3.996
 4398SOL     OW14092   2.049   3.866   6.084
 4398SOL    HW114093   2.079   3.877   5.989
 4398SOL    HW214094   2.014   3.774   6.098
 4399SOL     OW14095   1.978   5.697   1.742
 4399SOL    HW114096   1.905   5.645   1.786
 4399SOL    HW214097   2.032   5.744   1.812
 4400SOL     OW14098   2.057   6.685   3.818
 4400SOL    HW114099   2.062   6.719   3.724
 4400SOL    HW214100   2.123   6.612   3.831
 4401SOL     OW14101   4.087   6.164   4.874
 4401SOL    HW114102   4.086   6.250   4.821
 4401SOL    HW214103   4.006   6.160   4.932
 4402SOL     OW14104   0.985   0.537   2.253
 4402SOL    HW114105   1.006   0.593   2.173
 4402SOL    HW214106   0.889   0.509   2.250
 4403SOL     OW14107   0.746   5.816   0.860
 4403SOL    HW114108   0.837   5.857   0.856
 4403SOL    HW214109   0.680   5.877   0.816
 4404SOL     OW14110   1.223   5.850   5.391
 4404SOL    HW114111   1.206   5.761   5.432
 4404SOL    HW214112   1.271   5.839   5.304
 4405SOL     OW14113   2.712   5.251   3.461
 4405SOL    HW114114   2.777   5.293   3.398
 4405SOL    HW214115   2.749   5.164   3.495
 4406SOL     OW14116   6.860   3.421   1.508
 4406SOL    HW114117   6.860   3.351   1.436
 4406SOL    HW214118   6.828   3.508   1.470
 4407SOL     OW14119   0.188   5.373   1.373
 4407SOL    HW114120   0.119   5.333   1.313
 4407SOL    HW214121   0.207   5.310   1.449
 4408SOL     OW14122   3.058   6.238   6.979
 4408SOL    HW114123   3.001   6.171   0.007
 4408SOL    HW214124   3.031   6.242   6.882
 4409SOL     OW14125   3.991   0.959   1.527
 4409SOL    HW114126   3.934   0.878   1.517
 4409SOL    HW214127   3.937   1.041   1.508
 4410SOL     OW14128   0.084   6.083   0.541
 4410SOL    HW114129   0.037   6.075   0.453
 4410SOL    HW214130   0.019   6.069   0.616
 4411SOL     OW14131   3.678   4.958   5.614
 4411SOL    HW114132   3.706   5.015   5.692
 4411SOL    HW214133   3.579   4.956   5.609
 4412SOL     OW14134   5.165   6.772   4.245
 4412SOL    HW114135   5.242   6.709   4.258
 4412SOL    HW214136   5.142   6.815   4.332
 4413SOL     OW14137   4.458   6.399   4.276
 4413SOL    HW114138   4.548   6.399   4.233
 4413SOL    HW214139   4.412   6.313   4.257
 4414SOL     OW14140   4.436   5.616   1.694
 4414SOL    HW114141   4.445   5.568   1.606
 4414SOL    HW214142   4.361   5.576   1.746
 4415SOL     OW14143   3.453   3.854   0.884
 4415SOL    HW114144   3.469   3.915   0.961
 4415SOL    HW214145   3.469   3.759   0.912
 4416SOL     OW14146   3.895   1.525   4.374
 4416SOL    HW114147   3.860   1.467   4.300
 4416SOL    HW214148   3.995   1.522   4.374
 4417SOL     OW14149   6.261   2.767   4.112
 4417SOL    HW114150   6.175   2.815   4.128
 4417SOL    HW214151   6.330   2.831   4.079
 4418SOL     OW14152   6.156   2.070   2.041
 4418SOL    HW114153   6.193   2.012   1.968
 4418SOL    HW214154   6.217   2.148   2.055
 4419SOL     OW14155   6.075   6.249   5.717
 4419SOL    HW114156   6.039   6.211   5.632
 4419SOL    HW214157   6.103   6.175   5.778
 4420SOL     OW14158   3.678   1.801   1.238
 4420SOL    HW114159   3.598   1.812   1.298
 4420SOL    HW214160   3.719   1.711   1.255
 4421SOL     OW14161   1.276   3.117   5.369
 4421SOL    HW114162   1.249   3.025   5.341
 4421SOL    HW214163   1.343   3.111   5.442
 4422SOL     OW14164   0.830   4.912   6.908
 4422SOL    HW114165   0.859   4.862   6.989
 4422SOL    HW214166   0.730   4.911   6.902
 4423SOL     OW14167   6.446   4.686   5.636
 4423SOL    HW114168   6.416   4.603   5.683
 4423SOL    HW214169   6.519   4.664   5.571
 4424SOL     OW14170   5.358   5.782   4.206
 4424SOL    HW114171   5.357   5.877   4.236
 4424SOL    HW214172   5.380   5.778   4.108
 4425SOL     OW14173   1.818   5.460   0.679
 4425SOL    HW114174   1.855   5.416   0.761
 4425SOL    HW214175   1.889   5.516   0.637
 4426SOL     OW14176   1.242   0.685   3.951
 4426SOL    HW114177   1.243   0.690   4.051
 4426SOL    HW214178   1.305   0.613   3.921
 4427SOL     OW14179   3.665   6.233   2.621
 4427SOL    HW114180   3.665   6.322   2.575
 4427SOL    HW214181   3.571   6.208   2.644
 4428SOL     OW14182   5.165   0.876   4.789
 4428SOL    HW114183   5.235   0.943   4.765
 4428SOL    HW214184   5.108   0.857   4.709
 4429SOL     OW14185   2.956   6.502   3.051
 4429SOL    HW114186   2.970   6.601   3.053
 4429SOL    HW214187   3.037   6.456   3.086
 4430SOL     OW14188   5.525   4.933   4.323
 4430SOL    HW114189   5.597   5.002   4.309
 4430SOL    HW214190   5.539   4.887   4.410
 4431SOL     OW14191   3.118   0.456   3.688
 4431SOL    HW114192   3.083   0.545   3.717
 4431SOL    HW214193   3.175   0.468   3.607
 4432SOL     OW14194   2.603   3.456   6.467
 4432SOL    HW114195   2.531   3.438   6.400
 4432SOL    HW214196   2.585   3.405   6.550
 4433SOL     OW14197   0.702   2.141   4.857
 4433SOL    HW114198   0.772   2.089   4.907
 4433SOL    HW214199   0.619   2.087   4.851
 4434SOL     OW14200   6.214   1.269   1.702
 4434SOL    HW114201   6.222   1.277   1.603
 4434SOL    HW214202   6.275   1.335   1.746
 4435SOL     OW14203   3.495   4.049   1.104
 4435SOL    HW114204   3.459   4.140   1.082
 4435SOL    HW214205   3.587   4.039   1.065
 4436SOL     OW14206   4.217   1.748   1.611
 4436SOL    HW114207   4.223   1.798   1.525
 4436SOL    HW214208   4.191   1.811   1.684
 4437SOL     OW14209   0.399   3.221   2.528
 4437SOL    HW114210   0.350   3.308   2.528
 4437SOL    HW214211   0.492   3.235   2.493
 4438SOL     OW14212   4.554   0.013   5.555
 4438SOL    HW114213   4.569   0.031   5.652
 4438SOL    HW214214   4.500   0.087   5.515
 4439SOL     OW14215   0.959   5.707   2.753
 4439SOL    HW114216   0.995   5.794   2.786
 4439SOL    HW214217   0.958   5.641   2.828
 4440SOL     OW14218   2.751   4.508   1.046
 4440SOL    HW114219   2.754   4.487   1.144
 4440SOL    HW214220   2.678   4.454   1.003
 4441SOL     OW14221   0.728   1.517   0.562
 4441SOL    HW114222   0.788   1.441   0.536
 4441SOL    HW214223   0.750   1.597   0.507
 4442SOL     OW14224   1.061   5.062   6.007
 4442SOL    HW114225   1.083   5.009   5.925
 4442SOL    HW214226   1.077   5.005   6.088
 4443SOL     OW14227   0.818   4.717   6.461
 4443SOL    HW114228   0.848   4.696   6.554
 4443SOL    HW214229   0.760   4.799   6.463
 4444SOL     OW14230   4.522   4.155   0.585
 4444SOL    HW114231   4.513   4.132   0.682
 4444SOL    HW214232   4.436   4.194   0.552
 4445SOL     OW14233   1.025   5.313   0.081
 4445SOL    HW114234   1.007   5.235   0.140
 4445SOL    HW214235   1.123   5.319   0.062
 4446SOL     OW14236   5.382   1.606   0.204
 4446SOL    HW114237   5.325   1.685   0.183
 4446SOL    HW214238   5.326   1.523   0.207
 4447SOL     OW14239   5.463   4.571   5.182
 4447SOL    HW114240   5.395   4.565   5.109
 4447SOL    HW214241   5.448   4.653   5.236
 4448SOL     OW14242   2.985   6.993   0.970
 4448SOL    HW114243   2.888   7.015   0.986
 4448SOL    HW214244   3.004   6.999   0.873
 4449SOL     OW14245   4.504   1.109   6.438
 4449SOL    HW114246   4.497   1.077   6.532
 4449SOL    HW214247   4.454   1.195   6.428
 4450SOL     OW14248   3.373   1.574   6.971
 4450SOL    HW114249   3.354   1.538   0.043
 4450SOL    HW214250   3.466   1.549   6.944
 4451SOL     OW14251   4.869   4.536   3.958
 4451SOL    HW114252   4.889   4.633   3.949
 4451SOL    HW214253   4.954   4.485   3.972
 4452SOL     OW14254   5.871   6.117   4.668
 4452SOL    HW114255   5.904   6.050   4.602
 4452SOL    HW214256   5.842   6.070   4.752
 4453SOL     OW14257   0.793   2.772   2.054
 4453SOL    HW114258   0.807   2.871   2.056
 4453SOL    HW214259   0.873   2.726   2.093
 4454SOL     OW14260   0.140   1.261   6.656
 4454SOL    HW114261   0.085   1.312   6.722
 4454SOL    HW214262   0.229   1.306   6.646
 4455SOL     OW14263   6.185   5.702   4.928
 4455SOL    HW114264   6.271   5.752   4.914
 4455SOL    HW214265   6.140   5.687   4.840
 4456SOL     OW14266   2.222   6.010   3.731
 4456SOL    HW114267   2.276   6.093   3.715
 4456SOL    HW214268   2.127   6.035   3.750
 4457SOL     OW14269   2.074   2.187   4.880
 4457SOL    HW114270   2.130   2.139   4.813
 4457SOL    HW214271   2.018   2.256   4.834
 4458SOL     OW14272   2.121   3.562   1.766
 4458SOL    HW114273   2.128   3.471   1.725
 4458SOL    HW214274   2.122   3.554   1.865
 4459SOL     OW14275   2.137   1.730   4.771
 4459SOL    HW114276   2.113   1.781   4.853
 4459SOL    HW214277   2.203   1.782   4.717
 4460SOL     OW14278   0.360   3.295   4.441
 4460SOL    HW114279   0.361   3.389   4.406
 4460SOL    HW214280   0.452   3.255   4.432
 4461SOL     OW14281   1.959   0.716   1.065
 4461SOL    HW114282   1.978   0.784   0.994
 4461SOL    HW214283   2.041   0.703   1.121
 4462SOL     OW14284   6.025   3.680   2.155
 4462SOL    HW114285   5.988   3.601   2.203
 4462SOL    HW214286   6.026   3.759   2.216
 4463SOL     OW14287   5.318   1.162   0.698
 4463SOL    HW114288   5.310   1.149   0.797
 4463SOL    HW214289   5.361   1.250   0.679
 4464SOL     OW14290   0.521   5.252   0.352
 4464SOL    HW114291   0.461   5.175   0.371
 4464SOL    HW214292   0.580   5.268   0.432
 4465SOL     OW14293   2.579   5.705   0.384
 4465SOL    HW114294   2.549   5.724   0.290
 4465SOL    HW214295   2.541   5.774   0.446
 4466SOL     OW14296   2.401   2.060   3.400
 4466SOL    HW114297   2.381   2.119   3.477
 4466SOL    HW214298   2.316   2.042   3.349
 4467SOL     OW14299   2.474   5.776   4.230
 4467SOL    HW114300   2.548   5.841   4.246
 4467SOL    HW214301   2.447   5.778   4.134
 4468SOL     OW14302   1.025   3.349   0.467
 4468SOL    HW114303   0.940   3.382   0.427
 4468SOL    HW214304   1.042   3.395   0.554
 4469SOL     OW14305   2.393   0.751   1.364
 4469SOL    HW114306   2.395   0.840   1.319
 4469SOL    HW214307   2.486   0.716   1.373
 4470SOL     OW14308   0.524   0.727   2.574
 4470SOL    HW114309   0.589   0.799   2.600
 4470SOL    HW214310   0.533   0.708   2.477
 4471SOL     OW14311   2.056   2.839   6.557
 4471SOL    HW114312   2.132   2.851   6.493
 4471SOL    HW214313   2.007   2.755   6.536
 4472SOL     OW14314   1.749   2.791   1.460
 4472SOL    HW114315   1.786   2.881   1.436
 4472SOL    HW214316   1.649   2.798   1.469
 4473SOL     OW14317   6.445   2.971   4.047
 4473SOL    HW114318   6.496   3.043   4.096
 4473SOL    HW214319   6.503   2.933   3.976
 4474SOL     OW14320   2.842   1.084   2.091
 4474SOL    HW114321   2.782   1.059   2.167
 4474SOL    HW214322   2.790   1.135   2.022
 4475SOL     OW14323   0.772   3.825   2.088
 4475SOL    HW114324   0.677   3.794   2.084
 4475SOL    HW214325   0.780   3.915   2.046
 4476SOL     OW14326   5.795   1.286   4.135
 4476SOL    HW114327   5.857   1.338   4.194
 4476SOL    HW214328   5.797   1.324   4.043
 4477SOL     OW14329   1.764   0.403   5.309
 4477SOL    HW114330   1.806   0.405   5.399
 4477SOL    HW214331   1.703   0.481   5.299
 4478SOL     OW14332   0.964   0.207   1.498
 4478SOL    HW114333   0.930   0.189   1.406
 4478SOL    HW214334   1.053   0.163   1.509
 4479SOL     OW14335   1.260   1.859   0.118
 4479SOL    HW114336   1.291   1.821   0.031
 4479SOL    HW214337   1.306   1.811   0.193
 4480SOL     OW14338   0.206   4.573   4.648
 4480SOL    HW114339   0.278   4.604   4.710
 4480SOL    HW214340   0.196   4.474   4.656
 4481SOL     OW14341   2.609   5.356   5.097
 4481SOL    HW114342   2.614   5.453   5.121
 4481SOL    HW214343   2.516   5.323   5.114
 4482SOL     OW14344   2.669   4.064   5.903
 4482SOL    HW114345   2.663   4.003   5.982
 4482SOL    HW214346   2.751   4.122   5.912
 4483SOL     OW14347   0.771   2.461   1.637
 4483SOL    HW114348   0.766   2.364   1.614
 4483SOL    HW214349   0.843   2.504   1.583
 4484SOL     OW14350   2.691   3.274   0.502
 4484SOL    HW114351   2.630   3.249   0.577
 4484SOL    HW214352   2.705   3.373   0.502
 4485SOL     OW14353   4.722   2.386   4.812
 4485SOL    HW114354   4.749   2.343   4.899
 4485SOL    HW214355   4.724   2.485   4.822
 4486SOL     OW14356   5.873   4.642   5.575
 4486SOL    HW114357   5.902   4.601   5.489
 4486SOL    HW214358   5.785   4.604   5.603
 4487SOL     OW14359   1.904   2.877   6.832
 4487SOL    HW114360   1.976   2.813   6.804
 4487SOL    HW214361   1.924   2.968   6.794
 4488SOL     OW14362   0.783   3.832   3.611
 4488SOL    HW114363   0.854   3.895   3.642
 4488SOL    HW214364   0.822   3.741   3.599
 4489SOL     OW14365   4.942   5.488   5.014
 4489SOL    HW114366   4.929   5.468   4.917
 4489SOL    HW214367   4.920   5.585   5.031
 4490SOL     OW14368   5.478   2.161   0.994
 4490SOL    HW114369   5.577   2.146   0.993
 4490SOL    HW214370   5.451   2.200   1.081
 4491SOL     OW14371   0.514   3.539   3.102
 4491SOL    HW114372   0.485   3.528   3.007
 4491SOL    HW214373   0.463   3.476   3.160
 4492SOL     OW14374   5.945   0.552   1.397
 4492SOL    HW114375   5.924   0.614   1.473
 4492SOL    HW214376   5.976   0.605   1.318
 4493SOL     OW14377   5.402   6.773   4.792
 4493SOL    HW114378   5.439   6.806   4.705
 4493SOL    HW214379   5.404   6.674   4.795
 4494SOL     OW14380   0.567   0.492   5.826
 4494SOL    HW114381   0.657   0.533   5.817
 4494SOL    HW214382   0.520   0.531   5.906
 4495SOL     OW14383   3.293   5.853   2.266
 4495SOL    HW114384   3.262   5.821   2.176
 4495SOL    HW214385   3.244   5.803   2.337
 4496SOL     OW14386   4.592   6.097   6.462
 4496SOL    HW114387   4.630   6.039   6.390
 4496SOL    HW214388   4.492   6.086   6.465
 4497SOL     OW14389   3.616   2.475   0.029
 4497SOL    HW114390   3.686   2.415   7.010
 4497SOL    HW214391   3.654   2.565   0.048
 4498SOL     OW14392   6.849   5.296   6.423
 4498SOL    HW114393   6.848   5.384   6.376
 4498SOL    HW214394   6.856   5.311   6.522
 4499SOL     OW14395   6.687   1.507   3.053
 4499SOL    HW114396   6.607   1.564   3.036
 4499SOL    HW214397   6.729   1.481   2.966
 4500SOL     OW14398   4.145   5.094   6.825
 4500SOL    HW114399   4.122   5.180   6.870
 4500SOL    HW214400   4.092   5.085   6.740
 4501SOL     OW14401   5.874   2.100   2.073
 4501SOL    HW114402   5.849   2.122   1.979
 4501SOL    HW214403   5.974   2.095   2.081
 4502SOL     OW14404   0.869   3.597   6.759
 4502SOL    HW114405   0.887   3.503   6.730
 4502SOL    HW214406   0.805   3.639   6.695
 4503SOL     OW14407   2.957   0.131   2.092
 4503SOL    HW114408   3.020   0.058   2.116
 4503SOL    HW214409   2.916   0.111   2.002
 4504SOL     OW14410   6.701   1.990   3.508
 4504SOL    HW114411   6.695   1.890   3.505
 4504SOL    HW214412   6.610   2.030   3.497
 4505SOL     OW14413   6.535   4.574   2.765
 4505SOL    HW114414   6.633   4.593   2.770
 4505SOL    HW214415   6.491   4.643   2.708
 4506SOL     OW14416   4.840   3.025   4.182
 4506SOL    HW114417   4.838   3.118   4.146
 4506SOL    HW214418   4.863   2.961   4.108
 4507SOL     OW14419   6.646   3.067   3.274
 4507SOL    HW114420   6.552   3.044   3.300
 4507SOL    HW214421   6.645   3.151   3.220
 4508SOL     OW14422   0.571   4.397   0.482
 4508SOL    HW114423   0.520   4.318   0.516
 4508SOL    HW214424   0.539   4.480   0.529
 4509SOL     OW14425   5.064   2.171   2.762
 4509SOL    HW114426   4.994   2.121   2.814
 4509SOL    HW214427   5.096   2.249   2.816
 4510SOL     OW14428   4.397   1.569   3.949
 4510SOL    HW114429   4.384   1.485   4.001
 4510SOL    HW214430   4.449   1.635   4.003
 4511SOL     OW14431   6.707   3.957   1.212
 4511SOL    HW114432   6.714   3.967   1.112
 4511SOL    HW214433   6.621   3.912   1.234
 4512SOL     OW14434   3.492   2.151   5.728
 4512SOL    HW114435   3.529   2.062   5.701
 4512SOL    HW214436   3.419   2.178   5.665
 4513SOL     OW14437   0.666   5.813   6.546
 4513SOL    HW114438   0.679   5.867   6.629
 4513SOL    HW214439   0.570   5.785   6.539
 4514SOL     OW14440   3.605   3.380   6.654
 4514SOL    HW114441   3.516   3.418   6.676
 4514SOL    HW214442   3.664   3.382   6.735
 4515SOL     OW14443   5.796   0.889   4.688
 4515SOL    HW114444   5.731   0.877   4.762
 4515SOL    HW214445   5.881   0.927   4.724
 4516SOL     OW14446   3.035   1.337   5.706
 4516SOL    HW114447   2.973   1.266   5.740
 4516SOL    HW214448   2.996   1.427   5.726
 4517SOL     OW14449   4.415   0.162   6.662
 4517SOL    HW114450   4.479   0.223   6.708
 4517SOL    HW214451   4.467   0.095   6.608
 4518SOL     OW14452   1.480   6.579   0.820
 4518SOL    HW114453   1.449   6.647   0.754
 4518SOL    HW214454   1.401   6.531   0.858
 4519SOL     OW14455   4.993   6.905   0.294
 4519SOL    HW114456   4.946   6.993   0.302
 4519SOL    HW214457   5.014   6.870   0.386
 4520SOL     OW14458   4.139   5.893   5.344
 4520SOL    HW114459   4.168   5.838   5.422
 4520SOL    HW214460   4.154   5.842   5.259
 4521SOL     OW14461   5.037   2.162   4.839
 4521SOL    HW114462   5.072   2.250   4.807
 4521SOL    HW214463   5.096   2.127   4.911
 4522SOL     OW14464   5.539   3.804   3.867
 4522SOL    HW114465   5.559   3.752   3.951
 4522SOL    HW214466   5.582   3.758   3.789
 4523SOL     OW14467   0.682   3.808   6.623
 4523SOL    HW114468   0.692   3.863   6.706
 4523SOL    HW214469   0.745   3.842   6.553
 4524SOL     OW14470   0.524   3.864   2.952
 4524SOL    HW114471   0.613   3.869   2.906
 4524SOL    HW214472   0.498   3.955   2.984
 4525SOL     OW14473   1.934   2.818   5.795
 4525SOL    HW114474   1.991   2.818   5.713
 4525SOL    HW214475   1.979   2.871   5.867
 4526SOL     OW14476   0.606   0.493   6.797
 4526SOL    HW114477   0.649   0.560   6.735
 4526SOL    HW214478   0.642   0.507   6.889
 4527SOL     OW14479   6.649   7.001   2.565
 4527SOL    HW114480   6.671   0.021   2.654
 4527SOL    HW214481   6.549   6.992   2.557
 4528SOL     OW14482   4.272   0.635   5.800
 4528SOL    HW114483   4.210   0.657   5.875
 4528SOL    HW214484   4.295   0.538   5.804
 4529SOL     OW14485   2.859   1.112   6.348
 4529SOL    HW114486   2.947   1.154   6.373
 4529SOL    HW214487   2.864   1.078   6.255
 4530SOL     OW14488   2.182   6.369   4.869
 4530SOL    HW114489   2.088   6.390   4.896
 4530SOL    HW214490   2.234   6.455   4.863
 4531SOL     OW14491   1.199   4.198   6.744
 4531SOL    HW114492   1.109   4.214   6.705
 4531SOL    HW214493   1.238   4.284   6.776
 4532SOL     OW14494   4.770   0.851   2.864
 4532SOL    HW114495   4.719   0.871   2.780
 4532SOL    HW214496   4.855   0.803   2.841
 4533SOL     OW14497   1.544   0.768   2.910
 4533SOL    HW114498   1.558   0.864   2.883
 4533SOL    HW214499   1.631   0.727   2.935
 4534SOL     OW14500   4.321   1.618   4.659
 4534SOL    HW114501   4.309   1.644   4.755
 4534SOL    HW214502   4.416   1.636   4.631
 4535SOL     OW14503   3.543   1.780   0.898
 4535SOL    HW114504   3.626   1.809   0.947
 4535SOL    HW214505   3.501   1.703   0.947
 4536SOL     OW14506   2.364   2.111   5.398
 4536SOL    HW114507   2.450   2.063   5.379
 4536SOL    HW214508   2.365   2.200   5.353
 4537SOL     OW14509   3.491   3.809   3.191
 4537SOL    HW114510   3.529   3.893   3.229
 4537SOL    HW214511   3.461   3.749   3.265
 4538SOL     OW14512   0.795   2.503   1.897
 4538SOL    HW114513   0.734   2.569   1.940
 4538SOL    HW214514   0.758   2.478   1.807
 4539SOL     OW14515   2.736   5.362   4.807
 4539SOL    HW114516   2.705   5.301   4.734
 4539SOL    HW214517   2.673   5.355   4.885
 4540SOL     OW14518   0.510   0.841   0.610
 4540SOL    HW114519   0.521   0.756   0.661
 4540SOL    HW214520   0.548   0.829   0.518
 4541SOL     OW14521   4.304   1.466   6.895
 4541SOL    HW114522   4.386   1.431   6.850
 4541SOL    HW214523   4.238   1.391   6.906
 4542SOL     OW14524   6.847   2.595   0.843
 4542SOL    HW114525   6.870   2.685   0.805
 4542SOL    HW214526   6.905   2.576   0.922
 4543SOL     OW14527   4.410   2.258   0.728
 4543SOL    HW114528   4.465   2.325   0.678
 4543SOL    HW214529   4.323   2.300   0.754
 4544SOL     OW14530   4.856   4.198   0.761
 4544SOL    HW114531   4.898   4.271   0.815
 4544SOL    HW214532   4.759   4.191   0.783
 4545SOL     OW14533   1.026   4.396   5.058
 4545SOL    HW114534   1.116   4.431   5.083
 4545SOL    HW214535   0.958   4.427   5.124
 4546SOL     OW14536   2.895   1.047   6.034
 4546SOL    HW114537   2.894   1.078   5.939
 4546SOL    HW214538   2.989   1.033   6.064
 4547SOL     OW14539   6.474   0.662   6.771
 4547SOL    HW114540   6.524   0.688   6.689
 4547SOL    HW214541   6.501   0.569   6.798
 4548SOL     OW14542   2.427   2.643   3.171
 4548SOL    HW114543   2.342   2.693   3.151
 4548SOL    HW214544   2.475   2.687   3.246
 4549SOL     OW14545   5.070   4.179   2.682
 4549SOL    HW114546   4.971   4.179   2.673
 4549SOL    HW214547   5.098   4.255   2.742
 4550SOL     OW14548   0.444   4.519   3.425
 4550SOL    HW114549   0.529   4.564   3.451
 4550SOL    HW214550   0.454   4.420   3.435
 4551SOL     OW14551   1.094   3.677   4.895
 4551SOL    HW114552   1.057   3.620   4.968
 4551SOL    HW214553   1.142   3.755   4.935
 4552SOL     OW14554   6.118   1.530   1.541
 4552SOL    HW114555   6.088   1.601   1.605
 4552SOL    HW214556   6.061   1.448   1.553
 4553SOL     OW14557   5.220   4.699   6.481
 4553SOL    HW114558   5.162   4.777   6.500
 4553SOL    HW214559   5.305   4.706   6.533
 4554SOL     OW14560   0.318   6.478   1.186
 4554SOL    HW114561   0.318   6.381   1.209
 4554SOL    HW214562   0.355   6.530   1.263
 4555SOL     OW14563   1.157   1.352   6.475
 4555SOL    HW114564   1.196   1.444   6.471
 4555SOL    HW214565   1.159   1.319   6.570
 4556SOL     OW14566   6.282   3.059   5.819
 4556SOL    HW114567   6.194   3.102   5.840
 4556SOL    HW214568   6.292   3.049   5.720
 4557SOL     OW14569   6.146   4.966   4.502
 4557SOL    HW114570   6.065   5.024   4.495
 4557SOL    HW214571   6.190   4.959   4.413
 4558SOL     OW14572   6.698   2.954   4.946
 4558SOL    HW114573   6.644   3.038   4.956
 4558SOL    HW214574   6.692   2.900   5.030
 4559SOL     OW14575   0.362   2.579   2.994
 4559SOL    HW114576   0.401   2.653   2.939
 4559SOL    HW214577   0.313   2.618   3.072
 4560SOL     OW14578   6.534   4.285   2.164
 4560SOL    HW114579   6.506   4.237   2.247
 4560SOL    HW214580   6.534   4.221   2.087
 4561SOL     OW14581   3.163   2.146   4.327
 4561SOL    HW114582   3.229   2.183   4.392
 4561SOL    HW214583   3.211   2.089   4.260
 4562SOL     OW14584   2.199   6.218   0.443
 4562SOL    HW114585   2.238   6.259   0.526
 4562SOL    HW214586   2.218   6.277   0.365
 4563SOL     OW14587   6.991   3.027   1.985
 4563SOL    HW114588   7.014   3.034   2.082
 4563SOL    HW214589   6.894   3.003   1.975
 4564SOL     OW14590   6.888   4.403   2.134
 4564SOL    HW114591   6.890   4.483   2.074
 4564SOL    HW214592   6.825   4.419   2.209
 4565SOL     OW14593   1.901   0.136   4.913
 4565SOL    HW114594   1.932   0.154   4.820
 4565SOL    HW214595   1.883   0.223   4.959
 4566SOL     OW14596   0.305   4.151   1.096
 4566SOL    HW114597   0.359   4.144   1.180
 4566SOL    HW214598   0.345   4.221   1.036
 4567SOL     OW14599   6.654   0.392   6.306
 4567SOL    HW114600   6.746   0.402   6.267
 4567SOL    HW214601   6.659   0.402   6.405
 4568SOL     OW14602   0.793   4.158   3.940
 4568SOL    HW114603   0.892   4.167   3.934
 4568SOL    HW214604   0.755   4.235   3.992
 4569SOL     OW14605   3.353   1.006   3.118
 4569SOL    HW114606   3.437   1.059   3.128
 4569SOL    HW214607   3.282   1.045   3.177
 4570SOL     OW14608   6.292   5.265   1.658
 4570SOL    HW114609   6.306   5.323   1.577
 4570SOL    HW214610   6.380   5.227   1.687
 4571SOL     OW14611   4.660   2.958   6.286
 4571SOL    HW114612   4.681   3.000   6.375
 4571SOL    HW214613   4.718   2.877   6.274
 4572SOL     OW14614   2.539   2.440   6.637
 4572SOL    HW114615   2.637   2.434   6.620
 4572SOL    HW214616   2.509   2.360   6.691
 4573SOL     OW14617   0.923   6.201   0.856
 4573SOL    HW114618   0.987   6.175   0.785
 4573SOL    HW214619   0.895   6.296   0.843
 4574SOL     OW14620   5.841   3.737   0.061
 4574SOL    HW114621   5.769   3.730   0.129
 4574SOL    HW214622   5.803   3.723   6.989
 4575SOL     OW14623   5.967   1.127   4.457
 4575SOL    HW114624   6.007   1.151   4.546
 4575SOL    HW214625   5.943   1.029   4.457
 4576SOL     OW14626   3.057   4.821   4.946
 4576SOL    HW114627   2.991   4.747   4.941
 4576SOL    HW214628   3.117   4.807   5.025
 4577SOL     OW14629   1.556   1.630   3.047
 4577SOL    HW114630   1.570   1.687   3.128
 4577SOL    HW214631   1.522   1.540   3.075
 4578SOL     OW14632   0.941   0.832   2.673
 4578SOL    HW114633   1.009   0.845   2.746
 4578SOL    HW214634   0.977   0.767   2.606
 4579SOL     OW14635   4.681   0.197   2.227
 4579SOL    HW114636   4.777   0.221   2.214
 4579SOL    HW214637   4.625   0.279   2.215
 4580SOL     OW14638   5.668   3.664   0.261
 4580SOL    HW114639   5.709   3.607   0.332
 4580SOL    HW214640   5.583   3.704   0.295
 4581SOL     OW14641   2.811   6.804   2.223
 4581SOL    HW114642   2.888   6.851   2.267
 4581SOL    HW214643   2.771   6.738   2.286
 4582SOL     OW14644   5.256   0.726   2.969
 4582SOL    HW114645   5.261   0.744   2.871
 4582SOL    HW214646   5.330   0.665   2.996
 4583SOL     OW14647   1.741   0.806   6.407
 4583SOL    HW114648   1.819   0.819   6.345
 4583SOL    HW214649   1.698   0.718   6.388
 4584SOL     OW14650   1.637   0.121   6.053
 4584SOL    HW114651   1.720   0.104   6.105
 4584SOL    HW214652   1.558   0.087   6.104
 4585SOL     OW14653   1.837   3.414   3.238
 4585SOL    HW114654   1.829   3.464   3.324
 4585SOL    HW214655   1.934   3.408   3.213
 4586SOL     OW14656   4.924   4.129   0.315
 4586SOL    HW114657   4.864   4.136   0.235
 4586SOL    HW214658   4.872   4.151   0.398
 4587SOL     OW14659   3.087   3.701   5.091
 4587SOL    HW114660   3.078   3.667   5.184
 4587SOL    HW214661   3.008   3.758   5.068
 4588SOL     OW14662   3.187   3.525   5.872
 4588SOL    HW114663   3.223   3.439   5.834
 4588SOL    HW214664   3.189   3.521   5.972
 4589SOL     OW14665   5.218   5.796   1.971
 4589SOL    HW114666   5.226   5.796   1.871
 4589SOL    HW214667   5.256   5.711   2.007
 4590SOL     OW14668   3.417   5.656   1.888
 4590SOL    HW114669   3.483   5.598   1.840
 4590SOL    HW214670   3.367   5.712   1.821
 4591SOL     OW14671   2.606   0.492   5.841
 4591SOL    HW114672   2.516   0.527   5.868
 4591SOL    HW214673   2.608   0.393   5.854
 4592SOL     OW14674   2.587   1.867   4.262
 4592SOL    HW114675   2.618   1.777   4.232
 4592SOL    HW214676   2.570   1.924   4.182
 4593SOL     OW14677   0.018   5.947   2.998
 4593SOL    HW114678   0.099   5.988   3.039
 4593SOL    HW214679   0.014   5.850   3.022
 4594SOL     OW14680   2.584   6.694   2.891
 4594SOL    HW114681   2.530   6.771   2.856
 4594SOL    HW214682   2.641   6.658   2.817
 4595SOL     OW14683   4.720   2.057   5.872
 4595SOL    HW114684   4.810   2.023   5.845
 4595SOL    HW214685   4.649   2.008   5.821
 4596SOL     OW14686   0.600   0.702   1.798
 4596SOL    HW114687   0.638   0.675   1.887
 4596SOL    HW214688   0.501   0.710   1.805
 4597SOL     OW14689   2.653   5.226   0.200
 4597SOL    HW114690   2.586   5.266   0.263
 4597SOL    HW214691   2.689   5.298   0.140
 4598SOL     OW14692   2.367   5.245   0.316
 4598SOL    HW114693   2.362   5.331   0.265
 4598SOL    HW214694   2.308   5.177   0.274
 4599SOL     OW14695   2.127   3.507   2.488
 4599SOL    HW114696   2.170   3.471   2.405
 4599SOL    HW214697   2.137   3.442   2.563
 4600SOL     OW14698   0.169   6.728   6.058
 4600SOL    HW114699   0.227   6.671   6.116
 4600SOL    HW214700   0.078   6.737   6.099
 4601SOL     OW14701   0.854   1.049   4.543
 4601SOL    HW114702   0.935   1.081   4.592
 4601SOL    HW214703   0.876   0.967   4.490
 4602SOL     OW14704   2.531   0.581   6.505
 4602SOL    HW114705   2.622   0.584   6.465
 4602SOL    HW214706   2.528   0.641   6.585
 4603SOL     OW14707   4.076   6.223   1.310
 4603SOL    HW114708   4.044   6.295   1.249
 4603SOL    HW214709   3.999   6.167   1.340
 4604SOL     OW14710   4.890   6.767   6.229
 4604SOL    HW114711   4.859   6.804   6.142
 4604SOL    HW214712   4.851   6.821   6.304
 4605SOL     OW14713   2.576   6.909   1.568
 4605SOL    HW114714   2.580   6.866   1.659
 4605SOL    HW214715   2.574   6.838   1.498
 4606SOL     OW14716   0.505   6.791   2.522
 4606SOL    HW114717   0.471   6.825   2.610
 4606SOL    HW214718   0.543   6.700   2.533
 4607SOL     OW14719   1.817   3.759   2.791
 4607SOL    HW114720   1.779   3.841   2.834
 4607SOL    HW214721   1.810   3.682   2.854
 4608SOL     OW14722   0.402   3.325   4.776
 4608SOL    HW114723   0.380   3.227   4.777
 4608SOL    HW214724   0.330   3.374   4.727
 4609SOL     OW14725   4.019   6.020   6.389
 4609SOL    HW114726   4.042   5.982   6.479
 4609SOL    HW214727   4.088   6.088   6.363
 4610SOL     OW14728   5.285   2.434   6.738
 4610SOL    HW114729   5.379   2.410   6.715
 4610SOL    HW214730   5.232   2.351   6.754
 4611SOL     OW14731   0.374   0.937   6.271
 4611SOL    HW114732   0.335   1.010   6.327
 4611SOL    HW214733   0.336   0.941   6.179
 4612SOL     OW14734   2.361   6.041   2.449
 4612SOL    HW114735   2.269   6.050   2.410
 4612SOL    HW214736   2.357   6.057   2.547
 4613SOL     OW14737   2.239   4.688   2.811
 4613SOL    HW114738   2.191   4.768   2.845
 4613SOL    HW214739   2.251   4.696   2.712
 4614SOL     OW14740   6.169   3.403   3.976
 4614SOL    HW114741   6.255   3.353   3.965
 4614SOL    HW214742   6.118   3.402   3.890
 4615SOL     OW14743   0.955   1.006   1.213
 4615SOL    HW114744   0.956   0.984   1.310
 4615SOL    HW214745   1.028   1.071   1.193
 4616SOL     OW14746   6.475   2.554   5.353
 4616SOL    HW114747   6.375   2.554   5.364
 4616SOL    HW214748   6.499   2.509   5.267
 4617SOL     OW14749   0.657   2.380   2.151
 4617SOL    HW114750   0.757   2.385   2.148
 4617SOL    HW214751   0.619   2.418   2.066
 4618SOL     OW14752   2.707   3.740   5.458
 4618SOL    HW114753   2.680   3.830   5.423
 4618SOL    HW214754   2.805   3.740   5.478
 4619SOL     OW14755   3.765   6.134   3.853
 4619SOL    HW114756   3.707   6.079   3.793
 4619SOL    HW214757   3.724   6.137   3.945
 4620SOL     OW14758   0.711   5.523   1.243
 4620SOL    HW114759   0.742   5.555   1.153
 4620SOL    HW214760   0.611   5.519   1.244
 4621SOL     OW14761   4.990   0.248   2.245
 4621SOL    HW114762   5.017   0.300   2.326
 4621SOL    HW214763   4.972   0.153   2.271
 4622SOL     OW14764   4.502   5.259   0.732
 4622SOL    HW114765   4.493   5.202   0.813
 4622SOL    HW214766   4.441   5.226   0.660
 4623SOL     OW14767   3.703   5.228   1.345
 4623SOL    HW114768   3.744   5.174   1.272
 4623SOL    HW214769   3.634   5.173   1.393
 4624SOL     OW14770   3.789   1.656   3.479
 4624SOL    HW114771   3.759   1.562   3.462
 4624SOL    HW214772   3.876   1.655   3.527
 4625SOL     OW14773   1.751   5.493   1.862
 4625SOL    HW114774   1.677   5.523   1.923
 4625SOL    HW214775   1.719   5.496   1.768
 4626SOL     OW14776   4.055   3.821   1.863
 4626SOL    HW114777   3.986   3.805   1.793
 4626SOL    HW214778   4.023   3.785   1.950
 4627SOL     OW14779   0.331   5.921   4.877
 4627SOL    HW114780   0.393   5.842   4.880
 4627SOL    HW214781   0.311   5.944   4.782
 4628SOL     OW14782   4.569   4.905   3.272
 4628SOL    HW114783   4.499   4.889   3.202
 4628SOL    HW214784   4.577   4.824   3.330
 4629SOL     OW14785   2.243   5.874   6.374
 4629SOL    HW114786   2.163   5.822   6.343
 4629SOL    HW214787   2.326   5.827   6.346
 4630SOL     OW14788   0.825   5.704   1.966
 4630SOL    HW114789   0.783   5.722   2.054
 4630SOL    HW214790   0.887   5.779   1.942
 4631SOL     OW14791   0.759   0.576   3.971
 4631SOL    HW114792   0.752   0.597   4.068
 4631SOL    HW214793   0.689   0.627   3.921
 4632SOL     OW14794   3.001   5.501   2.749
 4632SOL    HW114795   2.972   5.466   2.660
 4632SOL    HW214796   3.057   5.432   2.796
 4633SOL     OW14797   5.032   1.394   4.264
 4633SOL    HW114798   5.004   1.300   4.284
 4633SOL    HW214799   5.081   1.396   4.177
 4634SOL     OW14800   2.842   3.841   5.077
 4634SOL    HW114801   2.754   3.803   5.105
 4634SOL    HW214802   2.867   3.915   5.139
 4635SOL     OW14803   4.475   5.103   0.961
 4635SOL    HW114804   4.485   5.179   1.025
 4635SOL    HW214805   4.431   5.026   1.007
 4636SOL     OW14806   1.468   5.401   0.893
 4636SOL    HW114807   1.492   5.474   0.829
 4636SOL    HW214808   1.465   5.314   0.844
 4637SOL     OW14809   1.596   6.818   1.161
 4637SOL    HW114810   1.674   6.803   1.221
 4637SOL    HW214811   1.584   6.917   1.147
 4638SOL     OW14812   3.829   5.410   0.149
 4638SOL    HW114813   3.841   5.456   0.237
 4638SOL    HW214814   3.902   5.342   0.137
 4639SOL     OW14815   2.587   2.518   0.373
 4639SOL    HW114816   2.565   2.421   0.370
 4639SOL    HW214817   2.637   2.543   0.290
 4640SOL     OW14818   5.869   2.865   5.392
 4640SOL    HW114819   5.781   2.914   5.389
 4640SOL    HW214820   5.888   2.827   5.302
 4641SOL     OW14821   1.641   6.732   3.636
 4641SOL    HW114822   1.693   6.776   3.708
 4641SOL    HW214823   1.676   6.640   3.619
 4642SOL     OW14824   1.973   2.022   3.880
 4642SOL    HW114825   1.905   1.962   3.923
 4642SOL    HW214826   2.052   1.969   3.852
 4643SOL     OW14827   6.586   2.227   0.303
 4643SOL    HW114828   6.614   2.286   0.226
 4643SOL    HW214829   6.604   2.132   0.279
 4644SOL     OW14830   0.647   0.887   6.223
 4644SOL    HW114831   0.672   0.790   6.230
 4644SOL    HW214832   0.549   0.898   6.241
 4645SOL     OW14833   1.887   0.936   3.993
 4645SOL    HW114834   1.962   0.877   4.021
 4645SOL    HW214835   1.807   0.881   3.970
 4646SOL     OW14836   2.398   5.429   4.514
 4646SOL    HW114837   2.350   5.361   4.458
 4646SOL    HW214838   2.377   5.413   4.610
 4647SOL     OW14839   1.595   6.312   3.088
 4647SOL    HW114840   1.664   6.301   3.017
 4647SOL    HW214841   1.616   6.393   3.144
 4648SOL     OW14842   3.179   0.800   3.985
 4648SOL    HW114843   3.260   0.744   4.002
 4648SOL    HW214844   3.132   0.818   4.072
 4649SOL     OW14845   5.935   1.374   0.949
 4649SOL    HW114846   6.007   1.346   0.885
 4649SOL    HW214847   5.902   1.294   0.999
 4650SOL     OW14848   4.800   5.711   1.344
 4650SOL    HW114849   4.701   5.694   1.340
 4650SOL    HW214850   4.836   5.715   1.251
 4651SOL     OW14851   6.249   3.953   5.901
 4651SOL    HW114852   6.266   3.855   5.917
 4651SOL    HW214853   6.184   3.986   5.970
 4652SOL     OW14854   6.991   5.413   4.532
 4652SOL    HW114855   7.000   5.325   4.580
 4652SOL    HW214856   0.061   5.456   4.525
 4653SOL     OW14857   4.757   5.931   0.257
 4653SOL    HW114858   4.746   5.833   0.270
 4653SOL    HW214859   4.810   5.969   0.333
 4654SOL     OW14860   6.649   6.870   5.025
 4654SOL    HW114861   6.695   6.789   4.990
 4654SOL    HW214862   6.713   6.923   5.080
 4655SOL     OW14863   5.128   3.166   1.655
 4655SOL    HW114864   5.172   3.167   1.744
 4655SOL    HW214865   5.056   3.236   1.652
 4656SOL     OW14866   0.509   0.430   1.411
 4656SOL    HW114867   0.524   0.498   1.339
 4656SOL    HW214868   0.571   0.448   1.487
 4657SOL     OW14869   5.372   6.678   1.649
 4657SOL    HW114870   5.385   6.775   1.627
 4657SOL    HW214871   5.342   6.669   1.743
 4658SOL     OW14872   2.534   2.932   5.626
 4658SOL    HW114873   2.489   3.017   5.652
 4658SOL    HW214874   2.590   2.899   5.702
 4659SOL     OW14875   3.488   4.105   1.398
 4659SOL    HW114876   3.398   4.085   1.438
 4659SOL    HW214877   3.486   4.087   1.300
 4660SOL     OW14878   1.624   0.048   3.869
 4660SOL    HW114879   1.620   0.022   3.966
 4660SOL    HW214880   1.679   6.999   3.820
 4661SOL     OW14881   2.408   3.965   5.586
 4661SOL    HW114882   2.420   4.005   5.677
 4661SOL    HW214883   2.364   3.875   5.595
 4662SOL     OW14884   3.046   0.170   5.147
 4662SOL    HW114885   2.972   0.232   5.171
 4662SOL    HW214886   3.102   0.152   5.229
 4663SOL     OW14887   0.848   6.841   0.086
 4663SOL    HW114888   0.768   6.785   0.067
 4663SOL    HW214889   0.872   6.834   0.183
 4664SOL     OW14890   6.207   6.712   0.820
 4664SOL    HW114891   6.239   6.744   0.910
 4664SOL    HW214892   6.114   6.677   0.828
 4665SOL     OW14893   2.039   0.959   5.773
 4665SOL    HW114894   1.958   0.944   5.829
 4665SOL    HW214895   2.031   1.047   5.726
 4666SOL     OW14896   1.928   2.586   7.009
 4666SOL    HW114897   1.998   2.651   6.979
 4666SOL    HW214898   1.972   2.502   0.021
 4667SOL     OW14899   6.589   3.886   1.608
 4667SOL    HW114900   6.612   3.795   1.644
 4667SOL    HW214901   6.538   3.937   1.676
 4668SOL     OW14902   4.218   2.144   5.032
 4668SOL    HW114903   4.146   2.090   4.988
 4668SOL    HW214904   4.218   2.236   4.994
 4669SOL     OW14905   5.236   0.229   0.303
 4669SOL    HW114906   5.150   0.252   0.350
 4669SOL    HW214907   5.296   0.308   0.302
 4670SOL     OW14908   1.493   3.511   0.033
 4670SOL    HW114909   1.464   3.530   0.127
 4670SOL    HW214910   1.469   3.416   0.009
 4671SOL     OW14911   0.891   3.197   0.081
 4671SOL    HW114912   0.913   3.228   7.008
 4671SOL    HW214913   0.947   3.245   0.148
 4672SOL     OW14914   3.815   4.813   5.424
 4672SOL    HW114915   3.868   4.751   5.481
 4672SOL    HW214916   3.747   4.860   5.481
 4673SOL     OW14917   5.202   0.550   6.901
 4673SOL    HW114918   5.224   0.496   6.820
 4673SOL    HW214919   5.108   0.583   6.895
 4674SOL     OW14920   0.107   1.248   0.684
 4674SOL    HW114921   0.116   1.342   0.650
 4674SOL    HW214922   0.191   1.198   0.667
 4675SOL     OW14923   3.370   6.379   6.526
 4675SOL    HW114924   3.396   6.414   6.436
 4675SOL    HW214925   3.443   6.322   6.563
 4676SOL     OW14926   0.825   6.475   5.079
 4676SOL    HW114927   0.733   6.438   5.093
 4676SOL    HW214928   0.865   6.498   5.167
 4677SOL     OW14929   2.979   0.208   6.689
 4677SOL    HW114930   2.880   0.225   6.689
 4677SOL    HW214931   3.023   0.264   6.758
 4678SOL     OW14932   2.119   5.275   1.634
 4678SOL    HW114933   2.056   5.296   1.709
 4678SOL    HW214934   2.069   5.277   1.547
 4679SOL     OW14935   2.610   1.529   6.390
 4679SOL    HW114936   2.687   1.477   6.352
 4679SOL    HW214937   2.598   1.505   6.486
 4680SOL     OW14938   2.047   5.258   1.266
 4680SOL    HW114939   2.127   5.208   1.299
 4680SOL    HW214940   1.975   5.193   1.240
 4681SOL     OW14941   0.094   5.661   5.125
 4681SOL    HW114942   0.132   5.752   5.109
 4681SOL    HW214943   0.009   5.669   5.177
 4682SOL     OW14944   3.985   6.191   7.014
 4682SOL    HW114945   3.914   6.123   0.013
 4682SOL    HW214946   3.985   6.260   0.067
 4683SOL     OW14947   5.994   3.769   2.454
 4683SOL    HW114948   6.039   3.852   2.488
 4683SOL    HW214949   5.896   3.784   2.450
 4684SOL     OW14950   1.508   2.295   4.100
 4684SOL    HW114951   1.419   2.292   4.146
 4684SOL    HW214952   1.574   2.343   4.157
 4685SOL     OW14953   6.262   5.429   4.496
 4685SOL    HW114954   6.261   5.356   4.564
 4685SOL    HW214955   6.237   5.392   4.407
 4686SOL     OW14956   5.084   5.901   0.192
 4686SOL    HW114957   5.022   5.843   0.140
 4686SOL    HW214958   5.067   5.997   0.169
 4687SOL     OW14959   6.610   4.102   4.367
 4687SOL    HW114960   6.566   4.173   4.312
 4687SOL    HW214961   6.696   4.136   4.403
 4688SOL     OW14962   0.563   3.350   6.273
 4688SOL    HW114963   0.645   3.308   6.234
 4688SOL    HW214964   0.565   3.340   6.373
 4689SOL     OW14965   6.689   0.234   5.613
 4689SOL    HW114966   6.622   0.164   5.637
 4689SOL    HW214967   6.730   0.272   5.696
 4690SOL     OW14968   1.348   0.892   6.974
 4690SOL    HW114969   1.370   0.976   6.924
 4690SOL    HW214970   1.424   0.870   0.016
 4691SOL     OW14971   2.571   4.288   1.189
 4691SOL    HW114972   2.508   4.365   1.203
 4691SOL    HW214973   2.564   4.225   1.266
 4692SOL     OW14974   6.818   5.311   2.920
 4692SOL    HW114975   6.895   5.247   2.921
 4692SOL    HW214976   6.844   5.396   2.965
 4693SOL     OW14977   0.207   1.019   4.440
 4693SOL    HW114978   0.228   1.017   4.537
 4693SOL    HW214979   0.263   1.088   4.394
 4694SOL     OW14980   2.981   0.717   0.294
 4694SOL    HW114981   3.024   0.726   0.204
 4694SOL    HW214982   2.917   0.640   0.293
 4695SOL     OW14983   4.048   2.917   1.756
 4695SOL    HW114984   4.146   2.935   1.770
 4695SOL    HW214985   4.024   2.937   1.661
 4696SOL     OW14986   0.952   3.474   6.399
 4696SOL    HW114987   0.904   3.404   6.345
 4696SOL    HW214988   1.046   3.483   6.366
 4697SOL     OW14989   1.896   3.609   0.714
 4697SOL    HW114990   1.873   3.513   0.731
 4697SOL    HW214991   1.956   3.614   0.634
 4698SOL     OW14992   5.352   4.690   1.666
 4698SOL    HW114993   5.389   4.756   1.600
 4698SOL    HW214994   5.391   4.710   1.756
 4699SOL     OW14995   0.025   6.745   2.067
 4699SOL    HW114996   0.069   6.830   2.096
 4699SOL    HW214997   6.951   6.765   2.037
 4700SOL     OW14998   5.329   1.863   1.255
 4700SOL    HW114999   5.243   1.868   1.204
 4700SOL    HW215000   5.321   1.915   1.340
 4701SOL     OW15001   0.843   1.144   6.728
 4701SOL    HW115002   0.811   1.226   6.679
 4701SOL    HW215003   0.825   1.063   6.672
 4702SOL     OW15004   4.496   3.642   6.734
 4702SOL    HW115005   4.463   3.572   6.797
 4702SOL    HW215006   4.483   3.732   6.774
 4703SOL     OW15007   1.317   1.675   3.316
 4703SOL    HW115008   1.369   1.721   3.389
 4703SOL    HW215009   1.365   1.687   3.229
 4704SOL     OW15010   6.869   5.991   1.086
 4704SOL    HW115011   6.892   6.010   0.991
 4704SOL    HW215012   6.784   5.938   1.090
 4705SOL     OW15013   3.740   2.927   4.382
 4705SOL    HW115014   3.694   2.971   4.459
 4705SOL    HW215015   3.804   2.858   4.416
 4706SOL     OW15016   3.662   5.739   6.473
 4706SOL    HW115017   3.699   5.822   6.433
 4706SOL    HW215018   3.597   5.762   6.546
 4707SOL     OW15019   1.773   5.602   0.989
 4707SOL    HW115020   1.847   5.536   0.998
 4707SOL    HW215021   1.691   5.567   1.035
 4708SOL     OW15022   3.246   2.514   0.468
 4708SOL    HW115023   3.298   2.561   0.397
 4708SOL    HW215024   3.250   2.566   0.553
 4709SOL     OW15025   4.033   5.010   5.061
 4709SOL    HW115026   3.985   5.000   4.973
 4709SOL    HW215027   4.017   4.929   5.117
 4710SOL     OW15028   4.957   1.825   6.590
 4710SOL    HW115029   4.908   1.758   6.535
 4710SOL    HW215030   5.017   1.777   6.655
 4711SOL     OW15031   3.403   6.912   2.685
 4711SOL    HW115032   3.499   6.942   2.682
 4711SOL    HW215033   3.343   6.992   2.690
 4712SOL     OW15034   1.899   4.802   1.198
 4712SOL    HW115035   1.832   4.744   1.151
 4712SOL    HW215036   1.879   4.802   1.296
 4713SOL     OW15037   2.860   5.132   1.209
 4713SOL    HW115038   2.906   5.055   1.252
 4713SOL    HW215039   2.798   5.175   1.275
 4714SOL     OW15040   2.016   1.284   1.111
 4714SOL    HW115041   1.946   1.247   1.171
 4714SOL    HW215042   2.034   1.219   1.037
 4715SOL     OW15043   6.986   2.952   2.652
 4715SOL    HW115044   7.011   2.960   2.555
 4715SOL    HW215045   6.931   3.032   2.678
 4716SOL     OW15046   3.709   5.020   6.532
 4716SOL    HW115047   3.688   5.117   6.525
 4716SOL    HW215048   3.671   4.972   6.453
 4717SOL     OW15049   0.776   5.999   2.170
 4717SOL    HW115050   0.700   6.056   2.202
 4717SOL    HW215051   0.751   5.903   2.176
 4718SOL     OW15052   5.423   2.093   6.630
 4718SOL    HW115053   5.337   2.054   6.660
 4718SOL    HW215054   5.410   2.140   6.543
 4719SOL     OW15055   5.467   3.587   3.015
 4719SOL    HW115056   5.450   3.527   2.936
 4719SOL    HW215057   5.452   3.536   3.099
 4720SOL     OW15058   2.369   6.735   5.514
 4720SOL    HW115059   2.275   6.760   5.491
 4720SOL    HW215060   2.401   6.794   5.589
 4721SOL     OW15061   1.071   2.012   0.991
 4721SOL    HW115062   1.044   2.085   0.928
 4721SOL    HW215063   1.100   2.053   1.078
 4722SOL     OW15064   1.662   6.391   0.713
 4722SOL    HW115065   1.631   6.358   0.624
 4722SOL    HW215066   1.602   6.466   0.744
 4723SOL     OW15067   2.581   6.225   6.064
 4723SOL    HW115068   2.520   6.148   6.082
 4723SOL    HW215069   2.538   6.287   5.998
 4724SOL     OW15070   4.084   6.662   2.320
 4724SOL    HW115071   4.108   6.571   2.355
 4724SOL    HW215072   4.154   6.693   2.257
 4725SOL     OW15073   5.213   6.502   3.188
 4725SOL    HW115074   5.303   6.544   3.180
 4725SOL    HW215075   5.147   6.571   3.219
 4726SOL     OW15076   1.188   3.984   6.418
 4726SOL    HW115077   1.109   4.040   6.395
 4726SOL    HW215078   1.196   3.978   6.518
 4727SOL     OW15079   6.583   5.815   0.393
 4727SOL    HW115080   6.634   5.866   0.324
 4727SOL    HW215081   6.641   5.745   0.433
 4728SOL     OW15082   6.156   1.408   0.566
 4728SOL    HW115083   6.235   1.380   0.512
 4728SOL    HW215084   6.160   1.506   0.583
 4729SOL     OW15085   2.084   0.458   2.614
 4729SOL    HW115086   2.060   0.518   2.690
 4729SOL    HW215087   2.004   0.406   2.585
 4730SOL     OW15088   2.632   5.883   5.382
 4730SOL    HW115089   2.732   5.880   5.382
 4730SOL    HW215090   2.601   5.949   5.451
 4731SOL     OW15091   5.770   0.750   5.250
 4731SOL    HW115092   5.774   0.770   5.348
 4731SOL    HW215093   5.713   0.819   5.205
 4732SOL     OW15094   6.726   3.861   6.685
 4732SOL    HW115095   6.772   3.889   6.601
 4732SOL    HW215096   6.788   3.874   6.762
 4733SOL     OW15097   0.367   3.523   2.841
 4733SOL    HW115098   0.430   3.529   2.764
 4733SOL    HW215099   0.298   3.453   2.822
 4734SOL     OW15100   5.159   3.120   6.772
 4734SOL    HW115101   5.099   3.196   6.796
 4734SOL    HW215102   5.145   3.044   6.836
 4735SOL     OW15103   0.832   4.081   4.298
 4735SOL    HW115104   0.908   4.141   4.322
 4735SOL    HW215105   0.866   3.987   4.288
 4736SOL     OW15106   6.830   1.119   6.571
 4736SOL    HW115107   6.870   1.186   6.510
 4736SOL    HW215108   6.873   1.030   6.556
 4737SOL     OW15109   2.572   4.635   1.883
 4737SOL    HW115110   2.666   4.631   1.917
 4737SOL    HW215111   2.540   4.543   1.863
 4738SOL     OW15112   6.614   6.180   1.455
 4738SOL    HW115113   6.572   6.270   1.471
 4738SOL    HW215114   6.705   6.193   1.417
 4739SOL     OW15115   4.031   0.698   2.137
 4739SOL    HW115116   3.950   0.728   2.087
 4739SOL    HW215117   4.032   0.740   2.227
 4740SOL     OW15118   0.913   1.810   2.784
 4740SOL    HW115119   0.874   1.792   2.874
 4740SOL    HW215120   0.896   1.906   2.759
 4741SOL     OW15121   4.255   2.368   1.533
 4741SOL    HW115122   4.256   2.458   1.491
 4741SOL    HW215123   4.318   2.367   1.611
 4742SOL     OW15124   2.588   6.841   0.340
 4742SOL    HW115125   2.530   6.791   0.405
 4742SOL    HW215126   2.682   6.810   0.348
 4743SOL     OW15127   1.635   4.044   2.132
 4743SOL    HW115128   1.688   4.086   2.058
 4743SOL    HW215129   1.656   3.947   2.138
 4744SOL     OW15130   2.008   6.041   0.817
 4744SOL    HW115131   1.985   5.947   0.843
 4744SOL    HW215132   1.981   6.057   0.722
 4745SOL     OW15133   2.499   4.153   0.605
 4745SOL    HW115134   2.581   4.194   0.565
 4745SOL    HW215135   2.477   4.069   0.556
 4746SOL     OW15136   4.568   5.231   4.581
 4746SOL    HW115137   4.524   5.160   4.637
 4746SOL    HW215138   4.538   5.222   4.486
 4747SOL     OW15139   1.751   3.074   1.316
 4747SOL    HW115140   1.673   3.076   1.378
 4747SOL    HW215141   1.833   3.106   1.364
 4748SOL     OW15142   1.897   6.236   2.301
 4748SOL    HW115143   1.870   6.289   2.381
 4748SOL    HW215144   1.830   6.162   2.287
 4749SOL     OW15145   1.986   6.468   0.443
 4749SOL    HW115146   1.966   6.521   0.361
 4749SOL    HW215147   2.069   6.414   0.428
 4750SOL     OW15148   6.435   3.122   5.102
 4750SOL    HW115149   6.361   3.186   5.123
 4750SOL    HW215150   6.482   3.151   5.019
 4751SOL     OW15151   4.507   1.474   2.379
 4751SOL    HW115152   4.600   1.510   2.375
 4751SOL    HW215153   4.490   1.433   2.469
 4752SOL     OW15154   4.721   1.990   0.101
 4752SOL    HW115155   4.713   2.066   0.038
 4752SOL    HW215156   4.674   2.012   0.187
 4753SOL     OW15157   1.903   6.789   4.974
 4753SOL    HW115158   1.901   6.690   4.978
 4753SOL    HW215159   1.811   6.825   4.990
 4754SOL     OW15160   4.076   3.853   6.304
 4754SOL    HW115161   4.069   3.944   6.346
 4754SOL    HW215162   4.096   3.864   6.206
 4755SOL     OW15163   1.355   0.630   1.930
 4755SOL    HW115164   1.390   0.560   1.868
 4755SOL    HW215165   1.286   0.685   1.882
 4756SOL     OW15166   5.928   4.576   0.059
 4756SOL    HW115167   5.940   4.675   0.049
 4756SOL    HW215168   5.884   4.557   0.146
 4757SOL     OW15169   1.408   3.136   1.823
 4757SOL    HW115170   1.503   3.137   1.855
 4757SOL    HW215171   1.404   3.170   1.729
 4758SOL     OW15172   1.804   6.967   3.163
 4758SOL    HW115173   1.802   6.879   3.209
 4758SOL    HW215174   1.898   6.989   3.136
 4759SOL     OW15175   0.786   4.930   0.454
 4759SOL    HW115176   0.793   4.838   0.491
 4759SOL    HW215177   0.781   4.925   0.354
 4760SOL     OW15178   1.303   0.002   0.437
 4760SOL    HW115179   1.393   6.996   0.473
 4760SOL    HW215180   1.233   7.000   0.505
 4761SOL     OW15181   0.378   6.668   0.624
 4761SOL    HW115182   0.388   6.602   0.550
 4761SOL    HW215183   0.306   6.733   0.600
 4762SOL     OW15184   1.564   5.304   2.634
 4762SOL    HW115185   1.606   5.218   2.605
 4762SOL    HW215186   1.483   5.322   2.577
 4763SOL     OW15187   4.695   5.781   1.727
 4763SOL    HW115188   4.604   5.752   1.698
 4763SOL    HW215189   4.764   5.736   1.669
 4764SOL     OW15190   4.830   3.782   5.684
 4764SOL    HW115191   4.859   3.871   5.719
 4764SOL    HW215192   4.830   3.783   5.584
 4765SOL     OW15193   3.554   1.856   5.129
 4765SOL    HW115194   3.652   1.867   5.146
 4765SOL    HW215195   3.540   1.783   5.062
 4766SOL     OW15196   6.592   6.738   4.286
 4766SOL    HW115197   6.641   6.666   4.236
 4766SOL    HW215198   6.505   6.757   4.240
 4767SOL     OW15199   2.572   5.178   4.646
 4767SOL    HW115200   2.521   5.263   4.632
 4767SOL    HW215201   2.598   5.140   4.557
 4768SOL     OW15202   5.043   2.789   6.423
 4768SOL    HW115203   5.090   2.725   6.484
 4768SOL    HW215204   5.100   2.870   6.410
 4769SOL     OW15205   3.506   5.834   1.277
 4769SOL    HW115206   3.423   5.811   1.329
 4769SOL    HW215207   3.567   5.889   1.334
 4770SOL     OW15208   6.777   2.046   5.292
 4770SOL    HW115209   6.718   2.110   5.341
 4770SOL    HW215210   6.742   1.953   5.304
 4771SOL     OW15211   2.762   6.999   5.654
 4771SOL    HW115212   2.859   7.016   5.639
 4771SOL    HW215213   2.713   0.066   5.653
 4772SOL     OW15214   2.981   5.336   0.713
 4772SOL    HW115215   3.040   5.416   0.711
 4772SOL    HW215216   2.888   5.363   0.689
 4773SOL     OW15217   2.603   5.645   4.765
 4773SOL    HW115218   2.631   5.741   4.763
 4773SOL    HW215219   2.679   5.587   4.735
 4774SOL     OW15220   1.548   4.069   0.407
 4774SOL    HW115221   1.587   4.017   0.331
 4774SOL    HW215222   1.596   4.046   0.492
 4775SOL     OW15223   5.624   6.410   4.744
 4775SOL    HW115224   5.646   6.362   4.659
 4775SOL    HW215225   5.677   6.495   4.749
 4776SOL     OW15226   1.288   0.867   5.791
 4776SOL    HW115227   1.319   0.774   5.811
 4776SOL    HW215228   1.368   0.928   5.786
 4777SOL     OW15229   0.957   5.678   0.651
 4777SOL    HW115230   0.939   5.700   0.747
 4777SOL    HW215231   0.892   5.727   0.593
 4778SOL     OW15232   0.834   2.246   4.615
 4778SOL    HW115233   0.787   2.220   4.699
 4778SOL    HW215234   0.809   2.339   4.590
 4779SOL     OW15235   6.444   1.123   3.374
 4779SOL    HW115236   6.392   1.053   3.423
 4779SOL    HW215237   6.527   1.081   3.335
 4780SOL     OW15238   5.383   2.483   5.659
 4780SOL    HW115239   5.405   2.558   5.722
 4780SOL    HW215240   5.301   2.436   5.690
 4781SOL     OW15241   1.389   5.744   1.960
 4781SOL    HW115242   1.435   5.832   1.946
 4781SOL    HW215243   1.302   5.759   2.008
 4782SOL     OW15244   5.826   5.570   5.461
 4782SOL    HW115245   5.728   5.555   5.471
 4782SOL    HW215246   5.848   5.590   5.366
 4783SOL     OW15247   5.998   3.460   0.860
 4783SOL    HW115248   5.936   3.403   0.807
 4783SOL    HW215249   5.994   3.434   0.956
 4784SOL     OW15250   5.706   3.080   6.439
 4784SOL    HW115251   5.686   3.058   6.534
 4784SOL    HW215252   5.629   3.051   6.382
 4785SOL     OW15253   0.626   5.926   3.677
 4785SOL    HW115254   0.610   5.956   3.771
 4785SOL    HW215255   0.645   6.005   3.619
 4786SOL     OW15256   2.657   7.019   0.749
 4786SOL    HW115257   2.564   7.007   0.716
 4786SOL    HW215258   2.706   6.932   0.746
 4787SOL     OW15259   4.128   1.790   4.231
 4787SOL    HW115260   4.071   1.727   4.179
 4787SOL    HW215261   4.084   1.879   4.235
 4788SOL     OW15262   6.360   6.295   0.357
 4788SOL    HW115263   6.265   6.315   0.383
 4788SOL    HW215264   6.371   6.196   0.348
 4789SOL     OW15265   4.948   1.087   2.121
 4789SOL    HW115266   4.993   1.159   2.173
 4789SOL    HW215267   4.862   1.063   2.165
 4790SOL     OW15268   5.557   1.657   5.166
 4790SOL    HW115269   5.557   1.659   5.066
 4790SOL    HW215270   5.525   1.745   5.202
 4791SOL     OW15271   0.124   2.741   0.885
 4791SOL    HW115272   0.199   2.805   0.865
 4791SOL    HW215273   0.088   2.761   0.976
 4792SOL     OW15274   1.993   3.844   4.328
 4792SOL    HW115275   1.981   3.873   4.233
 4792SOL    HW215276   2.035   3.753   4.330
 4793SOL     OW15277   1.172   3.825   6.165
 4793SOL    HW115278   1.205   3.882   6.240
 4793SOL    HW215279   1.080   3.792   6.186
 4794SOL     OW15280   5.067   0.755   4.123
 4794SOL    HW115281   5.093   0.739   4.219
 4794SOL    HW215282   4.975   0.720   4.107
 4795SOL     OW15283   0.686   0.657   4.212
 4795SOL    HW115284   0.638   0.577   4.247
 4795SOL    HW215285   0.634   0.740   4.234
 4796SOL     OW15286   3.739   1.257   5.800
 4796SOL    HW115287   3.788   1.186   5.750
 4796SOL    HW215288   3.683   1.310   5.737
 4797SOL     OW15289   0.612   5.322   4.952
 4797SOL    HW115290   0.652   5.408   4.984
 4797SOL    HW215291   0.602   5.260   5.030
 4798SOL     OW15292   5.281   5.032   6.355
 4798SOL    HW115293   5.223   4.982   6.420
 4798SOL    HW215294   5.251   5.127   6.351
 4799SOL     OW15295   3.554   2.519   6.789
 4799SOL    HW115296   3.533   2.494   6.884
 4799SOL    HW215297   3.579   2.616   6.786
 4800SOL     OW15298   1.798   5.040   6.966
 4800SOL    HW115299   1.775   4.967   6.901
 4800SOL    HW215300   1.844   5.000   0.026
 4801SOL     OW15301   4.905   2.504   1.916
 4801SOL    HW115302   4.915   2.420   1.862
 4801SOL    HW215303   4.895   2.582   1.856
 4802SOL     OW15304   0.310   6.130   2.610
 4802SOL    HW115305   0.353   6.173   2.531
 4802SOL    HW215306   0.227   6.181   2.635
 4803SOL     OW15307   5.216   4.243   0.044
 4803SOL    HW115308   5.182   4.154   0.076
 4803SOL    HW215309   5.310   4.233   0.012
 4804SOL     OW15310   5.011   2.041   0.297
 4804SOL    HW115311   4.912   2.043   0.282
 4804SOL    HW215312   5.032   1.976   0.370
 4805SOL     OW15313   6.484   2.366   1.117
 4805SOL    HW115314   6.503   2.267   1.116
 4805SOL    HW215315   6.559   2.414   1.161
 4806SOL     OW15316   1.370   2.862   3.170
 4806SOL    HW115317   1.373   2.860   3.270
 4806SOL    HW215318   1.463   2.860   3.133
 4807SOL     OW15319   1.037   2.989   6.915
 4807SOL    HW115320   1.035   3.083   6.881
 4807SOL    HW215321   0.971   2.979   6.989
 4808SOL     OW15322   3.922   5.985   0.831
 4808SOL    HW115323   3.878   5.895   0.836
 4808SOL    HW215324   3.926   6.025   0.923
 4809SOL     OW15325   3.345   4.948   1.776
 4809SOL    HW115326   3.306   5.023   1.724
 4809SOL    HW215327   3.316   4.861   1.737
 4810SOL     OW15328   1.215   4.165   3.705
 4810SOL    HW115329   1.224   4.264   3.696
 4810SOL    HW215330   1.275   4.132   3.778
 4811SOL     OW15331   3.418   4.128   4.823
 4811SOL    HW115332   3.405   4.161   4.730
 4811SOL    HW215333   3.331   4.092   4.858
 4812SOL     OW15334   0.522   6.516   2.083
 4812SOL    HW115335   0.600   6.510   2.021
 4812SOL    HW215336   0.471   6.600   2.063
 4813SOL     OW15337   6.324   1.565   0.120
 4813SOL    HW115338   6.397   1.506   0.155
 4813SOL    HW215339   6.264   1.592   0.195
 4814SOL     OW15340   6.696   4.132   1.740
 4814SOL    HW115341   6.754   4.202   1.782
 4814SOL    HW215342   6.700   4.141   1.641
 4815SOL     OW15343   5.655   5.192   2.030
 4815SOL    HW115344   5.588   5.161   2.097
 4815SOL    HW215345   5.723   5.120   2.015
 4816SOL     OW15346   1.304   6.726   2.275
 4816SOL    HW115347   1.303   6.809   2.331
 4816SOL    HW215348   1.259   6.652   2.325
 4817SOL     OW15349   3.662   1.250   1.461
 4817SOL    HW115350   3.687   1.231   1.556
 4817SOL    HW215351   3.596   1.326   1.459
 4818SOL     OW15352   2.708   0.414   4.751
 4818SOL    HW115353   2.734   0.501   4.709
 4818SOL    HW215354   2.760   0.340   4.708
 4819SOL     OW15355   2.761   1.716   1.254
 4819SOL    HW115356   2.723   1.715   1.161
 4819SOL    HW215357   2.861   1.721   1.249
 4820SOL     OW15358   0.337   4.078   2.753
 4820SOL    HW115359   0.370   4.137   2.680
 4820SOL    HW215360   0.374   3.986   2.742
 4821SOL     OW15361   6.724   5.520   1.680
 4821SOL    HW115362   6.815   5.552   1.654
 4821SOL    HW215363   6.698   5.562   1.767
 4822SOL     OW15364   2.121   3.878   3.736
 4822SOL    HW115365   2.192   3.945   3.717
 4822SOL    HW215366   2.044   3.922   3.782
 4823SOL     OW15367   0.957   0.337   4.445
 4823SOL    HW115368   0.959   0.318   4.347
 4823SOL    HW215369   1.003   0.263   4.494
 4824SOL     OW15370   5.662   2.227   2.754
 4824SOL    HW115371   5.742   2.181   2.793
 4824SOL    HW215372   5.579   2.197   2.802
 4825SOL     OW15373   1.795   3.570   4.306
 4825SOL    HW115374   1.836   3.647   4.356
 4825SOL    HW215375   1.826   3.571   4.211
 4826SOL     OW15376   0.338   6.504   0.417
 4826SOL    HW115377   0.411   6.456   0.368
 4826SOL    HW215378   0.275   6.437   0.456
 4827SOL     OW15379   4.527   1.042   1.236
 4827SOL    HW115380   4.587   0.962   1.244
 4827SOL    HW215381   4.474   1.052   1.321
 4828SOL     OW15382   5.760   3.390   1.774
 4828SOL    HW115383   5.728   3.437   1.691
 4828SOL    HW215384   5.770   3.457   1.847
 4829SOL     OW15385   3.112   0.856   6.053
 4829SOL    HW115386   3.183   0.787   6.067
 4829SOL    HW215387   3.022   0.813   6.057
 4830SOL     OW15388   5.055   6.245   3.342
 4830SOL    HW115389   4.992   6.269   3.268
 4830SOL    HW215390   5.040   6.306   3.420
 4831SOL     OW15391   6.679   4.599   5.436
 4831SOL    HW115392   6.708   4.689   5.469
 4831SOL    HW215393   6.654   4.605   5.339
 4832SOL     OW15394   3.314   2.797   5.741
 4832SOL    HW115395   3.250   2.858   5.787
 4832SOL    HW215396   3.264   2.736   5.679
 4833SOL     OW15397   4.019   1.443   3.342
 4833SOL    HW115398   4.010   1.530   3.392
 4833SOL    HW215399   4.079   1.457   3.263
 4834SOL     OW15400   4.253   0.828   0.648
 4834SOL    HW115401   4.241   0.764   0.571
 4834SOL    HW215402   4.281   0.777   0.729
 4835SOL     OW15403   1.842   0.076   6.209
 4835SOL    HW115404   1.842   0.088   6.308
 4835SOL    HW215405   1.925   0.027   6.181
 4836SOL     OW15406   4.906   1.644   4.341
 4836SOL    HW115407   4.935   1.727   4.294
 4836SOL    HW215408   4.969   1.570   4.318
 4837SOL     OW15409   3.138   3.095   1.349
 4837SOL    HW115410   3.104   3.003   1.328
 4837SOL    HW215411   3.199   3.091   1.429
 4838SOL     OW15412   3.907   4.873   2.022
 4838SOL    HW115413   3.844   4.796   2.034
 4838SOL    HW215414   3.991   4.854   2.073
 4839SOL     OW15415   0.406   5.158   5.553
 4839SOL    HW115416   0.377   5.243   5.596
 4839SOL    HW215417   0.394   5.164   5.454
 4840SOL     OW15418   5.817   6.393   0.666
 4840SOL    HW115419   5.798   6.311   0.721
 4840SOL    HW215420   5.731   6.435   0.638
 4841SOL     OW15421   3.300   5.845   1.439
 4841SOL    HW115422   3.234   5.872   1.368
 4841SOL    HW215423   3.259   5.774   1.496
 4842SOL     OW15424   3.586   5.476   1.856
 4842SOL    HW115425   3.635   5.472   1.944
 4842SOL    HW215426   3.651   5.467   1.781
 4843SOL     OW15427   0.251   3.719   0.119
 4843SOL    HW115428   0.200   3.633   0.120
 4843SOL    HW215429   0.189   3.794   0.095
 4844SOL     OW15430   6.595   3.732   6.976
 4844SOL    HW115431   6.661   3.708   0.028
 4844SOL    HW215432   6.644   3.760   6.894
 4845SOL     OW15433   6.285   5.727   4.056
 4845SOL    HW115434   6.214   5.676   4.105
 4845SOL    HW215435   6.352   5.763   4.121
 4846SOL     OW15436   0.917   3.023   0.651
 4846SOL    HW115437   0.912   3.121   0.670
 4846SOL    HW215438   0.887   3.006   0.557
 4847SOL     OW15439   3.926   2.127   4.917
 4847SOL    HW115440   3.836   2.090   4.896
 4847SOL    HW215441   3.926   2.163   5.011
 4848SOL     OW15442   2.283   1.499   3.555
 4848SOL    HW115443   2.332   1.476   3.471
 4848SOL    HW215444   2.185   1.491   3.540
 4849SOL     OW15445   1.552   7.007   7.014
 4849SOL    HW115446   1.472   6.959   0.030
 4849SOL    HW215447   1.522   0.070   6.965
 4850SOL     OW15448   3.562   0.581   2.187
 4850SOL    HW115449   3.607   0.533   2.112
 4850SOL    HW215450   3.629   0.602   2.259
 4851SOL     OW15451   4.386   6.112   5.735
 4851SOL    HW115452   4.454   6.104   5.662
 4851SOL    HW215453   4.416   6.183   5.799
 4852SOL     OW15454   1.521   0.800   0.136
 4852SOL    HW115455   1.554   0.710   0.166
 4852SOL    HW215456   1.572   0.872   0.182
 4853SOL     OW15457   3.640   1.634   2.691
 4853SOL    HW115458   3.568   1.566   2.708
 4853SOL    HW215459   3.651   1.646   2.592
 4854SOL     OW15460   4.721   5.488   2.001
 4854SOL    HW115461   4.795   5.510   1.937
 4854SOL    HW215462   4.677   5.573   2.031
 4855SOL     OW15463   5.865   1.646   1.962
 4855SOL    HW115464   5.825   1.719   1.906
 4855SOL    HW215465   5.920   1.687   2.035
 4856SOL     OW15466   2.912   4.892   3.751
 4856SOL    HW115467   2.904   4.825   3.677
 4856SOL    HW215468   2.924   4.844   3.838
 4857SOL     OW15469   1.015   1.736   5.892
 4857SOL    HW115470   0.981   1.649   5.856
 4857SOL    HW215471   1.041   1.795   5.815
 4858SOL     OW15472   2.257   1.574   4.427
 4858SOL    HW115473   2.263   1.667   4.392
 4858SOL    HW215474   2.267   1.509   4.351
 4859SOL     OW15475   1.394   5.885   4.479
 4859SOL    HW115476   1.480   5.919   4.440
 4859SOL    HW215477   1.322   5.890   4.410
 4860SOL     OW15478   4.272   5.182   1.977
 4860SOL    HW115479   4.175   5.164   1.963
 4860SOL    HW215480   4.300   5.145   2.066
 4861SOL     OW15481   5.563   5.639   0.045
 4861SOL    HW115482   5.631   5.652   0.118
 4861SOL    HW215483   5.545   5.541   0.034
 4862SOL     OW15484   1.288   5.316   3.572
 4862SOL    HW115485   1.252   5.407   3.553
 4862SOL    HW215486   1.384   5.323   3.598
 4863SOL     OW15487   5.807   4.347   0.624
 4863SOL    HW115488   5.743   4.341   0.548
 4863SOL    HW215489   5.881   4.280   0.611
 4864SOL     OW15490   3.208   0.820   3.546
 4864SOL    HW115491   3.250   0.908   3.566
 4864SOL    HW215492   3.256   0.776   3.470
 4865SOL     OW15493   2.460   0.102   4.947
 4865SOL    HW115494   2.365   0.074   4.934
 4865SOL    HW215495   2.492   0.149   4.864
 4866SOL     OW15496   6.824   3.669   1.375
 4866SOL    HW115497   6.853   3.657   1.281
 4866SOL    HW215498   6.878   3.740   1.419
 4867SOL     OW15499   4.393   5.559   2.094
 4867SOL    HW115500   4.426   5.646   2.058
 4867SOL    HW215501   4.341   5.575   2.178
 4868SOL     OW15502   6.615   4.782   2.197
 4868SOL    HW115503   6.672   4.863   2.213
 4868SOL    HW215504   6.560   4.763   2.279
 4869SOL     OW15505   1.466   1.628   0.651
 4869SOL    HW115506   1.372   1.645   0.680
 4869SOL    HW215507   1.512   1.716   0.635
 4870SOL     OW15508   0.764   6.532   1.935
 4870SOL    HW115509   0.785   6.614   1.880
 4870SOL    HW215510   0.795   6.451   1.886
 4871SOL     OW15511   1.162   0.644   4.846
 4871SOL    HW115512   1.214   0.638   4.761
 4871SOL    HW215513   1.065   0.661   4.824
 4872SOL     OW15514   6.756   6.433   3.018
 4872SOL    HW115515   6.688   6.485   3.071
 4872SOL    HW215516   6.847   6.469   3.038
 4873SOL     OW15517   6.823   5.281   4.914
 4873SOL    HW115518   6.891   5.237   4.855
 4873SOL    HW215519   6.762   5.337   4.858
 4874SOL     OW15520   4.975   2.385   2.959
 4874SOL    HW115521   4.882   2.348   2.961
 4874SOL    HW215522   4.982   2.455   2.888
 4875SOL     OW15523   4.890   7.016   6.932
 4875SOL    HW115524   4.917   0.003   0.009
 4875SOL    HW215525   4.948   0.058   6.878
 4876SOL     OW15526   0.345   1.622   3.504
 4876SOL    HW115527   0.391   1.534   3.510
 4876SOL    HW215528   0.357   1.672   3.590
 4877SOL     OW15529   0.350   2.249   5.251
 4877SOL    HW115530   0.317   2.335   5.288
 4877SOL    HW215531   0.444   2.260   5.217
 4878SOL     OW15532   6.926   1.669   1.911
 4878SOL    HW115533   6.953   1.662   1.815
 4878SOL    HW215534   6.837   1.624   1.924
 4879SOL     OW15535   5.121   2.015   2.539
 4879SOL    HW115536   5.143   2.064   2.623
 4879SOL    HW215537   5.204   1.979   2.498
 4880SOL     OW15538   6.683   3.343   0.194
 4880SOL    HW115539   6.617   3.385   0.130
 4880SOL    HW215540   6.644   3.259   0.231
 4881SOL     OW15541   1.521   2.303   1.039
 4881SOL    HW115542   1.524   2.254   0.952
 4881SOL    HW215543   1.609   2.296   1.085
 4882SOL     OW15544   4.442   2.318   5.183
 4882SOL    HW115545   4.459   2.416   5.169
 4882SOL    HW215546   4.529   2.271   5.197
 4883SOL     OW15547   4.887   3.924   1.681
 4883SOL    HW115548   4.878   3.953   1.585
 4883SOL    HW215549   4.943   3.990   1.730
 4884SOL     OW15550   2.691   5.446   0.764
 4884SOL    HW115551   2.659   5.540   0.753
 4884SOL    HW215552   2.632   5.385   0.712
 4885SOL     OW15553   2.423   4.411   1.885
 4885SOL    HW115554   2.428   4.426   1.983
 4885SOL    HW215555   2.362   4.335   1.865
 4886SOL     OW15556   2.859   6.837   1.355
 4886SOL    HW115557   2.814   6.751   1.377
 4886SOL    HW215558   2.792   6.912   1.358
 4887SOL     OW15559   1.055   6.529   1.316
 4887SOL    HW115560   1.056   6.441   1.268
 4887SOL    HW215561   1.148   6.558   1.336
 4888SOL     OW15562   2.555   6.351   2.737
 4888SOL    HW115563   2.633   6.315   2.788
 4888SOL    HW215564   2.497   6.404   2.799
 4889SOL     OW15565   6.817   1.796   4.831
 4889SOL    HW115566   6.785   1.857   4.759
 4889SOL    HW215567   6.908   1.824   4.861
 4890SOL     OW15568   1.082   2.043   5.299
 4890SOL    HW115569   1.019   1.977   5.342
 4890SOL    HW215570   1.042   2.075   5.214
 4891SOL     OW15571   2.193   5.013   6.530
 4891SOL    HW115572   2.212   5.107   6.558
 4891SOL    HW215573   2.267   4.953   6.561
 4892SOL     OW15574   5.558   6.407   2.139
 4892SOL    HW115575   5.597   6.457   2.217
 4892SOL    HW215576   5.632   6.374   2.081
 4893SOL     OW15577   0.265   3.326   2.113
 4893SOL    HW115578   0.236   3.308   2.019
 4893SOL    HW215579   0.358   3.362   2.112
 4894SOL     OW15580   3.294   0.069   2.282
 4894SOL    HW115581   3.210   0.017   2.264
 4894SOL    HW215582   3.293   0.152   2.226
 4895SOL     OW15583   0.709   4.604   3.508
 4895SOL    HW115584   0.679   4.696   3.534
 4895SOL    HW215585   0.760   4.563   3.584
 4896SOL     OW15586   2.242   4.669   3.222
 4896SOL    HW115587   2.299   4.651   3.142
 4896SOL    HW215588   2.153   4.704   3.192
 4897SOL     OW15589   1.644   5.805   5.364
 4897SOL    HW115590   1.694   5.783   5.280
 4897SOL    HW215591   1.659   5.733   5.432
 4898SOL     OW15592   4.274   0.899   4.843
 4898SOL    HW115593   4.204   0.947   4.790
 4898SOL    HW215594   4.231   0.825   4.895
 4899SOL     OW15595   5.732   5.605   2.608
 4899SOL    HW115596   5.666   5.544   2.564
 4899SOL    HW215597   5.699   5.631   2.698
 4900SOL     OW15598   4.666   6.036   5.604
 4900SOL    HW115599   4.679   6.034   5.505
 4900SOL    HW215600   4.677   5.944   5.641
 4901SOL     OW15601   1.672   1.932   5.351
 4901SOL    HW115602   1.606   1.880   5.406
 4901SOL    HW215603   1.722   1.870   5.292
 4902SOL     OW15604   1.679   0.542   6.368
 4902SOL    HW115605   1.621   0.529   6.449
 4902SOL    HW215606   1.662   0.468   6.303
 4903SOL     OW15607   4.243   5.497   1.081
 4903SOL    HW115608   4.342   5.490   1.090
 4903SOL    HW215609   4.220   5.578   1.027
 4904SOL     OW15610   2.339   0.755   5.574
 4904SOL    HW115611   2.317   0.817   5.650
 4904SOL    HW215612   2.405   0.687   5.605
 4905SOL     OW15613   2.738   0.004   2.935
 4905SOL    HW115614   2.730   0.083   2.996
 4905SOL    HW215615   2.647   6.983   2.920
 4906SOL     OW15616   4.783   3.066   5.163
 4906SOL    HW115617   4.781   3.137   5.233
 4906SOL    HW215618   4.858   3.003   5.181
 4907SOL     OW15619   4.790   1.299   0.588
 4907SOL    HW115620   4.754   1.300   0.681
 4907SOL    HW215621   4.757   1.379   0.539
 4908SOL     OW15622   4.574   0.480   0.976
 4908SOL    HW115623   4.535   0.521   0.893
 4908SOL    HW215624   4.597   0.553   1.040
 4909SOL     OW15625   6.547   4.316   3.648
 4909SOL    HW115626   6.514   4.222   3.663
 4909SOL    HW215627   6.618   4.337   3.715
 4910SOL     OW15628   5.725   1.283   4.446
 4910SOL    HW115629   5.805   1.301   4.389
 4910SOL    HW215630   5.719   1.185   4.465
 4911SOL     OW15631   1.919   2.780   2.929
 4911SOL    HW115632   1.822   2.762   2.910
 4911SOL    HW215633   1.973   2.756   2.849
 4912SOL     OW15634   5.217   2.227   5.715
 4912SOL    HW115635   5.257   2.249   5.804
 4912SOL    HW215636   5.152   2.152   5.725
 4913SOL     OW15637   5.666   3.173   5.967
 4913SOL    HW115638   5.573   3.137   5.979
 4913SOL    HW215639   5.662   3.261   5.920
 4914SOL     OW15640   4.403   0.224   5.442
 4914SOL    HW115641   4.395   0.260   5.349
 4914SOL    HW215642   4.460   0.284   5.497
 4915SOL     OW15643   2.898   5.793   5.460
 4915SOL    HW115644   2.846   5.836   5.534
 4915SOL    HW215645   2.906   5.695   5.477
 4916SOL     OW15646   0.009   0.513   4.191
 4916SOL    HW115647   0.084   0.456   4.223
 4916SOL    HW215648   0.040   0.567   4.112
 4917SOL     OW15649   3.716   5.726   0.879
 4917SOL    HW115650   3.727   5.719   0.978
 4917SOL    HW215651   3.713   5.635   0.840
 4918SOL     OW15652   6.516   5.796   1.790
 4918SOL    HW115653   6.430   5.845   1.802
 4918SOL    HW215654   6.562   5.829   1.706
 4919SOL     OW15655   3.486   2.873   2.095
 4919SOL    HW115656   3.410   2.837   2.042
 4919SOL    HW215657   3.464   2.869   2.192
 4920SOL     OW15658   5.454   0.181   4.967
 4920SOL    HW115659   5.522   0.173   4.894
 4920SOL    HW215660   5.478   0.259   5.026
 4921SOL     OW15661   0.909   5.575   0.180
 4921SOL    HW115662   0.966   5.583   0.262
 4921SOL    HW215663   0.937   5.494   0.128
 4922SOL     OW15664   3.327   2.179   5.288
 4922SOL    HW115665   3.387   2.246   5.332
 4922SOL    HW215666   3.253   2.227   5.240
 4923SOL     OW15667   2.718   2.078   2.886
 4923SOL    HW115668   2.769   2.146   2.833
 4923SOL    HW215669   2.636   2.120   2.924
 4924SOL     OW15670   2.423   1.783   5.614
 4924SOL    HW115671   2.412   1.778   5.515
 4924SOL    HW215672   2.405   1.876   5.645
 4925SOL     OW15673   4.237   0.345   2.569
 4925SOL    HW115674   4.264   0.279   2.639
 4925SOL    HW215675   4.313   0.361   2.506
 4926SOL     OW15676   5.555   1.438   1.446
 4926SOL    HW115677   5.512   1.378   1.513
 4926SOL    HW215678   5.582   1.524   1.490
 4927SOL     OW15679   3.127   2.783   6.168
 4927SOL    HW115680   3.061   2.796   6.242
 4927SOL    HW215681   3.081   2.750   6.086
 4928SOL     OW15682   1.247   0.971   0.660
 4928SOL    HW115683   1.153   0.939   0.670
 4928SOL    HW215684   1.276   0.961   0.565
 4929SOL     OW15685   0.101   6.904   3.359
 4929SOL    HW115686   0.130   6.998   3.378
 4929SOL    HW215687   0.167   6.859   3.299
 4930SOL     OW15688   6.468   0.088   1.951
 4930SOL    HW115689   6.448   0.060   2.046
 4930SOL    HW215690   6.457   0.187   1.943
 4931SOL     OW15691   6.027   5.983   1.870
 4931SOL    HW115692   5.949   6.039   1.845
 4931SOL    HW215693   6.007   5.933   1.954
 4932SOL     OW15694   3.504   3.798   3.617
 4932SOL    HW115695   3.496   3.713   3.669
 4932SOL    HW215696   3.485   3.780   3.520
 4933SOL     OW15697   2.360   6.286   4.447
 4933SOL    HW115698   2.433   6.293   4.515
 4933SOL    HW215699   2.273   6.312   4.488
 4934SOL     OW15700   3.769   6.041   2.814
 4934SOL    HW115701   3.743   6.120   2.758
 4934SOL    HW215702   3.791   5.964   2.754
 4935SOL     OW15703   1.511   1.987   6.770
 4935SOL    HW115704   1.425   2.029   6.800
 4935SOL    HW215705   1.512   1.981   6.670
 4936SOL     OW15706   2.642   4.821   0.787
 4936SOL    HW115707   2.686   4.867   0.864
 4936SOL    HW215708   2.687   4.847   0.702
 4937SOL     OW15709   5.059   3.180   5.251
 4937SOL    HW115710   5.094   3.262   5.296
 4937SOL    HW215711   5.061   3.193   5.152
 4938SOL     OW15712   3.462   5.761   5.268
 4938SOL    HW115713   3.540   5.704   5.244
 4938SOL    HW215714   3.458   5.840   5.207
 4939SOL     OW15715   4.942   2.825   5.217
 4939SOL    HW115716   4.898   2.742   5.182
 4939SOL    HW215717   4.947   2.820   5.317
 4940SOL     OW15718   1.623   0.637   4.726
 4940SOL    HW115719   1.524   0.651   4.735
 4940SOL    HW215720   1.641   0.552   4.678
 4941SOL     OW15721   4.168   1.734   0.085
 4941SOL    HW115722   4.109   1.690   0.017
 4941SOL    HW215723   4.176   1.831   0.064
 4942SOL     OW15724   4.839   3.681   5.368
 4942SOL    HW115725   4.883   3.614   5.429
 4942SOL    HW215726   4.789   3.634   5.296
 4943SOL     OW15727   4.594   2.324   0.499
 4943SOL    HW115728   4.579   2.280   0.410
 4943SOL    HW215729   4.587   2.423   0.488
 4944SOL     OW15730   2.155   3.952   2.826
 4944SOL    HW115731   2.145   3.884   2.754
 4944SOL    HW215732   2.097   4.031   2.805
 4945SOL     OW15733   1.241   0.189   3.819
 4945SOL    HW115734   1.282   0.127   3.753
 4945SOL    HW215735   1.280   0.173   3.909
 4946SOL     OW15736   1.014   2.744   1.822
 4946SOL    HW115737   0.949   2.687   1.872
 4946SOL    HW215738   0.965   2.819   1.778
 4947SOL     OW15739   0.848   0.004   0.509
 4947SOL    HW115740   0.854   6.932   0.468
 4947SOL    HW215741   0.752   0.033   0.512
 4948SOL     OW15742   2.378   0.722   2.609
 4948SOL    HW115743   2.358   0.702   2.513
 4948SOL    HW215744   2.316   0.669   2.667
 4949SOL     OW15745   4.961   0.631   5.358
 4949SOL    HW115746   4.963   0.712   5.416
 4949SOL    HW215747   5.023   0.561   5.395
 4950SOL     OW15748   2.661   6.306   4.120
 4950SOL    HW115749   2.721   6.297   4.200
 4950SOL    HW215750   2.715   6.289   4.037
 4951SOL     OW15751   4.608   1.548   4.348
 4951SOL    HW115752   4.676   1.620   4.338
 4951SOL    HW215753   4.519   1.580   4.316
 4952SOL     OW15754   0.066   5.939   4.989
 4952SOL    HW115755   7.003   5.896   4.954
 4952SOL    HW215756   0.140   5.930   4.922
 4953SOL     OW15757   2.342   5.211   0.977
 4953SOL    HW115758   2.419   5.192   1.037
 4953SOL    HW215759   2.295   5.295   1.007
 4954SOL     OW15760   5.013   4.870   0.156
 4954SOL    HW115761   5.000   4.792   0.217
 4954SOL    HW215762   5.027   4.838   0.063
 4955SOL     OW15763   1.299   6.026   0.562
 4955SOL    HW115764   1.252   6.046   0.476
 4955SOL    HW215765   1.247   5.960   0.615
 4956SOL     OW15766   3.972   6.850   5.929
 4956SOL    HW115767   3.934   6.914   5.862
 4956SOL    HW215768   4.035   6.787   5.884
 4957SOL     OW15769   0.246   1.476   4.003
 4957SOL    HW115770   0.333   1.525   4.008
 4957SOL    HW215771   0.237   1.435   3.912
 4958SOL     OW15772   0.738   6.442   6.230
 4958SOL    HW115773   0.764   6.371   6.164
 4958SOL    HW215774   0.805   6.444   6.304
 4959SOL     OW15775   1.006   0.589   6.856
 4959SOL    HW115776   0.993   0.490   6.856
 4959SOL    HW215777   1.094   0.611   6.897
 4960SOL     OW15778   4.027   6.788   4.048
 4960SOL    HW115779   3.974   6.815   3.967
 4960SOL    HW215780   4.110   6.843   4.053
 4961SOL     OW15781   6.047   0.492   4.654
 4961SOL    HW115782   5.964   0.534   4.618
 4961SOL    HW215783   6.040   0.392   4.645
 4962SOL     OW15784   5.627   2.525   2.000
 4962SOL    HW115785   5.646   2.620   2.024
 4962SOL    HW215786   5.542   2.520   1.947
 4963SOL     OW15787   0.414   5.589   1.265
 4963SOL    HW115788   0.373   5.677   1.244
 4963SOL    HW215789   0.374   5.553   1.350
 4964SOL     OW15790   3.648   5.706   3.601
 4964SOL    HW115791   3.725   5.699   3.538
 4964SOL    HW215792   3.597   5.621   3.601
 4965SOL     OW15793   0.360   6.834   4.846
 4965SOL    HW115794   0.332   6.913   4.900
 4965SOL    HW215795   0.292   6.761   4.856
 4966SOL     OW15796   3.007   6.187   4.666
 4966SOL    HW115797   3.077   6.249   4.702
 4966SOL    HW215798   3.036   6.093   4.681
 4967SOL     OW15799   4.127   2.710   6.700
 4967SOL    HW115800   4.044   2.673   6.742
 4967SOL    HW215801   4.177   2.765   6.767
 4968SOL     OW15802   5.017   2.836   3.553
 4968SOL    HW115803   5.042   2.795   3.465
 4968SOL    HW215804   5.034   2.935   3.550
 4969SOL     OW15805   1.637   0.929   1.630
 4969SOL    HW115806   1.704   0.998   1.658
 4969SOL    HW215807   1.625   0.933   1.531
 4970SOL     OW15808   1.124   2.127   4.843
 4970SOL    HW115809   1.222   2.122   4.828
 4970SOL    HW215810   1.081   2.041   4.817
 4971SOL     OW15811   6.431   6.018   2.985
 4971SOL    HW115812   6.368   6.077   2.934
 4971SOL    HW215813   6.474   5.953   2.922
 4972SOL     OW15814   2.271   3.500   1.090
 4972SOL    HW115815   2.316   3.577   1.044
 4972SOL    HW215816   2.318   3.415   1.067
 4973SOL     OW15817   6.147   5.937   2.182
 4973SOL    HW115818   6.185   6.013   2.234
 4973SOL    HW215819   6.052   5.923   2.209
 4974SOL     OW15820   5.660   6.215   2.403
 4974SOL    HW115821   5.619   6.149   2.340
 4974SOL    HW215822   5.597   6.291   2.417
 4975SOL     OW15823   5.820   5.942   0.663
 4975SOL    HW115824   5.739   5.890   0.636
 4975SOL    HW215825   5.792   6.022   0.717
 4976SOL     OW15826   3.461   0.207   4.717
 4976SOL    HW115827   3.444   0.159   4.803
 4976SOL    HW215828   3.382   0.196   4.657
 4977SOL     OW15829   4.408   3.572   0.726
 4977SOL    HW115830   4.324   3.605   0.685
 4977SOL    HW215831   4.468   3.649   0.747
 4978SOL     OW15832   5.915   3.931   5.395
 4978SOL    HW115833   5.962   3.944   5.482
 4978SOL    HW215834   5.825   3.973   5.399
 4979SOL     OW15835   0.552   0.908   5.589
 4979SOL    HW115836   0.605   0.894   5.506
 4979SOL    HW215837   0.473   0.966   5.568
 4980SOL     OW15838   3.711   5.167   2.575
 4980SOL    HW115839   3.680   5.255   2.538
 4980SOL    HW215840   3.723   5.102   2.500
 4981SOL     OW15841   4.623   6.856   6.023
 4981SOL    HW115842   4.544   6.855   6.084
 4981SOL    HW215843   4.603   6.912   5.943
 4982SOL     OW15844   2.129   2.028   6.963
 4982SOL    HW115845   2.093   1.940   6.997
 4982SOL    HW215846   2.194   2.064   0.010
 4983SOL     OW15847   5.341   2.963   3.693
 4983SOL    HW115848   5.283   2.923   3.765
 4983SOL    HW215849   5.433   2.924   3.700
 4984SOL     OW15850   5.046   3.659   4.588
 4984SOL    HW115851   5.067   3.562   4.585
 4984SOL    HW215852   5.018   3.690   4.497
 4985SOL     OW15853   5.308   5.510   3.775
 4985SOL    HW115854   5.222   5.498   3.823
 4985SOL    HW215855   5.293   5.562   3.691
 4986SOL     OW15856   6.281   4.577   2.520
 4986SOL    HW115857   6.286   4.481   2.545
 4986SOL    HW215858   6.260   4.631   2.602
 4987SOL     OW15859   0.102   3.203   1.131
 4987SOL    HW115860   0.176   3.178   1.194
 4987SOL    HW215861   0.124   3.290   1.086
 4988SOL     OW15862   0.430   1.485   4.506
 4988SOL    HW115863   0.385   1.540   4.576
 4988SOL    HW215864   0.373   1.484   4.423
 4989SOL     OW15865   6.368   1.247   0.867
 4989SOL    HW115866   6.422   1.164   0.881
 4989SOL    HW215867   6.405   1.321   0.923
 4990SOL     OW15868   0.899   2.887   5.274
 4990SOL    HW115869   0.982   2.899   5.220
 4990SOL    HW215870   0.919   2.831   5.354
 4991SOL     OW15871   0.764   3.385   3.922
 4991SOL    HW115872   0.851   3.424   3.891
 4991SOL    HW215873   0.688   3.434   3.878
 4992SOL     OW15874   3.403   0.855   5.145
 4992SOL    HW115875   3.409   0.771   5.091
 4992SOL    HW215876   3.491   0.903   5.144
 4993SOL     OW15877   3.144   5.704   3.628
 4993SOL    HW115878   3.199   5.699   3.545
 4993SOL    HW215879   3.104   5.615   3.648
 4994SOL     OW15880   0.884   6.578   2.732
 4994SOL    HW115881   0.927   6.666   2.712
 4994SOL    HW215882   0.827   6.550   2.655
 4995SOL     OW15883   6.925   3.060   6.235
 4995SOL    HW115884   6.961   3.153   6.229
 4995SOL    HW215885   6.827   3.063   6.255
 4996SOL     OW15886   0.683   2.117   2.296
 4996SOL    HW115887   0.778   2.146   2.311
 4996SOL    HW215888   0.644   2.168   2.220
 4997SOL     OW15889   6.774   2.051   2.875
 4997SOL    HW115890   6.694   2.014   2.828
 4997SOL    HW215891   6.836   2.093   2.808
 4998SOL     OW15892   1.736   4.875   4.728
 4998SOL    HW115893   1.834   4.859   4.719
 4998SOL    HW215894   1.719   4.931   4.810
 4999SOL     OW15895   4.582   5.640   0.815
 4999SOL    HW115896   4.645   5.563   0.808
 4999SOL    HW215897   4.630   5.725   0.795
 5000SOL     OW15898   0.767   0.231   5.176
 5000SOL    HW115899   0.757   0.329   5.159
 5000SOL    HW215900   0.721   0.207   5.262
 5001SOL     OW15901   2.413   4.022   5.864
 5001SOL    HW115902   2.362   4.108   5.866
 5001SOL    HW215903   2.511   4.042   5.865
 5002SOL     OW15904   2.220   1.407   2.565
 5002SOL    HW115905   2.275   1.428   2.646
 5002SOL    HW215906   2.278   1.409   2.483
 5003SOL     OW15907   0.197   6.423   2.605
 5003SOL    HW115908   0.256   6.500   2.626
 5003SOL    HW215909   0.179   6.419   2.506
 5004SOL     OW15910   2.426   5.740   6.184
 5004SOL    HW115911   2.491   5.689   6.240
 5004SOL    HW215912   2.406   5.689   6.100
 5005SOL     OW15913   4.115   3.008   0.307
 5005SOL    HW115914   4.167   3.093   0.311
 5005SOL    HW215915   4.125   2.959   0.393
 5006SOL     OW15916   5.464   6.930   5.011
 5006SOL    HW115917   5.443   6.873   4.931
 5006SOL    HW215918   5.455   0.007   4.987
 5007SOL     OW15919   4.199   1.003   5.922
 5007SOL    HW115920   4.252   0.943   5.862
 5007SOL    HW215921   4.224   1.098   5.906
 5008SOL     OW15922   5.905   1.032   3.357
 5008SOL    HW115923   5.974   1.091   3.314
 5008SOL    HW215924   5.849   1.086   3.419
 5009SOL     OW15925   0.828   6.158   1.608
 5009SOL    HW115926   0.778   6.071   1.613
 5009SOL    HW215927   0.926   6.141   1.611
 5010SOL     OW15928   3.564   4.112   3.750
 5010SOL    HW115929   3.591   4.144   3.841
 5010SOL    HW215930   3.626   4.151   3.682
 5011SOL     OW15931   0.849   3.043   2.125
 5011SOL    HW115932   0.853   3.028   2.224
 5011SOL    HW215933   0.812   3.134   2.107
 5012SOL     OW15934   6.884   3.008   5.942
 5012SOL    HW115935   6.904   3.007   6.040
 5012SOL    HW215936   6.969   3.028   5.891
 5013SOL     OW15937   4.158   0.758   6.364
 5013SOL    HW115938   4.214   0.829   6.321
 5013SOL    HW215939   4.217   0.685   6.399
 5014SOL     OW15940   6.133   5.813   0.546
 5014SOL    HW115941   6.090   5.898   0.579
 5014SOL    HW215942   6.176   5.766   0.624
 5015SOL     OW15943   4.120   2.204   3.607
 5015SOL    HW115944   4.040   2.175   3.661
 5015SOL    HW215945   4.091   2.270   3.538
 5016SOL     OW15946   1.701   0.365   3.077
 5016SOL    HW115947   1.617   0.376   3.130
 5016SOL    HW215948   1.680   0.373   2.980
 5017SOL     OW15949   2.653   2.108   0.564
 5017SOL    HW115950   2.702   2.142   0.645
 5017SOL    HW215951   2.559   2.086   0.590
 5018SOL     OW15952   6.924   4.259   2.780
 5018SOL    HW115953   6.963   4.170   2.758
 5018SOL    HW215954   6.847   4.248   2.842
 5019SOL     OW15955   2.430   4.117   0.984
 5019SOL    HW115956   2.430   4.126   1.084
 5019SOL    HW215957   2.462   4.025   0.960
 5020SOL     OW15958   4.797   5.454   6.077
 5020SOL    HW115959   4.739   5.376   6.053
 5020SOL    HW215960   4.775   5.531   6.018
 5021SOL     OW15961   1.896   4.817   5.740
 5021SOL    HW115962   1.950   4.734   5.727
 5021SOL    HW215963   1.889   4.866   5.653
 5022SOL     OW15964   1.927   6.109   0.567
 5022SOL    HW115965   2.021   6.142   0.553
 5022SOL    HW215966   1.863   6.177   0.531
 5023SOL     OW15967   6.201   3.078   0.626
 5023SOL    HW115968   6.175   3.174   0.620
 5023SOL    HW215969   6.131   3.022   0.581
 5024SOL     OW15970   6.660   4.235   3.239
 5024SOL    HW115971   6.604   4.190   3.170
 5024SOL    HW215972   6.663   4.179   3.322
 5025SOL     OW15973   5.427   1.151   3.223
 5025SOL    HW115974   5.364   1.084   3.183
 5025SOL    HW215975   5.386   1.242   3.217
 5026SOL     OW15976   5.871   5.517   4.609
 5026SOL    HW115977   5.885   5.541   4.705
 5026SOL    HW215978   5.849   5.419   4.602
 5027SOL     OW15979   0.432   6.743   2.979
 5027SOL    HW115980   0.395   6.663   3.026
 5027SOL    HW215981   0.525   6.723   2.948
 5028SOL     OW15982   0.289   6.375   2.052
 5028SOL    HW115983   0.304   6.349   1.957
 5028SOL    HW215984   0.367   6.427   2.085
 5029SOL     OW15985   0.246   2.806   1.538
 5029SOL    HW115986   0.147   2.808   1.553
 5029SOL    HW215987   0.271   2.719   1.495
 5030SOL     OW15988   6.496   0.390   6.815
 5030SOL    HW115989   6.560   0.378   6.739
 5030SOL    HW215990   6.486   0.304   6.864
 5031SOL     OW15991   5.897   0.960   4.090
 5031SOL    HW115992   5.936   0.927   4.176
 5031SOL    HW215993   5.804   0.992   4.106
 5032SOL     OW15994   1.726   5.201   0.627
 5032SOL    HW115995   1.761   5.294   0.638
 5032SOL    HW215996   1.775   5.140   0.688
 5033SOL     OW15997   2.669   4.780   5.508
 5033SOL    HW115998   2.719   4.777   5.594
 5033SOL    HW215999   2.696   4.703   5.451
 5034SOL     OW16000   6.497   2.214   2.410
 5034SOL    HW116001   6.531   2.294   2.459
 5034SOL    HW216002   6.411   2.184   2.452
 5035SOL     OW16003   4.541   5.192   0.398
 5035SOL    HW116004   4.589   5.115   0.439
 5035SOL    HW216005   4.593   5.276   0.413
 5036SOL     OW16006   1.007   6.096   0.512
 5036SOL    HW116007   1.060   6.090   0.427
 5036SOL    HW216008   0.946   6.017   0.518
 5037SOL     OW16009   4.070   1.648   3.524
 5037SOL    HW116010   4.097   1.744   3.534
 5037SOL    HW216011   4.112   1.594   3.598
 5038SOL     OW16012   1.638   6.132   5.740
 5038SOL    HW116013   1.634   6.099   5.645
 5038SOL    HW216014   1.669   6.057   5.799
 5039SOL     OW16015   2.233   2.928   5.355
 5039SOL    HW116016   2.228   3.021   5.390
 5039SOL    HW216017   2.314   2.918   5.296
 5040SOL     OW16018   2.975   3.544   6.625
 5040SOL    HW116019   3.054   3.585   6.671
 5040SOL    HW216020   2.892   3.568   6.675
 5041SOL     OW16021   0.901   3.585   1.433
 5041SOL    HW116022   0.850   3.618   1.512
 5041SOL    HW216023   0.993   3.557   1.461
 5042SOL     OW16024   5.798   3.875   6.568
 5042SOL    HW116025   5.796   3.882   6.468
 5042SOL    HW216026   5.887   3.904   6.602
 5043SOL     OW16027   3.533   0.688   3.851
 5043SOL    HW116028   3.563   0.649   3.764
 5043SOL    HW216029   3.545   0.787   3.850
 5044SOL     OW16030   6.305   5.880   3.825
 5044SOL    HW116031   6.218   5.929   3.822
 5044SOL    HW216032   6.303   5.811   3.897
 5045SOL     OW16033   6.356   3.526   0.267
 5045SOL    HW116034   6.266   3.571   0.270
 5045SOL    HW216035   6.413   3.562   0.341
 5046SOL     OW16036   3.664   2.853   5.133
 5046SOL    HW116037   3.710   2.942   5.138
 5046SOL    HW216038   3.644   2.821   5.226
 5047SOL     OW16039   6.285   0.383   2.570
 5047SOL    HW116040   6.264   0.318   2.643
 5047SOL    HW216041   6.358   0.345   2.512
 5048SOL     OW16042   7.015   2.211   1.897
 5048SOL    HW116043   7.006   2.270   1.977
 5048SOL    HW216044   6.984   2.119   1.920
 5049SOL     OW16045   1.191   1.661   1.909
 5049SOL    HW116046   1.258   1.664   1.983
 5049SOL    HW216047   1.134   1.580   1.919
 5050SOL     OW16048   0.618   2.252   1.558
 5050SOL    HW116049   0.606   2.176   1.494
 5050SOL    HW216050   0.533   2.305   1.562
 5051SOL     OW16051   2.845   4.206   1.085
 5051SOL    HW116052   2.819   4.110   1.090
 5051SOL    HW216053   2.776   4.262   1.131
 5052SOL     OW16054   4.233   4.910   0.673
 5052SOL    HW116055   4.256   4.845   0.600
 5052SOL    HW216056   4.201   4.860   0.753
 5053SOL     OW16057   2.510   4.048   1.743
 5053SOL    HW116058   2.533   4.145   1.734
 5053SOL    HW216059   2.438   4.025   1.678
 5054SOL     OW16060   3.545   6.243   4.733
 5054SOL    HW116061   3.621   6.258   4.670
 5054SOL    HW216062   3.515   6.147   4.727
 5055SOL     OW16063   0.965   2.183   5.063
 5055SOL    HW116064   0.899   2.108   5.055
 5055SOL    HW216065   1.023   2.184   4.981
 5056SOL     OW16066   0.095   3.800   5.985
 5056SOL    HW116067   0.129   3.831   5.896
 5056SOL    HW216068   0.163   3.741   6.028
 5057SOL     OW16069   0.891   6.077   3.715
 5057SOL    HW116070   0.822   6.149   3.708
 5057SOL    HW216071   0.847   5.988   3.724
 5058SOL     OW16072   4.165   3.989   6.598
 5058SOL    HW116073   4.120   3.902   6.619
 5058SOL    HW216074   4.193   4.033   6.683
 5059SOL     OW16075   3.710   2.135   5.216
 5059SOL    HW116076   3.627   2.142   5.161
 5059SOL    HW216077   3.748   2.043   5.206
 5060SOL     OW16078   0.339   3.631   5.042
 5060SOL    HW116079   0.261   3.661   4.987
 5060SOL    HW216080   0.424   3.667   5.003
 5061SOL     OW16081   3.361   3.737   4.454
 5061SOL    HW116082   3.261   3.742   4.453
 5061SOL    HW216083   3.395   3.784   4.536
 5062SOL     OW16084   4.727   1.113   2.953
 5062SOL    HW116085   4.793   1.160   3.011
 5062SOL    HW216086   4.769   1.031   2.914
 5063SOL     OW16087   1.482   6.390   2.270
 5063SOL    HW116088   1.412   6.406   2.200
 5063SOL    HW216089   1.471   6.457   2.343
 5064SOL     OW16090   4.456   5.582   0.589
 5064SOL    HW116091   4.519   5.605   0.663
 5064SOL    HW216092   4.497   5.511   0.531
 5065SOL     OW16093   2.297   6.801   3.309
 5065SOL    HW116094   2.288   6.711   3.266
 5065SOL    HW216095   2.391   6.833   3.300
 5066SOL     OW16096   1.961   4.549   1.912
 5066SOL    HW116097   1.875   4.578   1.952
 5066SOL    HW216098   2.027   4.527   1.984
 5067SOL     OW16099   4.088   2.167   1.581
 5067SOL    HW116100   4.154   2.234   1.547
 5067SOL    HW216101   4.045   2.201   1.665
 5068SOL     OW16102   3.786   5.961   0.607
 5068SOL    HW116103   3.769   5.862   0.600
 5068SOL    HW216104   3.823   5.982   0.697
 5069SOL     OW16105   2.819   4.278   6.460
 5069SOL    HW116106   2.830   4.328   6.374
 5069SOL    HW216107   2.907   4.238   6.487
 5070SOL     OW16108   5.535   3.284   4.184
 5070SOL    HW116109   5.519   3.211   4.117
 5070SOL    HW216110   5.630   3.315   4.176
 5071SOL     OW16111   3.739   1.373   3.760
 5071SOL    HW116112   3.698   1.409   3.676
 5071SOL    HW216113   3.835   1.351   3.744
 5072SOL     OW16114   1.344   0.831   1.419
 5072SOL    HW116115   1.342   0.852   1.321
 5072SOL    HW216116   1.392   0.745   1.434
 5073SOL     OW16117   2.762   6.588   2.380
 5073SOL    HW116118   2.676   6.538   2.389
 5073SOL    HW216119   2.821   6.539   2.315
 5074SOL     OW16120   3.862   1.773   1.637
 5074SOL    HW116121   3.772   1.755   1.599
 5074SOL    HW216122   3.854   1.787   1.736
 5075SOL     OW16123   1.731   3.232   6.951
 5075SOL    HW116124   1.772   3.141   6.947
 5075SOL    HW216125   1.796   3.297   6.991
 5076SOL     OW16126   5.268   1.071   0.338
 5076SOL    HW116127   5.254   1.033   0.429
 5076SOL    HW216128   5.308   1.162   0.346
 5077SOL     OW16129   1.290   4.340   4.431
 5077SOL    HW116130   1.367   4.393   4.395
 5077SOL    HW216131   1.320   4.288   4.511
 5078SOL     OW16132   0.548   1.422   3.753
 5078SOL    HW116133   0.603   1.343   3.779
 5078SOL    HW216134   0.609   1.497   3.726
 5079SOL     OW16135   1.948   2.381   5.860
 5079SOL    HW116136   1.890   2.301   5.851
 5079SOL    HW216137   1.969   2.418   5.770
 5080SOL     OW16138   6.231   5.665   5.910
 5080SOL    HW116139   6.163   5.649   5.981
 5080SOL    HW216140   6.277   5.579   5.889
 5081SOL     OW16141   3.637   6.296   5.070
 5081SOL    HW116142   3.580   6.366   5.027
 5081SOL    HW216143   3.604   6.279   5.162
 5082SOL     OW16144   4.898   6.291   0.791
 5082SOL    HW116145   4.880   6.206   0.841
 5082SOL    HW216146   4.815   6.346   0.787
 5083SOL     OW16147   2.658   0.619   2.534
 5083SOL    HW116148   2.586   0.681   2.568
 5083SOL    HW216149   2.666   0.541   2.596
 5084SOL     OW16150   0.810   5.097   5.423
 5084SOL    HW116151   0.846   5.084   5.331
 5084SOL    HW216152   0.832   5.017   5.479
 5085SOL     OW16153   1.587   3.686   6.019
 5085SOL    HW116154   1.526   3.766   6.025
 5085SOL    HW216155   1.638   3.690   5.933
 5086SOL     OW16156   0.895   4.829   2.615
 5086SOL    HW116157   0.926   4.837   2.520
 5086SOL    HW216158   0.880   4.732   2.637
 5087SOL     OW16159   6.881   5.504   2.517
 5087SOL    HW116160   6.809   5.439   2.539
 5087SOL    HW216161   6.846   5.572   2.452
 5088SOL     OW16162   4.331   6.062   2.309
 5088SOL    HW116163   4.412   6.116   2.332
 5088SOL    HW216164   4.299   6.014   2.391
 5089SOL     OW16165   5.319   3.736   4.741
 5089SOL    HW116166   5.235   3.738   4.687
 5089SOL    HW216167   5.378   3.662   4.708
 5090SOL     OW16168   1.622   0.227   3.415
 5090SOL    HW116169   1.586   0.318   3.438
 5090SOL    HW216170   1.545   0.166   3.393
 5091SOL     OW16171   6.636   6.960   0.293
 5091SOL    HW116172   6.644   7.000   0.384
 5091SOL    HW216173   6.727   6.929   0.263
 5092SOL     OW16174   3.581   3.890   4.338
 5092SOL    HW116175   3.560   3.874   4.434
 5092SOL    HW216176   3.660   3.950   4.330
 5093SOL     OW16177   1.956   1.317   2.566
 5093SOL    HW116178   1.876   1.364   2.529
 5093SOL    HW216179   2.033   1.380   2.570
 5094SOL     OW16180   2.536   5.324   6.130
 5094SOL    HW116181   2.583   5.334   6.217
 5094SOL    HW216182   2.437   5.334   6.144
 5095SOL     OW16183   0.480   1.353   3.479
 5095SOL    HW116184   0.400   1.297   3.460
 5095SOL    HW216185   0.502   1.347   3.576
 5096SOL     OW16186   5.029   4.097   6.063
 5096SOL    HW116187   4.981   4.176   6.102
 5096SOL    HW216188   5.070   4.043   6.137
 5097SOL     OW16189   6.320   7.002   6.365
 5097SOL    HW116190   6.416   7.009   6.338
 5097SOL    HW216191   6.311   0.005   6.462
 5098SOL     OW16192   3.957   2.128   2.103
 5098SOL    HW116193   3.915   2.147   2.192
 5098SOL    HW216194   3.891   2.147   2.031
 5099SOL     OW16195   0.515   6.112   1.479
 5099SOL    HW116196   0.533   6.155   1.391
 5099SOL    HW216197   0.497   6.182   1.548
 5100SOL     OW16198   4.959   4.547   2.886
 5100SOL    HW116199   4.976   4.599   2.969
 5100SOL    HW216200   4.875   4.580   2.842
 5101SOL     OW16201   3.893   0.015   5.689
 5101SOL    HW116202   3.829   0.063   5.748
 5101SOL    HW216203   3.846   7.005   5.605
 5102SOL     OW16204   5.004   5.602   3.903
 5102SOL    HW116205   4.905   5.603   3.899
 5102SOL    HW216206   5.034   5.528   3.964
 5103SOL     OW16207   0.891   0.955   5.337
 5103SOL    HW116208   0.939   1.034   5.297
 5103SOL    HW216209   0.796   0.955   5.305
 5104SOL     OW16210   3.556   5.965   2.089
 5104SOL    HW116211   3.516   5.969   2.181
 5104SOL    HW216212   3.632   6.029   2.082
 5105SOL     OW16213   3.505   3.530   6.964
 5105SOL    HW116214   3.451   3.469   0.003
 5105SOL    HW216215   3.470   3.525   6.870
 5106SOL     OW16216   4.175   2.417   0.762
 5106SOL    HW116217   4.113   2.361   0.817
 5106SOL    HW216218   4.127   2.449   0.680
 5107SOL     OW16219   5.276   2.440   1.450
 5107SOL    HW116220   5.249   2.457   1.356
 5107SOL    HW216221   5.231   2.505   1.511
 5108SOL     OW16222   4.582   4.404   6.115
 5108SOL    HW116223   4.589   4.310   6.149
 5108SOL    HW216224   4.490   4.420   6.078
 5109SOL     OW16225   1.883   3.347   1.593
 5109SOL    HW116226   1.822   3.400   1.652
 5109SOL    HW216227   1.977   3.356   1.626
 5110SOL     OW16228   6.064   6.899   6.124
 5110SOL    HW116229   6.135   6.829   6.140
 5110SOL    HW216230   5.989   6.858   6.071
 5111SOL     OW16231   1.236   6.219   4.678
 5111SOL    HW116232   1.138   6.205   4.677
 5111SOL    HW216233   1.264   6.258   4.766
 5112SOL     OW16234   0.706   7.005   2.898
 5112SOL    HW116235   0.660   0.075   2.902
 5112SOL    HW216236   0.743   6.982   2.987
 5113SOL     OW16237   1.877   5.068   0.842
 5113SOL    HW116238   1.857   4.970   0.844
 5113SOL    HW216239   1.975   5.082   0.854
 5114SOL     OW16240   3.909   0.105   0.510
 5114SOL    HW116241   3.878   0.123   0.604
 5114SOL    HW216242   3.984   0.167   0.488
 5115SOL     OW16243   2.030   3.809   1.625
 5115SOL    HW116244   2.047   3.818   1.527
 5115SOL    HW216245   2.054   3.717   1.655
 5116SOL     OW16246   2.839   6.756   6.422
 5116SOL    HW116247   2.895   6.753   6.505
 5116SOL    HW216248   2.742   6.762   6.446
 5117SOL     OW16249   0.841   2.958   4.166
 5117SOL    HW116250   0.776   2.932   4.238
 5117SOL    HW216251   0.905   2.883   4.150
 5118SOL     OW16252   6.053   0.484   0.328
 5118SOL    HW116253   6.001   0.514   0.409
 5118SOL    HW216254   6.151   0.486   0.349
 5119SOL     OW16255   5.456   1.987   0.430
 5119SOL    HW116256   5.377   2.002   0.370
 5119SOL    HW216257   5.523   2.060   0.415
 5120SOL     OW16258   5.280   0.605   5.067
 5120SOL    HW116259   5.298   0.703   5.069
 5120SOL    HW216260   5.363   0.555   5.090
 5121SOL     OW16261   3.210   3.952   6.810
 5121SOL    HW116262   3.306   3.970   6.833
 5121SOL    HW216263   3.165   3.910   6.889
 5122SOL     OW16264   4.158   5.442   2.997
 5122SOL    HW116265   4.110   5.521   3.036
 5122SOL    HW216266   4.174   5.458   2.899
 5123SOL     OW16267   5.547   2.112   2.191
 5123SOL    HW116268   5.474   2.052   2.159
 5123SOL    HW216269   5.539   2.201   2.147
 5124SOL     OW16270   1.813   6.364   3.955
 5124SOL    HW116271   1.819   6.418   3.871
 5124SOL    HW216272   1.899   6.373   4.006
 5125SOL     OW16273   0.552   1.840   4.010
 5125SOL    HW116274   0.537   1.743   3.988
 5125SOL    HW216275   0.470   1.877   4.053
 5126SOL     OW16276   1.647   6.966   0.470
 5126SOL    HW116277   1.715   6.894   0.484
 5126SOL    HW216278   1.611   6.996   0.558
 5127SOL     OW16279   1.875   5.592   0.260
 5127SOL    HW116280   1.909   5.501   0.238
 5127SOL    HW216281   1.925   5.660   0.206
 5128SOL     OW16282   0.211   5.922   1.270
 5128SOL    HW116283   0.237   5.904   1.175
 5128SOL    HW216284   0.281   5.886   1.331
 5129SOL     OW16285   4.284   6.080   1.212
 5129SOL    HW116286   4.355   6.147   1.191
 5129SOL    HW216287   4.201   6.128   1.239
 5130SOL     OW16288   6.449   4.937   2.709
 5130SOL    HW116289   6.356   4.948   2.675
 5130SOL    HW216290   6.451   4.871   2.784
 5131SOL     OW16291   0.600   2.980   3.248
 5131SOL    HW116292   0.598   2.976   3.149
 5131SOL    HW216293   0.555   2.899   3.286
 5132SOL     OW16294   3.556   4.211   6.295
 5132SOL    HW116295   3.601   4.192   6.208
 5132SOL    HW216296   3.622   4.251   6.358
 5133SOL     OW16297   3.266   5.527   6.851
 5133SOL    HW116298   3.284   5.465   6.775
 5133SOL    HW216299   3.343   5.590   6.862
 5134SOL     OW16300   0.568   3.084   1.395
 5134SOL    HW116301   0.633   3.122   1.460
 5134SOL    HW216302   0.601   2.996   1.361
 5135SOL     OW16303   6.933   2.122   5.563
 5135SOL    HW116304   6.963   2.045   5.507
 5135SOL    HW216305   7.013   2.169   5.600
 5136SOL     OW16306   5.319   0.570   4.740
 5136SOL    HW116307   5.315   0.655   4.793
 5136SOL    HW216308   5.411   0.531   4.747
 5137SOL     OW16309   5.680   3.625   6.500
 5137SOL    HW116310   5.704   3.544   6.553
 5137SOL    HW216311   5.753   3.692   6.507
 5138SOL     OW16312   3.894   3.182   6.563
 5138SOL    HW116313   3.855   3.230   6.484
 5138SOL    HW216314   3.860   3.088   6.564
 5139SOL     OW16315   1.822   6.804   4.186
 5139SOL    HW116316   1.811   6.742   4.264
 5139SOL    HW216317   1.919   6.817   4.167
 5140SOL     OW16318   2.693   1.745   0.615
 5140SOL    HW116319   2.675   1.804   0.694
 5140SOL    HW216320   2.673   1.795   0.531
 5141SOL     OW16321   5.590   3.998   1.397
 5141SOL    HW116322   5.495   4.025   1.415
 5141SOL    HW216323   5.626   3.948   1.476
 5142SOL     OW16324   6.144   3.035   4.432
 5142SOL    HW116325   6.237   3.074   4.432
 5142SOL    HW216326   6.119   3.009   4.339
 5143SOL     OW16327   1.158   4.847   4.428
 5143SOL    HW116328   1.117   4.910   4.493
 5143SOL    HW216329   1.257   4.842   4.444
 5144SOL     OW16330   1.782   6.826   6.292
 5144SOL    HW116331   1.864   6.783   6.330
 5144SOL    HW216332   1.801   6.922   6.272
 5145SOL     OW16333   2.072   5.651   6.317
 5145SOL    HW116334   2.049   5.557   6.293
 5145SOL    HW216335   2.052   5.667   6.413
 5146SOL     OW16336   3.752   4.050   6.613
 5146SOL    HW116337   3.723   3.973   6.556
 5146SOL    HW216338   3.672   4.107   6.633
 5147SOL     OW16339   7.002   4.518   1.360
 5147SOL    HW116340   7.006   4.588   1.431
 5147SOL    HW216341   0.046   4.541   1.286
 5148SOL     OW16342   0.313   6.219   1.219
 5148SOL    HW116343   0.280   6.125   1.226
 5148SOL    HW216344   0.410   6.222   1.245
 5149SOL     OW16345   6.591   0.527   3.327
 5149SOL    HW116346   6.492   0.536   3.311
 5149SOL    HW216347   6.635   0.491   3.245
 5150SOL     OW16348   1.981   5.767   4.074
 5150SOL    HW116349   1.986   5.748   4.172
 5150SOL    HW216350   2.072   5.788   4.039
 5151SOL     OW16351   5.336   1.310   6.512
 5151SOL    HW116352   5.427   1.276   6.486
 5151SOL    HW216353   5.333   1.409   6.501
 5152SOL     OW16354   1.920   4.947   0.164
 5152SOL    HW116355   2.009   4.951   0.210
 5152SOL    HW216356   1.847   4.944   0.232
 5153SOL     OW16357   1.885   2.379   0.574
 5153SOL    HW116358   1.977   2.415   0.557
 5153SOL    HW216359   1.885   2.331   0.662
 5154SOL     OW16360   2.021   3.411   5.973
 5154SOL    HW116361   1.940   3.467   5.993
 5154SOL    HW216362   2.017   3.326   6.026
 5155SOL     OW16363   3.868   5.938   1.976
 5155SOL    HW116364   3.858   5.853   1.924
 5155SOL    HW216365   3.925   5.922   2.056
 5156SOL     OW16366   6.494   2.320   6.371
 5156SOL    HW116367   6.497   2.411   6.329
 5156SOL    HW216368   6.511   2.251   6.300
 5157SOL     OW16369   4.781   2.850   3.758
 5157SOL    HW116370   4.866   2.826   3.711
 5157SOL    HW216371   4.709   2.788   3.728
 5158SOL     OW16372   3.281   2.001   1.433
 5158SOL    HW116373   3.277   2.044   1.343
 5158SOL    HW216374   3.361   2.034   1.483
 5159SOL     OW16375   0.433   3.115   4.022
 5159SOL    HW116376   0.522   3.119   4.066
 5159SOL    HW216377   0.403   3.208   3.998
 5160SOL     OW16378   1.526   3.564   4.258
 5160SOL    HW116379   1.508   3.621   4.178
 5160SOL    HW216380   1.625   3.553   4.270
 5161SOL     OW16381   1.367   4.411   5.543
 5161SOL    HW116382   1.336   4.504   5.563
 5161SOL    HW216383   1.408   4.371   5.626
 5162SOL     OW16384   6.816   5.080   4.161
 5162SOL    HW116385   6.841   5.092   4.257
 5162SOL    HW216386   6.856   4.995   4.127
 5163SOL     OW16387   4.831   4.846   1.214
 5163SOL    HW116388   4.786   4.918   1.265
 5163SOL    HW216389   4.846   4.767   1.273
 5164SOL     OW16390   5.531   2.745   5.259
 5164SOL    HW116391   5.630   2.743   5.245
 5164SOL    HW216392   5.494   2.832   5.226
 5165SOL     OW16393   6.071   4.642   5.052
 5165SOL    HW116394   6.080   4.557   5.002
 5165SOL    HW216395   6.125   4.714   5.007
 5166SOL     OW16396   1.636   4.874   1.858
 5166SOL    HW116397   1.711   4.940   1.863
 5166SOL    HW216398   1.620   4.850   1.762
 5167SOL     OW16399   6.194   6.605   5.407
 5167SOL    HW116400   6.157   6.683   5.356
 5167SOL    HW216401   6.293   6.614   5.415
 5168SOL     OW16402   4.333   2.405   3.296
 5168SOL    HW116403   4.404   2.454   3.345
 5168SOL    HW216404   4.364   2.387   3.203
 5169SOL     OW16405   3.182   4.125   6.384
 5169SOL    HW116406   3.202   4.206   6.329
 5169SOL    HW216407   3.180   4.150   6.480
 5170SOL     OW16408   6.913   4.315   5.246
 5170SOL    HW116409   6.889   4.351   5.336
 5170SOL    HW216410   6.850   4.351   5.178
 5171SOL     OW16411   2.338   4.565   4.416
 5171SOL    HW116412   2.334   4.468   4.442
 5171SOL    HW216413   2.382   4.618   4.488
 5172SOL     OW16414   0.402   3.213   1.807
 5172SOL    HW116415   0.306   3.223   1.832
 5172SOL    HW216416   0.458   3.273   1.863
 5173SOL     OW16417   5.653   4.314   6.081
 5173SOL    HW116418   5.578   4.295   6.144
 5173SOL    HW216419   5.737   4.330   6.134
 5174SOL     OW16420   1.965   4.703   4.859
 5174SOL    HW116421   1.930   4.777   4.917
 5174SOL    HW216422   2.064   4.714   4.848
 5175SOL     OW16423   2.020   4.011   6.937
 5175SOL    HW116424   1.949   4.049   6.878
 5175SOL    HW216425   2.010   3.911   6.942
 5176SOL     OW16426   4.302   3.284   0.379
 5176SOL    HW116427   4.280   3.350   0.307
 5176SOL    HW216428   4.388   3.238   0.356
 5177SOL     OW16429   4.796   0.011   5.407
 5177SOL    HW116430   4.725   0.021   5.476
 5177SOL    HW216431   4.838   0.099   5.388
 5178SOL     OW16432   2.229   2.574   1.618
 5178SOL    HW116433   2.302   2.571   1.550
 5178SOL    HW216434   2.171   2.654   1.601
 5179SOL     OW16435   4.511   6.633   5.076
 5179SOL    HW116436   4.517   6.718   5.024
 5179SOL    HW216437   4.464   6.650   5.163
 5180SOL     OW16438   3.352   2.516   0.174
 5180SOL    HW116439   3.378   2.597   0.227
 5180SOL    HW216440   3.434   2.469   0.141
 5181SOL     OW16441   3.607   0.386   2.803
 5181SOL    HW116442   3.592   0.394   2.704
 5181SOL    HW216443   3.706   0.387   2.822
 5182SOL     OW16444   5.692   4.863   1.703
 5182SOL    HW116445   5.716   4.766   1.706
 5182SOL    HW216446   5.621   4.883   1.770
 5183SOL     OW16447   4.497   6.894   1.887
 5183SOL    HW116448   4.570   6.910   1.820
 5183SOL    HW216449   4.501   6.963   1.958
 5184SOL     OW16450   0.773   1.259   3.488
 5184SOL    HW116451   0.790   1.163   3.466
 5184SOL    HW216452   0.675   1.278   3.482
 5185SOL     OW16453   3.862   6.713   2.501
 5185SOL    HW116454   3.939   6.692   2.440
 5185SOL    HW216455   3.814   6.794   2.468
 5186SOL     OW16456   6.341   3.371   1.200
 5186SOL    HW116457   6.363   3.318   1.117
 5186SOL    HW216458   6.408   3.444   1.211
 5187SOL     OW16459   6.759   1.615   3.284
 5187SOL    HW116460   6.712   1.597   3.198
 5187SOL    HW216461   6.840   1.670   3.266
 5188SOL     OW16462   0.185   5.141   6.860
 5188SOL    HW116463   0.167   5.045   6.838
 5188SOL    HW216464   0.277   5.150   6.900
 5189SOL     OW16465   5.125   5.105   6.741
 5189SOL    HW116466   5.221   5.100   6.767
 5189SOL    HW216467   5.087   5.193   6.769
 5190SOL     OW16468   0.659   2.082   4.139
 5190SOL    HW116469   0.635   2.015   4.068
 5190SOL    HW216470   0.582   2.094   4.201
 5191SOL     OW16471   3.149   1.393   2.240
 5191SOL    HW116472   3.077   1.454   2.273
 5191SOL    HW216473   3.113   1.301   2.230
 5192SOL     OW16474   5.200   5.665   2.739
 5192SOL    HW116475   5.132   5.669   2.667
 5192SOL    HW216476   5.284   5.623   2.703
 5193SOL     OW16477   4.640   4.391   3.849
 5193SOL    HW116478   4.571   4.440   3.796
 5193SOL    HW216479   4.709   4.456   3.883
 5194SOL     OW16480   4.819   0.959   5.863
 5194SOL    HW116481   4.756   0.995   5.793
 5194SOL    HW216482   4.768   0.941   5.947
 5195SOL     OW16483   6.745   6.848   4.664
 5195SOL    HW116484   6.673   6.801   4.612
 5195SOL    HW216485   6.784   6.786   4.732
 5196SOL     OW16486   0.680   4.362   1.730
 5196SOL    HW116487   0.765   4.354   1.781
 5196SOL    HW216488   0.636   4.272   1.724
 5197SOL     OW16489   1.547   6.356   4.602
 5197SOL    HW116490   1.500   6.366   4.690
 5197SOL    HW216491   1.568   6.260   4.586
 5198SOL     OW16492   2.905   6.563   5.139
 5198SOL    HW116493   2.855   6.526   5.061
 5198SOL    HW216494   2.959   6.642   5.109
 5199SOL     OW16495   1.842   5.570   1.386
 5199SOL    HW116496   1.770   5.622   1.339
 5199SOL    HW216497   1.903   5.633   1.433
 5200SOL     OW16498   0.880   1.944   4.906
 5200SOL    HW116499   0.956   1.910   4.961
 5200SOL    HW216500   0.888   1.908   4.813
 5201SOL     OW16501   5.677   4.844   3.838
 5201SOL    HW116502   5.745   4.793   3.890
 5201SOL    HW216503   5.671   4.808   3.745
 5202SOL     OW16504   4.869   3.365   6.706
 5202SOL    HW116505   4.788   3.378   6.764
 5202SOL    HW216506   4.847   3.388   6.612
 5203SOL     OW16507   1.538   0.334   0.215
 5203SOL    HW116508   1.443   0.317   0.241
 5203SOL    HW216509   1.548   0.322   0.117
 5204SOL     OW16510   3.482   6.905   6.609
 5204SOL    HW116511   3.442   6.826   6.654
 5204SOL    HW216512   3.473   6.985   6.669
 5205SOL     OW16513   6.578   5.878   0.938
 5205SOL    HW116514   6.497   5.915   0.984
 5205SOL    HW216515   6.616   5.803   0.992
 5206SOL     OW16516   0.393   4.418   4.809
 5206SOL    HW116517   0.402   4.347   4.740
 5206SOL    HW216518   0.330   4.388   4.881
 5207SOL     OW16519   0.162   0.024   4.638
 5207SOL    HW116520   0.063   0.020   4.651
 5207SOL    HW216521   0.193   6.961   4.591
 5208SOL     OW16522   5.051   2.561   0.296
 5208SOL    HW116523   5.051   2.477   0.350
 5208SOL    HW216524   4.999   2.546   0.212
 5209SOL     OW16525   4.977   0.275   3.344
 5209SOL    HW116526   4.918   0.258   3.265
 5209SOL    HW216527   5.064   0.228   3.331
 5210SOL     OW16528   5.204   4.537   1.213
 5210SOL    HW116529   5.190   4.561   1.117
 5210SOL    HW216530   5.277   4.469   1.221
 5211SOL     OW16531   4.838   2.117   4.023
 5211SOL    HW116532   4.887   2.103   3.937
 5211SOL    HW216533   4.740   2.131   4.004
 5212SOL     OW16534   1.309   2.665   0.827
 5212SOL    HW116535   1.395   2.678   0.778
 5212SOL    HW216536   1.261   2.753   0.833
 5213SOL     OW16537   4.103   3.286   2.749
 5213SOL    HW116538   4.122   3.276   2.652
 5213SOL    HW216539   4.049   3.207   2.781
 5214SOL     OW16540   5.521   4.691   6.368
 5214SOL    HW116541   5.449   4.692   6.299
 5214SOL    HW216542   5.480   4.699   6.459
 5215SOL     OW16543   6.876   3.223   4.624
 5215SOL    HW116544   6.848   3.319   4.633
 5215SOL    HW216545   6.955   3.206   4.682
 5216SOL     OW16546   5.500   4.666   1.151
 5216SOL    HW116547   5.566   4.723   1.199
 5216SOL    HW216548   5.408   4.685   1.185
 5217SOL     OW16549   4.261   5.714   3.905
 5217SOL    HW116550   4.279   5.659   3.987
 5217SOL    HW216551   4.196   5.787   3.928
 5218SOL     OW16552   0.635   0.562   0.698
 5218SOL    HW116553   0.702   0.556   0.625
 5218SOL    HW216554   0.578   0.480   0.699
 5219SOL     OW16555   2.367   2.318   5.197
 5219SOL    HW116556   2.406   2.379   5.129
 5219SOL    HW216557   2.284   2.358   5.235
 5220SOL     OW16558   2.422   5.108   3.112
 5220SOL    HW116559   2.471   5.167   3.049
 5220SOL    HW216560   2.454   5.124   3.206
 5221SOL     OW16561   6.863   0.106   1.398
 5221SOL    HW116562   6.858   0.202   1.425
 5221SOL    HW216563   6.903   0.052   1.473
 5222SOL     OW16564   4.013   4.517   1.415
 5222SOL    HW116565   4.048   4.598   1.367
 5222SOL    HW216566   4.050   4.435   1.373
 5223SOL     OW16567   0.340   2.873   0.794
 5223SOL    HW116568   0.433   2.848   0.818
 5223SOL    HW216569   0.332   2.883   0.695
 5224SOL     OW16570   0.680   1.724   4.381
 5224SOL    HW116571   0.651   1.698   4.473
 5224SOL    HW216572   0.599   1.732   4.322
 5225SOL     OW16573   6.627   1.241   4.761
 5225SOL    HW116574   6.660   1.240   4.666
 5225SOL    HW216575   6.534   1.204   4.763
 5226SOL     OW16576   0.406   5.753   3.772
 5226SOL    HW116577   0.462   5.672   3.788
 5226SOL    HW216578   0.448   5.809   3.701
 5227SOL     OW16579   6.905   3.176   5.347
 5227SOL    HW116580   6.857   3.205   5.265
 5227SOL    HW216581   6.993   3.223   5.352
 5228SOL     OW16582   1.570   2.752   5.629
 5228SOL    HW116583   1.556   2.760   5.530
 5228SOL    HW216584   1.655   2.705   5.647
 5229SOL     OW16585   3.084   0.280   6.334
 5229SOL    HW116586   3.053   0.186   6.346
 5229SOL    HW216587   3.065   0.333   6.416
 5230SOL     OW16588   6.763   0.219   1.776
 5230SOL    HW116589   6.847   0.166   1.781
 5230SOL    HW216590   6.688   0.162   1.742
 5231SOL     OW16591   5.713   1.850   2.978
 5231SOL    HW116592   5.810   1.853   3.004
 5231SOL    HW216593   5.659   1.903   3.043
 5232SOL     OW16594   2.096   3.936   5.823
 5232SOL    HW116595   2.151   3.880   5.762
 5232SOL    HW216596   2.081   4.026   5.781
 5233SOL     OW16597   2.716   0.407   2.705
 5233SOL    HW116598   2.750   0.320   2.671
 5233SOL    HW216599   2.790   0.458   2.749
 5234SOL     OW16600   1.837   2.276   0.811
 5234SOL    HW116601   1.805   2.208   0.877
 5234SOL    HW216602   1.814   2.368   0.844
 5235SOL     OW16603   2.327   1.324   1.135
 5235SOL    HW116604   2.233   1.315   1.166
 5235SOL    HW216605   2.388   1.338   1.213
 5236SOL     OW16606   3.547   5.230   2.151
 5236SOL    HW116607   3.539   5.279   2.238
 5236SOL    HW216608   3.456   5.213   2.114
 5237SOL     OW16609   2.051   2.385   4.515
 5237SOL    HW116610   2.112   2.427   4.582
 5237SOL    HW216611   1.959   2.424   4.525
 5238SOL     OW16612   1.147   5.300   2.992
 5238SOL    HW116613   1.102   5.318   2.905
 5238SOL    HW216614   1.078   5.290   3.064
 5239SOL     OW16615   3.004   3.909   1.640
 5239SOL    HW116616   3.033   3.840   1.705
 5239SOL    HW216617   2.939   3.971   1.685
 5240SOL     OW16618   2.867   2.850   6.237
 5240SOL    HW116619   2.842   2.872   6.142
 5240SOL    HW216620   2.828   2.762   6.262
 5241SOL     OW16621   1.033   5.954   2.263
 5241SOL    HW116622   1.012   5.883   2.330
 5241SOL    HW216623   0.948   5.983   2.218
 5242SOL     OW16624   4.691   0.745   0.696
 5242SOL    HW116625   4.760   0.782   0.634
 5242SOL    HW216626   4.717   0.652   0.723
 5243SOL     OW16627   1.853   5.856   1.546
 5243SOL    HW116628   1.893   5.793   1.611
 5243SOL    HW216629   1.925   5.914   1.507
 5244SOL     OW16630   4.685   3.800   0.549
 5244SOL    HW116631   4.642   3.821   0.636
 5244SOL    HW216632   4.765   3.742   0.565
 5245SOL     OW16633   4.208   4.131   6.833
 5245SOL    HW116634   4.303   4.118   6.862
 5245SOL    HW216635   4.164   4.198   6.892
 5246SOL     OW16636   6.972   2.760   1.459
 5246SOL    HW116637   6.905   2.689   1.482
 5246SOL    HW216638   6.939   2.848   1.493
 5247SOL     OW16639   3.890   1.769   5.780
 5247SOL    HW116640   3.810   1.744   5.725
 5247SOL    HW216641   3.949   1.689   5.790
 5248SOL     OW16642   6.682   1.693   2.581
 5248SOL    HW116643   6.704   1.707   2.485
 5248SOL    HW216644   6.654   1.779   2.622
 5249SOL     OW16645   0.741   4.657   0.082
 5249SOL    HW116646   0.687   4.648   0.165
 5249SOL    HW216647   0.822   4.598   0.089
 5250SOL     OW16648   1.945   5.496   6.950
 5250SOL    HW116649   1.936   5.588   6.990
 5250SOL    HW216650   1.875   5.436   6.990
 5251SOL     OW16651   0.759   4.057   1.184
 5251SOL    HW116652   0.745   4.023   1.091
 5251SOL    HW216653   0.816   3.993   1.235
 5252SOL     OW16654   3.318   6.538   2.212
 5252SOL    HW116655   3.324   6.460   2.274
 5252SOL    HW216656   3.302   6.505   2.119
 5253SOL     OW16657   5.515   4.765   4.549
 5253SOL    HW116658   5.536   4.794   4.642
 5253SOL    HW216659   5.511   4.665   4.545
 5254SOL     OW16660   6.056   6.980   2.793
 5254SOL    HW116661   5.983   6.999   2.859
 5254SOL    HW216662   6.129   6.929   2.838
 5255SOL     OW16663   5.667   1.876   4.970
 5255SOL    HW116664   5.575   1.900   5.001
 5255SOL    HW216665   5.711   1.957   4.930
 5256SOL     OW16666   4.921   0.736   3.218
 5256SOL    HW116667   4.915   0.809   3.286
 5256SOL    HW216668   5.017   0.712   3.204
 5257SOL     OW16669   3.935   0.743   6.522
 5257SOL    HW116670   3.864   0.791   6.471
 5257SOL    HW216671   4.025   0.770   6.487
 5258SOL     OW16672   5.377   1.270   2.454
 5258SOL    HW116673   5.310   1.320   2.509
 5258SOL    HW216674   5.467   1.276   2.497
 5259SOL     OW16675   5.212   5.192   2.925
 5259SOL    HW116676   5.146   5.174   2.997
 5259SOL    HW216677   5.174   5.164   2.837
 5260SOL     OW16678   2.763   6.272   0.232
 5260SOL    HW116679   2.783   6.202   0.163
 5260SOL    HW216680   2.684   6.326   0.202
 5261SOL     OW16681   6.849   5.052   0.736
 5261SOL    HW116682   6.810   4.960   0.730
 5261SOL    HW216683   6.776   5.118   0.754
 5262SOL     OW16684   2.137   0.087   2.347
 5262SOL    HW116685   2.191   0.111   2.427
 5262SOL    HW216686   2.198   0.071   2.269
 5263SOL     OW16687   1.716   1.168   3.398
 5263SOL    HW116688   1.781   1.232   3.356
 5263SOL    HW216689   1.672   1.113   3.327
 5264SOL     OW16690   0.024   1.918   1.427
 5264SOL    HW116691   7.008   1.945   1.517
 5264SOL    HW216692   0.123   1.914   1.431
 5265SOL     OW16693   5.500   2.607   4.590
 5265SOL    HW116694   5.425   2.671   4.604
 5265SOL    HW216695   5.490   2.563   4.500
 5266SOL     OW16696   2.352   6.299   0.711
 5266SOL    HW116697   2.261   6.297   0.753
 5266SOL    HW216698   2.420   6.322   0.780
 5267SOL     OW16699   4.404   2.458   4.257
 5267SOL    HW116700   4.449   2.541   4.222
 5267SOL    HW216701   4.397   2.464   4.357
 5268SOL     OW16702   5.567   1.443   6.702
 5268SOL    HW116703   5.562   1.349   6.670
 5268SOL    HW216704   5.652   1.485   6.669
 5269SOL     OW16705   0.273   6.703   2.380
 5269SOL    HW116706   0.297   6.711   2.283
 5269SOL    HW216707   0.354   6.718   2.436
 5270SOL     OW16708   6.572   1.972   0.184
 5270SOL    HW116709   6.608   1.908   0.116
 5270SOL    HW216710   6.521   1.922   0.254
 5271SOL     OW16711   6.055   5.688   4.434
 5271SOL    HW116712   6.141   5.645   4.462
 5271SOL    HW216713   5.978   5.632   4.466
 5272SOL     OW16714   3.866   0.003   0.258
 5272SOL    HW116715   3.886   0.026   0.353
 5272SOL    HW216716   3.920   6.943   0.231
 5273SOL     OW16717   0.993   3.364   3.005
 5273SOL    HW116718   0.931   3.440   2.987
 5273SOL    HW216719   0.974   3.290   2.941
 5274SOL     OW16720   4.842   6.447   2.283
 5274SOL    HW116721   4.859   6.440   2.185
 5274SOL    HW216722   4.787   6.369   2.313
 5275SOL     OW16723   3.166   0.667   0.726
 5275SOL    HW116724   3.189   0.738   0.792
 5275SOL    HW216725   3.167   0.706   0.634
 5276SOL     OW16726   2.660   6.578   1.682
 5276SOL    HW116727   2.635   6.642   1.755
 5276SOL    HW216728   2.720   6.507   1.719
 5277SOL     OW16729   2.089   1.087   2.441
 5277SOL    HW116730   2.031   1.157   2.483
 5277SOL    HW216731   2.172   1.076   2.495
 5278SOL     OW16732   4.031   4.958   2.390
 5278SOL    HW116733   4.036   5.055   2.415
 5278SOL    HW216734   4.087   4.905   2.454
 5279SOL     OW16735   2.384   5.586   1.344
 5279SOL    HW116736   2.481   5.609   1.341
 5279SOL    HW216737   2.339   5.643   1.413
 5280SOL     OW16738   3.334   6.223   4.897
 5280SOL    HW116739   3.405   6.262   4.839
 5280SOL    HW216740   3.266   6.293   4.919
 5281SOL     OW16741   0.325   1.978   2.609
 5281SOL    HW116742   0.395   2.033   2.565
 5281SOL    HW216743   0.356   1.883   2.614
 5282SOL     OW16744   2.650   2.054   3.316
 5282SOL    HW116745   2.564   2.044   3.367
 5282SOL    HW216746   2.682   2.149   3.323
 5283SOL     OW16747   5.214   5.468   0.793
 5283SOL    HW116748   5.182   5.547   0.845
 5283SOL    HW216749   5.137   5.430   0.741
 5284SOL     OW16750   5.322   3.699   3.271
 5284SOL    HW116751   5.270   3.718   3.354
 5284SOL    HW216752   5.318   3.601   3.251
 5285SOL     OW16753   3.085   5.143   3.956
 5285SOL    HW116754   3.138   5.207   3.900
 5285SOL    HW216755   3.027   5.195   4.020
 5286SOL     OW16756   1.511   4.394   1.362
 5286SOL    HW116757   1.416   4.403   1.391
 5286SOL    HW216758   1.515   4.362   1.268
 5287SOL     OW16759   2.488   1.279   0.388
 5287SOL    HW116760   2.430   1.285   0.469
 5287SOL    HW216761   2.584   1.269   0.416
 5288SOL     OW16762   2.924   0.296   1.080
 5288SOL    HW116763   2.866   0.215   1.069
 5288SOL    HW216764   2.929   0.346   0.993
 5289SOL     OW16765   1.031   5.272   0.999
 5289SOL    HW116766   1.019   5.213   1.080
 5289SOL    HW216767   0.942   5.290   0.958
 5290SOL     OW16768   3.549   5.766   0.148
 5290SOL    HW116769   3.538   5.677   0.194
 5290SOL    HW216770   3.474   5.827   0.176
 5291SOL     OW16771   2.234   4.980   5.515
 5291SOL    HW116772   2.140   4.956   5.490
 5291SOL    HW216773   2.254   5.074   5.487
 5292SOL     OW16774   5.231   3.241   6.214
 5292SOL    HW116775   5.324   3.273   6.192
 5292SOL    HW216776   5.209   3.269   6.308
 5293SOL     OW16777   0.586   0.216   4.109
 5293SOL    HW116778   0.542   0.171   4.186
 5293SOL    HW216779   0.592   0.314   4.127
 5294SOL     OW16780   6.036   3.209   6.219
 5294SOL    HW116781   6.110   3.153   6.256
 5294SOL    HW216782   5.963   3.151   6.186
 5295SOL     OW16783   5.894   0.641   2.877
 5295SOL    HW116784   5.957   0.580   2.924
 5295SOL    HW216785   5.912   0.736   2.903
 5296SOL     OW16786   1.404   4.705   0.865
 5296SOL    HW116787   1.382   4.759   0.784
 5296SOL    HW216788   1.322   4.696   0.922
 5297SOL     OW16789   1.867   1.232   1.396
 5297SOL    HW116790   1.807   1.208   1.472
 5297SOL    HW216791   1.955   1.186   1.408
 5298SOL     OW16792   6.736   4.961   1.046
 5298SOL    HW116793   6.739   4.900   1.126
 5298SOL    HW216794   6.745   4.907   0.963
 5299SOL     OW16795   2.873   0.879   1.800
 5299SOL    HW116796   2.788   0.923   1.769
 5299SOL    HW216797   2.907   0.928   1.881
 5300SOL     OW16798   0.132   6.138   3.871
 5300SOL    HW116799   0.224   6.157   3.906
 5300SOL    HW216800   0.139   6.095   3.781
 5301SOL     OW16801   4.477   1.332   6.753
 5301SOL    HW116802   4.403   1.345   6.686
 5301SOL    HW216803   4.510   1.238   6.748
 5302SOL     OW16804   6.217   4.681   2.772
 5302SOL    HW116805   6.257   4.603   2.820
 5302SOL    HW216806   6.178   4.745   2.838
 5303SOL     OW16807   6.000   4.043   3.703
 5303SOL    HW116808   5.998   3.946   3.680
 5303SOL    HW216809   6.034   4.055   3.796
 5304SOL     OW16810   4.930   1.481   5.502
 5304SOL    HW116811   4.989   1.518   5.430
 5304SOL    HW216812   4.982   1.470   5.586
 5305SOL     OW16813   2.768   0.919   3.295
 5305SOL    HW116814   2.805   0.885   3.381
 5305SOL    HW216815   2.668   0.924   3.302
 5306SOL     OW16816   3.256   6.710   5.993
 5306SOL    HW116817   3.231   6.684   6.086
 5306SOL    HW216818   3.189   6.674   5.928
 5307SOL     OW16819   4.568   6.968   6.545
 5307SOL    HW116820   4.572   6.912   6.628
 5307SOL    HW216821   4.569   6.909   6.465
 5308SOL     OW16822   0.074   1.240   3.392
 5308SOL    HW116823   0.055   1.282   3.303
 5308SOL    HW216824   0.155   1.182   3.384
 5309SOL     OW16825   3.676   3.962   3.353
 5309SOL    HW116826   3.613   3.985   3.427
 5309SOL    HW216827   3.768   3.952   3.390
 5310SOL     OW16828   5.289   2.047   1.499
 5310SOL    HW116829   5.360   1.987   1.535
 5310SOL    HW216830   5.270   2.119   1.566
 5311SOL     OW16831   1.937   5.440   6.687
 5311SOL    HW116832   1.855   5.390   6.659
 5311SOL    HW216833   1.948   5.433   6.786
 5312SOL     OW16834   0.732   3.867   3.244
 5312SOL    HW116835   0.745   3.949   3.300
 5312SOL    HW216836   0.819   3.818   3.237
 5313SOL     OW16837   0.925   5.675   6.550
 5313SOL    HW116838   1.011   5.722   6.570
 5313SOL    HW216839   0.850   5.742   6.546
 5314SOL     OW16840   4.065   5.272   0.156
 5314SOL    HW116841   4.104   5.293   0.066
 5314SOL    HW216842   4.134   5.288   0.226
 5315SOL     OW16843   5.841   2.956   1.796
 5315SOL    HW116844   5.744   2.939   1.781
 5315SOL    HW216845   5.872   3.032   1.739
 5316SOL     OW16846   6.730   4.424   3.814
 5316SOL    HW116847   6.747   4.353   3.882
 5316SOL    HW216848   6.674   4.496   3.855
 5317SOL     OW16849   5.243   6.668   2.604
 5317SOL    HW116850   5.262   6.754   2.652
 5317SOL    HW216851   5.287   6.669   2.515
 5318SOL     OW16852   0.550   2.723   4.229
 5318SOL    HW116853   0.627   2.667   4.260
 5318SOL    HW216854   0.541   2.803   4.289
 5319SOL     OW16855   4.997   0.360   0.384
 5319SOL    HW116856   5.043   0.448   0.376
 5319SOL    HW216857   4.901   0.374   0.409
 5320SOL     OW16858   5.773   3.921   6.312
 5320SOL    HW116859   5.780   3.874   6.224
 5320SOL    HW216860   5.825   4.006   6.309
 5321SOL     OW16861   1.816   5.355   5.826
 5321SOL    HW116862   1.809   5.347   5.926
 5321SOL    HW216863   1.727   5.377   5.788
 5322SOL     OW16864   2.990   5.503   6.818
 5322SOL    HW116865   2.988   5.453   6.731
 5322SOL    HW216866   3.077   5.485   6.864
 5323SOL     OW16867   4.938   2.064   0.761
 5323SOL    HW116868   4.896   1.981   0.799
 5323SOL    HW216869   5.037   2.059   0.771
 5324SOL     OW16870   3.828   2.742   1.694
 5324SOL    HW116871   3.913   2.792   1.713
 5324SOL    HW216872   3.767   2.748   1.772
 5325SOL     OW16873   5.496   6.446   2.448
 5325SOL    HW116874   5.407   6.419   2.485
 5325SOL    HW216875   5.550   6.491   2.519
 5326SOL     OW16876   6.909   6.132   1.349
 5326SOL    HW116877   6.973   6.208   1.343
 5326SOL    HW216878   6.927   6.068   1.274
 5327SOL     OW16879   6.380   6.942   4.188
 5327SOL    HW116880   6.372   6.924   4.090
 5327SOL    HW216881   6.439   0.002   4.202
 5328SOL     OW16882   3.963   4.293   0.350
 5328SOL    HW116883   3.915   4.240   0.280
 5328SOL    HW216884   4.029   4.235   0.397
 5329SOL     OW16885   0.167   4.573   0.537
 5329SOL    HW116886   0.157   4.664   0.578
 5329SOL    HW216887   0.117   4.506   0.592
 5330SOL     OW16888   4.138   3.912   1.391
 5330SOL    HW116889   4.043   3.921   1.363
 5330SOL    HW216890   4.174   4.002   1.417
 5331SOL     OW16891   4.585   2.842   0.407
 5331SOL    HW116892   4.519   2.900   0.360
 5331SOL    HW216893   4.669   2.837   0.354
 5332SOL     OW16894   5.987   3.886   0.585
 5332SOL    HW116895   5.922   3.936   0.643
 5332SOL    HW216896   6.073   3.935   0.581
 5333SOL     OW16897   2.180   0.987   3.538
 5333SOL    HW116898   2.248   0.936   3.590
 5333SOL    HW216899   2.089   0.972   3.578
 5334SOL     OW16900   4.324   4.607   2.601
 5334SOL    HW116901   4.280   4.598   2.512
 5334SOL    HW216902   4.416   4.568   2.597
 5335SOL     OW16903   0.050   4.723   1.818
 5335SOL    HW116904   0.132   4.752   1.867
 5335SOL    HW216905   7.007   4.801   1.809
 5336SOL     OW16906   1.762   1.973   4.322
 5336SOL    HW116907   1.778   2.031   4.242
 5336SOL    HW216908   1.692   1.906   4.302
 5337SOL     OW16909   6.792   4.483   1.195
 5337SOL    HW116910   6.872   4.488   1.255
 5337SOL    HW216911   6.730   4.413   1.230
 5338SOL     OW16912   6.816   3.528   0.760
 5338SOL    HW116913   6.827   3.573   0.671
 5338SOL    HW216914   6.842   3.432   0.752
 5339SOL     OW16915   6.112   2.762   2.554
 5339SOL    HW116916   6.026   2.731   2.513
 5339SOL    HW216917   6.179   2.688   2.549
 5340SOL     OW16918   5.647   2.588   2.498
 5340SOL    HW116919   5.628   2.503   2.449
 5340SOL    HW216920   5.680   2.567   2.590
 5341SOL     OW16921   4.624   5.396   3.262
 5341SOL    HW116922   4.543   5.373   3.208
 5341SOL    HW216923   4.642   5.323   3.328
 5342SOL     OW16924   6.205   6.645   4.372
 5342SOL    HW116925   6.276   6.587   4.412
 5342SOL    HW216926   6.115   6.615   4.404
 5343SOL     OW16927   4.075   3.667   5.697
 5343SOL    HW116928   4.133   3.746   5.715
 5343SOL    HW216929   4.040   3.671   5.603
 5344SOL     OW16930   0.753   1.630   6.095
 5344SOL    HW116931   0.849   1.603   6.101
 5344SOL    HW216932   0.703   1.595   6.174
 5345SOL     OW16933   5.684   1.975   0.054
 5345SOL    HW116934   5.674   1.911   6.998
 5345SOL    HW216935   5.705   1.925   0.138
 5346SOL     OW16936   3.079   5.439   3.729
 5346SOL    HW116937   3.123   5.352   3.707
 5346SOL    HW216938   2.980   5.426   3.735
 5347SOL     OW16939   6.239   2.011   4.183
 5347SOL    HW116940   6.334   2.021   4.153
 5347SOL    HW216941   6.179   2.018   4.104
 5348SOL     OW16942   5.496   1.811   3.603
 5348SOL    HW116943   5.581   1.840   3.558
 5348SOL    HW216944   5.518   1.766   3.689
 5349SOL     OW16945   0.257   3.464   2.541
 5349SOL    HW116946   0.233   3.507   2.454
 5349SOL    HW216947   0.185   3.480   2.608
 5350SOL     OW16948   2.083   6.428   6.332
 5350SOL    HW116949   2.134   6.486   6.395
 5350SOL    HW216950   2.101   6.332   6.353
 5351SOL     OW16951   0.262   5.201   1.798
 5351SOL    HW116952   0.309   5.140   1.734
 5351SOL    HW216953   0.275   5.168   1.891
 5352SOL     OW16954   2.123   3.590   4.324
 5352SOL    HW116955   2.086   3.508   4.281
 5352SOL    HW216956   2.133   3.574   4.423
 5353SOL     OW16957   4.422   5.869   3.323
 5353SOL    HW116958   4.478   5.793   3.291
 5353SOL    HW216959   4.339   5.834   3.366
 5354SOL     OW16960   3.887   5.577   0.350
 5354SOL    HW116961   3.963   5.545   0.407
 5354SOL    HW216962   3.918   5.653   0.293
 5355SOL     OW16963   4.922   4.906   5.153
 5355SOL    HW116964   4.937   5.005   5.146
 5355SOL    HW216965   4.846   4.889   5.216
 5356SOL     OW16966   0.006   4.981   1.689
 5356SOL    HW116967   6.976   5.020   1.611
 5356SOL    HW216968   0.031   5.053   1.753
 5357SOL     OW16969   5.143   4.312   2.411
 5357SOL    HW116970   5.085   4.392   2.425
 5357SOL    HW216971   5.162   4.269   2.499
 5358SOL     OW16972   4.809   2.183   0.532
 5358SOL    HW116973   4.732   2.246   0.528
 5358SOL    HW216974   4.826   2.156   0.626
 5359SOL     OW16975   2.338   1.991   6.229
 5359SOL    HW116976   2.403   1.956   6.161
 5359SOL    HW216977   2.370   2.079   6.263
 5360SOL     OW16978   5.012   4.637   3.146
 5360SOL    HW116979   4.967   4.561   3.193
 5360SOL    HW216980   4.957   4.720   3.155
 5361SOL     OW16981   2.575   5.859   2.512
 5361SOL    HW116982   2.591   5.825   2.419
 5361SOL    HW216983   2.493   5.916   2.513
 5362SOL     OW16984   5.924   0.731   1.611
 5362SOL    HW116985   6.005   0.680   1.640
 5362SOL    HW216986   5.913   0.812   1.668
 5363SOL     OW16987   5.858   5.246   4.655
 5363SOL    HW116988   5.762   5.219   4.662
 5363SOL    HW216989   5.900   5.245   4.745
 5364SOL     OW16990   4.805   1.305   2.598
 5364SOL    HW116991   4.767   1.215   2.575
 5364SOL    HW216992   4.789   1.324   2.695
 5365SOL     OW16993   3.412   2.911   4.500
 5365SOL    HW116994   3.334   2.964   4.467
 5365SOL    HW216995   3.432   2.837   4.436
 5366SOL     OW16996   6.188   6.208   1.988
 5366SOL    HW116997   6.120   6.136   2.003
 5366SOL    HW216998   6.274   6.181   2.033
 5367SOL     OW16999   6.118   6.154   1.516
 5367SOL    HW117000   6.204   6.121   1.476
 5367SOL    HW217001   6.051   6.080   1.514
 5368SOL     OW17002   6.813   5.615   3.908
 5368SOL    HW117003   6.911   5.610   3.893
 5368SOL    HW217004   6.775   5.691   3.855
 5369SOL     OW17005   2.541   6.082   2.088
 5369SOL    HW117006   2.472   6.075   2.015
 5369SOL    HW217007   2.522   6.013   2.158
 5370SOL     OW17008   2.694   3.646   1.750
 5370SOL    HW117009   2.790   3.672   1.740
 5370SOL    HW217010   2.688   3.552   1.783
 5371SOL     OW17011   6.099   5.289   4.843
 5371SOL    HW117012   6.059   5.213   4.893
 5371SOL    HW217013   6.039   5.369   4.851
 5372SOL     OW17014   0.652   0.239   2.916
 5372SOL    HW117015   0.634   0.279   3.006
 5372SOL    HW217016   0.669   0.311   2.850
 5373SOL     OW17017   3.088   0.561   6.678
 5373SOL    HW117018   3.072   0.649   6.722
 5373SOL    HW217019   3.004   0.530   6.635
 5374SOL     OW17020   2.747   4.971   1.909
 5374SOL    HW117021   2.757   4.931   1.818
 5374SOL    HW217022   2.826   4.948   1.965
 5375SOL     OW17023   1.258   5.049   4.775
 5375SOL    HW117024   1.283   5.129   4.830
 5375SOL    HW217025   1.339   5.013   4.730
 5376SOL     OW17026   6.943   1.403   6.394
 5376SOL    HW117027   0.011   1.366   6.424
 5376SOL    HW217028   6.925   1.375   6.300
 5377SOL     OW17029   2.309   0.618   3.160
 5377SOL    HW117030   2.211   0.634   3.168
 5377SOL    HW217031   2.332   0.597   3.065
 5378SOL     OW17032   5.804   0.824   2.204
 5378SOL    HW117033   5.759   0.777   2.127
 5378SOL    HW217034   5.864   0.761   2.252
 5379SOL     OW17035   1.559   2.739   6.047
 5379SOL    HW117036   1.593   2.680   5.974
 5379SOL    HW217037   1.636   2.774   6.101
 5380SOL     OW17038   4.701   6.609   1.161
 5380SOL    HW117039   4.688   6.543   1.235
 5380SOL    HW217040   4.685   6.702   1.195
 5381SOL     OW17041   4.569   6.450   3.741
 5381SOL    HW117042   4.518   6.519   3.690
 5381SOL    HW217043   4.600   6.488   3.828
 5382SOL     OW17044   4.194   1.912   1.831
 5382SOL    HW117045   4.158   1.905   1.924
 5382SOL    HW217046   4.251   1.995   1.824
 5383SOL     OW17047   2.426   2.545   4.442
 5383SOL    HW117048   2.376   2.628   4.467
 5383SOL    HW217049   2.491   2.565   4.370
 5384SOL     OW17050   5.668   5.447   4.888
 5384SOL    HW117051   5.621   5.457   4.800
 5384SOL    HW217052   5.603   5.421   4.959
 5385SOL     OW17053   4.813   2.656   5.978
 5385SOL    HW117054   4.851   2.717   5.908
 5385SOL    HW217055   4.839   2.689   6.069
 5386SOL     OW17056   6.050   4.080   3.974
 5386SOL    HW117057   6.118   4.021   4.017
 5386SOL    HW217058   6.058   4.173   4.011
 5387SOL     OW17059   1.443   1.331   2.489
 5387SOL    HW117060   1.448   1.234   2.463
 5387SOL    HW217061   1.364   1.345   2.548
 5388SOL     OW17062   1.062   6.848   1.980
 5388SOL    HW117063   1.142   6.884   2.028
 5388SOL    HW217064   1.053   6.895   1.891
 5389SOL     OW17065   3.995   1.624   4.090
 5389SOL    HW117066   3.988   1.526   4.108
 5389SOL    HW217067   3.937   1.647   4.011
 5390SOL     OW17068   6.812   2.927   4.054
 5390SOL    HW117069   6.815   2.840   4.104
 5390SOL    HW217070   6.750   2.990   4.101
 5391SOL     OW17071   2.217   3.081   0.530
 5391SOL    HW117072   2.219   3.161   0.590
 5391SOL    HW217073   2.169   3.104   0.445
 5392SOL     OW17074   5.802   2.264   3.607
 5392SOL    HW117075   5.819   2.196   3.677
 5392SOL    HW217076   5.777   2.219   3.521
 5393SOL     OW17077   3.662   1.959   5.547
 5393SOL    HW117078   3.587   1.956   5.481
 5393SOL    HW217079   3.689   1.865   5.570
 5394SOL     OW17080   1.257   1.285   0.943
 5394SOL    HW117081   1.219   1.195   0.963
 5394SOL    HW217082   1.230   1.312   0.850
 5395SOL     OW17083   6.437   1.489   0.957
 5395SOL    HW117084   6.365   1.540   0.910
 5395SOL    HW217085   6.455   1.531   1.046
 5396SOL     OW17086   5.128   5.665   3.002
 5396SOL    HW117087   5.134   5.657   2.903
 5396SOL    HW217088   5.212   5.628   3.044
 5397SOL     OW17089   0.126   1.284   2.636
 5397SOL    HW117090   0.072   1.227   2.574
 5397SOL    HW217091   0.128   1.378   2.601
 5398SOL     OW17092   5.215   1.780   3.504
 5398SOL    HW117093   5.148   1.854   3.502
 5398SOL    HW217094   5.297   1.810   3.552
 5399SOL     OW17095   2.588   0.720   6.213
 5399SOL    HW117096   2.542   0.694   6.128
 5399SOL    HW217097   2.538   0.795   6.256
 5400SOL     OW17098   4.054   3.225   1.522
 5400SOL    HW117099   3.986   3.259   1.588
 5400SOL    HW217100   4.145   3.255   1.549
 5401SOL     OW17101   5.716   3.927   1.632
 5401SOL    HW117102   5.795   3.868   1.651
 5401SOL    HW217103   5.658   3.932   1.714
 5402SOL     OW17104   1.334   6.939   1.433
 5402SOL    HW117105   1.324   0.018   1.447
 5402SOL    HW217106   1.305   6.915   1.341
 5403SOL     OW17107   5.384   2.949   6.982
 5403SOL    HW117108   5.415   2.857   6.960
 5403SOL    HW217109   5.287   2.947   7.007
 5404SOL     OW17110   6.828   0.976   0.884
 5404SOL    HW117111   6.782   1.008   0.802
 5404SOL    HW217112   6.879   1.052   0.925
 5405SOL     OW17113   5.528   6.157   6.618
 5405SOL    HW117114   5.606   6.122   6.566
 5405SOL    HW217115   5.560   6.193   6.706
 5406SOL     OW17116   2.995   0.176   3.913
 5406SOL    HW117117   2.981   0.270   3.883
 5406SOL    HW217118   3.043   0.125   3.841
 5407SOL     OW17119   1.749   6.831   2.369
 5407SOL    HW117120   1.846   6.847   2.388
 5407SOL    HW217121   1.735   6.733   2.352
 5408SOL     OW17122   3.393   1.868   4.446
 5408SOL    HW117123   3.492   1.863   4.457
 5408SOL    HW217124   3.354   1.776   4.448
 5409SOL     OW17125   1.350   2.922   0.889
 5409SOL    HW117126   1.297   2.975   0.823
 5409SOL    HW217127   1.448   2.929   0.867
 5410SOL     OW17128   0.967   2.266   0.086
 5410SOL    HW117129   0.899   2.246   0.156
 5410SOL    HW217130   1.054   2.221   0.109
 5411SOL     OW17131   3.731   4.711   6.608
 5411SOL    HW117132   3.777   4.734   6.693
 5411SOL    HW217133   3.732   4.789   6.546
 5412SOL     OW17134   6.899   2.463   5.863
 5412SOL    HW117135   6.982   2.410   5.876
 5412SOL    HW217136   6.893   2.534   5.934
 5413SOL     OW17137   0.330   6.800   4.573
 5413SOL    HW117138   0.353   6.806   4.670
 5413SOL    HW217139   0.233   6.780   4.562
 5414SOL     OW17140   5.727   3.656   5.150
 5414SOL    HW117141   5.801   3.680   5.213
 5414SOL    HW217142   5.696   3.563   5.168
 5415SOL     OW17143   3.601   0.320   6.801
 5415SOL    HW117144   3.627   0.227   6.827
 5415SOL    HW217145   3.565   0.320   6.708
 5416SOL     OW17146   3.180   5.587   6.318
 5416SOL    HW117147   3.227   5.519   6.374
 5416SOL    HW217148   3.180   5.675   6.366
 5417SOL     OW17149   4.856   6.127   3.521
 5417SOL    HW117150   4.922   6.063   3.481
 5417SOL    HW217151   4.885   6.151   3.614
 5418SOL     OW17152   6.381   3.944   4.499
 5418SOL    HW117153   6.392   3.928   4.598
 5418SOL    HW217154   6.467   3.927   4.453
 5419SOL     OW17155   4.297   6.974   6.367
 5419SOL    HW117156   4.385   6.994   6.410
 5419SOL    HW217157   4.246   0.039   6.354
 5420SOL     OW17158   0.979   0.978   1.809
 5420SOL    HW117159   0.963   0.956   1.905
 5420SOL    HW217160   0.893   0.967   1.757
 5421SOL     OW17161   3.623   4.974   2.184
 5421SOL    HW117162   3.646   5.066   2.152
 5421SOL    HW217163   3.624   4.910   2.106
 5422SOL     OW17164   2.475   5.776   3.953
 5422SOL    HW117165   2.529   5.699   3.920
 5422SOL    HW217166   2.527   5.861   3.942
 5423SOL     OW17167   5.740   5.772   2.068
 5423SOL    HW117168   5.655   5.734   2.105
 5423SOL    HW217169   5.719   5.854   2.015
 5424SOL     OW17170   4.474   3.807   5.626
 5424SOL    HW117171   4.525   3.840   5.547
 5424SOL    HW217172   4.470   3.707   5.623
 5425SOL     OW17173   1.219   3.796   5.765
 5425SOL    HW117174   1.187   3.888   5.743
 5425SOL    HW217175   1.145   3.745   5.808
 5426SOL     OW17176   5.325   5.274   2.060
 5426SOL    HW117177   5.371   5.264   1.972
 5426SOL    HW217178   5.378   5.227   2.131
 5427SOL     OW17179   4.844   2.742   6.253
 5427SOL    HW117180   4.774   2.676   6.280
 5427SOL    HW217181   4.922   2.733   6.315
 5428SOL     OW17182   6.499   5.410   3.374
 5428SOL    HW117183   6.468   5.330   3.424
 5428SOL    HW217184   6.485   5.492   3.430
 5429SOL     OW17185   3.329   0.039   4.317
 5429SOL    HW117186   3.405   0.025   4.253
 5429SOL    HW217187   3.252   0.080   4.269
 5430SOL     OW17188   2.927   4.185   5.937
 5430SOL    HW117189   2.955   4.166   6.031
 5430SOL    HW217190   2.950   4.107   5.879
 5431SOL     OW17191   3.265   4.701   6.313
 5431SOL    HW117192   3.263   4.682   6.411
 5431SOL    HW217193   3.324   4.634   6.267
 5432SOL     OW17194   5.519   5.346   0.018
 5432SOL    HW117195   5.426   5.329   0.051
 5432SOL    HW217196   5.534   5.297   6.951
 5433SOL     OW17197   1.820   0.304   1.056
 5433SOL    HW117198   1.759   0.382   1.044
 5433SOL    HW217199   1.819   0.276   1.152
 5434SOL     OW17200   5.554   0.456   4.796
 5434SOL    HW117201   5.642   0.438   4.751
 5434SOL    HW217202   5.568   0.517   4.874
 5435SOL     OW17203   6.985   4.099   1.006
 5435SOL    HW117204   7.014   4.194   1.018
 5435SOL    HW217205   7.018   4.065   0.918
 5436SOL     OW17206   1.174   4.421   3.108
 5436SOL    HW117207   1.151   4.439   3.203
 5436SOL    HW217208   1.099   4.372   3.064
 5437SOL     OW17209   3.776   6.222   1.505
 5437SOL    HW117210   3.782   6.321   1.515
 5437SOL    HW217211   3.769   6.199   1.408
 5438SOL     OW17212   4.966   4.746   2.403
 5438SOL    HW117213   4.958   4.665   2.345
 5438SOL    HW217214   4.992   4.718   2.496
 5439SOL     OW17215   1.287   5.277   1.557
 5439SOL    HW117216   1.211   5.330   1.594
 5439SOL    HW217217   1.351   5.253   1.630
 5440SOL     OW17218   6.062   5.927   3.313
 5440SOL    HW117219   6.105   5.837   3.318
 5440SOL    HW217220   6.108   5.983   3.243
 5441SOL     OW17221   4.851   2.965   3.274
 5441SOL    HW117222   4.881   2.870   3.272
 5441SOL    HW217223   4.861   3.002   3.366
 5442SOL     OW17224   4.392   6.602   5.365
 5442SOL    HW117225   4.300   6.639   5.377
 5442SOL    HW217226   4.456   6.652   5.423
 5443SOL     OW17227   4.256   0.499   4.400
 5443SOL    HW117228   4.349   0.474   4.375
 5443SOL    HW217229   4.234   0.589   4.364
 5444SOL     OW17230   5.753   1.351   4.936
 5444SOL    HW117231   5.780   1.376   4.842
 5444SOL    HW217232   5.790   1.419   4.999
 5445SOL     OW17233   5.861   5.163   5.669
 5445SOL    HW117234   5.768   5.183   5.639
 5445SOL    HW217235   5.897   5.084   5.619
 5446SOL     OW17236   0.540   4.529   6.040
 5446SOL    HW117237   0.568   4.590   5.966
 5446SOL    HW217238   0.559   4.572   6.128
 5447SOL     OW17239   1.039   1.669   0.531
 5447SOL    HW117240   0.945   1.704   0.522
 5447SOL    HW217241   1.101   1.745   0.552
 5448SOL     OW17242   4.435   5.375   3.058
 5448SOL    HW117243   4.351   5.427   3.040
 5448SOL    HW217244   4.460   5.324   2.976
 5449SOL     OW17245   2.651   1.890   1.441
 5449SOL    HW117246   2.699   1.845   1.517
 5449SOL    HW217247   2.658   1.833   1.359
 5450SOL     OW17248   4.056   5.471   1.608
 5450SOL    HW117249   4.066   5.543   1.539
 5450SOL    HW217250   4.026   5.386   1.564
 5451SOL     OW17251   0.446   6.947   3.510
 5451SOL    HW117252   0.509   7.012   3.553
 5451SOL    HW217253   0.485   6.912   3.425
 5452SOL     OW17254   2.146   4.482   2.129
 5452SOL    HW117255   2.240   4.471   2.160
 5452SOL    HW217256   2.097   4.541   2.193
 5453SOL     OW17257   5.872   4.191   3.192
 5453SOL    HW117258   5.826   4.176   3.105
 5453SOL    HW217259   5.916   4.281   3.192
 5454SOL     OW17260   5.481   5.412   3.251
 5454SOL    HW117261   5.548   5.483   3.232
 5454SOL    HW217262   5.424   5.397   3.171
 5455SOL     OW17263   1.019   1.810   3.426
 5455SOL    HW117264   1.079   1.837   3.351
 5455SOL    HW217265   1.003   1.888   3.486
 5456SOL     OW17266   6.125   1.134   0.166
 5456SOL    HW117267   6.140   1.163   0.072
 5456SOL    HW217268   6.139   1.036   0.174
 5457SOL     OW17269   6.191   2.755   6.798
 5457SOL    HW117270   6.179   2.726   6.893
 5457SOL    HW217271   6.125   2.707   6.740
 5458SOL     OW17272   6.007   4.477   0.798
 5458SOL    HW117273   6.037   4.453   0.890
 5458SOL    HW217274   5.924   4.426   0.775
 5459SOL     OW17275   2.224   3.739   5.664
 5459SOL    HW117276   2.289   3.663   5.660
 5459SOL    HW217277   2.131   3.703   5.654
 5460SOL     OW17278   1.661   0.397   0.562
 5460SOL    HW117279   1.569   0.413   0.525
 5460SOL    HW217280   1.709   0.329   0.506
 5461SOL     OW17281   6.600   1.177   5.706
 5461SOL    HW117282   6.649   1.218   5.630
 5461SOL    HW217283   6.666   1.137   5.770
 5462SOL     OW17284   5.565   5.439   6.497
 5462SOL    HW117285   5.467   5.442   6.479
 5462SOL    HW217286   5.593   5.524   6.541
 5463SOL     OW17287   0.571   3.332   6.549
 5463SOL    HW117288   0.571   3.260   6.618
 5463SOL    HW217289   0.563   3.421   6.593
 5464SOL     OW17290   6.964   6.369   5.209
 5464SOL    HW117291   6.974   6.304   5.285
 5464SOL    HW217292   6.869   6.368   5.177
 5465SOL     OW17293   6.887   6.046   3.938
 5465SOL    HW117294   6.978   6.053   3.897
 5465SOL    HW217295   6.825   6.002   3.873
 5466SOL     OW17296   6.135   2.598   5.836
 5466SOL    HW117297   6.115   2.623   5.741
 5466SOL    HW217298   6.071   2.646   5.897
 5467SOL     OW17299   5.295   3.447   4.097
 5467SOL    HW117300   5.229   3.381   4.062
 5467SOL    HW217301   5.384   3.403   4.110
 5468SOL     OW17302   0.449   1.228   1.783
 5468SOL    HW117303   0.511   1.303   1.758
 5468SOL    HW217304   0.361   1.265   1.810
 5469SOL     OW17305   2.569   0.567   5.576
 5469SOL    HW117306   2.657   0.607   5.550
 5469SOL    HW217307   2.579   0.516   5.661
 5470SOL     OW17308   3.956   5.326   4.016
 5470SOL    HW117309   3.884   5.271   4.058
 5470SOL    HW217310   3.924   5.360   3.927
 5471SOL     OW17311   4.680   0.759   3.117
 5471SOL    HW117312   4.692   0.787   3.022
 5471SOL    HW217313   4.770   0.751   3.161
 5472SOL     OW17314   2.535   2.109   6.583
 5472SOL    HW117315   2.634   2.093   6.589
 5472SOL    HW217316   2.487   2.021   6.577
 5473SOL     OW17317   2.717   3.824   1.334
 5473SOL    HW117318   2.714   3.876   1.420
 5473SOL    HW217319   2.761   3.878   1.263
 5474SOL     OW17320   0.500   5.322   3.708
 5474SOL    HW117321   0.414   5.315   3.657
 5474SOL    HW217322   0.490   5.390   3.780
 5475SOL     OW17323   6.835   2.361   5.433
 5475SOL    HW117324   6.841   2.277   5.487
 5475SOL    HW217325   6.913   2.366   5.370
 5476SOL     OW17326   2.291   6.557   5.874
 5476SOL    HW117327   2.355   6.633   5.871
 5476SOL    HW217328   2.204   6.584   5.833
 5477SOL     OW17329   1.860   5.224   4.055
 5477SOL    HW117330   1.787   5.172   4.011
 5477SOL    HW217331   1.910   5.276   3.985
 5478SOL     OW17332   5.349   5.127   5.887
 5478SOL    HW117333   5.436   5.116   5.936
 5478SOL    HW217334   5.333   5.046   5.830
 5479SOL     OW17335   3.650   2.054   4.884
 5479SOL    HW117336   3.592   2.098   4.952
 5479SOL    HW217337   3.606   1.969   4.853
 5480SOL     OW17338   6.415   4.024   4.786
 5480SOL    HW117339   6.447   3.996   4.877
 5480SOL    HW217340   6.473   4.097   4.751
 5481SOL     OW17341   4.522   1.044   6.716
 5481SOL    HW117342   4.622   1.054   6.714
 5481SOL    HW217343   4.497   0.967   6.774
 5482SOL     OW17344   4.371   3.242   1.644
 5482SOL    HW117345   4.439   3.315   1.634
 5482SOL    HW217346   4.416   3.157   1.672
 5483SOL     OW17347   6.623   3.882   6.003
 5483SOL    HW117348   6.582   3.953   6.061
 5483SOL    HW217349   6.718   3.906   5.984
 5484SOL     OW17350   6.799   6.421   4.348
 5484SOL    HW117351   6.859   6.381   4.418
 5484SOL    HW217352   6.854   6.449   4.270
 5485SOL     OW17353   3.686   6.698   5.750
 5485SOL    HW117354   3.630   6.779   5.768
 5485SOL    HW217355   3.728   6.666   5.835
 5486SOL     OW17356   1.046   1.093   3.052
 5486SOL    HW117357   0.969   1.029   3.047
 5486SOL    HW217358   1.131   1.044   3.031
 5487SOL     OW17359   6.413   4.856   0.605
 5487SOL    HW117360   6.358   4.778   0.636
 5487SOL    HW217361   6.490   4.869   0.667
 5488SOL     OW17362   5.001   2.207   6.279
 5488SOL    HW117363   4.959   2.119   6.300
 5488SOL    HW217364   5.089   2.215   6.325
 5489SOL     OW17365   1.641   4.652   2.948
 5489SOL    HW117366   1.618   4.663   2.852
 5489SOL    HW217367   1.702   4.573   2.959
 5490SOL     OW17368   2.548   1.202   0.722
 5490SOL    HW117369   2.498   1.115   0.727
 5490SOL    HW217370   2.593   1.209   0.633
 5491SOL     OW17371   1.721   4.887   0.381
 5491SOL    HW117372   1.747   4.832   0.461
 5491SOL    HW217373   1.625   4.912   0.388
 5492SOL     OW17374   0.719   2.368   6.119
 5492SOL    HW117375   0.809   2.337   6.089
 5492SOL    HW217376   0.730   2.423   6.202
 5493SOL     OW17377   3.801   3.157   6.149
 5493SOL    HW117378   3.819   3.225   6.077
 5493SOL    HW217379   3.765   3.203   6.230
 5494SOL     OW17380   6.352   3.601   1.448
 5494SOL    HW117381   6.407   3.685   1.444
 5494SOL    HW217382   6.368   3.555   1.535
 5495SOL     OW17383   4.090   3.371   3.011
 5495SOL    HW117384   3.991   3.379   3.016
 5495SOL    HW217385   4.118   3.365   2.916
 5496SOL     OW17386   3.332   5.983   1.889
 5496SOL    HW117387   3.310   6.056   1.953
 5496SOL    HW217388   3.424   5.948   1.909
 5497SOL     OW17389   0.134   1.486   3.092
 5497SOL    HW117390   0.100   1.534   3.173
 5497SOL    HW217391   0.234   1.483   3.095
 5498SOL     OW17392   4.394   1.842   5.773
 5498SOL    HW117393   4.327   1.854   5.846
 5498SOL    HW217394   4.358   1.777   5.706
 5499SOL     OW17395   6.958   1.807   3.227
 5499SOL    HW117396   6.922   1.900   3.237
 5499SOL    HW217397   0.027   1.800   3.274
 5500SOL     OW17398   1.766   5.903   0.443
 5500SOL    HW117399   1.837   5.939   0.503
 5500SOL    HW217400   1.718   5.979   0.399
 5501SOL     OW17401   2.794   0.362   2.180
 5501SOL    HW117402   2.807   0.452   2.221
 5501SOL    HW217403   2.883   0.316   2.171
 5502SOL     OW17404   6.372   4.383   5.670
 5502SOL    HW117405   6.390   4.285   5.679
 5502SOL    HW217406   6.277   4.397   5.644
 5503SOL     OW17407   1.089   4.434   3.363
 5503SOL    HW117408   1.087   4.340   3.396
 5503SOL    HW217409   1.152   4.488   3.420
 5504SOL     OW17410   3.532   1.835   4.789
 5504SOL    HW117411   3.486   1.775   4.723
 5504SOL    HW217412   3.596   1.781   4.844
 5505SOL     OW17413   3.206   5.596   5.337
 5505SOL    HW117414   3.133   5.619   5.272
 5505SOL    HW217415   3.282   5.660   5.324
 5506SOL     OW17416   6.464   0.728   5.135
 5506SOL    HW117417   6.537   0.790   5.106
 5506SOL    HW217418   6.376   0.772   5.122
 5507SOL     OW17419   2.650   6.905   4.188
 5507SOL    HW117420   2.689   6.979   4.133
 5507SOL    HW217421   2.707   6.823   4.178
 5508SOL     OW17422   2.461   0.398   6.276
 5508SOL    HW117423   2.508   0.428   6.359
 5508SOL    HW217424   2.374   0.355   6.299
 5509SOL     OW17425   5.913   0.073   0.471
 5509SOL    HW117426   5.958   0.087   0.559
 5509SOL    HW217427   5.954   0.132   0.402
 5510SOL     OW17428   4.605   0.546   5.866
 5510SOL    HW117429   4.618   0.581   5.773
 5510SOL    HW217430   4.571   0.620   5.924
 5511SOL     OW17431   0.327   0.571   2.151
 5511SOL    HW117432   0.371   0.482   2.137
 5511SOL    HW217433   0.300   0.608   2.062
 5512SOL     OW17434   0.873   1.339   6.435
 5512SOL    HW117435   0.881   1.250   6.391
 5512SOL    HW217436   0.964   1.379   6.446
 5513SOL     OW17437   4.613   4.473   4.608
 5513SOL    HW117438   4.695   4.426   4.640
 5513SOL    HW217439   4.568   4.517   4.686
 5514SOL     OW17440   5.545   4.990   2.621
 5514SOL    HW117441   5.485   4.913   2.598
 5514SOL    HW217442   5.589   4.974   2.709
 5515SOL     OW17443   6.703   2.404   2.120
 5515SOL    HW117444   6.620   2.448   2.153
 5515SOL    HW217445   6.751   2.361   2.196
 5516SOL     OW17446   1.471   3.196   7.017
 5516SOL    HW117447   1.423   3.123   6.969
 5516SOL    HW217448   1.562   3.208   6.977
 5517SOL     OW17449   3.135   1.876   1.083
 5517SOL    HW117450   3.228   1.899   1.111
 5517SOL    HW217451   3.072   1.945   1.118
 5518SOL     OW17452   5.838   5.363   5.885
 5518SOL    HW117453   5.872   5.447   5.842
 5518SOL    HW217454   5.835   5.289   5.818
 5519SOL     OW17455   5.495   3.433   3.749
 5519SOL    HW117456   5.533   3.451   3.659
 5519SOL    HW217457   5.568   3.429   3.817
 5520SOL     OW17458   1.390   3.735   2.342
 5520SOL    HW117459   1.298   3.735   2.303
 5520SOL    HW217460   1.385   3.750   2.441
 5521SOL     OW17461   5.510   6.399   1.672
 5521SOL    HW117462   5.437   6.463   1.648
 5521SOL    HW217463   5.593   6.451   1.695
 5522SOL     OW17464   2.506   3.292   1.706
 5522SOL    HW117465   2.442   3.322   1.776
 5522SOL    HW217466   2.596   3.333   1.723
 5523SOL     OW17467   2.982   6.829   2.745
 5523SOL    HW117468   2.968   6.842   2.843
 5523SOL    HW217469   3.004   6.917   2.702
 5524SOL     OW17470   1.155   4.935   5.405
 5524SOL    HW117471   1.211   5.003   5.452
 5524SOL    HW217472   1.107   4.979   5.328
 5525SOL     OW17473   6.692   5.090   6.846
 5525SOL    HW117474   6.618   5.144   6.887
 5525SOL    HW217475   6.780   5.122   6.882
 5526SOL     OW17476   6.123   3.268   3.183
 5526SOL    HW117477   6.079   3.179   3.171
 5526SOL    HW217478   6.208   3.257   3.233
 5527SOL     OW17479   1.420   2.765   1.697
 5527SOL    HW117480   1.504   2.712   1.683
 5527SOL    HW217481   1.341   2.704   1.692
 5528SOL     OW17482   0.455   2.475   4.950
 5528SOL    HW117483   0.443   2.557   4.894
 5528SOL    HW217484   0.553   2.457   4.962
 5529SOL     OW17485   2.258   0.571   4.708
 5529SOL    HW117486   2.159   0.560   4.718
 5529SOL    HW217487   2.305   0.533   4.787
 5530SOL     OW17488   0.338   2.234   0.298
 5530SOL    HW117489   0.374   2.142   0.316
 5530SOL    HW217490   0.260   2.251   0.359
 5531SOL     OW17491   4.078   3.336   5.012
 5531SOL    HW117492   4.037   3.273   4.946
 5531SOL    HW217493   4.023   3.336   5.096
 5532SOL     OW17494   1.576   1.439   0.476
 5532SOL    HW117495   1.512   1.417   0.402
 5532SOL    HW217496   1.536   1.508   0.536
 5533SOL     OW17497   3.107   0.719   2.779
 5533SOL    HW117498   3.199   0.755   2.770
 5533SOL    HW217499   3.043   0.794   2.795
 5534SOL     OW17500   1.189   3.469   6.826
 5534SOL    HW117501   1.282   3.488   6.794
 5534SOL    HW217502   1.136   3.553   6.827
 5535SOL     OW17503   6.391   3.054   3.331
 5535SOL    HW117504   6.345   3.006   3.406
 5535SOL    HW217505   6.340   3.042   3.246
 5536SOL     OW17506   2.250   0.619   4.410
 5536SOL    HW117507   2.159   0.652   4.385
 5536SOL    HW217508   2.251   0.593   4.507
 5537SOL     OW17509   3.604   0.377   5.020
 5537SOL    HW117510   3.653   0.336   5.097
 5537SOL    HW217511   3.652   0.357   4.935
 5538SOL     OW17512   4.061   0.934   5.510
 5538SOL    HW117513   4.148   0.983   5.508
 5538SOL    HW217514   4.077   0.836   5.521
 5539SOL     OW17515   1.266   0.979   2.108
 5539SOL    HW117516   1.340   0.930   2.061
 5539SOL    HW217517   1.226   1.046   2.046
 5540SOL     OW17518   5.247   3.212   0.846
 5540SOL    HW117519   5.184   3.136   0.861
 5540SOL    HW217520   5.214   3.268   0.770
 5541SOL     OW17521   5.342   3.679   5.693
 5541SOL    HW117522   5.261   3.691   5.752
 5541SOL    HW217523   5.352   3.760   5.635
 5542SOL     OW17524   5.567   5.003   6.391
 5542SOL    HW117525   5.469   4.987   6.383
 5542SOL    HW217526   5.611   4.919   6.424
 5543SOL     OW17527   1.865   5.982   6.862
 5543SOL    HW117528   1.821   5.902   6.821
 5543SOL    HW217529   1.843   6.063   6.809
 5544SOL     OW17530   4.664   5.376   5.831
 5544SOL    HW117531   4.566   5.391   5.839
 5544SOL    HW217532   4.694   5.397   5.738
 5545SOL     OW17533   4.265   1.439   2.800
 5545SOL    HW117534   4.297   1.509   2.864
 5545SOL    HW217535   4.171   1.459   2.774
 5546SOL     OW17536   1.038   5.887   4.700
 5546SOL    HW117537   0.981   5.907   4.779
 5546SOL    HW217538   1.031   5.962   4.634
 5547SOL     OW17539   4.387   1.977   5.533
 5547SOL    HW117540   4.335   1.957   5.617
 5547SOL    HW217541   4.479   2.008   5.558
 5548SOL     OW17542   6.890   3.950   5.962
 5548SOL    HW117543   6.877   3.963   5.864
 5548SOL    HW217544   6.972   3.894   5.977
 5549SOL     OW17545   4.194   3.363   1.803
 5549SOL    HW117546   4.255   3.300   1.756
 5549SOL    HW217547   4.214   3.457   1.776
 5550SOL     OW17548   2.297   4.225   2.931
 5550SOL    HW117549   2.268   4.134   2.900
 5550SOL    HW217550   2.299   4.228   3.031
 5551SOL     OW17551   1.538   5.229   2.944
 5551SOL    HW117552   1.626   5.205   2.984
 5551SOL    HW217553   1.552   5.257   2.848
 5552SOL     OW17554   6.176   6.934   5.752
 5552SOL    HW117555   6.222   6.856   5.794
 5552SOL    HW217556   6.163   6.916   5.654
 5553SOL     OW17557   4.564   0.345   6.821
 5553SOL    HW117558   4.654   0.343   6.777
 5553SOL    HW217559   4.570   0.301   6.910
 5554SOL     OW17560   4.959   3.369   1.600
 5554SOL    HW117561   4.913   3.422   1.671
 5554SOL    HW217562   4.913   3.281   1.587
 5555SOL     OW17563   0.829   3.795   2.865
 5555SOL    HW117564   0.878   3.855   2.929
 5555SOL    HW217565   0.884   3.783   2.782
 5556SOL     OW17566   6.213   1.116   4.360
 5556SOL    HW117567   6.262   1.147   4.442
 5556SOL    HW217568   6.115   1.130   4.372
 5557SOL     OW17569   3.223   5.720   1.678
 5557SOL    HW117570   3.150   5.782   1.649
 5557SOL    HW217571   3.185   5.632   1.704
 5558SOL     OW17572   3.469   3.968   0.635
 5558SOL    HW117573   3.545   4.032   0.650
 5558SOL    HW217574   3.450   3.919   0.719
 5559SOL     OW17575   1.317   0.293   2.537
 5559SOL    HW117576   1.364   0.303   2.449
 5559SOL    HW217577   1.224   0.260   2.521
 5560SOL     OW17578   6.826   5.734   2.411
 5560SOL    HW117579   6.772   5.814   2.437
 5560SOL    HW217580   6.896   5.761   2.345
 5561SOL     OW17581   3.028   0.449   4.918
 5561SOL    HW117582   3.085   0.368   4.910
 5561SOL    HW217583   2.945   0.437   4.863
 5562SOL     OW17584   4.467   4.140   6.909
 5562SOL    HW117585   4.491   4.207   6.839
 5562SOL    HW217586   4.521   4.157   6.992
 5563SOL     OW17587   3.093   5.254   2.846
 5563SOL    HW117588   3.166   5.281   2.908
 5563SOL    HW217589   3.024   5.202   2.896
 5564SOL     OW17590   4.769   6.772   6.883
 5564SOL    HW117591   4.678   6.802   6.857
 5564SOL    HW217592   4.825   6.852   6.906
 5565SOL     OW17593   4.295   2.845   6.861
 5565SOL    HW117594   4.373   2.905   6.840
 5565SOL    HW217595   4.263   2.864   6.954
 5566SOL     OW17596   1.945   4.286   0.705
 5566SOL    HW117597   1.859   4.336   0.706
 5566SOL    HW217598   2.019   4.347   0.675
 5567SOL     OW17599   0.270   3.680   1.988
 5567SOL    HW117600   0.186   3.725   2.018
 5567SOL    HW217601   0.261   3.651   1.893
 5568SOL     OW17602   4.240   0.286   3.111
 5568SOL    HW117603   4.192   0.368   3.081
 5568SOL    HW217604   4.279   0.301   3.202
 5569SOL     OW17605   2.468   1.842   2.886
 5569SOL    HW117606   2.511   1.790   2.813
 5569SOL    HW217607   2.535   1.863   2.957
 5570SOL     OW17608   6.681   3.264   3.029
 5570SOL    HW117609   6.585   3.289   3.033
 5570SOL    HW217610   6.733   3.322   3.092
 5571SOL     OW17611   6.797   5.011   1.939
 5571SOL    HW117612   6.789   4.925   1.989
 5571SOL    HW217613   6.824   5.084   2.002
 5572SOL     OW17614   1.693   4.033   4.767
 5572SOL    HW117615   1.738   4.019   4.678
 5572SOL    HW217616   1.753   4.000   4.840
 5573SOL     OW17617   1.360   5.294   5.227
 5573SOL    HW117618   1.280   5.336   5.186
 5573SOL    HW217619   1.421   5.260   5.155
 5574SOL     OW17620   0.618   3.018   6.774
 5574SOL    HW117621   0.661   2.949   6.832
 5574SOL    HW217622   0.554   3.073   6.828
 5575SOL     OW17623   0.048   0.029   0.863
 5575SOL    HW117624   0.080   6.955   0.881
 5575SOL    HW217625   0.112   0.094   0.902
 5576SOL     OW17626   1.225   4.050   2.919
 5576SOL    HW117627   1.270   4.090   2.999
 5576SOL    HW217628   1.276   4.075   2.836
 5577SOL     OW17629   2.215   3.160   0.247
 5577SOL    HW117630   2.302   3.162   0.199
 5577SOL    HW217631   2.191   3.252   0.278
 5578SOL     OW17632   3.716   4.067   2.588
 5578SOL    HW117633   3.674   4.109   2.668
 5578SOL    HW217634   3.795   4.012   2.617
 5579SOL     OW17635   0.734   3.582   0.932
 5579SOL    HW117636   0.786   3.550   1.010
 5579SOL    HW217637   0.657   3.638   0.964
 5580SOL     OW17638   4.428   2.275   6.184
 5580SOL    HW117639   4.368   2.234   6.252
 5580SOL    HW217640   4.376   2.297   6.101
 5581SOL     OW17641   1.152   1.185   1.245
 5581SOL    HW117642   1.129   1.279   1.271
 5581SOL    HW217643   1.237   1.158   1.290
 5582SOL     OW17644   2.771   4.021   0.002
 5582SOL    HW117645   2.714   4.083   0.057
 5582SOL    HW217646   2.787   3.937   0.054
 5583SOL     OW17647   4.084   0.809   2.358
 5583SOL    HW117648   4.081   0.790   2.456
 5583SOL    HW217649   4.142   0.889   2.341
 5584SOL     OW17650   6.407   3.614   4.102
 5584SOL    HW117651   6.459   3.580   4.180
 5584SOL    HW217652   6.430   3.560   4.021
 5585SOL     OW17653   5.048   5.090   3.450
 5585SOL    HW117654   5.044   4.994   3.423
 5585SOL    HW217655   5.121   5.103   3.517
 5586SOL     OW17656   6.975   3.569   5.889
 5586SOL    HW117657   6.884   3.589   5.853
 5586SOL    HW217658   7.015   3.653   5.926
 5587SOL     OW17659   4.100   0.295   0.496
 5587SOL    HW117660   4.097   0.295   0.396
 5587SOL    HW217661   4.195   0.283   0.526
 5588SOL     OW17662   2.474   6.468   2.486
 5588SOL    HW117663   2.375   6.475   2.503
 5588SOL    HW217664   2.522   6.455   2.572
 5589SOL     OW17665   6.095   4.271   6.624
 5589SOL    HW117666   6.156   4.218   6.684
 5589SOL    HW217667   6.003   4.271   6.664
 5590SOL     OW17668   6.410   6.262   3.609
 5590SOL    HW117669   6.403   6.345   3.555
 5590SOL    HW217670   6.318   6.230   3.633
 5591SOL     OW17671   0.484   2.116   1.199
 5591SOL    HW117672   0.555   2.083   1.261
 5591SOL    HW217673   0.527   2.146   1.114
 5592SOL     OW17674   1.926   5.421   3.836
 5592SOL    HW117675   2.024   5.413   3.850
 5592SOL    HW217676   1.905   5.510   3.796
 5593SOL     OW17677   0.111   2.855   6.764
 5593SOL    HW117678   0.044   2.865   6.691
 5593SOL    HW217679   0.086   2.914   6.840
 5594SOL     OW17680   4.983   0.853   4.574
 5594SOL    HW117681   4.980   0.950   4.549
 5594SOL    HW217682   4.911   0.834   4.641
 5595SOL     OW17683   1.004   1.418   4.737
 5595SOL    HW117684   1.085   1.439   4.792
 5595SOL    HW217685   1.002   1.476   4.656
 5596SOL     OW17686   4.438   6.404   2.535
 5596SOL    HW117687   4.519   6.369   2.582
 5596SOL    HW217688   4.459   6.494   2.495
 5597SOL     OW17689   4.781   2.447   4.250
 5597SOL    HW117690   4.848   2.515   4.280
 5597SOL    HW217691   4.760   2.385   4.326
 5598SOL     OW17692   5.498   3.524   4.689
 5598SOL    HW117693   5.557   3.504   4.610
 5598SOL    HW217694   5.454   3.439   4.720
 5599SOL     OW17695   1.131   1.295   4.199
 5599SOL    HW117696   1.163   1.389   4.187
 5599SOL    HW217697   1.032   1.295   4.211
 5600SOL     OW17698   0.710   1.322   2.218
 5600SOL    HW117699   0.766   1.344   2.298
 5600SOL    HW217700   0.613   1.324   2.244
 5601SOL     OW17701   2.907   0.216   5.892
 5601SOL    HW117702   2.970   0.143   5.866
 5601SOL    HW217703   2.951   0.305   5.880
 5602SOL     OW17704   6.983   1.332   0.364
 5602SOL    HW117705   6.887   1.318   0.389
 5602SOL    HW217706   0.011   1.377   0.439
 5603SOL     OW17707   5.665   2.560   6.446
 5603SOL    HW117708   5.654   2.495   6.371
 5603SOL    HW217709   5.616   2.645   6.425
 5604SOL     OW17710   6.473   2.191   5.163
 5604SOL    HW117711   6.426   2.103   5.164
 5604SOL    HW217712   6.514   2.208   5.253
 5605SOL     OW17713   0.868   0.715   4.779
 5605SOL    HW117714   0.857   0.672   4.690
 5605SOL    HW217715   0.824   0.805   4.778
 5606SOL     OW17716   4.728   6.661   0.595
 5606SOL    HW117717   4.819   6.621   0.583
 5606SOL    HW217718   4.711   6.677   0.692
 5607SOL     OW17719   5.454   0.463   2.497
 5607SOL    HW117720   5.433   0.536   2.562
 5607SOL    HW217721   5.540   0.483   2.451
 5608SOL     OW17722   4.796   0.199   4.959
 5608SOL    HW117723   4.794   0.251   5.045
 5608SOL    HW217724   4.857   0.245   4.894
 5609SOL     OW17725   2.292   5.107   1.328
 5609SOL    HW117726   2.321   5.057   1.247
 5609SOL    HW217727   2.365   5.171   1.355
 5610SOL     OW17728   4.539   6.654   0.871
 5610SOL    HW117729   4.543   6.632   0.968
 5610SOL    HW217730   4.493   6.742   0.858
 5611SOL     OW17731   1.075   5.295   2.708
 5611SOL    HW117732   1.005   5.275   2.639
 5611SOL    HW217733   1.166   5.283   2.669
 5612SOL     OW17734   3.600   1.964   6.769
 5612SOL    HW117735   3.634   1.974   6.863
 5612SOL    HW217736   3.607   2.052   6.723
 5613SOL     OW17737   5.379   3.917   3.685
 5613SOL    HW117738   5.372   3.850   3.611
 5613SOL    HW217739   5.443   3.883   3.754
 5614SOL     OW17740   4.601   2.610   4.158
 5614SOL    HW117741   4.671   2.540   4.168
 5614SOL    HW217742   4.623   2.687   4.218
 5615SOL     OW17743   0.585   0.991   5.313
 5615SOL    HW117744   0.537   0.933   5.248
 5615SOL    HW217745   0.549   1.084   5.307
 5616SOL     OW17746   2.154   1.301   4.918
 5616SOL    HW117747   2.081   1.367   4.901
 5616SOL    HW217748   2.139   1.257   5.007
 5617SOL     OW17749   2.391   6.743   6.504
 5617SOL    HW117750   2.315   6.682   6.524
 5617SOL    HW217751   2.444   6.707   6.427
 5618SOL     OW17752   6.121   3.689   3.810
 5618SOL    HW117753   6.121   3.753   3.887
 5618SOL    HW217754   6.205   3.635   3.810
 5619SOL     OW17755   3.100   3.880   6.249
 5619SOL    HW117756   3.128   3.958   6.305
 5619SOL    HW217757   3.001   3.880   6.239
 5620SOL     OW17758   3.744   3.235   0.828
 5620SOL    HW117759   3.725   3.252   0.925
 5620SOL    HW217760   3.673   3.176   0.790
 5621SOL     OW17761   0.985   2.413   5.998
 5621SOL    HW117762   1.039   2.411   6.082
 5621SOL    HW217763   1.010   2.493   5.944
 5622SOL     OW17764   4.578   0.037   5.854
 5622SOL    HW117765   4.491   0.056   5.901
 5622SOL    HW217766   4.653   0.081   5.903
 5623SOL     OW17767   2.038   6.146   6.099
 5623SOL    HW117768   2.041   6.137   6.199
 5623SOL    HW217769   1.978   6.075   6.061
 5624SOL     OW17770   0.809   4.461   3.306
 5624SOL    HW117771   0.773   4.528   3.371
 5624SOL    HW217772   0.902   4.436   3.332
 5625SOL     OW17773   6.129   1.639   4.291
 5625SOL    HW117774   6.123   1.738   4.307
 5625SOL    HW217775   6.199   1.600   4.349
 5626SOL     OW17776   2.833   6.833   4.782
 5626SOL    HW117777   2.774   6.802   4.707
 5626SOL    HW217778   2.912   6.772   4.790
 5627SOL     OW17779   0.827   6.064   0.097
 5627SOL    HW117780   0.856   6.118   0.018
 5627SOL    HW217781   0.865   5.972   0.089
 5628SOL     OW17782   1.316   2.636   5.978
 5628SOL    HW117783   1.274   2.586   6.054
 5628SOL    HW217784   1.399   2.682   6.010
 5629SOL     OW17785   3.539   3.538   2.472
 5629SOL    HW117786   3.599   3.605   2.428
 5629SOL    HW217787   3.470   3.586   2.526
 5630SOL     OW17788   1.474   5.037   0.340
 5630SOL    HW117789   1.493   5.019   0.244
 5630SOL    HW217790   1.437   5.129   0.350
 5631SOL     OW17791   4.715   1.834   6.781
 5631SOL    HW117792   4.704   1.749   6.731
 5631SOL    HW217793   4.738   1.814   6.877
 5632SOL     OW17794   4.023   2.568   5.861
 5632SOL    HW117795   3.969   2.574   5.944
 5632SOL    HW217796   3.965   2.539   5.785
 5633SOL     OW17797   5.924   2.822   3.855
 5633SOL    HW117798   5.971   2.877   3.925
 5633SOL    HW217799   5.920   2.727   3.885
 5634SOL     OW17800   2.243   6.007   5.169
 5634SOL    HW117801   2.173   5.945   5.133
 5634SOL    HW217802   2.327   5.955   5.186
 5635SOL     OW17803   2.235   3.715   5.245
 5635SOL    HW117804   2.294   3.653   5.297
 5635SOL    HW217805   2.274   3.807   5.245
 5636SOL     OW17806   3.317   6.350   2.430
 5636SOL    HW117807   3.218   6.343   2.444
 5636SOL    HW217808   3.357   6.406   2.502
 5637SOL     OW17809   5.185   6.990   3.618
 5637SOL    HW117810   5.139   7.008   3.531
 5637SOL    HW217811   5.133   0.011   3.692
 5638SOL     OW17812   5.665   3.584   1.579
 5638SOL    HW117813   5.596   3.647   1.612
 5638SOL    HW217814   5.748   3.634   1.554
 5639SOL     OW17815   0.398   0.289   0.181
 5639SOL    HW117816   0.309   0.244   0.182
 5639SOL    HW217817   0.409   0.341   0.096
 5640SOL     OW17818   2.789   0.710   3.836
 5640SOL    HW117819   2.888   0.697   3.835
 5640SOL    HW217820   2.750   0.664   3.916
 5641SOL     OW17821   0.925   4.835   5.528
 5641SOL    HW117822   0.982   4.894   5.472
 5641SOL    HW217823   0.972   4.748   5.544
 5642SOL     OW17824   2.071   6.595   7.010
 5642SOL    HW117825   2.162   6.618   6.977
 5642SOL    HW217826   2.058   6.496   7.008
 5643SOL     OW17827   4.369   1.153   4.893
 5643SOL    HW117828   4.344   1.056   4.892
 5643SOL    HW217829   4.468   1.162   4.883
 5644SOL     OW17830   3.203   0.133   5.372
 5644SOL    HW117831   3.190   0.199   5.446
 5644SOL    HW217832   3.256   0.056   5.406
 5645SOL     OW17833   6.345   4.019   3.721
 5645SOL    HW117834   6.349   4.032   3.820
 5645SOL    HW217835   6.357   3.922   3.699
 5646SOL     OW17836   1.839   5.226   3.135
 5646SOL    HW117837   1.832   5.241   3.233
 5646SOL    HW217838   1.906   5.290   3.096
 5647SOL     OW17839   5.216   6.333   1.396
 5647SOL    HW117840   5.297   6.391   1.390
 5647SOL    HW217841   5.235   6.244   1.354
 5648SOL     OW17842   2.169   5.753   2.826
 5648SOL    HW117843   2.128   5.840   2.852
 5648SOL    HW217844   2.099   5.692   2.790
 5649SOL     OW17845   1.473   6.480   3.717
 5649SOL    HW117846   1.516   6.503   3.804
 5649SOL    HW217847   1.435   6.388   3.721
 5650SOL     OW17848   1.111   4.664   0.832
 5650SOL    HW117849   1.079   4.758   0.841
 5650SOL    HW217850   1.096   4.615   0.917
 5651SOL     OW17851   1.365   0.711   0.432
 5651SOL    HW117852   1.439   0.775   0.451
 5651SOL    HW217853   1.277   0.760   0.437
 5652SOL     OW17854   0.105   5.413   1.902
 5652SOL    HW117855   0.025   5.369   1.861
 5652SOL    HW217856   0.189   5.373   1.865
 5653SOL     OW17857   0.352   5.731   0.131
 5653SOL    HW117858   0.357   5.635   0.161
 5653SOL    HW217859   0.427   5.751   0.069
 5654SOL     OW17860   1.521   5.263   4.589
 5654SOL    HW117861   1.448   5.313   4.542
 5654SOL    HW217862   1.498   5.166   4.592
 5655SOL     OW17863   6.621   2.890   3.844
 5655SOL    HW117864   6.674   2.901   3.928
 5655SOL    HW217865   6.640   2.801   3.803
 5656SOL     OW17866   6.530   4.105   6.152
 5656SOL    HW117867   6.614   4.146   6.118
 5656SOL    HW217868   6.453   4.133   6.095
 5657SOL     OW17869   4.597   4.341   4.959
 5657SOL    HW117870   4.520   4.283   4.936
 5657SOL    HW217871   4.664   4.339   4.885
 5658SOL     OW17872   3.129   3.210   6.123
 5658SOL    HW117873   3.046   3.200   6.178
 5658SOL    HW217874   3.143   3.306   6.101
 5659SOL     OW17875   3.509   3.927   5.974
 5659SOL    HW117876   3.430   3.939   5.915
 5659SOL    HW217877   3.514   3.831   6.004
 5660SOL     OW17878   4.919   0.411   6.474
 5660SOL    HW117879   4.908   0.337   6.409
 5660SOL    HW217880   4.902   0.378   6.567
 5661SOL     OW17881   1.306   5.346   5.776
 5661SOL    HW117882   1.249   5.402   5.716
 5661SOL    HW217883   1.298   5.250   5.750
 5662SOL     OW17884   2.344   6.712   2.690
 5662SOL    HW117885   2.419   6.772   2.663
 5662SOL    HW217886   2.291   6.754   2.763
 5663SOL     OW17887   1.290   2.450   0.313
 5663SOL    HW117888   1.272   2.465   0.410
 5663SOL    HW217889   1.385   2.473   0.293
 5664SOL     OW17890   5.752   3.796   4.725
 5664SOL    HW117891   5.767   3.761   4.633
 5664SOL    HW217892   5.661   3.768   4.757
 5665SOL     OW17893   1.115   5.884   6.919
 5665SOL    HW117894   1.023   5.855   6.945
 5665SOL    HW217895   1.171   5.804   6.895
 5666SOL     OW17896   6.251   1.008   3.811
 5666SOL    HW117897   6.156   0.984   3.830
 5666SOL    HW217898   6.310   0.973   3.884
 5667SOL     OW17899   1.723   4.832   4.278
 5667SOL    HW117900   1.700   4.907   4.340
 5667SOL    HW217901   1.822   4.829   4.264
 5668SOL     OW17902   6.465   2.705   2.746
 5668SOL    HW117903   6.387   2.729   2.803
 5668SOL    HW217904   6.548   2.746   2.784
 5669SOL     OW17905   6.508   5.011   0.156
 5669SOL    HW117906   6.461   4.998   0.068
 5669SOL    HW217907   6.571   5.088   0.148
 5670SOL     OW17908   1.766   3.024   3.086
 5670SOL    HW117909   1.810   3.051   3.000
 5670SOL    HW217910   1.834   3.020   3.159
 5671SOL     OW17911   6.511   5.771   5.183
 5671SOL    HW117912   6.496   5.735   5.091
 5671SOL    HW217913   6.530   5.695   5.246
 5672SOL     OW17914   4.794   3.992   5.370
 5672SOL    HW117915   4.712   3.940   5.347
 5672SOL    HW217916   4.772   4.090   5.376
 5673SOL     OW17917   0.960   6.890   1.481
 5673SOL    HW117918   0.906   6.810   1.457
 5673SOL    HW217919   1.019   6.914   1.405
 5674SOL     OW17920   2.236   4.600   4.156
 5674SOL    HW117921   2.241   4.591   4.255
 5674SOL    HW217922   2.286   4.682   4.127
 5675SOL     OW17923   3.935   1.693   6.972
 5675SOL    HW117924   3.949   1.765   6.904
 5675SOL    HW217925   3.883   1.618   6.931
 5676SOL     OW17926   2.831   1.974   1.737
 5676SOL    HW117927   2.782   2.060   1.748
 5676SOL    HW217928   2.922   1.991   1.700
 5677SOL     OW17929   6.827   0.723   0.594
 5677SOL    HW117930   6.846   0.806   0.542
 5677SOL    HW217931   6.836   0.742   0.692
 5678SOL     OW17932   4.226   1.057   2.329
 5678SOL    HW117933   4.250   1.142   2.282
 5678SOL    HW217934   4.142   1.072   2.383
 5679SOL     OW17935   5.768   2.119   4.934
 5679SOL    HW117936   5.768   2.207   4.982
 5679SOL    HW217937   5.708   2.126   4.854
 5680SOL     OW17938   1.810   4.665   6.000
 5680SOL    HW117939   1.840   4.705   5.914
 5680SOL    HW217940   1.802   4.566   5.990
 5681SOL     OW17941   0.565   4.164   3.063
 5681SOL    HW117942   0.532   4.253   3.032
 5681SOL    HW217943   0.640   4.134   3.004
 5682SOL     OW17944   2.799   5.602   2.877
 5682SOL    HW117945   2.887   5.573   2.841
 5682SOL    HW217946   2.779   5.554   2.962
 5683SOL     OW17947   4.229   2.673   6.459
 5683SOL    HW117948   4.211   2.676   6.557
 5683SOL    HW217949   4.171   2.604   6.416
 5684SOL     OW17950   2.280   3.772   6.332
 5684SOL    HW117951   2.198   3.819   6.301
 5684SOL    HW217952   2.348   3.770   6.258
 5685SOL     OW17953   1.725   2.094   3.655
 5685SOL    HW117954   1.643   2.142   3.625
 5685SOL    HW217955   1.776   2.151   3.718
 5686SOL     OW17956   3.324   0.821   5.472
 5686SOL    HW117957   3.372   0.809   5.559
 5686SOL    HW217958   3.389   0.814   5.397
 5687SOL     OW17959   0.087   6.369   6.059
 5687SOL    HW117960   0.135   6.454   6.039
 5687SOL    HW217961   0.046   6.375   6.150
 5688SOL     OW17962   2.335   2.780   3.459
 5688SOL    HW117963   2.315   2.824   3.546
 5688SOL    HW217964   2.324   2.846   3.385
 5689SOL     OW17965   2.262   0.302   1.759
 5689SOL    HW117966   2.254   0.322   1.661
 5689SOL    HW217967   2.318   0.372   1.802
 5690SOL     OW17968   1.061   5.020   6.806
 5690SOL    HW117969   1.130   4.993   6.872
 5690SOL    HW217970   0.971   4.987   6.835
 5691SOL     OW17971   3.504   0.887   2.412
 5691SOL    HW117972   3.446   0.853   2.337
 5691SOL    HW217973   3.600   0.877   2.387
 5692SOL     OW17974   4.606   4.882   0.814
 5692SOL    HW117975   4.565   4.899   0.724
 5692SOL    HW217976   4.594   4.964   0.872
 5693SOL     OW17977   4.172   0.384   1.232
 5693SOL    HW117978   4.096   0.440   1.198
 5693SOL    HW217979   4.146   0.288   1.233
 5694SOL     OW17980   0.511   6.946   2.291
 5694SOL    HW117981   0.482   6.903   2.377
 5694SOL    HW217982   0.589   6.896   2.253
 5695SOL     OW17983   1.080   0.713   2.433
 5695SOL    HW117984   1.094   0.656   2.514
 5695SOL    HW217985   1.045   0.657   2.358
 5696SOL     OW17986   1.604   0.857   4.330
 5696SOL    HW117987   1.682   0.857   4.393
 5696SOL    HW217988   1.630   0.814   4.244
 5697SOL     OW17989   6.407   2.166   1.736
 5697SOL    HW117990   6.440   2.190   1.645
 5697SOL    HW217991   6.450   2.226   1.804
 5698SOL     OW17992   1.801   3.655   3.719
 5698SOL    HW117993   1.898   3.636   3.704
 5698SOL    HW217994   1.780   3.745   3.682
 5699SOL     OW17995   2.113   2.412   2.945
 5699SOL    HW117996   2.133   2.383   3.038
 5699SOL    HW217997   2.137   2.339   2.881
 5700SOL     OW17998   6.690   0.082   2.268
 5700SOL    HW117999   6.686   7.007   2.236
 5700SOL    HW218000   6.667   0.086   2.365
 5701SOL     OW18001   0.056   1.633   0.736
 5701SOL    HW118002   0.052   1.730   0.758
 5701SOL    HW218003   0.136   1.592   0.779
 5702SOL     OW18004   1.825   6.468   4.611
 5702SOL    HW118005   1.726   6.467   4.595
 5702SOL    HW218006   1.848   6.542   4.674
 5703SOL     OW18007   6.921   4.343   6.271
 5703SOL    HW118008   6.993   4.352   6.341
 5703SOL    HW218009   6.832   4.358   6.313
 5704SOL     OW18010   5.343   4.340   3.500
 5704SOL    HW118011   5.435   4.318   3.466
 5704SOL    HW218012   5.349   4.419   3.561
 5705SOL     OW18013   6.127   5.858   6.382
 5705SOL    HW118014   6.193   5.788   6.358
 5705SOL    HW218015   6.035   5.829   6.356
 5706SOL     OW18016   5.316   2.853   0.998
 5706SOL    HW118017   5.391   2.917   0.990
 5706SOL    HW218018   5.275   2.860   1.089
 5707SOL     OW18019   5.200   0.281   1.453
 5707SOL    HW118020   5.241   0.324   1.533
 5707SOL    HW218021   5.267   0.278   1.378
 5708SOL     OW18022   5.161   5.976   3.023
 5708SOL    HW118023   5.202   6.061   3.056
 5708SOL    HW218024   5.061   5.985   3.024
 5709SOL     OW18025   0.207   0.731   2.346
 5709SOL    HW118026   0.265   0.665   2.300
 5709SOL    HW218027   0.112   0.719   2.316
 5710SOL     OW18028   2.809   2.606   0.936
 5710SOL    HW118029   2.727   2.640   0.890
 5710SOL    HW218030   2.880   2.587   0.868
 5711SOL     OW18031   4.990   0.835   1.721
 5711SOL    HW118032   4.959   0.748   1.759
 5711SOL    HW218033   4.946   0.911   1.770
 5712SOL     OW18034   6.353   5.989   1.087
 5712SOL    HW118035   6.428   6.037   1.133
 5712SOL    HW218036   6.274   6.050   1.078
 5713SOL     OW18037   2.997   5.110   0.548
 5713SOL    HW118038   2.991   5.147   0.455
 5713SOL    HW218039   2.995   5.184   0.614
 5714SOL     OW18040   6.463   6.409   1.541
 5714SOL    HW118041   6.421   6.448   1.459
 5714SOL    HW218042   6.490   6.483   1.603
 5715SOL     OW18043   0.663   6.612   1.059
 5715SOL    HW118044   0.564   6.600   1.069
 5715SOL    HW218045   0.687   6.610   0.962
 5716SOL     OW18046   1.102   5.333   5.975
 5716SOL    HW118047   1.083   5.235   5.985
 5716SOL    HW218048   1.145   5.349   5.886
 5717SOL     OW18049   2.097   5.089   2.491
 5717SOL    HW118050   2.166   5.122   2.554
 5717SOL    HW218051   2.132   5.093   2.397
 5718SOL     OW18052   0.805   2.931   0.417
 5718SOL    HW118053   0.851   2.856   0.369
 5718SOL    HW218054   0.748   2.982   0.352
 5719SOL     OW18055   2.624   3.398   1.206
 5719SOL    HW118056   2.689   3.443   1.267
 5719SOL    HW218057   2.539   3.379   1.256
 5720SOL     OW18058   1.997   6.218   5.253
 5720SOL    HW118059   2.075   6.255   5.304
 5720SOL    HW218060   2.015   6.223   5.155
 5721SOL     OW18061   5.490   4.456   0.987
 5721SOL    HW118062   5.525   4.369   1.021
 5721SOL    HW218063   5.488   4.522   1.062
 5722SOL     OW18064   0.244   1.339   5.104
 5722SOL    HW118065   0.257   1.363   5.008
 5722SOL    HW218066   0.293   1.404   5.162
 5723SOL     OW18067   3.759   3.549   7.017
 5723SOL    HW118068   3.762   3.649   7.007
 5723SOL    HW218069   3.667   3.516   6.995
 5724SOL     OW18070   6.137   2.695   3.157
 5724SOL    HW118071   6.200   2.619   3.176
 5724SOL    HW218072   6.134   2.710   3.058
 5725SOL     OW18073   5.683   5.297   3.073
 5725SOL    HW118074   5.666   5.346   3.158
 5725SOL    HW218075   5.773   5.255   3.076
 5726SOL     OW18076   5.618   4.322   3.402
 5726SOL    HW118077   5.587   4.356   3.313
 5726SOL    HW218078   5.661   4.233   3.390
 5727SOL     OW18079   0.213   2.480   4.594
 5727SOL    HW118080   0.201   2.559   4.534
 5727SOL    HW218081   0.308   2.450   4.591
 5728SOL     OW18082   5.002   6.093   5.438
 5728SOL    HW118083   4.993   6.191   5.455
 5728SOL    HW218084   4.913   6.049   5.451
 5729SOL     OW18085   2.186   2.225   6.120
 5729SOL    HW118086   2.134   2.150   6.078
 5729SOL    HW218087   2.146   2.313   6.092
 5730SOL     OW18088   6.959   4.568   5.843
 5730SOL    HW118089   6.859   4.573   5.849
 5730SOL    HW218090   6.996   4.541   5.932
 5731SOL     OW18091   6.546   6.966   1.434
 5731SOL    HW118092   6.607   6.889   1.453
 5731SOL    HW218093   6.596   0.033   1.442
 5732SOL     OW18094   1.329   6.349   3.995
 5732SOL    HW118095   1.369   6.335   3.905
 5732SOL    HW218096   1.229   6.359   3.986
 5733SOL     OW18097   4.098   6.602   5.004
 5733SOL    HW118098   4.160   6.672   4.968
 5733SOL    HW218099   4.013   6.645   5.033
 5734SOL     OW18100   1.682   6.218   4.878
 5734SOL    HW118101   1.754   6.194   4.813
 5734SOL    HW218102   1.595   6.180   4.846
 5735SOL     OW18103   2.860   1.743   2.017
 5735SOL    HW118104   2.908   1.684   1.951
 5735SOL    HW218105   2.910   1.828   2.028
 5736SOL     OW18106   0.549   4.878   6.822
 5736SOL    HW118107   0.578   4.815   6.894
 5736SOL    HW218108   0.464   4.844   6.780
 5737SOL     OW18109   5.975   6.114   6.638
 5737SOL    HW118110   5.975   6.042   6.708
 5737SOL    HW218111   6.069   6.134   6.612
 5738SOL     OW18112   1.864   3.298   6.529
 5738SOL    HW118113   1.951   3.294   6.481
 5738SOL    HW218114   1.846   3.392   6.558
 5739SOL     OW18115   1.338   1.082   0.387
 5739SOL    HW118116   1.313   1.157   0.449
 5739SOL    HW218117   1.435   1.062   0.397
 5740SOL     OW18118   4.246   6.160   0.023
 5740SOL    HW118119   4.149   6.162   7.015
 5740SOL    HW218120   4.252   6.166   0.123
 5741SOL     OW18121   6.696   5.682   4.954
 5741SOL    HW118122   6.689   5.757   4.888
 5741SOL    HW218123   6.701   5.719   5.047
 5742SOL     OW18124   6.160   6.665   2.548
 5742SOL    HW118125   6.160   6.763   2.528
 5742SOL    HW218126   6.254   6.630   2.543
 5743SOL     OW18127   2.642   6.965   5.097
 5743SOL    HW118128   2.737   6.980   5.070
 5743SOL    HW218129   2.583   0.005   5.043
 5744SOL     OW18130   5.114   1.588   0.343
 5744SOL    HW118131   5.124   1.512   0.279
 5744SOL    HW218132   5.109   1.553   0.436
 5745SOL     OW18133   1.621   1.669   4.618
 5745SOL    HW118134   1.539   1.696   4.567
 5745SOL    HW218135   1.674   1.604   4.564
 5746SOL     OW18136   5.373   1.877   0.023
 5746SOL    HW118137   5.472   1.868   0.025
 5746SOL    HW218138   5.344   1.909   6.952
 5747SOL     OW18139   0.308   5.516   2.683
 5747SOL    HW118140   0.314   5.487   2.779
 5747SOL    HW218141   0.389   5.568   2.659
 5748SOL     OW18142   2.318   4.761   1.904
 5748SOL    HW118143   2.408   4.719   1.912
 5748SOL    HW218144   2.266   4.717   1.831
 5749SOL     OW18145   2.169   2.008   3.235
 5749SOL    HW118146   2.088   1.971   3.282
 5749SOL    HW218147   2.202   1.941   3.169
 5750SOL     OW18148   6.222   4.722   4.581
 5750SOL    HW118149   6.312   4.748   4.616
 5750SOL    HW218150   6.164   4.803   4.575
 5751SOL     OW18151   2.104   3.295   5.266
 5751SOL    HW118152   2.162   3.276   5.345
 5751SOL    HW218153   2.102   3.215   5.206
 5752SOL     OW18154   6.572   6.823   5.821
 5752SOL    HW118155   6.650   6.766   5.793
 5752SOL    HW218156   6.487   6.771   5.809
 5753SOL     OW18157   3.532   3.035   6.753
 5753SOL    HW118158   3.580   3.109   6.801
 5753SOL    HW218159   3.452   3.072   6.707
 5754SOL     OW18160   5.269   5.524   2.089
 5754SOL    HW118161   5.181   5.534   2.136
 5754SOL    HW218162   5.287   5.428   2.070
 5755SOL     OW18163   3.500   3.793   6.969
 5755SOL    HW118164   3.491   3.695   6.987
 5755SOL    HW218165   3.491   3.810   6.871
 5756SOL     OW18166   6.747   5.166   3.756
 5756SOL    HW118167   6.737   5.067   3.742
 5756SOL    HW218168   6.818   5.201   3.694
 5757SOL     OW18169   6.392   5.668   1.110
 5757SOL    HW118170   6.340   5.628   1.035
 5757SOL    HW218171   6.436   5.596   1.164
 5758SOL     OW18172   2.219   2.092   5.095
 5758SOL    HW118173   2.161   2.123   5.019
 5758SOL    HW218174   2.288   2.161   5.114
 5759SOL     OW18175   5.054   1.478   6.249
 5759SOL    HW118176   5.062   1.417   6.171
 5759SOL    HW218177   5.003   1.560   6.222
 5760SOL     OW18178   1.206   5.048   2.345
 5760SOL    HW118179   1.142   5.007   2.280
 5760SOL    HW218180   1.216   4.989   2.425
 5761SOL     OW18181   4.845   6.827   4.672
 5761SOL    HW118182   4.899   6.797   4.750
 5761SOL    HW218183   4.748   6.810   4.690
 5762SOL     OW18184   5.444   6.482   1.291
 5762SOL    HW118185   5.507   6.558   1.305
 5762SOL    HW218186   5.488   6.397   1.319
 5763SOL     OW18187   1.328   0.240   0.677
 5763SOL    HW118188   1.359   0.313   0.616
 5763SOL    HW218189   1.350   0.151   0.637
 5764SOL     OW18190   5.615   4.229   5.222
 5764SOL    HW118191   5.660   4.317   5.206
 5764SOL    HW218192   5.619   4.174   5.138
 5765SOL     OW18193   6.306   4.209   6.974
 5765SOL    HW118194   6.354   4.186   6.889
 5765SOL    HW218195   6.277   4.125   0.000
 5766SOL     OW18196   2.925   1.914   2.251
 5766SOL    HW118197   2.896   1.958   2.166
 5766SOL    HW218198   3.001   1.853   2.233
 5767SOL     OW18199   0.189   6.326   0.601
 5767SOL    HW118200   0.213   6.315   0.697
 5767SOL    HW218201   0.132   6.249   0.571
 5768SOL     OW18202   6.703   1.051   2.832
 5768SOL    HW118203   6.625   1.076   2.889
 5768SOL    HW218204   6.672   0.994   2.755
 5769SOL     OW18205   2.893   6.210   3.707
 5769SOL    HW118206   2.833   6.285   3.679
 5769SOL    HW218207   2.900   6.143   3.633
 5770SOL     OW18208   6.442   6.992   1.177
 5770SOL    HW118209   6.506   0.038   1.135
 5770SOL    HW218210   6.476   6.966   1.267
 5771SOL     OW18211   1.222   0.470   1.395
 5771SOL    HW118212   1.303   0.483   1.338
 5771SOL    HW218213   1.140   0.492   1.343
 5772SOL     OW18214   5.876   3.256   0.724
 5772SOL    HW118215   5.889   3.172   0.776
 5772SOL    HW218216   5.787   3.296   0.747
 5773SOL     OW18217   5.354   6.394   3.712
 5773SOL    HW118218   5.264   6.359   3.736
 5773SOL    HW218219   5.366   6.485   3.752
 5774SOL     OW18220   2.235   4.810   3.692
 5774SOL    HW118221   2.157   4.774   3.641
 5774SOL    HW218222   2.268   4.894   3.649
 5775SOL     OW18223   6.594   0.070   6.637
 5775SOL    HW118224   6.660   7.014   6.639
 5775SOL    HW218225   6.639   0.152   6.603
 5776SOL     OW18226   4.876   0.161   5.975
 5776SOL    HW118227   4.959   0.167   6.030
 5776SOL    HW218228   4.807   0.224   6.013
 5777SOL     OW18229   0.132   1.189   4.196
 5777SOL    HW118230   0.228   1.161   4.194
 5777SOL    HW218231   0.095   1.187   4.103
 5778SOL     OW18232   1.272   6.457   2.868
 5778SOL    HW118233   1.227   6.452   2.778
 5778SOL    HW218234   1.257   6.548   2.907
 5779SOL     OW18235   4.185   1.293   1.392
 5779SOL    HW118236   4.267   1.299   1.335
 5779SOL    HW218237   4.117   1.234   1.348
 5780SOL     OW18238   0.198   4.085   1.674
 5780SOL    HW118239   0.158   4.166   1.630
 5780SOL    HW218240   0.176   4.087   1.772
 5781SOL     OW18241   2.034   4.541   5.050
 5781SOL    HW118242   2.078   4.452   5.034
 5781SOL    HW218243   1.996   4.576   4.964
 5782SOL     OW18244   2.097   1.072   1.307
 5782SOL    HW118245   2.154   1.031   1.235
 5782SOL    HW218246   2.011   1.023   1.313
 5783SOL     OW18247   1.276   0.144   1.129
 5783SOL    HW118248   1.328   0.202   1.192
 5783SOL    HW218249   1.192   0.192   1.101
 5784SOL     OW18250   0.628   5.882   0.283
 5784SOL    HW118251   0.641   5.874   0.184
 5784SOL    HW218252   0.651   5.974   0.313
 5785SOL     OW18253   1.618   1.578   0.232
 5785SOL    HW118254   1.587   1.486   0.211
 5785SOL    HW218255   1.674   1.576   0.316
 5786SOL     OW18256   1.679   3.115   1.850
 5786SOL    HW118257   1.705   3.209   1.826
 5786SOL    HW218258   1.749   3.052   1.817
 5787SOL     OW18259   5.992   2.526   5.016
 5787SOL    HW118260   6.011   2.597   5.084
 5787SOL    HW218261   6.078   2.484   4.987
 5788SOL     OW18262   2.689   0.970   2.308
 5788SOL    HW118263   2.738   1.014   2.383
 5788SOL    HW218264   2.677   0.873   2.329
 5789SOL     OW18265   4.455   3.862   6.902
 5789SOL    HW118266   4.541   3.847   6.950
 5789SOL    HW218267   4.452   3.956   6.867
 5790SOL     OW18268   5.573   5.792   4.658
 5790SOL    HW118269   5.585   5.890   4.669
 5790SOL    HW218270   5.653   5.753   4.611
 5791SOL     OW18271   4.064   0.790   2.638
 5791SOL    HW118272   4.013   0.874   2.657
 5791SOL    HW218273   4.150   0.791   2.690
 5792SOL     OW18274   4.827   3.892   3.031
 5792SOL    HW118275   4.745   3.840   3.054
 5792SOL    HW218276   4.895   3.831   2.989
 5793SOL     OW18277   5.071   2.281   5.245
 5793SOL    HW118278   4.986   2.262   5.196
 5793SOL    HW218279   5.105   2.370   5.218
 5794SOL     OW18280   3.519   6.526   6.307
 5794SOL    HW118281   3.452   6.529   6.233
 5794SOL    HW218282   3.609   6.550   6.270
 5795SOL     OW18283   1.042   5.166   1.878
 5795SOL    HW118284   0.959   5.190   1.827
 5795SOL    HW218285   1.065   5.240   1.941
 5796SOL     OW18286   4.311   1.766   6.850
 5796SOL    HW118287   4.324   1.721   6.939
 5796SOL    HW218288   4.254   1.708   6.791
 5797SOL     OW18289   5.321   2.492   0.079
 5797SOL    HW118290   5.222   2.500   0.082
 5797SOL    HW218291   5.347   2.396   0.070
 5798SOL     OW18292   1.502   4.060   5.443
 5798SOL    HW118293   1.527   4.096   5.353
 5798SOL    HW218294   1.411   4.094   5.468
 5799SOL     OW18295   1.602   6.688   3.103
 5799SOL    HW118296   1.535   6.673   3.175
 5799SOL    HW218297   1.559   6.738   3.028
 5800SOL     OW18298   0.611   6.487   0.761
 5800SOL    HW118299   0.530   6.536   0.730
 5800SOL    HW218300   0.693   6.537   0.735
 5801SOL     OW18301   2.174   2.154   2.467
 5801SOL    HW118302   2.244   2.202   2.414
 5801SOL    HW218303   2.209   2.134   2.559
 5802SOL     OW18304   0.099   1.546   2.051
 5802SOL    HW118305   0.007   1.581   2.031
 5802SOL    HW218306   0.144   1.606   2.118
 5803SOL     OW18307   1.268   4.941   4.149
 5803SOL    HW118308   1.193   4.875   4.140
 5803SOL    HW218309   1.272   4.975   4.243
 5804SOL     OW18310   6.489   0.562   3.697
 5804SOL    HW118311   6.437   0.586   3.778
 5804SOL    HW218312   6.459   0.618   3.620
 5805SOL     OW18313   2.381   2.774   1.283
 5805SOL    HW118314   2.408   2.706   1.350
 5805SOL    HW218315   2.282   2.776   1.275
 5806SOL     OW18316   0.446   3.214   2.980
 5806SOL    HW118317   0.447   3.225   3.080
 5806SOL    HW218318   0.359   3.246   2.944
 5807SOL     OW18319   1.108   6.955   0.630
 5807SOL    HW118320   1.034   6.996   0.578
 5807SOL    HW218321   1.078   6.938   0.724
 5808SOL     OW18322   6.040   0.654   4.882
 5808SOL    HW118323   6.039   0.740   4.830
 5808SOL    HW218324   6.069   0.579   4.822
 5809SOL     OW18325   0.685   2.062   5.902
 5809SOL    HW118326   0.617   2.121   5.945
 5809SOL    HW218327   0.666   1.967   5.925
 5810SOL     OW18328   3.903   6.986   5.355
 5810SOL    HW118329   3.858   6.917   5.412
 5810SOL    HW218330   3.985   6.946   5.313
 5811SOL     OW18331   3.160   3.827   5.904
 5811SOL    HW118332   3.159   3.727   5.902
 5811SOL    HW218333   3.237   3.860   5.850
 5812SOL     OW18334   5.734   2.567   0.630
 5812SOL    HW118335   5.635   2.579   0.628
 5812SOL    HW218336   5.775   2.614   0.552
 5813SOL     OW18337   4.312   6.602   1.501
 5813SOL    HW118338   4.325   6.701   1.505
 5813SOL    HW218339   4.384   6.561   1.446
 5814SOL     OW18340   5.498   1.736   1.946
 5814SOL    HW118341   5.413   1.771   1.985
 5814SOL    HW218342   5.555   1.812   1.916
 5815SOL     OW18343   6.401   1.624   3.562
 5815SOL    HW118344   6.433   1.529   3.567
 5815SOL    HW218345   6.372   1.644   3.468
 5816SOL     OW18346   6.761   3.910   3.074
 5816SOL    HW118347   6.834   3.905   3.006
 5816SOL    HW218348   6.703   3.990   3.055
 5817SOL     OW18349   5.934   4.496   3.487
 5817SOL    HW118350   5.987   4.411   3.488
 5817SOL    HW218351   5.861   4.490   3.555
 5818SOL     OW18352   2.320   0.290   5.759
 5818SOL    HW118353   2.277   0.246   5.680
 5818SOL    HW218354   2.378   0.365   5.727
 5819SOL     OW18355   4.408   5.085   6.928
 5819SOL    HW118356   4.385   5.041   7.015
 5819SOL    HW218357   4.327   5.087   6.869
 5820SOL     OW18358   5.826   5.294   2.429
 5820SOL    HW118359   5.782   5.333   2.510
 5820SOL    HW218360   5.791   5.202   2.412
 5821SOL     OW18361   6.253   0.805   1.288
 5821SOL    HW118362   6.350   0.783   1.277
 5821SOL    HW218363   6.241   0.904   1.282
 5822SOL     OW18364   2.169   3.322   2.680
 5822SOL    HW118365   2.202   3.270   2.759
 5822SOL    HW218366   2.157   3.261   2.602
 5823SOL     OW18367   2.056   6.408   4.078
 5823SOL    HW118368   2.108   6.483   4.117
 5823SOL    HW218369   2.000   6.365   4.149
 5824SOL     OW18370   0.596   0.012   1.395
 5824SOL    HW118371   0.567   6.957   1.335
 5824SOL    HW218372   0.527   0.084   1.395
 5825SOL     OW18373   6.328   0.594   4.337
 5825SOL    HW118374   6.419   0.630   4.316
 5825SOL    HW218375   6.328   0.556   4.429
 5826SOL     OW18376   0.647   6.877   4.866
 5826SOL    HW118377   0.554   6.863   4.832
 5826SOL    HW218378   0.644   6.933   4.948
 5827SOL     OW18379   2.344   4.936   5.252
 5827SOL    HW118380   2.430   4.985   5.246
 5827SOL    HW218381   2.341   4.883   5.337
 5828SOL     OW18382   4.223   6.727   4.323
 5828SOL    HW118383   4.254   6.821   4.305
 5828SOL    HW218384   4.167   6.695   4.247
 5829SOL     OW18385   2.681   1.166   3.947
 5829SOL    HW118386   2.684   1.250   3.893
 5829SOL    HW218387   2.724   1.092   3.894
 5830SOL     OW18388   3.930   5.690   5.074
 5830SOL    HW118389   3.933   5.700   4.975
 5830SOL    HW218390   3.982   5.609   5.101
 5831SOL     OW18391   1.689   1.485   5.132
 5831SOL    HW118392   1.636   1.403   5.152
 5831SOL    HW218393   1.678   1.510   5.036
 5832SOL     OW18394   2.793   5.209   0.922
 5832SOL    HW118395   2.786   5.298   0.877
 5832SOL    HW218396   2.886   5.196   0.957
 5833SOL     OW18397   4.404   3.530   6.137
 5833SOL    HW118398   4.385   3.575   6.050
 5833SOL    HW218399   4.363   3.582   6.212
 5834SOL     OW18400   5.519   3.973   6.600
 5834SOL    HW118401   5.601   3.930   6.561
 5834SOL    HW218402   5.545   4.062   6.639
 5835SOL     OW18403   5.161   0.923   2.684
 5835SOL    HW118404   5.105   0.985   2.629
 5835SOL    HW218405   5.249   0.965   2.702
 5836SOL     OW18406   3.992   6.823   2.120
 5836SOL    HW118407   3.902   6.849   2.085
 5836SOL    HW218408   3.982   6.752   2.190
 5837SOL     OW18409   3.279   4.382   6.906
 5837SOL    HW118410   3.240   4.382   6.998
 5837SOL    HW218411   3.375   4.354   6.910
 5838SOL     OW18412   3.116   1.723   0.852
 5838SOL    HW118413   3.126   1.780   0.934
 5838SOL    HW218414   3.122   1.781   0.770
 5839SOL     OW18415   1.411   1.832   1.070
 5839SOL    HW118416   1.388   1.916   1.119
 5839SOL    HW218417   1.487   1.787   1.116
 5840SOL     OW18418   1.204   3.473   3.166
 5840SOL    HW118419   1.167   3.532   3.237
 5840SOL    HW218420   1.130   3.418   3.126
 5841SOL     OW18421   5.302   2.360   0.646
 5841SOL    HW118422   5.317   2.278   0.700
 5841SOL    HW218423   5.316   2.339   0.549
 5842SOL     OW18424   2.887   1.554   0.867
 5842SOL    HW118425   2.973   1.603   0.852
 5842SOL    HW218426   2.839   1.546   0.780
 5843SOL     OW18427   1.775   3.405   1.339
 5843SOL    HW118428   1.824   3.386   1.424
 5843SOL    HW218429   1.839   3.403   1.262
 5844SOL     OW18430   0.832   0.802   5.079
 5844SOL    HW118431   0.867   0.759   4.996
 5844SOL    HW218432   0.904   0.858   5.121
 5845SOL     OW18433   1.231   6.390   1.693
 5845SOL    HW118434   1.212   6.478   1.737
 5845SOL    HW218435   1.308   6.346   1.740
 5846SOL     OW18436   6.363   4.198   5.952
 5846SOL    HW118437   6.294   4.140   5.908
 5846SOL    HW218438   6.427   4.231   5.883
 5847SOL     OW18439   2.951   3.259   0.673
 5847SOL    HW118440   2.876   3.325   0.673
 5847SOL    HW218441   2.949   3.205   0.757
 5848SOL     OW18442   2.564   5.480   3.102
 5848SOL    HW118443   2.489   5.489   3.167
 5848SOL    HW218444   2.539   5.526   3.016
 5849SOL     OW18445   2.601   6.088   5.574
 5849SOL    HW118446   2.699   6.099   5.591
 5849SOL    HW218447   2.572   6.155   5.505
 5850SOL     OW18448   1.051   1.632   1.667
 5850SOL    HW118449   0.953   1.643   1.686
 5850SOL    HW218450   1.105   1.674   1.740
 5851SOL     OW18451   6.220   3.230   4.820
 5851SOL    HW118452   6.313   3.258   4.845
 5851SOL    HW218453   6.160   3.239   4.900
 5852SOL     OW18454   5.002   5.130   2.726
 5852SOL    HW118455   4.929   5.191   2.696
 5852SOL    HW218456   4.966   5.038   2.739
 5853SOL     OW18457   3.666   4.565   5.378
 5853SOL    HW118458   3.685   4.663   5.384
 5853SOL    HW218459   3.602   4.539   5.450
 5854SOL     OW18460   3.073   5.127   6.251
 5854SOL    HW118461   3.148   5.134   6.316
 5854SOL    HW218462   3.027   5.039   6.263
 5855SOL     OW18463   2.144   2.895   4.059
 5855SOL    HW118464   2.209   2.825   4.087
 5855SOL    HW218465   2.083   2.917   4.135
 5856SOL     OW18466   1.602   0.060   3.043
 5856SOL    HW118467   1.682   0.028   3.095
 5856SOL    HW218468   1.550   7.001   3.011
 5857SOL     OW18469   6.806   4.210   6.070
 5857SOL    HW118470   6.851   4.121   6.063
 5857SOL    HW218471   6.855   4.268   6.135
 5858SOL     OW18472   2.284   0.575   3.565
 5858SOL    HW118473   2.308   0.539   3.474
 5858SOL    HW218474   2.304   0.506   3.634
 5859SOL     OW18475   5.687   0.044   2.397
 5859SOL    HW118476   5.596   0.002   2.401
 5859SOL    HW218477   5.708   0.069   2.303
 5860SOL     OW18478   0.214   3.011   4.158
 5860SOL    HW118479   0.196   2.921   4.119
 5860SOL    HW218480   0.277   3.061   4.098
 5861SOL     OW18481   4.791   0.784   4.765
 5861SOL    HW118482   4.816   0.824   4.853
 5861SOL    HW218483   4.692   0.790   4.753
 5862SOL     OW18484   0.022   4.939   3.578
 5862SOL    HW118485   0.087   4.986   3.638
 5862SOL    HW218486   0.055   4.941   3.484
 5863SOL     OW18487   3.923   0.219   5.405
 5863SOL    HW118488   3.849   0.251   5.466
 5863SOL    HW218489   3.914   0.121   5.391
 5864SOL     OW18490   2.917   3.616   2.500
 5864SOL    HW118491   2.972   3.570   2.430
 5864SOL    HW218492   2.833   3.650   2.459
 5865SOL     OW18493   5.894   1.325   5.383
 5865SOL    HW118494   5.809   1.377   5.380
 5865SOL    HW218495   5.969   1.385   5.411
 5866SOL     OW18496   3.846   2.946   2.602
 5866SOL    HW118497   3.813   2.857   2.635
 5866SOL    HW218498   3.846   2.946   2.502
 5867SOL     OW18499   2.727   2.354   1.570
 5867SOL    HW118500   2.790   2.423   1.605
 5867SOL    HW218501   2.744   2.341   1.472
 5868SOL     OW18502   0.857   1.106   6.292
 5868SOL    HW118503   0.888   1.013   6.313
 5868SOL    HW218504   0.920   1.148   6.227
 5869SOL     OW18505   1.414   4.799   4.481
 5869SOL    HW118506   1.485   4.864   4.452
 5869SOL    HW218507   1.451   4.738   4.551
 5870SOL     OW18508   4.489   4.603   4.798
 5870SOL    HW118509   4.586   4.615   4.816
 5870SOL    HW218510   4.439   4.602   4.884
 5871SOL     OW18511   3.342   3.500   3.044
 5871SOL    HW118512   3.312   3.596   3.049
 5871SOL    HW218513   3.411   3.491   2.971
 5872SOL     OW18514   3.434   6.072   2.323
 5872SOL    HW118515   3.368   6.002   2.297
 5872SOL    HW218516   3.387   6.151   2.362
 5873SOL     OW18517   3.741   4.951   2.403
 5873SOL    HW118518   3.678   4.938   2.326
 5873SOL    HW218519   3.835   4.943   2.371
 5874SOL     OW18520   2.934   5.007   5.798
 5874SOL    HW118521   2.855   4.947   5.783
 5874SOL    HW218522   2.921   5.059   5.882
 5875SOL     OW18523   2.983   1.081   0.492
 5875SOL    HW118524   2.945   1.008   0.548
 5875SOL    HW218525   3.083   1.076   0.496
 5876SOL     OW18526   3.864   3.303   2.286
 5876SOL    HW118527   3.883   3.219   2.236
 5876SOL    HW218528   3.843   3.376   2.221
 5877SOL     OW18529   5.718   4.586   1.652
 5877SOL    HW118530   5.804   4.566   1.700
 5877SOL    HW218531   5.641   4.557   1.709
 5878SOL     OW18532   2.399   4.753   2.597
 5878SOL    HW118533   2.434   4.796   2.514
 5878SOL    HW218534   2.472   4.703   2.643
 5879SOL     OW18535   0.018   4.159   6.720
 5879SOL    HW118536   6.993   4.194   6.802
 5879SOL    HW218537   6.968   4.133   6.653
 5880SOL     OW18538   2.760   6.196   1.656
 5880SOL    HW118539   2.739   6.098   1.653
 5880SOL    HW218540   2.794   6.226   1.567
 5881SOL     OW18541   0.524   5.149   4.078
 5881SOL    HW118542   0.619   5.131   4.104
 5881SOL    HW218543   0.492   5.077   4.017
 5882SOL     OW18544   5.016   0.463   1.290
 5882SOL    HW118545   5.013   0.536   1.358
 5882SOL    HW218546   5.073   0.389   1.324
 5883SOL     OW18547   0.004   3.005   7.010
 5883SOL    HW118548   6.977   2.919   0.012
 5883SOL    HW218549   6.967   3.057   6.946
 5884SOL     OW18550   0.908   1.345   2.402
 5884SOL    HW118551   0.983   1.410   2.412
 5884SOL    HW218552   0.935   1.272   2.340
 5885SOL     OW18553   5.606   6.276   1.377
 5885SOL    HW118554   5.647   6.277   1.286
 5885SOL    HW218555   5.658   6.335   1.438
 5886SOL     OW18556   0.549   1.961   5.634
 5886SOL    HW118557   0.621   1.892   5.637
 5886SOL    HW218558   0.569   2.033   5.700
 5887SOL     OW18559   3.059   0.967   4.186
 5887SOL    HW118560   3.084   1.060   4.159
 5887SOL    HW218561   3.132   0.927   4.242
 5888SOL     OW18562   2.011   6.173   3.787
 5888SOL    HW118563   2.032   6.239   3.715
 5888SOL    HW218564   1.999   6.221   3.874
 5889SOL     OW18565   2.406   0.396   1.250
 5889SOL    HW118566   2.404   0.339   1.332
 5889SOL    HW218567   2.355   0.480   1.266
 5890SOL     OW18568   2.029   5.652   5.486
 5890SOL    HW118569   2.055   5.715   5.413
 5890SOL    HW218570   2.023   5.702   5.572
 5891SOL     OW18571   3.665   2.986   0.470
 5891SOL    HW118572   3.598   3.044   0.425
 5891SOL    HW218573   3.734   2.957   0.403
 5892SOL     OW18574   0.572   6.277   1.246
 5892SOL    HW118575   0.605   6.253   1.155
 5892SOL    HW218576   0.610   6.366   1.272
 5893SOL     OW18577   1.437   1.961   3.986
 5893SOL    HW118578   1.395   2.041   3.943
 5893SOL    HW218579   1.439   1.885   3.920
 5894SOL     OW18580   1.562   3.690   3.423
 5894SOL    HW118581   1.658   3.662   3.410
 5894SOL    HW218582   1.505   3.608   3.435
 5895SOL     OW18583   5.360   3.265   4.698
 5895SOL    HW118584   5.280   3.221   4.739
 5895SOL    HW218585   5.369   3.235   4.603
 5896SOL     OW18586   3.847   2.330   7.000
 5896SOL    HW118587   3.904   2.390   6.944
 5896SOL    HW218588   3.892   2.314   0.069
 5897SOL     OW18589   3.879   1.117   0.593
 5897SOL    HW118590   3.860   1.209   0.559
 5897SOL    HW218591   3.975   1.110   0.618
 5898SOL     OW18592   2.034   6.867   2.401
 5898SOL    HW118593   2.074   6.802   2.336
 5898SOL    HW218594   2.055   6.960   2.371
 5899SOL     OW18595   5.927   6.565   4.412
 5899SOL    HW118596   5.842   6.611   4.385
 5899SOL    HW218597   5.913   6.516   4.497
 5900SOL     OW18598   4.824   4.824   3.192
 5900SOL    HW118599   4.734   4.867   3.196
 5900SOL    HW218600   4.870   4.834   3.280
 5901SOL     OW18601   2.356   6.382   6.712
 5901SOL    HW118602   2.436   6.364   6.655
 5901SOL    HW218603   2.345   6.309   6.779
 5902SOL     OW18604   6.909   2.375   0.304
 5902SOL    HW118605   6.859   2.360   0.390
 5902SOL    HW218606   6.845   2.404   0.233
 5903SOL     OW18607   5.871   4.210   6.760
 5903SOL    HW118608   5.882   4.120   6.803
 5903SOL    HW218609   5.841   4.276   6.828
 5904SOL     OW18610   0.429   3.614   2.264
 5904SOL    HW118611   0.365   3.649   2.332
 5904SOL    HW218612   0.430   3.674   2.184
 5905SOL     OW18613   6.910   6.331   2.476
 5905SOL    HW118614   6.914   6.314   2.575
 5905SOL    HW218615   6.958   6.417   2.455
 5906SOL     OW18616   6.007   1.250   3.534
 5906SOL    HW118617   5.918   1.213   3.560
 5906SOL    HW218618   6.063   1.262   3.616
 5907SOL     OW18619   0.378   6.535   1.452
 5907SOL    HW118620   0.325   6.465   1.499
 5907SOL    HW218621   0.342   6.626   1.475
 5908SOL     OW18622   0.478   2.641   5.272
 5908SOL    HW118623   0.569   2.611   5.243
 5908SOL    HW218624   0.447   2.713   5.210
 5909SOL     OW18625   0.619   6.015   0.699
 5909SOL    HW118626   0.621   6.098   0.754
 5909SOL    HW218627   0.536   6.013   0.644
 5910SOL     OW18628   1.859   2.343   3.473
 5910SOL    HW118629   1.941   2.305   3.518
 5910SOL    HW218630   1.838   2.432   3.514
 5911SOL     OW18631   6.590   5.481   6.728
 5911SOL    HW118632   6.570   5.513   6.635
 5911SOL    HW218633   6.537   5.398   6.746
 5912SOL     OW18634   6.485   1.667   4.704
 5912SOL    HW118635   6.554   1.739   4.696
 5912SOL    HW218636   6.486   1.631   4.798
 5913SOL     OW18637   5.685   2.759   0.223
 5913SOL    HW118638   5.637   2.841   0.192
 5913SOL    HW218639   5.618   2.690   0.249
 5914SOL     OW18640   1.201   6.536   6.492
 5914SOL    HW118641   1.169   6.550   6.399
 5914SOL    HW218642   1.210   6.625   6.538
 5915SOL     OW18643   3.341   0.211   6.743
 5915SOL    HW118644   3.382   0.239   6.656
 5915SOL    HW218645   3.287   0.286   6.780
 5916SOL     OW18646   1.743   6.603   2.217
 5916SOL    HW118647   1.788   6.574   2.133
 5916SOL    HW218648   1.706   6.523   2.265
 5917SOL     OW18649   2.983   4.458   6.828
 5917SOL    HW118650   2.975   4.361   6.850
 5917SOL    HW218651   3.068   4.494   6.866
 5918SOL     OW18652   2.983   6.356   6.116
 5918SOL    HW118653   2.934   6.410   6.047
 5918SOL    HW218654   3.082   6.366   6.102
 5919SOL     OW18655   3.393   2.872   3.469
 5919SOL    HW118656   3.338   2.875   3.385
 5919SOL    HW218657   3.481   2.918   3.452
 5920SOL     OW18658   6.296   0.233   5.815
 5920SOL    HW118659   6.215   0.197   5.862
 5920SOL    HW218660   6.297   0.201   5.720
 5921SOL     OW18661   3.246   4.659   6.605
 5921SOL    HW118662   3.177   4.609   6.553
 5921SOL    HW218663   3.202   4.710   6.679
 5922SOL     OW18664   6.447   3.445   3.029
 5922SOL    HW118665   6.366   3.399   2.993
 5922SOL    HW218666   6.433   3.544   3.025
 5923SOL     OW18667   6.332   0.647   1.513
 5923SOL    HW118668   6.324   0.562   1.461
 5923SOL    HW218669   6.300   0.723   1.456
 5924SOL     OW18670   5.509   6.848   2.643
 5924SOL    HW118671   5.412   6.866   2.627
 5924SOL    HW218672   5.545   6.916   2.707
 5925SOL     OW18673   4.527   5.284   1.151
 5925SOL    HW118674   4.621   5.251   1.157
 5925SOL    HW218675   4.487   5.289   1.243
 5926SOL     OW18676   3.931   4.793   2.712
 5926SOL    HW118677   3.899   4.829   2.800
 5926SOL    HW218678   3.863   4.729   2.676
 5927SOL     OW18679   1.321   3.908   1.650
 5927SOL    HW118680   1.299   3.892   1.554
 5927SOL    HW218681   1.241   3.886   1.707
 5928SOL     OW18682   4.221   0.619   0.861
 5928SOL    HW118683   4.264   0.582   0.943
 5928SOL    HW218684   4.123   0.633   0.877
 5929SOL     OW18685   0.171   0.615   5.840
 5929SOL    HW118686   0.210   0.637   5.750
 5929SOL    HW218687   0.091   0.674   5.857
 5930SOL     OW18688   1.199   3.341   1.792
 5930SOL    HW118689   1.270   3.271   1.798
 5930SOL    HW218690   1.242   3.431   1.781
 5931SOL     OW18691   5.709   5.899   3.105
 5931SOL    HW118692   5.764   5.923   3.025
 5931SOL    HW218693   5.633   5.963   3.114
 5932SOL     OW18694   2.736   0.507   6.310
 5932SOL    HW118695   2.698   0.591   6.272
 5932SOL    HW218696   2.701   0.428   6.259
 5933SOL     OW18697   6.713   5.164   4.535
 5933SOL    HW118698   6.800   5.131   4.500
 5933SOL    HW218699   6.664   5.213   4.463
 5934SOL     OW18700   3.370   3.613   5.686
 5934SOL    HW118701   3.457   3.613   5.735
 5934SOL    HW218702   3.296   3.594   5.750
 5935SOL     OW18703   0.417   6.443   4.936
 5935SOL    HW118704   0.401   6.503   5.014
 5935SOL    HW218705   0.445   6.497   4.857
 5936SOL     OW18706   3.640   3.491   3.354
 5936SOL    HW118707   3.695   3.462   3.433
 5936SOL    HW218708   3.691   3.478   3.270
 5937SOL     OW18709   0.028   3.004   2.387
 5937SOL    HW118710   6.951   3.028   2.390
 5937SOL    HW218711   0.070   3.046   2.306
 5938SOL     OW18712   6.169   4.931   5.338
 5938SOL    HW118713   6.178   5.020   5.383
 5938SOL    HW218714   6.169   4.859   5.408
 5939SOL     OW18715   3.694   6.755   4.478
 5939SOL    HW118716   3.656   6.730   4.388
 5939SOL    HW218717   3.656   6.842   4.507
 5940SOL     OW18718   4.864   5.571   2.783
 5940SOL    HW118719   4.952   5.527   2.768
 5940SOL    HW218720   4.877   5.666   2.810
 5941SOL     OW18721   6.404   1.921   1.916
 5941SOL    HW118722   6.447   1.977   1.987
 5941SOL    HW218723   6.450   1.935   1.829
 5942SOL     OW18724   6.328   3.513   6.392
 5942SOL    HW118725   6.411   3.567   6.375
 5942SOL    HW218726   6.342   3.458   6.474
 5943SOL     OW18727   3.851   3.627   0.592
 5943SOL    HW118728   3.821   3.583   0.507
 5943SOL    HW218729   3.921   3.695   0.572
 5944SOL     OW18730   0.870   3.359   6.649
 5944SOL    HW118731   0.775   3.340   6.626
 5944SOL    HW218732   0.921   3.380   6.565
 5945SOL     OW18733   0.635   5.766   5.518
 5945SOL    HW118734   0.551   5.713   5.529
 5945SOL    HW218735   0.672   5.789   5.608
 5946SOL     OW18736   3.835   4.631   6.853
 5946SOL    HW118737   3.812   4.557   6.790
 5946SOL    HW218738   3.934   4.636   6.865
 5947SOL     OW18739   3.236   3.388   4.711
 5947SOL    HW118740   3.286   3.350   4.633
 5947SOL    HW218741   3.139   3.367   4.703
 5948SOL     OW18742   5.129   3.832   2.111
 5948SOL    HW118743   5.046   3.790   2.149
 5948SOL    HW218744   5.140   3.923   2.151
 5949SOL     OW18745   6.132   5.804   1.133
 5949SOL    HW118746   6.219   5.852   1.141
 5949SOL    HW218747   6.148   5.710   1.104
 5950SOL     OW18748   5.697   2.611   5.935
 5950SOL    HW118749   5.689   2.649   5.843
 5950SOL    HW218750   5.606   2.590   5.970
 5951SOL     OW18751   1.097   4.566   5.614
 5951SOL    HW118752   1.045   4.573   5.699
 5951SOL    HW218753   1.050   4.505   5.550
 5952SOL     OW18754   3.922   4.757   1.767
 5952SOL    HW118755   3.858   4.688   1.731
 5952SOL    HW218756   3.873   4.817   1.830
 5953SOL     OW18757   6.199   2.521   5.362
 5953SOL    HW118758   6.167   2.453   5.296
 5953SOL    HW218759   6.122   2.575   5.395
 5954SOL     OW18760   0.490   5.692   4.832
 5954SOL    HW118761   0.522   5.661   4.921
 5954SOL    HW218762   0.560   5.677   4.763
 5955SOL     OW18763   4.993   4.376   1.336
 5955SOL    HW118764   5.065   4.441   1.311
 5955SOL    HW218765   4.909   4.399   1.287
 5956SOL     OW18766   4.903   2.601   4.409
 5956SOL    HW118767   4.993   2.617   4.449
 5956SOL    HW218768   4.858   2.689   4.391
 5957SOL     OW18769   1.281   1.031   2.874
 5957SOL    HW118770   1.232   0.944   2.872
 5957SOL    HW218771   1.241   1.094   2.808
 5958SOL     OW18772   4.098   6.719   2.720
 5958SOL    HW118773   4.034   6.782   2.763
 5958SOL    HW218774   4.060   6.685   2.634
 5959SOL     OW18775   5.181   2.391   4.791
 5959SOL    HW118776   5.248   2.382   4.717
 5959SOL    HW218777   5.229   2.388   4.879
 5960SOL     OW18778   3.561   6.523   5.588
 5960SOL    HW118779   3.464   6.545   5.598
 5960SOL    HW218780   3.616   6.591   5.636
 5961SOL     OW18781   3.993   1.949   2.673
 5961SOL    HW118782   3.929   1.991   2.738
 5961SOL    HW218783   3.946   1.876   2.623
 5962SOL     OW18784   5.542   6.321   0.182
 5962SOL    HW118785   5.485   6.402   0.193
 5962SOL    HW218786   5.484   6.240   0.174
 5963SOL     OW18787   4.030   4.721   6.610
 5963SOL    HW118788   4.043   4.688   6.703
 5963SOL    HW218789   4.029   4.643   6.546
 5964SOL     OW18790   1.948   6.542   2.459
 5964SOL    HW118791   1.869   6.485   2.480
 5964SOL    HW218792   1.948   6.566   2.362
 5965SOL     OW18793   1.856   7.018   6.781
 5965SOL    HW118794   1.884   6.924   6.798
 5965SOL    HW218795   1.851   0.048   6.867
 5966SOL     OW18796   1.918   0.398   5.543
 5966SOL    HW118797   1.855   0.374   5.617
 5966SOL    HW218798   1.981   0.322   5.527
 5967SOL     OW18799   2.580   2.116   4.837
 5967SOL    HW118800   2.603   2.101   4.741
 5967SOL    HW218801   2.503   2.057   4.863
 5968SOL     OW18802   5.706   2.383   0.210
 5968SOL    HW118803   5.665   2.350   0.125
 5968SOL    HW218804   5.664   2.469   0.237
 5969SOL     OW18805   5.187   1.003   6.403
 5969SOL    HW118806   5.200   0.924   6.462
 5969SOL    HW218807   5.154   1.081   6.457
 5970SOL     OW18808   0.521   3.275   0.755
 5970SOL    HW118809   0.463   3.194   0.769
 5970SOL    HW218810   0.609   3.261   0.801
 5971SOL     OW18811   6.424   6.755   3.364
 5971SOL    HW118812   6.349   6.814   3.332
 5971SOL    HW218813   6.485   6.807   3.423
 5972SOL     OW18814   4.933   5.049   0.606
 5972SOL    HW118815   4.946   5.049   0.507
 5972SOL    HW218816   4.990   4.977   0.647
 5973SOL     OW18817   1.762   3.036   2.566
 5973SOL    HW118818   1.731   2.941   2.570
 5973SOL    HW218819   1.824   3.048   2.488
 5974SOL     OW18820   3.887   0.474   6.607
 5974SOL    HW118821   3.915   0.568   6.587
 5974SOL    HW218822   3.901   0.417   6.525
 5975SOL     OW18823   5.256   4.636   0.163
 5975SOL    HW118824   5.177   4.598   0.116
 5975SOL    HW218825   5.312   4.561   0.200
 5976SOL     OW18826   3.608   3.636   5.824
 5976SOL    HW118827   3.557   3.648   5.908
 5976SOL    HW218828   3.706   3.629   5.845
 5977SOL     OW18829   0.310   5.062   0.237
 5977SOL    HW118830   0.260   5.148   0.233
 5977SOL    HW218831   0.365   5.051   0.154
 5978SOL     OW18832   3.283   5.304   0.044
 5978SOL    HW118833   3.359   5.240   0.047
 5978SOL    HW218834   3.305   5.379   7.002
 5979SOL     OW18835   6.563   0.533   1.661
 5979SOL    HW118836   6.499   0.589   1.608
 5979SOL    HW218837   6.655   0.543   1.622
 5980SOL     OW18838   3.570   2.600   1.707
 5980SOL    HW118839   3.640   2.647   1.653
 5980SOL    HW218840   3.587   2.501   1.704
 5981SOL     OW18841   4.846   2.978   0.487
 5981SOL    HW118842   4.747   2.972   0.499
 5981SOL    HW218843   4.876   3.072   0.502
 5982SOL     OW18844   6.229   1.852   2.540
 5982SOL    HW118845   6.302   1.793   2.509
 5982SOL    HW218846   6.160   1.861   2.468
 5983SOL     OW18847   0.014   0.830   4.740
 5983SOL    HW118848   0.029   0.755   4.805
 5983SOL    HW218849   0.088   0.897   4.750
 5984SOL     OW18850   6.441   6.500   3.469
 5984SOL    HW118851   6.426   6.576   3.407
 5984SOL    HW218852   6.506   6.527   3.540
 5985SOL     OW18853   5.954   1.846   3.597
 5985SOL    HW118854   6.024   1.845   3.525
 5985SOL    HW218855   5.945   1.753   3.635
 5986SOL     OW18856   4.278   3.876   5.338
 5986SOL    HW118857   4.245   3.926   5.418
 5986SOL    HW218858   4.250   3.780   5.345
 5987SOL     OW18859   0.054   0.679   4.508
 5987SOL    HW118860   7.015   0.692   4.428
 5987SOL    HW218861   0.023   0.738   4.582
 5988SOL     OW18862   2.881   1.393   0.094
 5988SOL    HW118863   2.928   1.324   0.149
 5988SOL    HW218864   2.890   1.482   0.138
 5989SOL     OW18865   0.701   5.981   6.772
 5989SOL    HW118866   0.685   5.950   6.866
 5989SOL    HW218867   0.759   6.063   6.773
 5990SOL     OW18868   3.745   4.388   1.349
 5990SOL    HW118869   3.834   4.430   1.368
 5990SOL    HW218870   3.751   4.289   1.363
 5991SOL     OW18871   4.778   6.073   0.908
 5991SOL    HW118872   4.773   6.004   0.836
 5991SOL    HW218873   4.686   6.109   0.925
 5992SOL     OW18874   3.286   0.338   1.823
 5992SOL    HW118875   3.326   0.426   1.796
 5992SOL    HW218876   3.232   0.302   1.748
 5993SOL     OW18877   6.116   3.316   0.617
 5993SOL    HW118878   6.149   3.409   0.638
 5993SOL    HW218879   6.017   3.318   0.607
 5994SOL     OW18880   0.080   2.781   1.220
 5994SOL    HW118881   0.031   2.770   1.306
 5994SOL    HW218882   0.167   2.828   1.237
 5995SOL     OW18883   4.732   3.372   1.275
 5995SOL    HW118884   4.707   3.400   1.182
 5995SOL    HW218885   4.653   3.382   1.335
 5996SOL     OW18886   2.648   5.629   1.279
 5996SOL    HW118887   2.700   5.710   1.306
 5996SOL    HW218888   2.696   5.582   1.204
 5997SOL     OW18889   6.576   6.779   2.809
 5997SOL    HW118890   6.497   6.828   2.846
 5997SOL    HW218891   6.562   6.680   2.818
 5998SOL     OW18892   6.152   0.824   2.157
 5998SOL    HW118893   6.139   0.788   2.249
 5998SOL    HW218894   6.246   0.805   2.127
 5999SOL     OW18895   4.042   3.693   0.902
 5999SOL    HW118896   4.103   3.706   0.980
 5999SOL    HW218897   4.094   3.652   0.826
 6000SOL     OW18898   0.251   5.473   0.437
 6000SOL    HW118899   0.275   5.441   0.346
 6000SOL    HW218900   0.168   5.529   0.432
 6001SOL     OW18901   4.912   6.321   5.543
 6001SOL    HW118902   4.872   6.379   5.472
 6001SOL    HW218903   4.841   6.297   5.610
 6002SOL     OW18904   6.930   0.034   4.793
 6002SOL    HW118905   6.985   0.025   4.876
 6002SOL    HW218906   6.851   6.993   4.799
 6003SOL     OW18907   6.386   2.635   4.299
 6003SOL    HW118908   6.336   2.679   4.225
 6003SOL    HW218909   6.432   2.704   4.355
 6004SOL     OW18910   5.231   2.564   3.272
 6004SOL    HW118911   5.252   2.574   3.175
 6004SOL    HW218912   5.171   2.486   3.286
 6005SOL     OW18913   4.745   4.310   5.350
 6005SOL    HW118914   4.764   4.405   5.323
 6005SOL    HW218915   4.732   4.255   5.268
 6006SOL     OW18916   3.542   6.842   5.178
 6006SOL    HW118917   3.606   6.872   5.108
 6006SOL    HW218918   3.509   6.749   5.157
 6007SOL     OW18919   0.228   4.230   5.736
 6007SOL    HW118920   0.301   4.270   5.681
 6007SOL    HW218921   0.230   4.270   5.828
 6008SOL     OW18922   2.286   4.358   5.302
 6008SOL    HW118923   2.221   4.353   5.227
 6008SOL    HW218924   2.304   4.266   5.338
 6009SOL     OW18925   4.567   5.679   3.197
 6009SOL    HW118926   4.550   5.708   3.103
 6009SOL    HW218927   4.591   5.582   3.199
 6010SOL     OW18928   0.128   4.314   4.716
 6010SOL    HW118929   0.029   4.313   4.717
 6010SOL    HW218930   0.163   4.243   4.777
 6011SOL     OW18931   5.097   1.457   3.031
 6011SOL    HW118932   5.160   1.381   3.041
 6011SOL    HW218933   5.068   1.489   3.121
 6012SOL     OW18934   5.960   0.555   0.085
 6012SOL    HW118935   5.944   0.653   0.076
 6012SOL    HW218936   6.009   0.537   0.170
 6013SOL     OW18937   5.046   1.090   2.518
 6013SOL    HW118938   5.080   1.163   2.457
 6013SOL    HW218939   4.947   1.082   2.508
 6014SOL     OW18940   2.974   3.265   4.601
 6014SOL    HW118941   2.876   3.245   4.608
 6014SOL    HW218942   3.001   3.263   4.505
 6015SOL     OW18943   6.329   2.351   4.322
 6015SOL    HW118944   6.270   2.351   4.403
 6015SOL    HW218945   6.341   2.445   4.290
 6016SOL     OW18946   4.813   1.775   4.846
 6016SOL    HW118947   4.741   1.724   4.893
 6016SOL    HW218948   4.888   1.713   4.823
 6017SOL     OW18949   6.710   3.255   5.157
 6017SOL    HW118950   6.622   3.300   5.171
 6017SOL    HW218951   6.734   3.258   5.060
 6018SOL     OW18952   3.322   1.234   4.958
 6018SOL    HW118953   3.301   1.328   4.987
 6018SOL    HW218954   3.409   1.234   4.909
 6019SOL     OW18955   0.568   3.802   5.995
 6019SOL    HW118956   0.555   3.707   5.966
 6019SOL    HW218957   0.627   3.849   5.930
 6020SOL     OW18958   1.235   5.132   0.751
 6020SOL    HW118959   1.193   5.223   0.744
 6020SOL    HW218960   1.334   5.140   0.739
 6021SOL     OW18961   3.892   0.346   2.368
 6021SOL    HW118962   3.963   0.278   2.385
 6021SOL    HW218963   3.817   0.333   2.434
 6022SOL     OW18964   6.248   0.894   2.942
 6022SOL    HW118965   6.149   0.886   2.955
 6022SOL    HW218966   6.277   0.986   2.968
 6023SOL     OW18967   4.711   0.600   1.529
 6023SOL    HW118968   4.687   0.687   1.487
 6023SOL    HW218969   4.678   0.598   1.624
 6024SOL     OW18970   0.226   4.536   1.203
 6024SOL    HW118971   0.219   4.619   1.147
 6024SOL    HW218972   0.318   4.529   1.241
 6025SOL     OW18973   2.837   1.599   4.048
 6025SOL    HW118974   2.933   1.628   4.054
 6025SOL    HW218975   2.831   1.500   4.061
 6026SOL     OW18976   6.344   4.205   3.942
 6026SOL    HW118977   6.399   4.274   3.895
 6026SOL    HW218978   6.256   4.245   3.968
 6027SOL     OW18979   5.458   3.907   6.286
 6027SOL    HW118980   5.550   3.890   6.323
 6027SOL    HW218981   5.390   3.870   6.350
 6028SOL     OW18982   5.280   4.799   0.378
 6028SOL    HW118983   5.371   4.826   0.409
 6028SOL    HW218984   5.289   4.734   0.302
 6029SOL     OW18985   2.751   0.178   3.130
 6029SOL    HW118986   2.814   0.256   3.132
 6029SOL    HW218987   2.769   0.118   3.207
 6030SOL     OW18988   4.901   3.803   4.808
 6030SOL    HW118989   4.961   3.748   4.751
 6030SOL    HW218990   4.852   3.744   4.872
 6031SOL     OW18991   0.993   5.710   4.097
 6031SOL    HW118992   0.895   5.715   4.115
 6031SOL    HW218993   1.044   5.737   4.179
 6032SOL     OW18994   3.226   6.231   3.892
 6032SOL    HW118995   3.219   6.324   3.854
 6032SOL    HW218996   3.161   6.171   3.846
 6033SOL     OW18997   2.165   2.444   2.511
 6033SOL    HW118998   2.133   2.355   2.477
 6033SOL    HW218999   2.094   2.513   2.495
 6034SOL     OW19000   1.309   0.103   6.476
 6034SOL    HW119001   1.396   0.066   6.508
 6034SOL    HW219002   1.236   0.075   6.538
 6035SOL     OW19003   0.699   0.900   2.800
 6035SOL    HW119004   0.784   0.895   2.748
 6035SOL    HW219005   0.634   0.959   2.752
 6036SOL     OW19006   5.980   4.673   1.267
 6036SOL    HW119007   5.940   4.750   1.317
 6036SOL    HW219008   6.032   4.708   1.189
 6037SOL     OW19009   4.206   1.302   0.927
 6037SOL    HW119010   4.266   1.222   0.931
 6037SOL    HW219011   4.254   1.381   0.966
 6038SOL     OW19012   0.891   2.301   6.459
 6038SOL    HW119013   0.825   2.231   6.485
 6038SOL    HW219014   0.861   2.390   6.494
 6039SOL     OW19015   3.830   3.958   3.756
 6039SOL    HW119016   3.767   3.996   3.823
 6039SOL    HW219017   3.910   3.920   3.802
 6040SOL     OW19018   1.605   1.748   0.017
 6040SOL    HW119019   1.652   1.831   0.045
 6040SOL    HW219020   1.608   1.681   0.092
 6041SOL     OW19021   2.903   2.678   5.636
 6041SOL    HW119022   2.898   2.583   5.604
 6041SOL    HW219023   2.981   2.724   5.593
 6042SOL     OW19024   3.955   6.401   3.465
 6042SOL    HW119025   3.979   6.306   3.444
 6042SOL    HW219026   3.892   6.436   3.396
 6043SOL     OW19027   1.941   0.922   3.721
 6043SOL    HW119028   1.954   0.978   3.803
 6043SOL    HW219029   1.934   0.826   3.746
 6044SOL     OW19030   1.705   1.687   1.833
 6044SOL    HW119031   1.656   1.632   1.902
 6044SOL    HW219032   1.776   1.741   1.878
 6045SOL     OW19033   5.240   3.412   3.498
 6045SOL    HW119034   5.151   3.411   3.453
 6045SOL    HW219035   5.230   3.447   3.592
 6046SOL     OW19036   3.626   2.312   1.644
 6046SOL    HW119037   3.712   2.333   1.599
 6046SOL    HW219038   3.642   2.299   1.742
 6047SOL     OW19039   5.691   2.052   0.644
 6047SOL    HW119040   5.702   1.960   0.605
 6047SOL    HW219041   5.618   2.051   0.712
 6048SOL     OW19042   5.512   5.030   4.782
 6048SOL    HW119043   5.517   5.105   4.717
 6048SOL    HW219044   5.602   4.985   4.789
 6049SOL     OW19045   5.344   4.853   5.826
 6049SOL    HW119046   5.417   4.810   5.879
 6049SOL    HW219047   5.256   4.841   5.873
 6050SOL     OW19048   3.178   5.524   0.754
 6050SOL    HW119049   3.256   5.506   0.814
 6050SOL    HW219050   3.157   5.622   0.756
 6051SOL     OW19051   0.727   1.560   2.568
 6051SOL    HW119052   0.726   1.518   2.659
 6051SOL    HW219053   0.749   1.657   2.576
 6052SOL     OW19054   5.447   0.316   1.300
 6052SOL    HW119055   5.462   0.408   1.264
 6052SOL    HW219056   5.437   0.251   1.224
 6053SOL     OW19057   4.566   1.155   5.878
 6053SOL    HW119058   4.612   1.109   5.802
 6053SOL    HW219059   4.473   1.180   5.849
 6054SOL     OW19060   3.758   5.395   0.649
 6054SOL    HW119061   3.770   5.485   0.607
 6054SOL    HW219062   3.848   5.353   0.663
 6055SOL     OW19063   3.296   5.146   6.366
 6055SOL    HW119064   3.309   5.241   6.395
 6055SOL    HW219065   3.381   5.095   6.382
 6056SOL     OW19066   5.799   2.815   5.092
 6056SOL    HW119067   5.883   2.831   5.039
 6056SOL    HW219068   5.732   2.886   5.071
 6057SOL     OW19069   4.831   0.531   2.882
 6057SOL    HW119070   4.877   0.518   2.970
 6057SOL    HW219071   4.895   0.571   2.817
 6058SOL     OW19072   6.204   3.566   0.727
 6058SOL    HW119073   6.129   3.547   0.790
 6058SOL    HW219074   6.284   3.511   0.751
 6059SOL     OW19075   5.256   4.407   5.477
 6059SOL    HW119076   5.175   4.464   5.463
 6059SOL    HW219077   5.265   4.384   5.573
 6060SOL     OW19078   3.425   3.108   0.388
 6060SOL    HW119079   3.420   3.035   0.456
 6060SOL    HW219080   3.368   3.085   0.309
 6061SOL     OW19081   3.887   4.682   0.599
 6061SOL    HW119082   3.918   4.761   0.546
 6061SOL    HW219083   3.803   4.705   0.648
 6062SOL     OW19084   2.718   1.927   6.972
 6062SOL    HW119085   2.649   1.877   0.005
 6062SOL    HW219086   2.717   2.024   6.999
 6063SOL     OW19087   3.909   4.289   5.692
 6063SOL    HW119088   3.920   4.229   5.613
 6063SOL    HW219089   3.815   4.324   5.694
 6064SOL     OW19090   6.948   0.450   0.402
 6064SOL    HW119091   7.013   0.403   0.461
 6064SOL    HW219092   6.910   0.385   0.336
 6065SOL     OW19093   1.082   5.369   2.079
 6065SOL    HW119094   1.156   5.308   2.106
 6065SOL    HW219095   1.118   5.444   2.023
 6066SOL     OW19096   5.460   0.890   3.362
 6066SOL    HW119097   5.520   0.810   3.363
 6066SOL    HW219098   5.515   0.974   3.358
 6067SOL     OW19099   6.075   0.177   5.161
 6067SOL    HW119100   6.160   0.124   5.156
 6067SOL    HW219101   6.068   0.235   5.080
 6068SOL     OW19102   5.074   1.447   4.813
 6068SOL    HW119103   5.040   1.434   4.906
 6068SOL    HW219104   5.107   1.360   4.777
 6069SOL     OW19105   0.196   3.274   5.649
 6069SOL    HW119106   0.203   3.373   5.633
 6069SOL    HW219107   0.280   3.230   5.618
 6070SOL     OW19108   3.730   2.055   1.752
 6070SOL    HW119109   3.716   2.129   1.818
 6070SOL    HW219110   3.777   1.979   1.797
 6071SOL     OW19111   0.291   6.270   4.534
 6071SOL    HW119112   0.255   6.267   4.627
 6071SOL    HW219113   0.345   6.187   4.517
 6072SOL     OW19114   0.470   1.795   0.668
 6072SOL    HW119115   0.421   1.798   0.755
 6072SOL    HW219116   0.411   1.756   0.598
 6073SOL     OW19117   4.854   3.118   1.200
 6073SOL    HW119118   4.876   3.136   1.104
 6073SOL    HW219119   4.776   3.174   1.227
 6074SOL     OW19120   1.161   6.302   2.407
 6074SOL    HW119121   1.153   6.342   2.316
 6074SOL    HW219122   1.087   6.236   2.421
 6075SOL     OW19123   4.613   6.798   6.345
 6075SOL    HW119124   4.579   6.780   6.252
 6075SOL    HW219125   4.610   6.714   6.398
 6076SOL     OW19126   2.633   4.991   3.977
 6076SOL    HW119127   2.574   5.011   3.899
 6076SOL    HW219128   2.586   5.013   4.062
 6077SOL     OW19129   5.315   6.455   1.059
 6077SOL    HW119130   5.367   6.471   1.142
 6077SOL    HW219131   5.234   6.514   1.058
 6078SOL     OW19132   4.294   4.260   0.497
 6078SOL    HW119133   4.217   4.309   0.536
 6078SOL    HW219134   4.359   4.325   0.457
 6079SOL     OW19135   4.568   4.528   6.442
 6079SOL    HW119136   4.632   4.604   6.455
 6079SOL    HW219137   4.589   4.482   6.356
 6080SOL     OW19138   1.339   4.775   1.548
 6080SOL    HW119139   1.368   4.780   1.452
 6080SOL    HW219140   1.242   4.800   1.554
 6081SOL     OW19141   0.743   3.944   5.550
 6081SOL    HW119142   0.709   3.864   5.600
 6081SOL    HW219143   0.833   3.970   5.585
 6082SOL     OW19144   4.107   0.646   1.703
 6082SOL    HW119145   4.167   0.613   1.776
 6082SOL    HW219146   4.070   0.568   1.653
 6083SOL     OW19147   5.424   6.834   0.348
 6083SOL    HW119148   5.518   6.821   0.314
 6083SOL    HW219149   5.425   6.841   0.448
 6084SOL     OW19150   0.876   6.360   1.781
 6084SOL    HW119151   0.929   6.420   1.721
 6084SOL    HW219152   0.868   6.270   1.739
 6085SOL     OW19153   6.142   6.303   6.501
 6085SOL    HW119154   6.089   6.388   6.506
 6085SOL    HW219155   6.238   6.323   6.522
 6086SOL     OW19156   3.902   2.939   6.766
 6086SOL    HW119157   3.832   2.948   6.838
 6086SOL    HW219158   3.880   2.861   6.708
 6087SOL     OW19159   4.852   6.348   0.189
 6087SOL    HW119160   4.884   6.342   0.284
 6087SOL    HW219161   4.813   6.438   0.172
 6088SOL     OW19162   5.157   6.444   5.343
 6088SOL    HW119163   5.194   6.400   5.425
 6088SOL    HW219164   5.228   6.451   5.273
 6089SOL     OW19165   6.827   2.020   2.391
 6089SOL    HW119166   6.737   2.023   2.434
 6089SOL    HW219167   6.844   1.929   2.354
 6090SOL     OW19168   3.034   5.405   4.286
 6090SOL    HW119169   3.013   5.422   4.189
 6090SOL    HW219170   2.956   5.361   4.330
 6091SOL     OW19171   2.665   0.999   1.452
 6091SOL    HW119172   2.605   0.999   1.372
 6091SOL    HW219173   2.737   1.067   1.439
 6092SOL     OW19174   3.906   0.416   1.799
 6092SOL    HW119175   3.917   0.327   1.754
 6092SOL    HW219176   3.984   0.433   1.858
 6093SOL     OW19177   1.841   1.634   2.177
 6093SOL    HW119178   1.880   1.647   2.086
 6093SOL    HW219179   1.831   1.536   2.196
 6094SOL     OW19180   0.764   6.940   4.532
 6094SOL    HW119181   0.821   7.001   4.477
 6094SOL    HW219182   0.812   6.916   4.617
 6095SOL     OW19183   4.384   5.726   6.968
 6095SOL    HW119184   4.403   5.773   6.882
 6095SOL    HW219185   4.406   5.786   0.026
 6096SOL     OW19186   5.860   6.348   2.250
 6096SOL    HW119187   5.818   6.262   2.278
 6096SOL    HW219188   5.887   6.343   2.154
 6097SOL     OW19189   1.264   5.944   1.747
 6097SOL    HW119190   1.332   5.953   1.819
 6097SOL    HW219191   1.310   5.922   1.660
 6098SOL     OW19192   6.766   0.886   5.394
 6098SOL    HW119193   6.726   0.978   5.394
 6098SOL    HW219194   6.698   0.820   5.427
 6099SOL     OW19195   5.276   6.423   5.845
 6099SOL    HW119196   5.222   6.362   5.787
 6099SOL    HW219197   5.373   6.408   5.828
 6100SOL     OW19198   0.733   5.625   2.591
 6100SOL    HW119199   0.811   5.672   2.631
 6100SOL    HW219200   0.650   5.679   2.606
 6101SOL     OW19201   6.644   2.289   1.862
 6101SOL    HW119202   6.640   2.192   1.888
 6101SOL    HW219203   6.673   2.343   1.941
 6102SOL     OW19204   4.553   6.112   2.565
 6102SOL    HW119205   4.607   6.080   2.486
 6102SOL    HW219206   4.591   6.198   2.599
 6103SOL     OW19207   7.011   1.687   1.107
 6103SOL    HW119208   7.005   1.598   1.152
 6103SOL    HW219209   6.944   1.692   1.033
 6104SOL     OW19210   6.143   1.490   5.224
 6104SOL    HW119211   6.224   1.490   5.166
 6104SOL    HW219212   6.170   1.504   5.320
 6105SOL     OW19213   2.859   5.345   5.808
 6105SOL    HW119214   2.935   5.319   5.867
 6105SOL    HW219215   2.874   5.309   5.716
 6106SOL     OW19216   0.849   3.695   0.435
 6106SOL    HW119217   0.821   3.791   0.437
 6106SOL    HW219218   0.949   3.690   0.432
 6107SOL     OW19219   5.106   5.378   4.518
 6107SOL    HW119220   5.021   5.326   4.505
 6107SOL    HW219221   5.184   5.321   4.491
 6108SOL     OW19222   1.448   1.523   1.715
 6108SOL    HW119223   1.397   1.608   1.700
 6108SOL    HW219224   1.490   1.525   1.806
 6109SOL     OW19225   5.388   0.722   3.890
 6109SOL    HW119226   5.447   0.642   3.879
 6109SOL    HW219227   5.307   0.713   3.832
 6110SOL     OW19228   0.570   2.575   5.991
 6110SOL    HW119229   0.628   2.635   5.936
 6110SOL    HW219230   0.625   2.504   6.034
 6111SOL     OW19231   1.147   3.687   2.201
 6111SOL    HW119232   1.098   3.759   2.250
 6111SOL    HW219233   1.185   3.725   2.116
 6112SOL     OW19234   3.331   0.798   2.221
 6112SOL    HW119235   3.390   0.735   2.170
 6112SOL    HW219236   3.238   0.762   2.223
 6113SOL     OW19237   2.653   3.902   6.787
 6113SOL    HW119238   2.703   3.964   6.848
 6113SOL    HW219239   2.649   3.942   6.696
 6114SOL     OW19240   4.540   2.016   2.159
 6114SOL    HW119241   4.503   1.962   2.234
 6114SOL    HW219242   4.524   1.969   2.073
 6115SOL     OW19243   0.464   1.233   5.369
 6115SOL    HW119244   0.373   1.198   5.347
 6115SOL    HW219245   0.455   1.307   5.435
 6116SOL     OW19246   3.993   2.210   5.228
 6116SOL    HW119247   4.001   2.120   5.271
 6116SOL    HW219248   3.898   2.227   5.205
 6117SOL     OW19249   0.924   1.519   2.936
 6117SOL    HW119250   0.984   1.553   2.863
 6117SOL    HW219251   0.864   1.592   2.967
 6118SOL     OW19252   6.385   1.236   1.176
 6118SOL    HW119253   6.414   1.326   1.144
 6118SOL    HW219254   6.464   1.185   1.209
 6119SOL     OW19255   0.199   2.584   0.208
 6119SOL    HW119256   0.169   2.656   0.145
 6119SOL    HW219257   0.161   2.496   0.178
 6120SOL     OW19258   1.990   0.047   5.475
 6120SOL    HW119259   1.929   7.018   5.539
 6120SOL    HW219260   1.961   0.028   5.382
 6121SOL     OW19261   0.436   3.945   5.604
 6121SOL    HW119262   0.423   3.915   5.509
 6121SOL    HW219263   0.428   4.044   5.609
 6122SOL     OW19264   5.182   6.071   6.134
 6122SOL    HW119265   5.207   6.079   6.231
 6122SOL    HW219266   5.089   6.107   6.121
 6123SOL     OW19267   4.966   1.124   5.395
 6123SOL    HW119268   5.034   1.197   5.385
 6123SOL    HW219269   5.009   1.045   5.440
 6124SOL     OW19270   1.970   6.991   5.197
 6124SOL    HW119271   1.905   0.043   5.173
 6124SOL    HW219272   1.966   6.918   5.128
 6125SOL     OW19273   2.793   3.934   0.517
 6125SOL    HW119274   2.845   4.016   0.539
 6125SOL    HW219275   2.713   3.959   0.463
 6126SOL     OW19276   0.685   2.357   4.999
 6126SOL    HW119277   0.689   2.290   4.924
 6126SOL    HW219278   0.701   2.311   5.086
 6127SOL     OW19279   4.270   1.240   1.647
 6127SOL    HW119280   4.228   1.293   1.720
 6127SOL    HW219281   4.224   1.261   1.560
 6128SOL     OW19282   5.559   5.462   1.087
 6128SOL    HW119283   5.463   5.435   1.090
 6128SOL    HW219284   5.566   5.558   1.061
 6129SOL     OW19285   2.218   4.149   3.435
 6129SOL    HW119286   2.181   4.130   3.344
 6129SOL    HW219287   2.306   4.195   3.426
 6130SOL     OW19288   5.914   2.625   2.452
 6130SOL    HW119289   5.815   2.623   2.447
 6130SOL    HW219290   5.953   2.588   2.367
 6131SOL     OW19291   0.383   2.005   2.289
 6131SOL    HW119292   0.394   2.082   2.226
 6131SOL    HW219293   0.400   1.919   2.240
 6132SOL     OW19294   3.739   1.912   6.385
 6132SOL    HW119295   3.686   1.833   6.416
 6132SOL    HW219296   3.730   1.920   6.286
 6133SOL     OW19297   1.239   2.335   3.425
 6133SOL    HW119298   1.253   2.236   3.423
 6133SOL    HW219299   1.314   2.380   3.377
 6134SOL     OW19300   5.233   6.357   6.948
 6134SOL    HW119301   5.189   6.446   6.935
 6134SOL    HW219302   5.330   6.365   6.924
 6135SOL     OW19303   6.371   6.915   0.259
 6135SOL    HW119304   6.468   6.935   0.248
 6135SOL    HW219305   6.319   7.000   0.256
 6136SOL     OW19306   1.535   3.007   1.488
 6136SOL    HW119307   1.502   3.083   1.543
 6136SOL    HW219308   1.468   2.986   1.417
 6137SOL     OW19309   0.774   4.514   3.026
 6137SOL    HW119310   0.796   4.496   3.121
 6137SOL    HW219311   0.719   4.598   3.019
 6138SOL     OW19312   3.690   0.433   2.011
 6138SOL    HW119313   3.654   0.341   2.030
 6138SOL    HW219314   3.772   0.425   1.954
 6139SOL     OW19315   0.654   6.495   5.727
 6139SOL    HW119316   0.645   6.490   5.627
 6139SOL    HW219317   0.750   6.503   5.751
 6140SOL     OW19318   1.213   0.536   2.971
 6140SOL    HW119319   1.237   0.491   2.885
 6140SOL    HW219320   1.119   0.511   2.996
 6141SOL     OW19321   0.446   0.286   6.726
 6141SOL    HW119322   0.372   0.326   6.672
 6141SOL    HW219323   0.513   0.356   6.748
 6142SOL     OW19324   0.880   0.823   6.953
 6142SOL    HW119325   0.910   0.740   6.906
 6142SOL    HW219326   0.851   0.891   6.886
 6143SOL     OW19327   0.172   3.985   0.822
 6143SOL    HW119328   0.199   3.944   0.735
 6143SOL    HW219329   0.235   3.954   0.894
 6144SOL     OW19330   4.624   4.774   3.570
 6144SOL    HW119331   4.561   4.711   3.524
 6144SOL    HW219332   4.580   4.807   3.654
 6145SOL     OW19333   5.817   4.433   4.024
 6145SOL    HW119334   5.787   4.393   3.938
 6145SOL    HW219335   5.761   4.397   4.099
 6146SOL     OW19336   3.772   0.148   3.850
 6146SOL    HW119337   3.706   0.206   3.802
 6146SOL    HW219338   3.865   0.179   3.829
 6147SOL     OW19339   1.801   3.052   4.859
 6147SOL    HW119340   1.765   3.143   4.839
 6147SOL    HW219341   1.726   2.985   4.853
 6148SOL     OW19342   4.228   5.270   6.567
 6148SOL    HW119343   4.280   5.185   6.559
 6148SOL    HW219344   4.130   5.250   6.570
 6149SOL     OW19345   2.355   6.964   2.249
 6149SOL    HW119346   2.378   6.876   2.291
 6149SOL    HW219347   2.396   0.018   2.303
 6150SOL     OW19348   6.445   4.192   6.730
 6150SOL    HW119349   6.538   4.225   6.749
 6150SOL    HW219350   6.450   4.106   6.679
 6151SOL     OW19351   5.447   5.450   4.432
 6151SOL    HW119352   5.390   5.511   4.488
 6151SOL    HW219353   5.397   5.423   4.350
 6152SOL     OW19354   1.290   5.405   4.507
 6152SOL    HW119355   1.306   5.477   4.439
 6152SOL    HW219356   1.206   5.424   4.556
 6153SOL     OW19357   4.532   5.547   1.082
 6153SOL    HW119358   4.550   5.580   0.990
 6153SOL    HW219359   4.551   5.449   1.087
 6154SOL     OW19360   4.891   3.545   3.064
 6154SOL    HW119361   4.889   3.544   3.164
 6154SOL    HW219362   4.949   3.620   3.033
 6155SOL     OW19363   2.940   0.983   3.101
 6155SOL    HW119364   2.935   0.912   3.031
 6155SOL    HW219365   2.874   0.962   3.174
 6156SOL     OW19366   5.177   3.772   1.633
 6156SOL    HW119367   5.090   3.803   1.671
 6156SOL    HW219368   5.160   3.702   1.563
 6157SOL     OW19369   0.824   2.561   3.331
 6157SOL    HW119370   0.808   2.609   3.245
 6157SOL    HW219371   0.738   2.554   3.382
 6158SOL     OW19372   3.423   2.120   6.321
 6158SOL    HW119373   3.523   2.120   6.318
 6158SOL    HW219374   3.389   2.028   6.302
 6159SOL     OW19375   5.548   2.991   0.183
 6159SOL    HW119376   5.528   2.971   0.279
 6159SOL    HW219377   5.472   2.959   0.126
 6160SOL     OW19378   6.517   0.146   5.995
 6160SOL    HW119379   6.431   0.186   5.964
 6160SOL    HW219380   6.593   0.199   5.958
 6161SOL     OW19381   5.284   2.477   6.392
 6161SOL    HW119382   5.212   2.517   6.335
 6161SOL    HW219383   5.320   2.547   6.454
 6162SOL     OW19384   6.018   6.746   3.487
 6162SOL    HW119385   5.919   6.746   3.504
 6162SOL    HW219386   6.059   6.664   3.528
 6163SOL     OW19387   5.492   5.964   2.253
 6163SOL    HW119388   5.487   5.867   2.226
 6163SOL    HW219389   5.436   5.979   2.334
 6164SOL     OW19390   3.623   4.121   4.065
 6164SOL    HW119391   3.533   4.146   4.102
 6164SOL    HW219392   3.680   4.084   4.138
 6165SOL     OW19393   4.358   2.439   6.835
 6165SOL    HW119394   4.345   2.364   6.769
 6165SOL    HW219395   4.421   2.506   6.798
 6166SOL     OW19396   6.911   2.041   6.892
 6166SOL    HW119397   6.830   1.993   6.859
 6166SOL    HW219398   6.984   2.035   6.823
 6167SOL     OW19399   1.597   4.859   3.101
 6167SOL    HW119400   1.615   4.780   3.042
 6167SOL    HW219401   1.499   4.880   3.099
 6168SOL     OW19402   6.448   2.511   3.427
 6168SOL    HW119403   6.411   2.600   3.452
 6168SOL    HW219404   6.533   2.494   3.477
 6169SOL     OW19405   1.039   0.875   5.972
 6169SOL    HW119406   1.066   0.873   5.875
 6169SOL    HW219407   1.113   0.839   6.028
 6170SOL     OW19408   3.749   4.338   6.475
 6170SOL    HW119409   3.789   4.407   6.414
 6170SOL    HW219410   3.706   4.383   6.553
 6171SOL     OW19411   1.333   3.785   2.618
 6171SOL    HW119412   1.386   3.762   2.700
 6171SOL    HW219413   1.237   3.763   2.632
 6172SOL     OW19414   0.557   0.620   2.340
 6172SOL    HW119415   0.529   0.663   2.254
 6172SOL    HW219416   0.627   0.551   2.321
 6173SOL     OW19417   0.591   4.933   2.525
 6173SOL    HW119418   0.654   4.917   2.449
 6173SOL    HW219419   0.640   4.975   2.601
 6174SOL     OW19420   5.777   4.458   2.526
 6174SOL    HW119421   5.760   4.363   2.553
 6174SOL    HW219422   5.783   4.515   2.609
 6175SOL     OW19423   5.347   6.656   2.350
 6175SOL    HW119424   5.403   6.578   2.379
 6175SOL    HW219425   5.296   6.632   2.267
 6176SOL     OW19426   6.361   3.842   6.820
 6176SOL    HW119427   6.439   3.821   6.880
 6176SOL    HW219428   6.309   3.758   6.804
 6177SOL     OW19429   5.444   1.283   1.251
 6177SOL    HW119430   5.411   1.321   1.165
 6177SOL    HW219431   5.500   1.351   1.298
 6178SOL     OW19432   4.712   4.971   1.953
 6178SOL    HW119433   4.669   5.061   1.951
 6178SOL    HW219434   4.811   4.981   1.961
 6179SOL     OW19435   0.245   3.365   4.981
 6179SOL    HW119436   0.223   3.456   5.016
 6179SOL    HW219437   0.331   3.368   4.930
 6180SOL     OW19438   3.489   6.992   6.909
 6180SOL    HW119439   3.553   0.034   6.955
 6180SOL    HW219440   3.395   7.015   6.935
 6181SOL     OW19441   4.630   6.294   0.412
 6181SOL    HW119442   4.630   6.208   0.464
 6181SOL    HW219443   4.569   6.286   0.334
 6182SOL     OW19444   5.054   5.576   5.292
 6182SOL    HW119445   5.045   5.645   5.220
 6182SOL    HW219446   5.150   5.569   5.319
 6183SOL     OW19447   2.121   0.167   3.261
 6183SOL    HW119448   2.193   0.237   3.262
 6183SOL    HW219449   2.032   0.211   3.266
 6184SOL     OW19450   1.537   0.009   6.572
 6184SOL    HW119451   1.564   0.053   6.657
 6184SOL    HW219452   1.536   6.930   6.584
 6185SOL     OW19453   0.834   3.625   0.019
 6185SOL    HW119454   0.840   3.539   0.070
 6185SOL    HW219455   0.859   3.609   6.943
 6186SOL     OW19456   5.869   0.052   3.993
 6186SOL    HW119457   5.936   0.111   4.038
 6186SOL    HW219458   5.916   6.999   3.943
 6187SOL     OW19459   5.111   4.671   3.739
 6187SOL    HW119460   5.037   4.657   3.672
 6187SOL    HW219461   5.115   4.768   3.763
 6188SOL     OW19462   2.093   5.884   1.416
 6188SOL    HW119463   2.101   5.854   1.321
 6188SOL    HW219464   2.157   5.832   1.473
 6189SOL     OW19465   5.041   4.820   3.372
 6189SOL    HW119466   5.016   4.763   3.450
 6189SOL    HW219467   5.063   4.761   3.294
 6190SOL     OW19468   5.655   4.032   6.057
 6190SOL    HW119469   5.564   4.007   6.089
 6190SOL    HW219470   5.664   4.131   6.054
 6191SOL     OW19471   5.489   2.475   0.897
 6191SOL    HW119472   5.444   2.422   0.825
 6191SOL    HW219473   5.500   2.417   0.978
 6192SOL     OW19474   3.228   3.652   0.776
 6192SOL    HW119475   3.160   3.722   0.799
 6192SOL    HW219476   3.290   3.640   0.854
 6193SOL     OW19477   4.105   0.458   2.041
 6193SOL    HW119478   4.075   0.546   2.078
 6193SOL    HW219479   4.143   0.402   2.115
 6194SOL     OW19480   2.008   0.071   0.503
 6194SOL    HW119481   1.982   0.019   0.585
 6194SOL    HW219482   1.926   0.111   0.462
 6195SOL     OW19483   4.151   5.255   5.577
 6195SOL    HW119484   4.075   5.216   5.524
 6195SOL    HW219485   4.138   5.354   5.585
 6196SOL     OW19486   6.960   2.613   6.416
 6196SOL    HW119487   6.907   2.602   6.331
 6196SOL    HW219488   0.027   2.563   6.408
 6197SOL     OW19489   3.928   3.948   0.790
 6197SOL    HW119490   3.956   3.872   0.849
 6197SOL    HW219491   3.903   3.913   0.700
 6198SOL     OW19492   3.911   5.835   2.705
 6198SOL    HW119493   3.848   5.760   2.685
 6198SOL    HW219494   3.970   5.809   2.782
 6199SOL     OW19495   0.103   0.258   0.510
 6199SOL    HW119496   0.048   0.183   0.545
 6199SOL    HW219497   0.174   0.281   0.577
 6200SOL     OW19498   2.813   1.443   6.600
 6200SOL    HW119499   2.854   1.526   6.561
 6200SOL    HW219500   2.863   1.418   6.683
 6201SOL     OW19501   2.364   5.315   5.741
 6201SOL    HW119502   2.390   5.410   5.721
 6201SOL    HW219503   2.432   5.274   5.801
 6202SOL     OW19504   3.808   1.569   1.338
 6202SOL    HW119505   3.779   1.502   1.406
 6202SOL    HW219506   3.901   1.599   1.358
 6203SOL     OW19507   5.285   0.169   3.402
 6203SOL    HW119508   5.223   0.099   3.367
 6203SOL    HW219509   5.324   0.139   3.489
 6204SOL     OW19510   0.579   4.786   5.366
 6204SOL    HW119511   0.606   4.850   5.438
 6204SOL    HW219512   0.613   4.820   5.277
 6205SOL     OW19513   5.601   5.674   6.608
 6205SOL    HW119514   5.607   5.735   6.529
 6205SOL    HW219515   5.693   5.655   6.643
 6206SOL     OW19516   6.818   0.480   2.270
 6206SOL    HW119517   6.832   0.417   2.345
 6206SOL    HW219518   6.843   0.435   2.184
 6207SOL     OW19519   1.715   3.260   4.713
 6207SOL    HW119520   1.664   3.254   4.628
 6207SOL    HW219521   1.776   3.339   4.710
 6208SOL     OW19522   6.025   0.278   5.611
 6208SOL    HW119523   5.985   0.244   5.696
 6208SOL    HW219524   6.074   0.363   5.629
 6209SOL     OW19525   3.708   6.311   0.226
 6209SOL    HW119526   3.751   6.394   0.192
 6209SOL    HW219527   3.736   6.295   0.321
 6210SOL     OW19528   5.472   4.463   3.223
 6210SOL    HW119529   5.393   4.505   3.180
 6210SOL    HW219530   5.540   4.534   3.245
 6211SOL     OW19531   2.794   0.237   6.164
 6211SOL    HW119532   2.873   0.239   6.224
 6211SOL    HW219533   2.824   0.245   6.068
 6212SOL     OW19534   0.306   5.478   2.991
 6212SOL    HW119535   0.350   5.546   3.050
 6212SOL    HW219536   0.309   5.388   3.036
 6213SOL     OW19537   5.617   6.785   6.477
 6213SOL    HW119538   5.562   6.866   6.457
 6213SOL    HW219539   5.688   6.809   6.543
 6214SOL     OW19540   6.147   5.307   2.853
 6214SOL    HW119541   6.102   5.218   2.859
 6214SOL    HW219542   6.118   5.354   2.770
 6215SOL     OW19543   3.164   1.728   6.929
 6215SOL    HW119544   3.156   1.785   7.011
 6215SOL    HW219545   3.235   1.659   6.944
 6216SOL     OW19546   6.546   1.950   1.651
 6216SOL    HW119547   6.574   1.959   1.555
 6216SOL    HW219548   6.529   2.041   1.689
 6217SOL     OW19549   5.177   2.646   1.898
 6217SOL    HW119550   5.252   2.689   1.947
 6217SOL    HW219551   5.101   2.711   1.890
 6218SOL     OW19552   3.695   4.935   3.693
 6218SOL    HW119553   3.705   5.010   3.759
 6218SOL    HW219554   3.783   4.891   3.679
 6219SOL     OW19555   1.201   1.616   4.840
 6219SOL    HW119556   1.180   1.698   4.893
 6219SOL    HW219557   1.212   1.538   4.901
 6220SOL     OW19558   2.023   4.597   5.684
 6220SOL    HW119559   2.103   4.546   5.652
 6220SOL    HW219560   1.942   4.567   5.634
 6221SOL     OW19561   5.197   5.348   5.147
 6221SOL    HW119562   5.147   5.411   5.206
 6221SOL    HW219563   5.133   5.281   5.108
 6222SOL     OW19564   0.846   6.706   1.333
 6222SOL    HW119565   0.924   6.649   1.307
 6222SOL    HW219566   0.762   6.652   1.324
 6223SOL     OW19567   6.380   3.052   4.675
 6223SOL    HW119568   6.306   3.102   4.721
 6223SOL    HW219569   6.399   3.094   4.587
 6224SOL     OW19570   1.954   1.570   6.055
 6224SOL    HW119571   1.884   1.641   6.054
 6224SOL    HW219572   1.923   1.492   6.000
 6225SOL     OW19573   2.965   3.466   1.597
 6225SOL    HW119574   3.009   3.378   1.616
 6225SOL    HW219575   2.929   3.465   1.504
 6226SOL     OW19576   5.850   2.039   3.748
 6226SOL    HW119577   5.899   1.968   3.698
 6226SOL    HW219578   5.786   1.997   3.812
 6227SOL     OW19579   3.038   4.872   6.342
 6227SOL    HW119580   3.008   4.867   6.438
 6227SOL    HW219581   3.129   4.832   6.333
 6228SOL     OW19582   0.328   2.330   2.901
 6228SOL    HW119583   0.352   2.311   2.805
 6228SOL    HW219584   0.354   2.424   2.923
 6229SOL     OW19585   1.944   2.007   3.057
 6229SOL    HW119586   1.946   1.912   3.086
 6229SOL    HW219587   1.851   2.043   3.067
 6230SOL     OW19588   1.372   1.458   4.690
 6230SOL    HW119589   1.402   1.479   4.597
 6230SOL    HW219590   1.323   1.536   4.728
 6231SOL     OW19591   6.904   5.299   1.757
 6231SOL    HW119592   6.872   5.388   1.724
 6231SOL    HW219593   6.909   5.235   1.681
 6232SOL     OW19594   6.622   1.440   6.945
 6232SOL    HW119595   6.660   1.359   6.901
 6232SOL    HW219596   6.538   1.415   6.994
 6233SOL     OW19597   5.619   1.799   6.882
 6233SOL    HW119598   5.587   1.716   6.929
 6233SOL    HW219599   5.573   1.807   6.794
 6234SOL     OW19600   0.690   1.251   5.219
 6234SOL    HW119601   0.685   1.348   5.195
 6234SOL    HW219602   0.612   1.226   5.277
 6235SOL     OW19603   1.633   0.226   2.840
 6235SOL    HW119604   1.628   0.181   2.929
 6235SOL    HW219605   1.571   0.180   2.776
 6236SOL     OW19606   0.558   5.037   0.579
 6236SOL    HW119607   0.643   5.029   0.526
 6236SOL    HW219608   0.566   4.980   0.662
 6237SOL     OW19609   4.580   6.123   0.658
 6237SOL    HW119610   4.560   6.149   0.753
 6237SOL    HW219611   4.494   6.113   0.608
 6238SOL     OW19612   4.520   5.003   2.914
 6238SOL    HW119613   4.573   5.081   2.882
 6238SOL    HW219614   4.469   5.029   2.996
 6239SOL     OW19615   2.757   6.789   1.935
 6239SOL    HW119616   2.752   6.804   2.034
 6239SOL    HW219617   2.805   6.703   1.917
 6240SOL     OW19618   2.806   2.172   0.795
 6240SOL    HW119619   2.897   2.189   0.833
 6240SOL    HW219620   2.778   2.079   0.817
 6241SOL     OW19621   2.401   1.035   2.798
 6241SOL    HW119622   2.347   1.011   2.717
 6241SOL    HW219623   2.453   1.118   2.780
 6242SOL     OW19624   5.984   1.356   3.285
 6242SOL    HW119625   6.054   1.428   3.289
 6242SOL    HW219626   5.984   1.305   3.371
 6243SOL     OW19627   6.190   6.837   3.224
 6243SOL    HW119628   6.214   6.765   3.159
 6243SOL    HW219629   6.146   6.796   3.305
 6244SOL     OW19630   1.493   2.154   1.853
 6244SOL    HW119631   1.569   2.149   1.789
 6244SOL    HW219632   1.511   2.093   1.930
 6245SOL     OW19633   3.051   4.392   1.671
 6245SOL    HW119634   3.069   4.451   1.593
 6245SOL    HW219635   2.978   4.433   1.727
 6246SOL     OW19636   2.991   2.723   6.525
 6246SOL    HW119637   3.040   2.649   6.480
 6246SOL    HW219638   2.995   2.710   6.624
 6247SOL     OW19639   0.346   6.462   3.726
 6247SOL    HW119640   0.444   6.448   3.710
 6247SOL    HW219641   0.314   6.539   3.672
 6248SOL     OW19642   0.877   3.867   1.370
 6248SOL    HW119643   0.909   3.781   1.412
 6248SOL    HW219644   0.921   3.944   1.417
 6249SOL     OW19645   0.460   4.626   0.588
 6249SOL    HW119646   0.366   4.596   0.572
 6249SOL    HW219647   0.472   4.653   0.683
 6250SOL     OW19648   6.440   6.052   0.401
 6250SOL    HW119649   6.502   5.974   0.408
 6250SOL    HW219650   6.421   6.088   0.492
 6251SOL     OW19651   3.822   6.839   0.926
 6251SOL    HW119652   3.843   6.898   1.003
 6251SOL    HW219653   3.899   6.778   0.908
 6252SOL     OW19654   1.863   6.203   4.671
 6252SOL    HW119655   1.850   6.302   4.661
 6252SOL    HW219656   1.819   6.156   4.594
 6253SOL     OW19657   2.425   4.445   2.834
 6253SOL    HW119658   2.416   4.373   2.902
 6253SOL    HW219659   2.336   4.489   2.819
 6254SOL     OW19660   5.178   1.169   6.669
 6254SOL    HW119661   5.245   1.209   6.608
 6254SOL    HW219662   5.224   1.130   6.749
 6255SOL     OW19663   1.312   1.092   1.460
 6255SOL    HW119664   1.229   1.108   1.513
 6255SOL    HW219665   1.329   0.993   1.455
 6256SOL     OW19666   4.345   5.088   2.607
 6256SOL    HW119667   4.346   5.104   2.509
 6256SOL    HW219668   4.299   5.000   2.626
 6257SOL     OW19669   5.588   2.497   1.288
 6257SOL    HW119670   5.625   2.506   1.380
 6257SOL    HW219671   5.526   2.418   1.284
 6258SOL     OW19672   4.489   0.847   3.337
 6258SOL    HW119673   4.527   0.866   3.427
 6258SOL    HW219674   4.556   0.797   3.282
 6259SOL     OW19675   2.885   1.151   1.200
 6259SOL    HW119676   2.958   1.089   1.172
 6259SOL    HW219677   2.904   1.243   1.164
 6260SOL     OW19678   3.205   4.098   0.208
 6260SOL    HW119679   3.215   4.094   0.307
 6260SOL    HW219680   3.292   4.073   0.165
 6261SOL     OW19681   3.317   6.649   6.589
 6261SOL    HW119682   3.320   6.553   6.561
 6261SOL    HW219683   3.244   6.661   6.656
 6262SOL     OW19684   2.229   4.320   0.520
 6262SOL    HW119685   2.268   4.304   0.610
 6262SOL    HW219686   2.237   4.417   0.497
 6263SOL     OW19687   0.268   6.652   6.282
 6263SOL    HW119688   0.233   6.700   6.363
 6263SOL    HW219689   0.295   6.559   6.308
 6264SOL     OW19690   1.967   6.951   0.729
 6264SOL    HW119691   2.026   7.010   0.784
 6264SOL    HW219692   1.945   6.869   0.781
 6265SOL     OW19693   3.099   4.100   1.320
 6265SOL    HW119694   3.094   4.037   1.243
 6265SOL    HW219695   3.128   4.190   1.288
 6266SOL     OW19696   4.214   0.756   4.328
 6266SOL    HW119697   4.117   0.779   4.335
 6266SOL    HW219698   4.263   0.833   4.288
 6267SOL     OW19699   3.250   0.086   0.014
 6267SOL    HW119700   3.165   0.135   0.031
 6267SOL    HW219701   3.323   0.128   0.068
 6268SOL     OW19702   2.647   6.080   3.087
 6268SOL    HW119703   2.669   6.167   3.043
 6268SOL    HW219704   2.600   6.020   3.022
 6269SOL     OW19705   6.809   6.123   2.340
 6269SOL    HW119706   6.879   6.081   2.282
 6269SOL    HW219707   6.852   6.187   2.403
 6270SOL     OW19708   1.629   0.375   6.056
 6270SOL    HW119709   1.630   0.275   6.049
 6270SOL    HW219710   1.719   0.411   6.031
 6271SOL     OW19711   6.663   2.886   6.086
 6271SOL    HW119712   6.571   2.876   6.047
 6271SOL    HW219713   6.723   2.928   6.018
 6272SOL     OW19714   0.785   2.854   4.745
 6272SOL    HW119715   0.782   2.953   4.745
 6272SOL    HW219716   0.800   2.820   4.838
 6273SOL     OW19717   1.481   0.758   2.123
 6273SOL    HW119718   1.432   0.702   2.056
 6273SOL    HW219719   1.531   0.831   2.075
 6274SOL     OW19720   2.438   5.593   5.713
 6274SOL    HW119721   2.511   5.597   5.645
 6274SOL    HW219722   2.375   5.670   5.700
 6275SOL     OW19723   2.929   6.513   5.398
 6275SOL    HW119724   2.915   6.512   5.299
 6275SOL    HW219725   2.902   6.603   5.434
 6276SOL     OW19726   1.565   5.036   3.329
 6276SOL    HW119727   1.564   4.959   3.393
 6276SOL    HW219728   1.582   5.002   3.236
 6277SOL     OW19729   4.594   2.570   3.044
 6277SOL    HW119730   4.621   2.660   3.078
 6277SOL    HW219731   4.583   2.574   2.944
 6278SOL     OW19732   4.965   0.324   4.798
 6278SOL    HW119733   5.053   0.316   4.845
 6278SOL    HW219734   4.927   0.414   4.815
 6279SOL     OW19735   3.618   1.298   6.891
 6279SOL    HW119736   3.675   1.220   6.863
 6279SOL    HW219737   3.636   1.319   6.987
 6280SOL     OW19738   0.448   2.864   5.446
 6280SOL    HW119739   0.530   2.835   5.496
 6280SOL    HW219740   0.404   2.784   5.406
 6281SOL     OW19741   2.584   6.278   5.325
 6281SOL    HW119742   2.550   6.354   5.380
 6281SOL    HW219743   2.536   6.276   5.238
 6282SOL     OW19744   1.343   0.214   4.647
 6282SOL    HW119745   1.255   0.208   4.600
 6282SOL    HW219746   1.394   0.294   4.614
 6283SOL     OW19747   6.598   2.468   5.116
 6283SOL    HW119748   6.550   2.382   5.127
 6283SOL    HW219749   6.678   2.455   5.057
 6284SOL     OW19750   2.305   5.494   5.033
 6284SOL    HW119751   2.358   5.448   5.105
 6284SOL    HW219752   2.321   5.593   5.039
 6285SOL     OW19753   1.165   2.772   3.701
 6285SOL    HW119754   1.166   2.855   3.756
 6285SOL    HW219755   1.241   2.713   3.729
 6286SOL     OW19756   6.438   1.571   4.007
 6286SOL    HW119757   6.509   1.549   3.941
 6286SOL    HW219758   6.350   1.536   3.975
 6287SOL     OW19759   4.931   4.459   2.520
 6287SOL    HW119760   4.918   4.521   2.597
 6287SOL    HW219761   4.871   4.487   2.444
 6288SOL     OW19762   5.572   3.941   1.857
 6288SOL    HW119763   5.509   4.015   1.834
 6288SOL    HW219764   5.627   3.967   1.936
 6289SOL     OW19765   1.379   2.920   2.714
 6289SOL    HW119766   1.317   2.889   2.786
 6289SOL    HW219767   1.473   2.915   2.747
 6290SOL     OW19768   5.652   3.774   4.314
 6290SOL    HW119769   5.634   3.694   4.370
 6290SOL    HW219770   5.594   3.771   4.232
 6291SOL     OW19771   4.145   3.586   4.343
 6291SOL    HW119772   4.055   3.617   4.313
 6291SOL    HW219773   4.138   3.541   4.432
 6292SOL     OW19774   0.356   3.325   3.240
 6292SOL    HW119775   0.382   3.290   3.330
 6292SOL    HW219776   0.263   3.296   3.219
 6293SOL     OW19777   4.020   6.806   0.130
 6293SOL    HW119778   4.098   6.745   0.125
 6293SOL    HW219779   4.028   6.875   0.058
 6294SOL     OW19780   3.830   4.901   3.356
 6294SOL    HW119781   3.876   4.837   3.418
 6294SOL    HW219782   3.857   4.881   3.262
 6295SOL     OW19783   5.313   5.533   5.364
 6295SOL    HW119784   5.354   5.619   5.395
 6295SOL    HW219785   5.291   5.476   5.443
 6296SOL     OW19786   6.793   7.008   4.198
 6296SOL    HW119787   6.816   6.939   4.266
 6296SOL    HW219788   6.700   0.022   4.214
 6297SOL     OW19789   4.675   6.895   5.054
 6297SOL    HW119790   4.708   6.980   5.014
 6297SOL    HW219791   4.752   6.843   5.091
 6298SOL     OW19792   1.561   3.864   6.272
 6298SOL    HW119793   1.621   3.943   6.263
 6298SOL    HW219794   1.585   3.795   6.204
 6299SOL     OW19795   5.944   1.993   6.671
 6299SOL    HW119796   5.914   2.076   6.625
 6299SOL    HW219797   6.032   2.009   6.716
 6300SOL     OW19798   5.594   0.937   4.894
 6300SOL    HW119799   5.524   0.987   4.844
 6300SOL    HW219800   5.578   0.947   4.993
 6301SOL     OW19801   2.537   0.531   1.029
 6301SOL    HW119802   2.514   0.488   1.116
 6301SOL    HW219803   2.475   0.497   0.958
 6302SOL     OW19804   1.100   1.546   4.040
 6302SOL    HW119805   1.183   1.491   4.037
 6302SOL    HW219806   1.097   1.607   3.961
 6303SOL     OW19807   2.551   0.859   4.840
 6303SOL    HW119808   2.495   0.927   4.794
 6303SOL    HW219809   2.635   0.902   4.874
 6304SOL     OW19810   2.481   0.976   1.250
 6304SOL    HW119811   2.510   0.913   1.178
 6304SOL    HW219812   2.463   1.066   1.210
 6305SOL     OW19813   5.691   6.280   1.130
 6305SOL    HW119814   5.676   6.203   1.068
 6305SOL    HW219815   5.789   6.302   1.134
 6306SOL     OW19816   7.002   3.575   4.503
 6306SOL    HW119817   0.048   3.518   4.553
 6306SOL    HW219818   0.026   3.662   4.481
 6307SOL     OW19819   3.660   4.761   5.963
 6307SOL    HW119820   3.626   4.844   6.008
 6307SOL    HW219821   3.741   4.784   5.908
 6308SOL     OW19822   1.373   1.624   5.283
 6308SOL    HW119823   1.439   1.660   5.217
 6308SOL    HW219824   1.413   1.545   5.330
 6309SOL     OW19825   4.840   3.948   4.553
 6309SOL    HW119826   4.826   3.889   4.632
 6309SOL    HW219827   4.756   4.000   4.535
 6310SOL     OW19828   2.091   4.823   3.931
 6310SOL    HW119829   1.996   4.853   3.929
 6310SOL    HW219830   2.123   4.809   3.837
 6311SOL     OW19831   6.115   0.881   5.347
 6311SOL    HW119832   6.082   0.975   5.339
 6311SOL    HW219833   6.082   0.826   5.270
 6312SOL     OW19834   4.485   5.005   5.622
 6312SOL    HW119835   4.467   5.035   5.528
 6312SOL    HW219836   4.427   5.056   5.685
 6313SOL     OW19837   1.740   5.903   3.249
 6313SOL    HW119838   1.732   5.840   3.326
 6313SOL    HW219839   1.654   5.905   3.198
 6314SOL     OW19840   3.571   6.784   1.781
 6314SOL    HW119841   3.657   6.811   1.824
 6314SOL    HW219842   3.498   6.845   1.810
 6315SOL     OW19843   4.056   2.458   6.833
 6315SOL    HW119844   4.155   2.472   6.831
 6315SOL    HW219845   4.021   2.450   6.740
 6316SOL     OW19846   4.584   2.617   6.311
 6316SOL    HW119847   4.507   2.680   6.301
 6316SOL    HW219848   4.554   2.533   6.355
 6317SOL     OW19849   5.438   6.653   3.171
 6317SOL    HW119850   5.484   6.670   3.084
 6317SOL    HW219851   5.497   6.597   3.229
 6318SOL     OW19852   2.732   2.451   5.296
 6318SOL    HW119853   2.764   2.390   5.223
 6318SOL    HW219854   2.676   2.399   5.360
 6319SOL     OW19855   0.240   2.969   3.707
 6319SOL    HW119856   0.334   2.990   3.733
 6319SOL    HW219857   0.240   2.917   3.622
 6320SOL     OW19858   5.767   4.448   3.703
 6320SOL    HW119859   5.694   4.484   3.761
 6320SOL    HW219860   5.750   4.352   3.682
 6321SOL     OW19861   3.011   5.463   1.024
 6321SOL    HW119862   3.020   5.370   1.059
 6321SOL    HW219863   3.003   5.461   0.924
 6322SOL     OW19864   1.821   2.006   6.203
 6322SOL    HW119865   1.745   1.987   6.142
 6322SOL    HW219866   1.814   1.950   6.285
 6323SOL     OW19867   3.458   2.361   1.432
 6323SOL    HW119868   3.529   2.420   1.393
 6323SOL    HW219869   3.497   2.309   1.509
 6324SOL     OW19870   4.642   0.975   6.085
 6324SOL    HW119871   4.711   0.994   6.155
 6324SOL    HW219872   4.637   1.052   6.021
 6325SOL     OW19873   1.289   2.306   1.744
 6325SOL    HW119874   1.372   2.265   1.781
 6325SOL    HW219875   1.243   2.240   1.684
 6326SOL     OW19876   5.488   5.603   1.466
 6326SOL    HW119877   5.471   5.522   1.409
 6326SOL    HW219878   5.557   5.660   1.422
 6327SOL     OW19879   6.983   0.408   5.003
 6327SOL    HW119880   0.057   0.383   4.978
 6327SOL    HW219881   6.920   0.336   4.972
 6328SOL     OW19882   2.525   3.784   0.148
 6328SOL    HW119883   2.482   3.694   0.134
 6328SOL    HW219884   2.624   3.772   0.160
 6329SOL     OW19885   1.072   2.026   3.583
 6329SOL    HW119886   1.101   2.055   3.674
 6329SOL    HW219887   1.139   2.056   3.515
 6330SOL     OW19888   4.801   0.959   0.880
 6330SOL    HW119889   4.772   0.942   0.786
 6330SOL    HW219890   4.827   1.055   0.890
 6331SOL     OW19891   6.295   2.951   0.851
 6331SOL    HW119892   6.255   2.980   0.765
 6331SOL    HW219893   6.222   2.933   0.917
 6332SOL     OW19894   6.148   4.969   2.258
 6332SOL    HW119895   6.141   4.869   2.252
 6332SOL    HW219896   6.212   5.003   2.190
 6333SOL     OW19897   4.038   5.067   3.729
 6333SOL    HW119898   4.105   5.142   3.724
 6333SOL    HW219899   3.965   5.092   3.792
 6334SOL     OW19900   2.002   6.865   2.658
 6334SOL    HW119901   1.970   6.959   2.672
 6334SOL    HW219902   2.010   6.848   2.560
 6335SOL     OW19903   5.562   1.681   0.438
 6335SOL    HW119904   5.601   1.594   0.406
 6335SOL    HW219905   5.508   1.722   0.366
 6336SOL     OW19906   0.018   2.299   4.994
 6336SOL    HW119907   0.018   2.236   4.916
 6336SOL    HW219908   0.092   2.365   4.983
 6337SOL     OW19909   4.849   3.502   6.178
 6337SOL    HW119910   4.780   3.444   6.135
 6337SOL    HW219911   4.807   3.590   6.203
 6338SOL     OW19912   2.670   2.289   2.505
 6338SOL    HW119913   2.738   2.222   2.478
 6338SOL    HW219914   2.616   2.316   2.425
 6339SOL     OW19915   0.336   2.668   3.888
 6339SOL    HW119916   0.374   2.755   3.857
 6339SOL    HW219917   0.410   2.609   3.921
 6340SOL     OW19918   2.393   5.484   3.316
 6340SOL    HW119919   2.410   5.497   3.413
 6340SOL    HW219920   2.427   5.394   3.288
 6341SOL     OW19921   6.976   4.887   3.893
 6341SOL    HW119922   6.900   4.889   3.827
 6341SOL    HW219923   6.943   4.852   3.981
 6342SOL     OW19924   2.371   1.990   1.895
 6342SOL    HW119925   2.369   1.997   1.795
 6342SOL    HW219926   2.459   1.954   1.924
 6343SOL     OW19927   5.002   2.810   6.850
 6343SOL    HW119928   4.908   2.786   6.826
 6343SOL    HW219929   5.065   2.747   6.804
 6344SOL     OW19930   6.723   3.576   5.769
 6344SOL    HW119931   6.705   3.478   5.779
 6344SOL    HW219932   6.637   3.626   5.771
 6345SOL     OW19933   4.306   1.271   2.181
 6345SOL    HW119934   4.292   1.227   2.092
 6345SOL    HW219935   4.296   1.370   2.170
 6346SOL     OW19936   6.441   3.754   3.647
 6346SOL    HW119937   6.353   3.707   3.636
 6346SOL    HW219938   6.495   3.744   3.563
 6347SOL     OW19939   3.177   0.823   1.826
 6347SOL    HW119940   3.212   0.889   1.893
 6347SOL    HW219941   3.092   0.782   1.861
 6348SOL     OW19942   0.629   4.082   4.994
 6348SOL    HW119943   0.608   4.156   5.057
 6348SOL    HW219944   0.693   4.113   4.925
 6349SOL     OW19945   2.496   0.821   1.858
 6349SOL    HW119946   2.562   0.765   1.907
 6349SOL    HW219947   2.544   0.882   1.795
 6350SOL     OW19948   1.867   5.016   3.552
 6350SOL    HW119949   1.920   5.062   3.481
 6350SOL    HW219950   1.854   5.079   3.629
 6351SOL     OW19951   6.720   2.616   1.780
 6351SOL    HW119952   6.632   2.571   1.791
 6351SOL    HW219953   6.753   2.647   1.869
 6352SOL     OW19954   1.529   5.149   4.199
 6352SOL    HW119955   1.444   5.159   4.147
 6352SOL    HW219956   1.575   5.237   4.205
 6353SOL     OW19957   6.388   0.386   6.276
 6353SOL    HW119958   6.342   0.311   6.228
 6353SOL    HW219959   6.486   0.367   6.281
 6354SOL     OW19960   0.955   6.778   2.511
 6354SOL    HW119961   0.903   6.864   2.508
 6354SOL    HW219962   0.943   6.728   2.425
 6355SOL     OW19963   0.560   4.278   5.182
 6355SOL    HW119964   0.537   4.239   5.271
 6355SOL    HW219965   0.607   4.366   5.195
 6356SOL     OW19966   5.184   4.888   1.931
 6356SOL    HW119967   5.094   4.902   1.973
 6356SOL    HW219968   5.204   4.790   1.929
 6357SOL     OW19969   5.057   2.707   1.098
 6357SOL    HW119970   5.122   2.769   1.142
 6357SOL    HW219971   4.981   2.690   1.160
 6358SOL     OW19972   0.313   2.264   4.896
 6358SOL    HW119973   0.261   2.302   4.819
 6358SOL    HW219974   0.372   2.335   4.935
 6359SOL     OW19975   6.557   0.685   5.548
 6359SOL    HW119976   6.568   0.614   5.478
 6359SOL    HW219977   6.462   0.718   5.547
 6360SOL     OW19978   2.404   4.372   4.048
 6360SOL    HW119979   2.368   4.453   4.093
 6360SOL    HW219980   2.369   4.290   4.093
 6361SOL     OW19981   5.288   6.683   6.993
 6361SOL    HW119982   5.256   6.721   0.060
 6361SOL    HW219983   5.270   6.748   6.919
 6362SOL     OW19984   6.181   5.075   0.126
 6362SOL    HW119985   6.249   5.146   0.144
 6362SOL    HW219986   6.200   4.995   0.183
 6363SOL     OW19987   2.295   5.278   3.561
 6363SOL    HW119988   2.204   5.310   3.534
 6363SOL    HW219989   2.321   5.322   3.647
 6364SOL     OW19990   3.072   1.552   6.069
 6364SOL    HW119991   3.004   1.608   6.117
 6364SOL    HW219992   3.056   1.557   5.971
 6365SOL     OW19993   4.594   7.014   4.413
 6365SOL    HW119994   4.612   0.039   4.325
 6365SOL    HW219995   4.679   7.012   4.466
 6366SOL     OW19996   0.918   5.949   5.349
 6366SOL    HW119997   0.879   5.938   5.440
 6366SOL    HW219998   1.006   5.900   5.344
 6367SOL     OW19999   4.595   0.504   4.050
 6367SOL    HW120000   4.583   0.419   3.998
 6367SOL    HW220001   4.547   0.497   4.137
 6368SOL     OW20002   2.968   0.397   4.127
 6368SOL    HW120003   3.065   0.413   4.114
 6368SOL    HW220004   2.952   0.353   4.216
 6369SOL     OW20005   3.638   4.906   4.243
 6369SOL    HW120006   3.574   4.881   4.316
 6369SOL    HW220007   3.588   4.949   4.168
 6370SOL     OW20008   1.111   2.471   2.454
 6370SOL    HW120009   1.093   2.569   2.448
 6370SOL    HW220010   1.209   2.455   2.465
 6371SOL     OW20011   4.831   3.152   3.799
 6371SOL    HW120012   4.835   3.187   3.893
 6371SOL    HW220013   4.784   3.064   3.799
 6372SOL     OW20014   2.979   6.851   1.626
 6372SOL    HW120015   3.053   6.918   1.632
 6372SOL    HW220016   2.933   6.860   1.538
 6373SOL     OW20017   6.172   4.624   4.296
 6373SOL    HW120018   6.172   4.671   4.384
 6373SOL    HW220019   6.081   4.585   4.279
 6374SOL     OW20020   2.961   3.699   4.064
 6374SOL    HW120021   3.048   3.736   4.033
 6374SOL    HW220022   2.947   3.609   4.025
 6375SOL     OW20023   1.045   1.346   3.223
 6375SOL    HW120024   1.041   1.256   3.179
 6375SOL    HW220025   1.004   1.341   3.314
 6376SOL     OW20026   6.699   1.639   5.022
 6376SOL    HW120027   6.601   1.620   5.015
 6376SOL    HW220028   6.726   1.701   4.948
 6377SOL     OW20029   6.738   0.891   6.113
 6377SOL    HW120030   6.696   0.806   6.146
 6377SOL    HW220031   6.670   0.964   6.112
 6378SOL     OW20032   5.286   4.645   3.169
 6378SOL    HW120033   5.187   4.648   3.153
 6378SOL    HW220034   5.325   4.736   3.159
 6379SOL     OW20035   2.423   4.930   4.683
 6379SOL    HW120036   2.376   5.015   4.658
 6379SOL    HW220037   2.514   4.951   4.718
 6380SOL     OW20038   0.995   1.589   5.474
 6380SOL    HW120039   0.915   1.528   5.478
 6380SOL    HW220040   1.063   1.558   5.540
 6381SOL     OW20041   3.368   2.953   2.674
 6381SOL    HW120042   3.273   2.963   2.644
 6381SOL    HW220043   3.372   2.893   2.754
 6382SOL     OW20044   1.546   2.636   0.055
 6382SOL    HW120045   1.491   2.717   0.035
 6382SOL    HW220046   1.604   2.615   6.996
 6383SOL     OW20047   2.160   1.956   3.608
 6383SOL    HW120048   2.074   1.969   3.559
 6383SOL    HW220049   2.218   2.036   3.596
 6384SOL     OW20050   5.985   4.481   1.782
 6384SOL    HW120051   5.937   4.479   1.870
 6384SOL    HW220052   6.029   4.570   1.770
 6385SOL     OW20053   5.855   4.819   4.366
 6385SOL    HW120054   5.779   4.811   4.302
 6385SOL    HW220055   5.936   4.853   4.318
 6386SOL     OW20056   2.408   4.579   0.640
 6386SOL    HW120057   2.497   4.620   0.623
 6386SOL    HW220058   2.420   4.483   0.666
 6387SOL     OW20059   0.934   1.973   6.070
 6387SOL    HW120060   0.946   1.894   6.009
 6387SOL    HW220061   0.916   2.055   6.016
 6388SOL     OW20062   4.025   4.184   1.250
 6388SOL    HW120063   3.935   4.152   1.279
 6388SOL    HW220064   4.088   4.181   1.328
 6389SOL     OW20065   0.922   6.143   1.974
 6389SOL    HW120066   0.897   6.083   2.050
 6389SOL    HW220067   0.944   6.234   2.009
 6390SOL     OW20068   0.187   2.867   3.453
 6390SOL    HW120069   0.245   2.854   3.372
 6390SOL    HW220070   0.129   2.786   3.465
 6391SOL     OW20071   2.863   1.043   7.012
 6391SOL    HW120072   2.853   1.126   6.958
 6391SOL    HW220073   2.957   1.035   0.025
 6392SOL     OW20074   2.198   6.606   4.246
 6392SOL    HW120075   2.214   6.705   4.237
 6392SOL    HW220076   2.285   6.559   4.257
 6393SOL     OW20077   5.796   6.496   1.783
 6393SOL    HW120078   5.738   6.572   1.814
 6393SOL    HW220079   5.891   6.527   1.776
 6394SOL     OW20080   2.704   4.947   1.002
 6394SOL    HW120081   2.730   5.043   1.000
 6394SOL    HW220082   2.716   4.910   1.094
 6395SOL     OW20083   5.964   1.956   1.577
 6395SOL    HW120084   6.025   2.023   1.619
 6395SOL    HW220085   5.978   1.956   1.478
 6396SOL     OW20086   5.786   2.804   6.273
 6396SOL    HW120087   5.836   2.797   6.360
 6396SOL    HW220088   5.689   2.790   6.290
 6397SOL     OW20089   6.409   1.967   6.970
 6397SOL    HW120090   6.435   1.967   0.047
 6397SOL    HW220091   6.321   1.921   6.959
 6398SOL     OW20092   3.548   1.237   0.929
 6398SOL    HW120093   3.591   1.302   0.992
 6398SOL    HW220094   3.551   1.274   0.836
 6399SOL     OW20095   1.734   5.152   6.031
 6399SOL    HW120096   1.696   5.208   6.105
 6399SOL    HW220097   1.821   5.114   6.060
 6400SOL     OW20098   2.325   5.715   3.035
 6400SOL    HW120099   2.252   5.724   2.968
 6400SOL    HW220100   2.287   5.677   3.120
 6401SOL     OW20101   6.886   4.756   3.459
 6401SOL    HW120102   6.947   4.813   3.514
 6401SOL    HW220103   6.925   4.664   3.450
 6402SOL     OW20104   2.700   0.601   3.168
 6402SOL    HW120105   2.654   0.607   3.079
 6402SOL    HW220106   2.723   0.693   3.200
 6403SOL     OW20107   0.722   5.524   6.396
 6403SOL    HW120108   0.709   5.474   6.481
 6403SOL    HW220109   0.808   5.575   6.401
 6404SOL     OW20110   3.775   1.385   3.467
 6404SOL    HW120111   3.867   1.393   3.428
 6404SOL    HW220112   3.737   1.295   3.444
 6405SOL     OW20113   1.927   1.393   2.897
 6405SOL    HW120114   1.865   1.382   2.820
 6405SOL    HW220115   1.877   1.433   2.974
 6406SOL     OW20116   1.380   2.192   3.852
 6406SOL    HW120117   1.370   2.272   3.792
 6406SOL    HW220118   1.443   2.215   3.926
 6407SOL     OW20119   2.977   6.505   4.016
 6407SOL    HW120120   2.973   6.413   4.056
 6407SOL    HW220121   3.028   6.501   3.930
 6408SOL     OW20122   6.144   2.558   0.040
 6408SOL    HW120123   6.244   2.566   0.035
 6408SOL    HW220124   6.118   2.542   0.135
 6409SOL     OW20125   6.426   4.141   3.119
 6409SOL    HW120126   6.375   4.114   3.037
 6409SOL    HW220127   6.390   4.228   3.153
 6410SOL     OW20128   1.511   1.912   0.574
 6410SOL    HW120129   1.420   1.951   0.590
 6410SOL    HW220130   1.574   1.983   0.543
 6411SOL     OW20131   0.356   2.340   3.202
 6411SOL    HW120132   0.343   2.403   3.126
 6411SOL    HW220133   0.452   2.312   3.206
 6412SOL     OW20134   0.129   3.295   5.275
 6412SOL    HW120135   0.206   3.307   5.338
 6412SOL    HW220136   0.123   3.375   5.214
 6413SOL     OW20137   5.687   4.335   2.138
 6413SOL    HW120138   5.642   4.324   2.226
 6413SOL    HW220139   5.623   4.373   2.071
 6414SOL     OW20140   5.609   0.703   1.597
 6414SOL    HW120141   5.580   0.776   1.658
 6414SOL    HW220142   5.694   0.730   1.551
 6415SOL     OW20143   3.063   2.108   2.715
 6415SOL    HW120144   3.127   2.103   2.639
 6415SOL    HW220145   3.031   2.202   2.726
 6416SOL     OW20146   0.914   0.621   6.224
 6416SOL    HW120147   0.953   0.632   6.133
 6416SOL    HW220148   0.814   0.624   6.219
 6417SOL     OW20149   0.715   5.582   3.079
 6417SOL    HW120150   0.805   5.537   3.078
 6417SOL    HW220151   0.713   5.652   3.008
 6418SOL     OW20152   6.731   5.067   2.551
 6418SOL    HW120153   6.784   4.998   2.600
 6418SOL    HW220154   6.716   5.037   2.457
 6419SOL     OW20155   3.246   5.435   1.944
 6419SOL    HW120156   3.320   5.501   1.937
 6419SOL    HW220157   3.172   5.462   1.881
 6420SOL     OW20158   3.308   3.681   6.286
 6420SOL    HW120159   3.367   3.720   6.357
 6420SOL    HW220160   3.234   3.745   6.265
 6421SOL     OW20161   6.490   1.583   1.192
 6421SOL    HW120162   6.444   1.550   1.274
 6421SOL    HW220163   6.490   1.683   1.192
 6422SOL     OW20164   6.872   6.968   3.692
 6422SOL    HW120165   6.797   6.952   3.757
 6422SOL    HW220166   6.960   6.964   3.741
 6423SOL     OW20167   4.794   4.614   1.665
 6423SOL    HW120168   4.714   4.649   1.715
 6423SOL    HW220169   4.869   4.599   1.729
 6424SOL     OW20170   6.623   4.444   5.756
 6424SOL    HW120171   6.679   4.364   5.779
 6424SOL    HW220172   6.560   4.419   5.682
 6425SOL     OW20173   6.919   5.263   3.989
 6425SOL    HW120174   6.862   5.260   3.907
 6425SOL    HW220175   6.889   5.191   4.052
 6426SOL     OW20176   0.558   3.503   3.822
 6426SOL    HW120177   0.564   3.563   3.743
 6426SOL    HW220178   0.542   3.557   3.904
 6427SOL     OW20179   1.693   3.602   6.743
 6427SOL    HW120180   1.776   3.607   6.688
 6427SOL    HW220181   1.717   3.610   6.840
 6428SOL     OW20182   6.541   3.571   1.198
 6428SOL    HW120183   6.601   3.493   1.215
 6428SOL    HW220184   6.545   3.634   1.276
 6429SOL     OW20185   1.109   1.131   4.942
 6429SOL    HW120186   1.089   1.138   4.844
 6429SOL    HW220187   1.109   1.035   4.969
 6430SOL     OW20188   4.648   1.240   1.918
 6430SOL    HW120189   4.628   1.275   2.010
 6430SOL    HW220190   4.569   1.190   1.883
 6431SOL     OW20191   6.061   6.979   3.605
 6431SOL    HW120192   6.055   6.910   3.533
 6431SOL    HW220193   6.126   0.030   3.578
 6432SOL     OW20194   4.595   4.325   0.163
 6432SOL    HW120195   4.598   4.269   0.246
 6432SOL    HW220196   4.680   4.376   0.155
 6433SOL     OW20197   3.095   4.467   0.935
 6433SOL    HW120198   3.048   4.542   0.981
 6433SOL    HW220199   3.044   4.382   0.950
 6434SOL     OW20200   1.154   3.841   1.420
 6434SOL    HW120201   1.136   3.761   1.476
 6434SOL    HW220202   1.122   3.825   1.327
 6435SOL     OW20203   3.683   5.041   6.951
 6435SOL    HW120204   3.707   5.037   6.854
 6435SOL    HW220205   3.761   5.015   7.006
 6436SOL     OW20206   2.159   3.111   3.916
 6436SOL    HW120207   2.160   3.191   3.976
 6436SOL    HW220208   2.162   3.028   3.972
 6437SOL     OW20209   1.448   1.243   7.016
 6437SOL    HW120210   1.378   1.279   6.954
 6437SOL    HW220211   1.532   1.226   6.965
 6438SOL     OW20212   0.159   4.344   5.342
 6438SOL    HW120213   0.187   4.251   5.363
 6438SOL    HW220214   0.059   4.350   5.342
 6439SOL     OW20215   0.556   6.824   0.756
 6439SOL    HW120216   0.650   6.791   0.747
 6439SOL    HW220217   0.494   6.759   0.712
 6440SOL     OW20218   2.141   1.495   1.771
 6440SOL    HW120219   2.140   1.523   1.867
 6440SOL    HW220220   2.232   1.509   1.733
 6441SOL     OW20221   1.053   0.241   2.540
 6441SOL    HW120222   0.982   0.236   2.470
 6441SOL    HW220223   1.022   0.193   2.622
 6442SOL     OW20224   2.423   1.731   3.542
 6442SOL    HW120225   2.353   1.662   3.562
 6442SOL    HW220226   2.383   1.806   3.491
 6443SOL     OW20227   3.537   2.847   0.938
 6443SOL    HW120228   3.444   2.882   0.927
 6443SOL    HW220229   3.591   2.912   0.990
 6444SOL     OW20230   0.350   2.506   3.451
 6444SOL    HW120231   0.441   2.537   3.480
 6444SOL    HW220232   0.360   2.439   3.378
 6445SOL     OW20233   4.673   2.655   5.353
 6445SOL    HW120234   4.600   2.715   5.320
 6445SOL    HW220235   4.653   2.625   5.446
 6446SOL     OW20236   0.107   1.716   6.075
 6446SOL    HW120237   0.071   1.670   6.156
 6446SOL    HW220238   0.045   1.701   5.998
 6447SOL     OW20239   0.572   6.259   2.460
 6447SOL    HW120240   0.559   6.181   2.400
 6447SOL    HW220241   0.604   6.338   2.406
 6448SOL     OW20242   6.306   3.954   2.284
 6448SOL    HW120243   6.371   4.023   2.317
 6448SOL    HW220244   6.235   3.998   2.229
 6449SOL     OW20245   3.762   4.258   1.597
 6449SOL    HW120246   3.695   4.303   1.655
 6449SOL    HW220247   3.852   4.299   1.610
 6450SOL     OW20248   6.975   3.002   1.664
 6450SOL    HW120249   6.910   3.072   1.694
 6450SOL    HW220250   7.011   2.954   1.744
 6451SOL     OW20251   3.207   6.443   5.365
 6451SOL    HW120252   3.113   6.471   5.382
 6451SOL    HW220253   3.216   6.344   5.379
 6452SOL     OW20254   3.824   6.666   5.045
 6452SOL    HW120255   3.766   6.591   5.012
 6452SOL    HW220256   3.811   6.746   4.987
 6453SOL     OW20257   1.973   6.764   6.813
 6453SOL    HW120258   1.922   6.705   6.749
 6453SOL    HW220259   1.974   6.722   6.903
 6454SOL     OW20260   3.196   1.290   3.746
 6454SOL    HW120261   3.153   1.365   3.797
 6454SOL    HW220262   3.202   1.209   3.804
 6455SOL     OW20263   1.000   2.496   4.481
 6455SOL    HW120264   1.063   2.451   4.544
 6455SOL    HW220265   0.952   2.569   4.530
 6456SOL     OW20266   1.400   0.736   3.369
 6456SOL    HW120267   1.480   0.776   3.414
 6456SOL    HW220268   1.429   0.657   3.315
 6457SOL     OW20269   5.523   1.444   0.982
 6457SOL    HW120270   5.445   1.490   0.941
 6457SOL    HW220271   5.592   1.511   1.007
 6458SOL     OW20272   0.891   6.170   2.522
 6458SOL    HW120273   0.920   6.076   2.539
 6458SOL    HW220274   0.808   6.189   2.575
 6459SOL     OW20275   5.482   5.686   0.745
 6459SOL    HW120276   5.468   5.588   0.761
 6459SOL    HW220277   5.482   5.735   0.832
 6460SOL     OW20278   4.169   5.077   6.013
 6460SOL    HW120279   4.141   5.102   6.105
 6460SOL    HW220280   4.097   5.022   5.970
 6461SOL     OW20281   3.246   5.595   4.987
 6461SOL    HW120282   3.179   5.522   5.004
 6461SOL    HW220283   3.338   5.561   5.006
 6462SOL     OW20284   2.137   3.118   5.078
 6462SOL    HW120285   2.229   3.083   5.065
 6462SOL    HW220286   2.085   3.054   5.135
 6463SOL     OW20287   2.386   4.559   6.676
 6463SOL    HW120288   2.287   4.544   6.678
 6463SOL    HW220289   2.431   4.481   6.632
 6464SOL     OW20290   1.131   4.578   4.342
 6464SOL    HW120291   1.215   4.530   4.366
 6464SOL    HW220292   1.142   4.676   4.356
 6465SOL     OW20293   5.756   2.788   3.663
 6465SOL    HW120294   5.678   2.750   3.712
 6465SOL    HW220295   5.836   2.787   3.722
 6466SOL     OW20296   0.174   2.505   5.016
 6466SOL    HW120297   0.272   2.486   5.025
 6466SOL    HW220298   0.161   2.603   4.999
 6467SOL     OW20299   2.247   1.357   6.616
 6467SOL    HW120300   2.295   1.413   6.683
 6467SOL    HW220301   2.185   1.416   6.563
 6468SOL     OW20302   3.931   5.838   1.100
 6468SOL    HW120303   3.862   5.780   1.144
 6468SOL    HW220304   4.008   5.781   1.069
 6469SOL     OW20305   5.547   1.036   5.561
 6469SOL    HW120306   5.530   0.937   5.560
 6469SOL    HW220307   5.505   1.075   5.642
 6470SOL     OW20308   6.407   5.281   6.260
 6470SOL    HW120309   6.313   5.315   6.264
 6470SOL    HW220310   6.407   5.182   6.263
 6471SOL     OW20311   6.595   5.471   6.173
 6471SOL    HW120312   6.616   5.456   6.077
 6471SOL    HW220313   6.524   5.407   6.202
 6472SOL     OW20314   0.584   5.197   1.023
 6472SOL    HW120315   0.506   5.234   1.074
 6472SOL    HW220316   0.644   5.148   1.086
 6473SOL     OW20317   2.421   1.553   5.771
 6473SOL    HW120318   2.402   1.638   5.720
 6473SOL    HW220319   2.369   1.554   5.857
 6474SOL     OW20320   1.722   4.107   5.919
 6474SOL    HW120321   1.633   4.112   5.966
 6474SOL    HW220322   1.707   4.109   5.820
 6475SOL     OW20323   6.098   6.096   4.217
 6475SOL    HW120324   6.196   6.076   4.207
 6475SOL    HW220325   6.048   6.054   4.141
 6476SOL     OW20326   4.866   3.902   2.368
 6476SOL    HW120327   4.855   3.803   2.354
 6476SOL    HW220328   4.873   3.948   2.280
 6477SOL     OW20329   6.813   4.771   1.234
 6477SOL    HW120330   6.797   4.674   1.215
 6477SOL    HW220331   6.792   4.790   1.330
 6478SOL     OW20332   2.894   5.731   2.422
 6478SOL    HW120333   2.814   5.671   2.418
 6478SOL    HW220334   2.943   5.716   2.507
 6479SOL     OW20335   4.150   5.241   2.434
 6479SOL    HW120336   4.215   5.311   2.464
 6479SOL    HW220337   4.095   5.211   2.512
 6480SOL     OW20338   4.133   2.822   5.840
 6480SOL    HW120339   4.083   2.738   5.862
 6480SOL    HW220340   4.105   2.894   5.903
 6481SOL     OW20341   3.375   1.892   1.711
 6481SOL    HW120342   3.276   1.889   1.701
 6481SOL    HW220343   3.412   1.968   1.657
 6482SOL     OW20344   6.960   0.868   6.572
 6482SOL    HW120345   6.984   0.926   6.649
 6482SOL    HW220346   0.024   0.832   6.530
 6483SOL     OW20347   2.470   6.339   1.996
 6483SOL    HW120348   2.495   6.252   2.038
 6483SOL    HW220349   2.384   6.371   2.034
 6484SOL     OW20350   3.661   0.270   2.513
 6484SOL    HW120351   3.621   0.182   2.489
 6484SOL    HW220352   3.589   0.339   2.519
 6485SOL     OW20353   1.806   3.244   3.507
 6485SOL    HW120354   1.872   3.319   3.505
 6485SOL    HW220355   1.714   3.280   3.520
 6486SOL     OW20356   1.299   4.481   3.651
 6486SOL    HW120357   1.333   4.539   3.577
 6486SOL    HW220358   1.376   4.435   3.695
 6487SOL     OW20359   6.409   5.847   4.914
 6487SOL    HW120360   6.403   5.934   4.962
 6487SOL    HW220361   6.467   5.856   4.833
 6488SOL     OW20362   3.127   6.165   5.369
 6488SOL    HW120363   3.046   6.158   5.311
 6488SOL    HW220364   3.207   6.132   5.319
 6489SOL     OW20365   1.886   2.962   6.374
 6489SOL    HW120366   1.817   3.028   6.405
 6489SOL    HW220367   1.945   2.937   6.451
 6490SOL     OW20368   4.192   2.316   0.352
 6490SOL    HW120369   4.255   2.393   0.342
 6490SOL    HW220370   4.231   2.250   0.417
 6491SOL     OW20371   4.061   1.144   6.948
 6491SOL    HW120372   4.151   1.104   6.934
 6491SOL    HW220373   4.037   1.202   6.870
 6492SOL     OW20374   6.075   6.453   6.797
 6492SOL    HW120375   6.054   6.381   6.863
 6492SOL    HW220376   6.150   6.509   6.832
 6493SOL     OW20377   1.388   6.332   5.155
 6493SOL    HW120378   1.395   6.383   5.241
 6493SOL    HW220379   1.367   6.236   5.175
 6494SOL     OW20380   0.640   0.425   3.137
 6494SOL    HW120381   0.714   0.361   3.154
 6494SOL    HW220382   0.582   0.433   3.218
 6495SOL     OW20383   5.394   6.051   4.038
 6495SOL    HW120384   5.389   6.080   3.942
 6495SOL    HW220385   5.487   6.067   4.072
 6496SOL     OW20386   6.878   6.208   2.003
 6496SOL    HW120387   6.914   6.138   2.066
 6496SOL    HW220388   6.924   6.295   2.021
 6497SOL     OW20389   2.523   3.193   0.690
 6497SOL    HW120390   2.429   3.202   0.657
 6497SOL    HW220391   2.536   3.102   0.730
 6498SOL     OW20392   2.498   5.045   3.744
 6498SOL    HW120393   2.424   5.014   3.684
 6498SOL    HW220394   2.586   5.038   3.696
 6499SOL     OW20395   4.929   0.918   5.143
 6499SOL    HW120396   4.944   0.819   5.139
 6499SOL    HW220397   4.940   0.950   5.237
 6500SOL     OW20398   6.340   4.102   3.466
 6500SOL    HW120399   6.433   4.099   3.431
 6500SOL    HW220400   6.341   4.076   3.563
 6501SOL     OW20401   6.081   3.097   1.061
 6501SOL    HW120402   6.094   3.105   1.160
 6501SOL    HW220403   6.042   3.182   1.025
 6502SOL     OW20404   0.030   4.158   3.788
 6502SOL    HW120405   0.004   4.251   3.813
 6502SOL    HW220406   0.067   4.157   3.695
 6503SOL     OW20407   6.200   6.728   3.757
 6503SOL    HW120408   6.159   6.703   3.669
 6503SOL    HW220409   6.297   6.706   3.755
 6504SOL     OW20410   3.904   6.769   6.485
 6504SOL    HW120411   3.999   6.779   6.511
 6504SOL    HW220412   3.892   6.798   6.390
 6505SOL     OW20413   6.335   4.893   1.140
 6505SOL    HW120414   6.384   4.892   1.053
 6505SOL    HW220415   6.339   4.802   1.181
 6506SOL     OW20416   0.635   2.998   0.982
 6506SOL    HW120417   0.700   2.945   0.928
 6506SOL    HW220418   0.664   3.094   0.984
 6507SOL     OW20419   1.281   5.894   0.139
 6507SOL    HW120420   1.366   5.946   0.125
 6507SOL    HW220421   1.222   5.904   0.059
 6508SOL     OW20422   2.620   1.616   3.403
 6508SOL    HW120423   2.679   1.684   3.360
 6508SOL    HW220424   2.542   1.663   3.446
 6509SOL     OW20425   1.821   2.345   4.844
 6509SOL    HW120426   1.792   2.349   4.940
 6509SOL    HW220427   1.775   2.268   4.799
 6510SOL     OW20428   0.414   5.221   6.647
 6510SOL    HW120429   0.374   5.136   6.614
 6510SOL    HW220430   0.381   5.241   6.739
 6511SOL     OW20431   6.086   0.222   4.586
 6511SOL    HW120432   6.105   0.124   4.577
 6511SOL    HW220433   6.101   0.267   4.497
 6512SOL     OW20434   4.456   0.269   2.930
 6512SOL    HW120435   4.471   0.351   2.874
 6512SOL    HW220436   4.385   0.289   2.998
 6513SOL     OW20437   3.755   6.381   4.171
 6513SOL    HW120438   3.692   6.416   4.240
 6513SOL    HW220439   3.740   6.429   4.084
 6514SOL     OW20440   5.479   0.094   3.608
 6514SOL    HW120441   5.420   0.032   3.658
 6514SOL    HW220442   5.552   0.127   3.669
 6515SOL     OW20443   0.159   4.914   4.261
 6515SOL    HW120444   0.163   5.006   4.222
 6515SOL    HW220445   0.231   4.858   4.221
 6516SOL     OW20446   0.234   1.830   6.630
 6516SOL    HW120447   0.274   1.826   6.722
 6516SOL    HW220448   0.220   1.737   6.596
 6517SOL     OW20449   6.689   1.933   0.614
 6517SOL    HW120450   6.599   1.974   0.596
 6517SOL    HW220451   6.718   1.883   0.532
 6518SOL     OW20452   0.992   6.509   0.314
 6518SOL    HW120453   0.945   6.504   0.226
 6518SOL    HW220454   1.090   6.524   0.298
 6519SOL     OW20455   2.648   1.715   3.728
 6519SOL    HW120456   2.714   1.773   3.681
 6519SOL    HW220457   2.556   1.740   3.699
 6520SOL     OW20458   6.015   5.393   3.287
 6520SOL    HW120459   5.949   5.426   3.355
 6520SOL    HW220460   6.040   5.468   3.226
 6521SOL     OW20461   1.070   1.152   4.649
 6521SOL    HW120462   1.018   1.235   4.668
 6521SOL    HW220463   1.160   1.176   4.612
 6522SOL     OW20464   2.777   5.418   0.012
 6522SOL    HW120465   2.869   5.382   7.013
 6522SOL    HW220466   2.726   5.422   6.945
 6523SOL     OW20467   2.853   1.694   6.867
 6523SOL    HW120468   2.849   1.784   6.909
 6523SOL    HW220469   2.776   1.682   6.805
 6524SOL     OW20470   3.713   2.972   3.883
 6524SOL    HW120471   3.667   2.977   3.972
 6524SOL    HW220472   3.812   2.975   3.897
 6525SOL     OW20473   2.001   2.647   2.648
 6525SOL    HW120474   1.974   2.560   2.690
 6525SOL    HW220475   1.957   2.655   2.559
 6526SOL     OW20476   0.411   6.623   5.136
 6526SOL    HW120477   0.424   6.617   5.235
 6526SOL    HW220478   0.427   6.717   5.105
 6527SOL     OW20479   0.881   1.523   4.952
 6527SOL    HW120480   0.916   1.481   4.869
 6527SOL    HW220481   0.957   1.549   5.011
 6528SOL     OW20482   0.223   0.870   3.830
 6528SOL    HW120483   0.187   0.777   3.831
 6528SOL    HW220484   0.292   0.880   3.902
 6529SOL     OW20485   6.033   1.913   3.316
 6529SOL    HW120486   6.016   2.011   3.322
 6529SOL    HW220487   6.132   1.896   3.324
 6530SOL     OW20488   6.600   3.216   0.818
 6530SOL    HW120489   6.692   3.243   0.792
 6530SOL    HW220490   6.562   3.154   0.750
 6531SOL     OW20491   5.510   3.022   4.048
 6531SOL    HW120492   5.479   2.929   4.066
 6531SOL    HW220493   5.548   3.027   3.955
 6532SOL     OW20494   6.187   1.679   0.621
 6532SOL    HW120495   6.139   1.754   0.576
 6532SOL    HW220496   6.275   1.711   0.656
 6533SOL     OW20497   5.376   6.013   1.518
 6533SOL    HW120498   5.416   5.981   1.432
 6533SOL    HW220499   5.444   6.065   1.569
 6534SOL     OW20500   2.403   3.617   1.307
 6534SOL    HW120501   2.348   3.569   1.239
 6534SOL    HW220502   2.388   3.715   1.299
 6535SOL     OW20503   0.353   2.847   5.138
 6535SOL    HW120504   0.375   2.942   5.159
 6535SOL    HW220505   0.302   2.844   5.052
 6536SOL     OW20506   6.535   2.904   6.550
 6536SOL    HW120507   6.468   2.832   6.532
 6536SOL    HW220508   6.587   2.881   6.633
 6537SOL     OW20509   6.620   6.577   6.765
 6537SOL    HW120510   6.700   6.520   6.748
 6537SOL    HW220511   6.605   6.637   6.686
 6538SOL     OW20512   4.283   4.394   0.169
 6538SOL    HW120513   4.246   4.448   0.245
 6538SOL    HW220514   4.382   4.405   0.165
 6539SOL     OW20515   2.312   2.252   6.670
 6539SOL    HW120516   2.250   2.236   6.594
 6539SOL    HW220517   2.403   2.218   6.646
 6540SOL     OW20518   3.675   1.907   4.417
 6540SOL    HW120519   3.700   1.928   4.323
 6540SOL    HW220520   3.679   1.991   4.472
 6541SOL     OW20521   3.087   2.027   5.024
 6541SOL    HW120522   3.028   2.024   4.944
 6541SOL    HW220523   3.118   2.121   5.040
 6542SOL     OW20524   6.201   4.764   3.052
 6542SOL    HW120525   6.208   4.809   3.142
 6542SOL    HW220526   6.285   4.781   3.000
 6543SOL     OW20527   6.426   5.300   0.196
 6543SOL    HW120528   6.433   5.372   0.266
 6543SOL    HW220529   6.515   5.255   0.187
 6544SOL     OW20530   0.359   6.179   4.211
 6544SOL    HW120531   0.269   6.223   4.207
 6544SOL    HW220532   0.422   6.237   4.263
 6545SOL     OW20533   4.985   1.744   6.172
 6545SOL    HW120534   4.955   1.830   6.213
 6545SOL    HW220535   4.911   1.677   6.177
 6546SOL     OW20536   4.593   4.180   6.252
 6546SOL    HW120537   4.589   4.107   6.183
 6546SOL    HW220538   4.600   4.139   6.343
 6547SOL     OW20539   4.247   1.927   5.965
 6547SOL    HW120540   4.327   1.954   6.018
 6547SOL    HW220541   4.164   1.952   6.014
 6548SOL     OW20542   0.948   4.338   6.605
 6548SOL    HW120543   0.879   4.406   6.631
 6548SOL    HW220544   0.906   4.248   6.604
 6549SOL     OW20545   3.688   1.416   1.094
 6549SOL    HW120546   3.782   1.397   1.065
 6549SOL    HW220547   3.687   1.434   1.192
 6550SOL     OW20548   0.693   6.232   3.646
 6550SOL    HW120549   0.628   6.307   3.655
 6550SOL    HW220550   0.686   6.193   3.554
 6551SOL     OW20551   1.800   4.261   2.251
 6551SOL    HW120552   1.876   4.258   2.186
 6551SOL    HW220553   1.738   4.185   2.232
 6552SOL     OW20554   2.431   5.767   4.964
 6552SOL    HW120555   2.507   5.802   5.019
 6552SOL    HW220556   2.466   5.728   4.879
 6553SOL     OW20557   0.326   2.889   1.275
 6553SOL    HW120558   0.343   2.869   1.372
 6553SOL    HW220559   0.410   2.921   1.232
 6554SOL     OW20560   5.782   1.543   5.760
 6554SOL    HW120561   5.779   1.443   5.756
 6554SOL    HW220562   5.731   1.574   5.840
 6555SOL     OW20563   1.902   0.870   2.540
 6555SOL    HW120564   1.965   0.940   2.505
 6555SOL    HW220565   1.861   0.822   2.463
 6556SOL     OW20566   4.734   4.629   4.890
 6556SOL    HW120567   4.779   4.706   4.845
 6556SOL    HW220568   4.792   4.548   4.883
 6557SOL     OW20569   5.542   5.757   1.038
 6557SOL    HW120570   5.636   5.745   1.070
 6557SOL    HW220571   5.478   5.725   1.107
 6558SOL     OW20572   6.556   5.491   0.913
 6558SOL    HW120573   6.464   5.456   0.928
 6558SOL    HW220574   6.553   5.564   0.844
 6559SOL     OW20575   5.740   3.799   0.952
 6559SOL    HW120576   5.810   3.802   1.023
 6559SOL    HW220577   5.678   3.723   0.969
 6560SOL     OW20578   3.667   2.921   1.505
 6560SOL    HW120579   3.751   2.868   1.517
 6560SOL    HW220580   3.691   3.018   1.495
 6561SOL     OW20581   3.931   3.749   2.836
 6561SOL    HW120582   3.840   3.713   2.814
 6561SOL    HW220583   3.922   3.844   2.866
 6562SOL     OW20584   6.080   4.805   6.553
 6562SOL    HW120585   6.025   4.870   6.501
 6562SOL    HW220586   6.106   4.729   6.494
 6563SOL     OW20587   0.606   5.831   0.004
 6563SOL    HW120588   0.678   5.766   6.998
 6563SOL    HW220589   0.537   5.835   6.950
 6564SOL     OW20590   1.176   3.456   2.356
 6564SOL    HW120591   1.111   3.457   2.432
 6564SOL    HW220592   1.161   3.537   2.298
 6565SOL     OW20593   6.229   2.402   4.939
 6565SOL    HW120594   6.300   2.461   4.901
 6565SOL    HW220595   6.266   2.311   4.954
 6566SOL     OW20596   3.538   0.300   1.609
 6566SOL    HW120597   3.543   0.252   1.521
 6566SOL    HW220598   3.443   0.321   1.630
 6567SOL     OW20599   4.747   2.862   1.416
 6567SOL    HW120600   4.722   2.950   1.377
 6567SOL    HW220601   4.833   2.830   1.377
 6568SOL     OW20602   4.646   4.834   2.218
 6568SOL    HW120603   4.628   4.832   2.120
 6568SOL    HW220604   4.690   4.920   2.243
 6569SOL     OW20605   2.923   4.706   0.943
 6569SOL    HW120606   2.854   4.644   0.980
 6569SOL    HW220607   2.901   4.729   0.849
 6570SOL     OW20608   4.443   0.339   1.762
 6570SOL    HW120609   4.515   0.270   1.769
 6570SOL    HW220610   4.356   0.301   1.795
 6571SOL     OW20611   2.105   5.986   2.917
 6571SOL    HW120612   2.155   6.024   2.995
 6571SOL    HW220613   2.008   5.980   2.940
 6572SOL     OW20614   6.413   4.452   5.004
 6572SOL    HW120615   6.388   4.387   5.076
 6572SOL    HW220616   6.415   4.545   5.042
 6573SOL     OW20617   3.350   0.804   2.935
 6573SOL    HW120618   3.350   0.864   3.015
 6573SOL    HW220619   3.422   0.833   2.872
 6574SOL     OW20620   2.342   6.081   1.897
 6574SOL    HW120621   2.250   6.042   1.906
 6574SOL    HW220622   2.336   6.169   1.848
 6575SOL     OW20623   0.778   1.656   1.720
 6575SOL    HW120624   0.768   1.650   1.819
 6575SOL    HW220625   0.758   1.566   1.679
 6576SOL     OW20626   1.129   6.105   6.526
 6576SOL    HW120627   1.211   6.102   6.470
 6576SOL    HW220628   1.048   6.111   6.468
 6577SOL     OW20629   0.466   1.803   3.723
 6577SOL    HW120630   0.382   1.843   3.687
 6577SOL    HW220631   0.488   1.845   3.810
 6578SOL     OW20632   6.736   5.514   3.614
 6578SOL    HW120633   6.827   5.477   3.598
 6578SOL    HW220634   6.676   5.442   3.649
 6579SOL     OW20635   6.884   4.135   4.214
 6579SOL    HW120636   6.963   4.197   4.215
 6579SOL    HW220637   6.917   4.040   4.213
 6580SOL     OW20638   6.100   0.995   0.921
 6580SOL    HW120639   6.100   1.070   0.856
 6580SOL    HW220640   6.118   1.030   1.013
 6581SOL     OW20641   3.713   1.171   5.370
 6581SOL    HW120642   3.622   1.210   5.356
 6581SOL    HW220643   3.713   1.116   5.454
 6582SOL     OW20644   1.532   6.794   2.117
 6582SOL    HW120645   1.612   6.758   2.165
 6582SOL    HW220646   1.451   6.782   2.174
 6583SOL     OW20647   4.740   1.596   5.849
 6583SOL    HW120648   4.824   1.557   5.813
 6583SOL    HW220649   4.746   1.603   5.949
 6584SOL     OW20650   5.694   2.119   6.530
 6584SOL    HW120651   5.652   2.197   6.578
 6584SOL    HW220652   5.779   2.149   6.487
 6585SOL     OW20653   0.071   1.516   0.167
 6585SOL    HW120654   7.001   1.489   0.202
 6585SOL    HW220655   0.130   1.541   0.244
 6586SOL     OW20656   6.480   2.131   6.144
 6586SOL    HW120657   6.410   2.190   6.102
 6586SOL    HW220658   6.565   2.138   6.091
 6587SOL     OW20659   2.735   5.763   4.395
 6587SOL    HW120660   2.706   5.678   4.439
 6587SOL    HW220661   2.683   5.840   4.432
 6588SOL     OW20662   1.677   3.968   1.228
 6588SOL    HW120663   1.692   3.869   1.222
 6588SOL    HW220664   1.736   4.006   1.299
 6589SOL     OW20665   5.158   0.418   6.677
 6589SOL    HW120666   5.102   0.500   6.686
 6589SOL    HW220667   5.181   0.404   6.580
 6590SOL     OW20668   0.087   1.756   4.904
 6590SOL    HW120669   0.124   1.761   4.997
 6590SOL    HW220670   0.066   1.662   4.882
 6591SOL     OW20671   5.795   6.703   2.867
 6591SOL    HW120672   5.842   6.670   2.949
 6591SOL    HW220673   5.851   6.682   2.787
 6592SOL     OW20674   4.331   6.965   4.259
 6592SOL    HW120675   4.425   6.959   4.294
 6592SOL    HW220676   4.303   0.042   4.256
 6593SOL     OW20677   2.312   2.234   3.605
 6593SOL    HW120678   2.251   2.299   3.559
 6593SOL    HW220679   2.335   2.268   3.696
 6594SOL     OW20680   4.537   0.957   0.106
 6594SOL    HW120681   4.589   0.987   0.186
 6594SOL    HW220682   4.448   0.920   0.136
 6595SOL     OW20683   0.605   3.918   1.508
 6595SOL    HW120684   0.696   3.915   1.468
 6595SOL    HW220685   0.537   3.895   1.439
 6596SOL     OW20686   3.965   0.378   5.797
 6596SOL    HW120687   4.027   0.356   5.722
 6596SOL    HW220688   3.873   0.346   5.774
 6597SOL     OW20689   0.857   6.662   4.233
 6597SOL    HW120690   0.925   6.735   4.239
 6597SOL    HW220691   0.792   6.682   4.159
 6598SOL     OW20692   1.806   5.689   5.186
 6598SOL    HW120693   1.880   5.624   5.205
 6598SOL    HW220694   1.749   5.653   5.113
 6599SOL     OW20695   4.286   5.110   5.757
 6599SOL    HW120696   4.219   5.124   5.684
 6599SOL    HW220697   4.238   5.098   5.844
 6600SOL     OW20698   5.453   5.145   5.020
 6600SOL    HW120699   5.481   5.120   4.928
 6600SOL    HW220700   5.495   5.232   5.046
 6601SOL     OW20701   0.586   0.301   0.374
 6601SOL    HW120702   0.625   0.393   0.374
 6601SOL    HW220703   0.520   0.293   0.300
 6602SOL     OW20704   7.012   2.496   1.038
 6602SOL    HW120705   6.996   2.397   1.034
 6602SOL    HW220706   0.081   2.517   0.995
 6603SOL     OW20707   1.747   3.287   4.137
 6603SOL    HW120708   1.750   3.200   4.088
 6603SOL    HW220709   1.704   3.357   4.080
 6604SOL     OW20710   2.703   5.927   1.613
 6604SOL    HW120711   2.617   5.901   1.658
 6604SOL    HW220712   2.690   5.922   1.514
 6605SOL     OW20713   4.804   4.762   0.380
 6605SOL    HW120714   4.725   4.715   0.341
 6605SOL    HW220715   4.876   4.696   0.400
 6606SOL     OW20716   4.463   0.017   2.535
 6606SOL    HW120717   4.406   6.976   2.479
 6606SOL    HW220718   4.554   6.995   2.545
 6607SOL     OW20719   2.098   1.214   1.869
 6607SOL    HW120720   2.111   1.311   1.847
 6607SOL    HW220721   2.100   1.203   1.968
 6608SOL     OW20722   5.199   3.428   2.504
 6608SOL    HW120723   5.271   3.442   2.436
 6608SOL    HW220724   5.211   3.493   2.578
 6609SOL     OW20725   5.247   0.844   6.813
 6609SOL    HW120726   5.166   0.846   6.873
 6609SOL    HW220727   5.307   0.921   6.837
 6610SOL     OW20728   1.978   6.944   0.279
 6610SOL    HW120729   2.003   7.000   0.358
 6610SOL    HW220730   1.891   6.975   0.242
 6611SOL     OW20731   6.757   2.326   3.196
 6611SOL    HW120732   6.725   2.362   3.108
 6611SOL    HW220733   6.856   2.337   3.202
 6612SOL     OW20734   1.799   4.434   6.491
 6612SOL    HW120735   1.799   4.413   6.589
 6612SOL    HW220736   1.788   4.532   6.478
 6613SOL     OW20737   5.778   6.179   3.770
 6613SOL    HW120738   5.752   6.276   3.773
 6613SOL    HW220739   5.735   6.135   3.691
 6614SOL     OW20740   4.903   6.451   6.610
 6614SOL    HW120741   4.907   6.466   6.511
 6614SOL    HW220742   4.927   6.535   6.658
 6615SOL     OW20743   0.436   4.200   4.617
 6615SOL    HW120744   0.390   4.114   4.637
 6615SOL    HW220745   0.527   4.182   4.581
 6616SOL     OW20746   4.111   1.653   5.970
 6616SOL    HW120747   4.030   1.675   6.025
 6616SOL    HW220748   4.158   1.738   5.945
 6617SOL     OW20749   3.789   6.752   3.459
 6617SOL    HW120750   3.827   6.679   3.404
 6617SOL    HW220751   3.692   6.734   3.476
 6618SOL     OW20752   1.132   3.126   2.326
 6618SOL    HW120753   1.138   3.215   2.280
 6618SOL    HW220754   1.162   3.135   2.421
 6619SOL     OW20755   4.833   6.907   4.097
 6619SOL    HW120756   4.895   6.862   4.033
 6619SOL    HW220757   4.834   6.858   4.185
 6620SOL     OW20758   1.445   3.096   6.013
 6620SOL    HW120759   1.481   3.065   6.101
 6620SOL    HW220760   1.447   3.020   5.948
 6621SOL     OW20761   3.153   3.963   0.846
 6621SOL    HW120762   3.245   3.927   0.838
 6621SOL    HW220763   3.090   3.905   0.795
 6622SOL     OW20764   5.951   5.730   1.329
 6622SOL    HW120765   5.989   5.697   1.416
 6622SOL    HW220766   6.026   5.752   1.267
 6623SOL     OW20767   3.436   3.163   2.006
 6623SOL    HW120768   3.458   3.065   2.006
 6623SOL    HW220769   3.410   3.190   2.099
 6624SOL     OW20770   2.796   6.240   4.514
 6624SOL    HW120771   2.877   6.232   4.572
 6624SOL    HW220772   2.717   6.260   4.570
 6625SOL     OW20773   5.806   1.473   6.573
 6625SOL    HW120774   5.887   1.530   6.555
 6625SOL    HW220775   5.835   1.383   6.604
 6626SOL     OW20776   3.333   5.088   3.171
 6626SOL    HW120777   3.295   5.018   3.111
 6626SOL    HW220778   3.324   5.060   3.266
 6627SOL     OW20779   2.292   0.878   5.805
 6627SOL    HW120780   2.364   0.944   5.824
 6627SOL    HW220781   2.204   0.925   5.798
 6628SOL     OW20782   4.693   5.134   2.525
 6628SOL    HW120783   4.689   5.169   2.618
 6628SOL    HW220784   4.699   5.035   2.526
 6629SOL     OW20785   3.518   5.915   0.859
 6629SOL    HW120786   3.540   5.992   0.800
 6629SOL    HW220787   3.599   5.858   0.873
 6630SOL     OW20788   3.704   1.779   0.624
 6630SOL    HW120789   3.644   1.733   0.689
 6630SOL    HW220790   3.745   1.859   0.667
 6631SOL     OW20791   4.355   6.825   2.328
 6631SOL    HW120792   4.416   6.802   2.253
 6631SOL    HW220793   4.281   6.884   2.295
 6632SOL     OW20794   0.106   1.379   1.400
 6632SOL    HW120795   0.173   1.398   1.328
 6632SOL    HW220796   0.143   1.310   1.462
 6633SOL     OW20797   1.437   5.570   6.170
 6633SOL    HW120798   1.500   5.635   6.126
 6633SOL    HW220799   1.419   5.494   6.108
 6634SOL     OW20800   6.658   3.378   6.098
 6634SOL    HW120801   6.629   3.473   6.085
 6634SOL    HW220802   6.672   3.335   6.009
 6635SOL     OW20803   4.283   4.975   3.611
 6635SOL    HW120804   4.374   5.018   3.619
 6635SOL    HW220805   4.247   4.959   3.703
 6636SOL     OW20806   1.577   3.412   5.195
 6636SOL    HW120807   1.516   3.356   5.139
 6636SOL    HW220808   1.646   3.353   5.238
 6637SOL     OW20809   0.817   0.182   7.008
 6637SOL    HW120810   0.727   0.168   6.968
 6637SOL    HW220811   0.864   0.095   7.019
 6638SOL     OW20812   3.624   5.074   4.780
 6638SOL    HW120813   3.641   5.163   4.739
 6638SOL    HW220814   3.710   5.037   4.816
 6639SOL     OW20815   5.692   5.787   5.879
 6639SOL    HW120816   5.747   5.760   5.800
 6639SOL    HW220817   5.605   5.826   5.847
 6640SOL     OW20818   0.217   1.589   4.638
 6640SOL    HW120819   0.123   1.586   4.604
 6640SOL    HW220820   0.252   1.682   4.629
 6641SOL     OW20821   3.236   3.711   6.646
 6641SOL    HW120822   3.286   3.790   6.682
 6641SOL    HW220823   3.181   3.739   6.568
 6642SOL     OW20824   2.363   5.174   6.863
 6642SOL    HW120825   2.344   5.259   6.813
 6642SOL    HW220826   2.285   5.151   6.920
 6643SOL     OW20827   6.218   4.448   0.042
 6643SOL    HW120828   6.120   4.463   0.025
 6643SOL    HW220829   6.244   4.360   0.002
 6644SOL     OW20830   2.987   4.706   1.729
 6644SOL    HW120831   2.942   4.635   1.783
 6644SOL    HW220832   3.086   4.696   1.739
 6645SOL     OW20833   0.029   5.028   0.538
 6645SOL    HW120834   6.972   5.019   0.602
 6645SOL    HW220835   0.070   5.119   0.549
 6646SOL     OW20836   4.673   5.632   4.544
 6646SOL    HW120837   4.606   5.701   4.519
 6646SOL    HW220838   4.760   5.650   4.497
 6647SOL     OW20839   3.228   1.087   2.608
 6647SOL    HW120840   3.162   1.084   2.533
 6647SOL    HW220841   3.180   1.107   2.693
 6648SOL     OW20842   3.755   5.595   2.746
 6648SOL    HW120843   3.671   5.625   2.703
 6648SOL    HW220844   3.734   5.533   2.822
 6649SOL     OW20845   5.637   2.363   6.261
 6649SOL    HW120846   5.583   2.282   6.282
 6649SOL    HW220847   5.733   2.336   6.251
 6650SOL     OW20848   3.884   1.153   3.318
 6650SOL    HW120849   3.954   1.091   3.355
 6650SOL    HW220850   3.891   1.155   3.218
 6651SOL     OW20851   1.554   2.175   0.806
 6651SOL    HW120852   1.472   2.124   0.782
 6651SOL    HW220853   1.618   2.174   0.729
 6652SOL     OW20854   6.429   4.224   0.681
 6652SOL    HW120855   6.423   4.304   0.741
 6652SOL    HW220856   6.427   4.140   0.736
 6653SOL     OW20857   3.947   3.645   3.105
 6653SOL    HW120858   3.969   3.681   3.015
 6653SOL    HW220859   3.850   3.621   3.109
 6654SOL     OW20860   2.108   2.850   1.210
 6654SOL    HW120861   2.113   2.850   1.110
 6654SOL    HW220862   2.118   2.943   1.244
 6655SOL     OW20863   2.506   0.134   1.650
 6655SOL    HW120864   2.521   0.037   1.631
 6655SOL    HW220865   2.525   0.152   1.747
 6656SOL     OW20866   6.988   1.136   2.477
 6656SOL    HW120867   6.945   1.205   2.419
 6656SOL    HW220868   6.931   1.054   2.480
 6657SOL     OW20869   4.190   6.738   6.519
 6657SOL    HW120870   4.217   6.756   6.424
 6657SOL    HW220871   4.197   6.640   6.537
 6658SOL     OW20872   5.882   1.061   5.822
 6658SOL    HW120873   5.889   1.069   5.722
 6658SOL    HW220874   5.973   1.076   5.862
 6659SOL     OW20875   2.452   2.104   0.014
 6659SOL    HW120876   2.535   2.146   0.051
 6659SOL    HW220877   2.405   2.054   0.086
 6660SOL     OW20878   6.824   6.452   1.315
 6660SOL    HW120879   6.907   6.397   1.301
 6660SOL    HW220880   6.801   6.454   1.412
 6661SOL     OW20881   0.138   5.078   3.776
 6661SOL    HW120882   0.204   5.007   3.800
 6661SOL    HW220883   0.048   5.053   3.809
 6662SOL     OW20884   1.198   1.009   0.167
 6662SOL    HW120885   1.253   1.041   0.244
 6662SOL    HW220886   1.255   0.954   0.106
 6663SOL     OW20887   0.219   5.592   3.525
 6663SOL    HW120888   0.197   5.506   3.480
 6663SOL    HW220889   0.233   5.576   3.623
 6664SOL     OW20890   1.269   0.207   1.460
 6664SOL    HW120891   1.368   0.201   1.443
 6664SOL    HW220892   1.242   0.303   1.465
 6665SOL     OW20893   1.443   0.095   3.648
 6665SOL    HW120894   1.496   0.108   3.732
 6665SOL    HW220895   1.433   7.016   3.631
 6666SOL     OW20896   5.991   1.998   5.044
 6666SOL    HW120897   5.959   1.919   5.096
 6666SOL    HW220898   5.913   2.054   5.015
 6667SOL     OW20899   6.218   4.892   4.883
 6667SOL    HW120900   6.296   4.864   4.827
 6667SOL    HW220901   6.251   4.929   4.970
 6668SOL     OW20902   0.220   5.761   2.228
 6668SOL    HW120903   0.169   5.799   2.305
 6668SOL    HW220904   0.156   5.740   2.154
 6669SOL     OW20905   2.242   4.107   3.712
 6669SOL    HW120906   2.295   4.188   3.736
 6669SOL    HW220907   2.209   4.116   3.618
 6670SOL     OW20908   3.558   4.503   6.605
 6670SOL    HW120909   3.468   4.530   6.638
 6670SOL    HW220910   3.620   4.581   6.610
 6671SOL     OW20911   5.539   4.720   0.098
 6671SOL    HW120912   5.592   4.790   0.146
 6671SOL    HW220913   5.443   4.748   0.095
 6672SOL     OW20914   1.003   0.751   5.491
 6672SOL    HW120915   0.971   0.816   5.423
 6672SOL    HW220916   0.936   0.677   5.501
 6673SOL     OW20917   5.273   6.004   2.779
 6673SOL    HW120918   5.237   6.020   2.871
 6673SOL    HW220919   5.292   6.091   2.735
 6674SOL     OW20920   0.799   5.669   6.009
 6674SOL    HW120921   0.787   5.747   6.070
 6674SOL    HW220922   0.806   5.585   6.063
 6675SOL     OW20923   5.516   3.979   0.951
 6675SOL    HW120924   5.611   3.950   0.967
 6675SOL    HW220925   5.513   4.077   0.936
 6676SOL     OW20926   0.731   3.496   5.848
 6676SOL    HW120927   0.828   3.488   5.825
 6676SOL    HW220928   0.686   3.408   5.834
 6677SOL     OW20929   0.063   3.229   0.169
 6677SOL    HW120930   0.061   3.165   0.092
 6677SOL    HW220931   0.041   3.180   0.254
 6678SOL     OW20932   1.281   2.582   6.594
 6678SOL    HW120933   1.269   2.498   6.647
 6678SOL    HW220934   1.344   2.565   6.518
 6679SOL     OW20935   1.500   1.772   5.088
 6679SOL    HW120936   1.422   1.830   5.062
 6679SOL    HW220937   1.533   1.723   5.007
 6680SOL     OW20938   3.923   5.724   5.886
 6680SOL    HW120939   3.836   5.759   5.851
 6680SOL    HW220940   3.994   5.793   5.871
 6681SOL     OW20941   5.734   5.972   6.869
 6681SOL    HW120942   5.745   6.031   6.950
 6681SOL    HW220943   5.649   5.919   6.878
 6682SOL     OW20944   0.565   4.687   2.978
 6682SOL    HW120945   0.537   4.698   2.882
 6682SOL    HW220946   0.523   4.603   3.015
 6683SOL     OW20947   4.929   1.936   5.210
 6683SOL    HW120948   4.896   1.916   5.303
 6683SOL    HW220949   4.853   1.969   5.154
 6684SOL     OW20950   2.264   6.664   1.836
 6684SOL    HW120951   2.170   6.686   1.862
 6684SOL    HW220952   2.327   6.729   1.878
 6685SOL     OW20953   5.125   1.722   5.936
 6685SOL    HW120954   5.144   1.820   5.942
 6685SOL    HW220955   5.078   1.692   6.020
 6686SOL     OW20956   6.216   3.972   4.272
 6686SOL    HW120957   6.295   3.991   4.330
 6686SOL    HW220958   6.179   3.882   4.296
 6687SOL     OW20959   1.160   1.483   0.732
 6687SOL    HW120960   1.126   1.544   0.660
 6687SOL    HW220961   1.204   1.537   0.804
 6688SOL     OW20962   6.795   4.442   2.494
 6688SOL    HW120963   6.746   4.474   2.413
 6688SOL    HW220964   6.836   4.353   2.474
 6689SOL     OW20965   4.591   2.970   0.975
 6689SOL    HW120966   4.526   3.047   0.981
 6689SOL    HW220967   4.585   2.915   1.058
 6690SOL     OW20968   2.196   1.788   1.872
 6690SOL    HW120969   2.279   1.840   1.895
 6690SOL    HW220970   2.173   1.728   1.948
 6691SOL     OW20971   2.576   5.790   1.035
 6691SOL    HW120972   2.674   5.779   1.020
 6691SOL    HW220973   2.545   5.722   1.101
 6692SOL     OW20974   2.762   4.558   5.343
 6692SOL    HW120975   2.705   4.477   5.329
 6692SOL    HW220976   2.831   4.564   5.270
 6693SOL     OW20977   4.392   3.726   5.955
 6693SOL    HW120978   4.483   3.713   5.917
 6693SOL    HW220979   4.326   3.670   5.904
 6694SOL     OW20980   4.161   5.893   0.145
 6694SOL    HW120981   4.189   5.797   0.145
 6694SOL    HW220982   4.205   5.940   0.068
 6695SOL     OW20983   0.354   2.230   6.458
 6695SOL    HW120984   0.270   2.284   6.460
 6695SOL    HW220985   0.425   2.276   6.511
 6696SOL     OW20986   1.986   2.695   1.380
 6696SOL    HW120987   2.020   2.762   1.314
 6696SOL    HW220988   1.887   2.705   1.389
 6697SOL     OW20989   4.562   2.042   2.559
 6697SOL    HW120990   4.555   2.123   2.616
 6697SOL    HW220991   4.541   1.961   2.613
 6698SOL     OW20992   3.750   2.475   0.822
 6698SOL    HW120993   3.676   2.409   0.831
 6698SOL    HW220994   3.716   2.558   0.779
 6699SOL     OW20995   3.924   4.363   6.724
 6699SOL    HW120996   4.006   4.315   6.754
 6699SOL    HW220997   3.930   4.379   6.625
 6700SOL     OW20998   0.446   5.477   0.655
 6700SOL    HW120999   0.376   5.471   0.584
 6700SOL    HW221000   0.448   5.571   0.691
 6701SOL     OW21001   6.168   2.656   1.094
 6701SOL    HW121002   6.113   2.672   1.012
 6701SOL    HW221003   6.215   2.568   1.085
 6702SOL     OW21004   2.688   2.186   0.106
 6702SOL    HW121005   2.758   2.245   0.064
 6702SOL    HW221006   2.705   2.180   0.204
 6703SOL     OW21007   6.370   2.265   6.974
 6703SOL    HW121008   6.437   2.192   6.962
 6703SOL    HW221009   6.333   2.290   6.884
 6704SOL     OW21010   4.571   2.399   2.262
 6704SOL    HW121011   4.610   2.441   2.180
 6704SOL    HW221012   4.485   2.352   2.238
 6705SOL     OW21013   0.051   2.703   1.959
 6705SOL    HW121014   0.065   2.663   1.868
 6705SOL    HW221015   6.974   2.701   1.983
 6706SOL     OW21016   0.794   3.432   0.384
 6706SOL    HW121017   0.711   3.396   0.425
 6706SOL    HW221018   0.810   3.525   0.417
 6707SOL     OW21019   6.354   6.149   4.710
 6707SOL    HW121020   6.358   6.086   4.633
 6707SOL    HW221021   6.271   6.131   4.763
 6708SOL     OW21022   1.619   5.563   2.728
 6708SOL    HW121023   1.585   5.577   2.821
 6708SOL    HW221024   1.620   5.465   2.707
 6709SOL     OW21025   3.499   6.595   1.221
 6709SOL    HW121026   3.430   6.553   1.162
 6709SOL    HW221027   3.458   6.671   1.270
 6710SOL     OW21028   2.291   2.563   6.075
 6710SOL    HW121029   2.373   2.520   6.113
 6710SOL    HW221030   2.306   2.662   6.066
 6711SOL     OW21031   5.295   4.147   6.467
 6711SOL    HW121032   5.282   4.223   6.530
 6711SOL    HW221033   5.358   4.080   6.507
 6712SOL     OW21034   3.799   5.691   0.068
 6712SOL    HW121035   3.802   5.598   0.105
 6712SOL    HW221036   3.719   5.739   0.105
 6713SOL     OW21037   2.419   1.983   1.557
 6713SOL    HW121038   2.388   2.059   1.500
 6713SOL    HW221039   2.507   1.949   1.523
 6714SOL     OW21040   4.940   6.886   5.167
 6714SOL    HW121041   5.036   6.910   5.153
 6714SOL    HW221042   4.911   6.914   5.258
 6715SOL     OW21043   0.594   1.176   0.372
 6715SOL    HW121044   0.576   1.210   0.464
 6715SOL    HW221045   0.566   1.245   0.305
 6716SOL     OW21046   1.708   6.229   0.912
 6716SOL    HW121047   1.688   6.311   0.859
 6716SOL    HW221048   1.760   6.165   0.857
 6717SOL     OW21049   3.707   3.540   0.313
 6717SOL    HW121050   3.740   3.567   0.222
 6717SOL    HW221051   3.622   3.488   0.303
 6718SOL     OW21052   3.590   5.508   6.333
 6718SOL    HW121053   3.648   5.529   6.254
 6718SOL    HW221054   3.598   5.582   6.400
 6719SOL     OW21055   0.285   0.002   6.116
 6719SOL    HW121056   0.202   6.967   6.129
 6719SOL    HW221057   0.335   6.989   6.036
 6720SOL     OW21058   2.405   5.861   1.721
 6720SOL    HW121059   2.330   5.834   1.660
 6720SOL    HW221060   2.390   5.955   1.752
 6721SOL     OW21061   5.219   6.450   4.635
 6721SOL    HW121062   5.266   6.455   4.723
 6721SOL    HW221063   5.120   6.456   4.649
 6722SOL     OW21064   4.910   3.252   0.643
 6722SOL    HW121065   4.958   3.323   0.693
 6722SOL    HW221066   4.975   3.200   0.587
 6723SOL     OW21067   2.048   6.334   3.333
 6723SOL    HW121068   2.113   6.331   3.258
 6723SOL    HW221069   2.012   6.243   3.350
 6724SOL     OW21070   2.423   4.573   6.160
 6724SOL    HW121071   2.517   4.581   6.125
 6724SOL    HW221072   2.371   4.513   6.100
 6725SOL     OW21073   0.904   4.529   2.676
 6725SOL    HW121074   0.908   4.434   2.646
 6725SOL    HW221075   0.997   4.561   2.697
 6726SOL     OW21076   1.784   2.729   4.319
 6726SOL    HW121077   1.766   2.788   4.398
 6726SOL    HW221078   1.712   2.741   4.251
 6727SOL     OW21079   5.447   3.568   6.357
 6727SOL    HW121080   5.534   3.597   6.397
 6727SOL    HW221081   5.404   3.499   6.415
 6728SOL     OW21082   3.936   2.109   4.545
 6728SOL    HW121083   3.990   2.077   4.623
 6728SOL    HW221084   3.954   2.207   4.530
 6729SOL     OW21085   6.980   0.728   2.279
 6729SOL    HW121086   6.978   0.724   2.379
 6729SOL    HW221087   6.918   0.659   2.243
 6730SOL     OW21088   2.494   0.154   6.649
 6730SOL    HW121089   2.523   0.097   6.726
 6730SOL    HW221090   2.473   0.097   6.570
 6731SOL     OW21091   2.887   4.680   1.457
 6731SOL    HW121092   2.867   4.590   1.419
 6731SOL    HW221093   2.923   4.669   1.550
 6732SOL     OW21094   2.225   5.973   0.284
 6732SOL    HW121095   2.208   6.016   0.196
 6732SOL    HW221096   2.224   6.042   0.356
 6733SOL     OW21097   4.391   5.705   5.723
 6733SOL    HW121098   4.486   5.735   5.735
 6733SOL    HW221099   4.337   5.730   5.803
 6734SOL     OW21100   0.996   3.517   5.754
 6734SOL    HW121101   1.073   3.501   5.693
 6734SOL    HW221102   0.968   3.613   5.748
 6735SOL     OW21103   0.292   5.155   5.255
 6735SOL    HW121104   0.246   5.080   5.304
 6735SOL    HW221105   0.236   5.238   5.263
 6736SOL     OW21106   2.385   3.353   1.463
 6736SOL    HW121107   2.437   3.328   1.545
 6736SOL    HW221108   2.417   3.441   1.430
 6737SOL     OW21109   1.995   1.369   2.218
 6737SOL    HW121110   1.896   1.375   2.204
 6737SOL    HW221111   2.023   1.274   2.227
 6738SOL     OW21112   2.428   1.456   2.392
 6738SOL    HW121113   2.512   1.425   2.436
 6738SOL    HW221114   2.434   1.441   2.293
 6739SOL     OW21115   3.801   6.096   4.956
 6739SOL    HW121116   3.848   6.038   5.023
 6739SOL    HW221117   3.723   6.140   4.999
 6740SOL     OW21118   1.441   1.215   4.430
 6740SOL    HW121119   1.431   1.307   4.467
 6740SOL    HW221120   1.530   1.205   4.386
 6741SOL     OW21121   5.456   1.222   6.055
 6741SOL    HW121122   5.445   1.320   6.073
 6741SOL    HW221123   5.389   1.170   6.109
 6742SOL     OW21124   0.099   4.938   5.307
 6742SOL    HW121125   0.013   4.899   5.274
 6742SOL    HW221126   0.080   5.021   5.359
 6743SOL     OW21127   4.110   3.027   0.800
 6743SOL    HW121128   4.037   3.094   0.808
 6743SOL    HW221129   4.161   3.043   0.715
 6744SOL     OW21130   4.075   4.529   5.505
 6744SOL    HW121131   4.144   4.496   5.569
 6744SOL    HW221132   4.059   4.460   5.434
 6745SOL     OW21133   1.060   4.899   3.083
 6745SOL    HW121134   1.051   4.998   3.077
 6745SOL    HW221135   0.996   4.864   3.152
 6746SOL     OW21136   0.601   1.259   1.375
 6746SOL    HW121137   0.548   1.342   1.387
 6746SOL    HW221138   0.688   1.267   1.423
 6747SOL     OW21139   5.693   6.697   4.278
 6747SOL    HW121140   5.606   6.648   4.277
 6747SOL    HW221141   5.680   6.789   4.239
 6748SOL     OW21142   0.962   0.457   1.955
 6748SOL    HW121143   1.060   0.455   1.973
 6748SOL    HW221144   0.930   0.367   1.927
 6749SOL     OW21145   3.620   0.726   0.004
 6749SOL    HW121146   3.658   0.665   6.954
 6749SOL    HW221147   3.691   0.789   0.036
 6750SOL     OW21148   2.673   2.320   4.363
 6750SOL    HW121149   2.702   2.368   4.446
 6750SOL    HW221150   2.754   2.286   4.315
 6751SOL     OW21151   2.573   2.534   4.165
 6751SOL    HW121152   2.608   2.542   4.072
 6751SOL    HW221153   2.622   2.461   4.213
 6752SOL     OW21154   5.848   3.318   1.078
 6752SOL    HW121155   5.824   3.225   1.105
 6752SOL    HW221156   5.780   3.354   1.014
 6753SOL     OW21157   4.271   1.859   6.521
 6753SOL    HW121158   4.240   1.830   6.611
 6753SOL    HW221159   4.326   1.787   6.479
 6754SOL     OW21160   5.918   1.601   6.130
 6754SOL    HW121161   5.875   1.515   6.100
 6754SOL    HW221162   5.940   1.656   6.050
 6755SOL     OW21163   5.567   2.247   3.462
 6755SOL    HW121164   5.502   2.212   3.395
 6755SOL    HW221165   5.590   2.342   3.441
 6756SOL     OW21166   4.913   4.803   4.096
 6756SOL    HW121167   4.897   4.742   4.174
 6756SOL    HW221168   5.008   4.835   4.098
 6757SOL     OW21169   4.958   6.007   1.129
 6757SOL    HW121170   4.911   6.027   1.043
 6757SOL    HW221171   4.894   6.017   1.206
 6758SOL     OW21172   5.159   3.127   2.275
 6758SOL    HW121173   5.147   3.172   2.186
 6758SOL    HW221174   5.072   3.089   2.305
 6759SOL     OW21175   1.204   4.640   2.708
 6759SOL    HW121176   1.287   4.587   2.693
 6759SOL    HW221177   1.193   4.659   2.806
 6760SOL     OW21178   0.070   4.352   4.185
 6760SOL    HW121179   0.081   4.389   4.092
 6760SOL    HW221180   0.156   4.361   4.235
 6761SOL     OW21181   5.275   2.983   5.558
 6761SOL    HW121182   5.219   2.975   5.640
 6761SOL    HW221183   5.317   2.895   5.538
 6762SOL     OW21184   6.347   5.183   3.778
 6762SOL    HW121185   6.422   5.249   3.777
 6762SOL    HW221186   6.380   5.094   3.810
 6763SOL     OW21187   5.856   6.893   5.474
 6763SOL    HW121188   5.863   6.966   5.406
 6763SOL    HW221189   5.765   6.851   5.467
 6764SOL     OW21190   2.899   3.816   6.490
 6764SOL    HW121191   2.923   3.772   6.576
 6764SOL    HW221192   2.916   3.915   6.498
 6765SOL     OW21193   6.839   4.423   3.295
 6765SOL    HW121194   6.869   4.429   3.390
 6765SOL    HW221195   6.783   4.342   3.283
 6766SOL     OW21196   1.735   0.814   5.377
 6766SOL    HW121197   1.787   0.788   5.296
 6766SOL    HW221198   1.726   0.736   5.438
 6767SOL     OW21199   0.682   2.574   6.315
 6767SOL    HW121200   0.673   2.671   6.296
 6767SOL    HW221201   0.734   2.561   6.399
 6768SOL     OW21202   0.914   0.232   4.186
 6768SOL    HW121203   0.860   0.153   4.217
 6768SOL    HW221204   0.875   0.268   4.102
 6769SOL     OW21205   2.371   2.721   5.599
 6769SOL    HW121206   2.309   2.743   5.674
 6769SOL    HW221207   2.440   2.793   5.591
 6770SOL     OW21208   0.235   1.823   3.297
 6770SOL    HW121209   0.232   1.920   3.321
 6770SOL    HW221210   0.233   1.767   3.380
 6771SOL     OW21211   3.539   1.968   4.007
 6771SOL    HW121212   3.617   2.004   4.057
 6771SOL    HW221213   3.513   2.031   3.934
 6772SOL     OW21214   6.513   1.191   2.949
 6772SOL    HW121215   6.424   1.200   2.995
 6772SOL    HW221216   6.512   1.246   2.865
 6773SOL     OW21217   0.124   6.057   1.536
 6773SOL    HW121218   0.162   6.013   1.455
 6773SOL    HW221219   0.032   6.021   1.554
 6774SOL     OW21220   2.271   2.416   5.813
 6774SOL    HW121221   2.276   2.468   5.899
 6774SOL    HW221222   2.308   2.325   5.827
 6775SOL     OW21223   0.396   2.022   4.858
 6775SOL    HW121224   0.366   2.112   4.888
 6775SOL    HW221225   0.330   1.984   4.793
 6776SOL     OW21226   3.578   4.129   1.976
 6776SOL    HW121227   3.577   4.177   1.888
 6776SOL    HW221228   3.495   4.152   2.027
 6777SOL     OW21229   5.302   5.383   1.080
 6777SOL    HW121230   5.230   5.430   1.131
 6777SOL    HW221231   5.263   5.343   0.997
 6778SOL     OW21232   0.205   4.305   2.416
 6778SOL    HW121233   0.287   4.251   2.435
 6778SOL    HW221234   0.196   4.321   2.318
 6779SOL     OW21235   5.925   4.288   5.565
 6779SOL    HW121236   5.856   4.226   5.529
 6779SOL    HW221237   6.015   4.263   5.531
 6780SOL     OW21238   2.848   2.307   2.715
 6780SOL    HW121239   2.795   2.290   2.632
 6780SOL    HW221240   2.823   2.398   2.751
 6781SOL     OW21241   6.881   1.216   3.994
 6781SOL    HW121242   6.922   1.296   4.038
 6781SOL    HW221243   6.950   1.145   3.981
 6782SOL     OW21244   6.719   1.872   3.061
 6782SOL    HW121245   6.742   1.948   2.999
 6782SOL    HW221246   6.798   1.852   3.118
 6783SOL     OW21247   1.549   4.787   5.311
 6783SOL    HW121248   1.574   4.868   5.365
 6783SOL    HW221249   1.450   4.772   5.318
 6784SOL     OW21250   1.766   3.694   1.647
 6784SOL    HW121251   1.735   3.690   1.742
 6784SOL    HW221252   1.854   3.740   1.643
 6785SOL     OW21253   5.254   5.127   4.508
 6785SOL    HW121254   5.294   5.135   4.599
 6785SOL    HW221255   5.292   5.047   4.461
 6786SOL     OW21256   6.827   2.323   6.876
 6786SOL    HW121257   6.827   2.223   6.871
 6786SOL    HW221258   6.837   2.361   6.784
 6787SOL     OW21259   4.063   2.118   6.698
 6787SOL    HW121260   3.984   2.154   6.648
 6787SOL    HW221261   4.034   2.088   6.789
 6788SOL     OW21262   0.099   4.021   3.513
 6788SOL    HW121263   0.144   3.953   3.571
 6788SOL    HW221264   0.067   3.978   3.429
 6789SOL     OW21265   6.256   3.836   4.043
 6789SOL    HW121266   6.347   3.794   4.042
 6789SOL    HW221267   6.247   3.893   4.126
 6790SOL     OW21268   0.834   4.618   5.723
 6790SOL    HW121269   0.795   4.530   5.695
 6790SOL    HW221270   0.824   4.684   5.648
 6791SOL     OW21271   3.660   0.588   3.640
 6791SOL    HW121272   3.759   0.581   3.645
 6791SOL    HW221273   3.626   0.531   3.566
 6792SOL     OW21274   4.162   0.058   5.821
 6792SOL    HW121275   4.098   0.082   5.748
 6792SOL    HW221276   4.219   7.002   5.791
 6793SOL     OW21277   2.190   3.296   0.704
 6793SOL    HW121278   2.228   3.383   0.674
 6793SOL    HW221279   2.097   3.311   0.738
 6794SOL     OW21280   5.153   1.645   5.383
 6794SOL    HW121281   5.249   1.618   5.372
 6794SOL    HW221282   5.123   1.698   5.304
 6795SOL     OW21283   0.838   1.492   1.092
 6795SOL    HW121284   0.855   1.517   0.996
 6795SOL    HW221285   0.924   1.495   1.142
 6796SOL     OW21286   6.899   0.772   2.541
 6796SOL    HW121287   6.800   0.788   2.533
 6796SOL    HW221288   6.935   0.827   2.617
 6797SOL     OW21289   0.560   2.483   0.968
 6797SOL    HW121290   0.556   2.490   0.868
 6797SOL    HW221291   0.553   2.387   0.994
 6798SOL     OW21292   5.311   0.402   1.663
 6798SOL    HW121293   5.283   0.493   1.691
 6798SOL    HW221294   5.411   0.393   1.672
 6799SOL     OW21295   5.718   0.619   3.559
 6799SOL    HW121296   5.734   0.692   3.625
 6799SOL    HW221297   5.708   0.659   3.467
 6800SOL     OW21298   0.205   2.167   1.254
 6800SOL    HW121299   0.162   2.207   1.334
 6800SOL    HW221300   0.305   2.176   1.262
 6801SOL     OW21301   0.700   5.793   5.761
 6801SOL    HW121302   0.630   5.856   5.795
 6801SOL    HW221303   0.743   5.747   5.839
 6802SOL     OW21304   2.808   5.109   1.592
 6802SOL    HW121305   2.763   5.022   1.612
 6802SOL    HW221306   2.739   5.178   1.571
 6803SOL     OW21307   4.983   5.042   5.740
 6803SOL    HW121308   5.039   5.010   5.664
 6803SOL    HW221309   4.938   5.127   5.714
 6804SOL     OW21310   3.211   4.887   3.035
 6804SOL    HW121311   3.170   4.857   3.121
 6804SOL    HW221312   3.148   4.867   2.960
 6805SOL     OW21313   6.954   4.050   5.198
 6805SOL    HW121314   6.941   4.147   5.216
 6805SOL    HW221315   6.873   3.999   5.226
 6806SOL     OW21316   6.954   1.596   2.357
 6806SOL    HW121317   7.016   1.649   2.300
 6806SOL    HW221318   6.988   1.593   2.451
 6807SOL     OW21319   3.316   3.775   1.689
 6807SOL    HW121320   3.391   3.754   1.626
 6807SOL    HW221321   3.351   3.828   1.766
 6808SOL     OW21322   3.220   0.832   4.370
 6808SOL    HW121323   3.201   0.820   4.467
 6808SOL    HW221324   3.310   0.795   4.348
 6809SOL     OW21325   5.124   3.282   2.052
 6809SOL    HW121326   5.125   3.369   2.004
 6809SOL    HW221327   5.146   3.208   1.988
 6810SOL     OW21328   2.634   0.292   3.815
 6810SOL    HW121329   2.666   0.329   3.902
 6810SOL    HW221330   2.698   0.316   3.743
 6811SOL     OW21331   6.757   1.650   1.033
 6811SOL    HW121332   6.719   1.643   1.125
 6811SOL    HW221333   6.704   1.717   0.981
 6812SOL     OW21334   3.219   4.035   5.385
 6812SOL    HW121335   3.256   3.942   5.386
 6812SOL    HW221336   3.285   4.098   5.426
 6813SOL     OW21337   6.373   3.901   1.817
 6813SOL    HW121338   6.337   3.879   1.908
 6813SOL    HW221339   6.302   3.887   1.749
 6814SOL     OW21340   5.014   1.258   6.463
 6814SOL    HW121341   5.029   1.352   6.434
 6814SOL    HW221342   5.074   1.236   6.539
 6815SOL     OW21343   1.945   4.747   6.258
 6815SOL    HW121344   1.889   4.742   6.175
 6815SOL    HW221345   2.042   4.752   6.232
 6816SOL     OW21346   0.730   1.335   3.017
 6816SOL    HW121347   0.819   1.377   3.002
 6816SOL    HW221348   0.693   1.363   3.106
 6817SOL     OW21349   3.776   2.105   2.333
 6817SOL    HW121350   3.720   2.082   2.413
 6817SOL    HW221351   3.717   2.128   2.256
 6818SOL     OW21352   1.861   6.713   5.484
 6818SOL    HW121353   1.765   6.686   5.495
 6818SOL    HW221354   1.886   6.706   5.388
 6819SOL     OW21355   4.469   4.548   2.117
 6819SOL    HW121356   4.562   4.538   2.151
 6819SOL    HW221357   4.452   4.481   2.045
 6820SOL     OW21358   2.856   5.852   1.284
 6820SOL    HW121359   2.765   5.890   1.300
 6820SOL    HW221360   2.886   5.874   1.191
 6821SOL     OW21361   4.100   2.551   5.371
 6821SOL    HW121362   4.164   2.562   5.295
 6821SOL    HW221363   4.133   2.604   5.450
 6822SOL     OW21364   6.822   2.992   6.742
 6822SOL    HW121365   6.878   3.074   6.738
 6822SOL    HW221366   6.855   2.925   6.675
 6823SOL     OW21367   6.157   3.660   6.819
 6823SOL    HW121368   6.104   3.579   6.794
 6823SOL    HW221369   6.205   3.644   6.905
 6824SOL     OW21370   0.294   1.863   5.714
 6824SOL    HW121371   0.223   1.920   5.756
 6824SOL    HW221372   0.379   1.916   5.706
 6825SOL     OW21373   5.664   4.829   1.294
 6825SOL    HW121374   5.739   4.842   1.230
 6825SOL    HW221375   5.700   4.809   1.385
 6826SOL     OW21376   0.246   3.748   2.980
 6826SOL    HW121377   0.283   3.821   3.037
 6826SOL    HW221378   0.319   3.710   2.923
 6827SOL     OW21379   4.641   5.920   4.771
 6827SOL    HW121380   4.620   5.932   4.673
 6827SOL    HW221381   4.641   5.822   4.793
 6828SOL     OW21382   3.013   1.672   2.433
 6828SOL    HW121383   2.967   1.761   2.438
 6828SOL    HW221384   3.105   1.685   2.395
 6829SOL     OW21385   4.566   6.761   4.562
 6829SOL    HW121386   4.551   6.855   4.532
 6829SOL    HW221387   4.491   6.703   4.530
 6830SOL     OW21388   5.202   0.364   3.008
 6830SOL    HW121389   5.126   0.428   3.022
 6830SOL    HW221390   5.170   0.271   3.026
 6831SOL     OW21391   1.495   1.522   6.370
 6831SOL    HW121392   1.407   1.566   6.391
 6831SOL    HW221393   1.564   1.555   6.434
 6832SOL     OW21394   2.997   2.714   0.164
 6832SOL    HW121395   3.038   2.801   0.191
 6832SOL    HW221396   3.058   2.668   0.100
 6833SOL     OW21397   2.769   4.943   6.036
 6833SOL    HW121398   2.719   4.929   6.121
 6833SOL    HW221399   2.715   4.999   5.974
 6834SOL     OW21400   5.383   0.441   0.836
 6834SOL    HW121401   5.452   0.482   0.896
 6834SOL    HW221402   5.425   0.414   0.750
 6835SOL     OW21403   2.626   2.036   4.575
 6835SOL    HW121404   2.675   1.956   4.539
 6835SOL    HW221405   2.672   2.119   4.546
 6836SOL     OW21406   2.001   4.479   6.181
 6836SOL    HW121407   1.971   4.567   6.219
 6836SOL    HW221408   2.030   4.419   6.255
 6837SOL     OW21409   0.370   0.175   1.370
 6837SOL    HW121410   0.412   0.266   1.370
 6837SOL    HW221411   0.270   0.185   1.365
 6838SOL     OW21412   3.067   4.253   5.365
 6838SOL    HW121413   3.142   4.187   5.364
 6838SOL    HW221414   3.102   4.343   5.338
 6839SOL     OW21415   5.577   2.710   3.847
 6839SOL    HW121416   5.505   2.642   3.839
 6839SOL    HW221417   5.627   2.695   3.933
 6840SOL     OW21418   2.617   6.880   5.339
 6840SOL    HW121419   2.535   6.822   5.343
 6840SOL    HW221420   2.638   6.900   5.243
 6841SOL     OW21421   4.013   5.238   1.408
 6841SOL    HW121422   4.065   5.249   1.324
 6841SOL    HW221423   3.915   5.232   1.387
 6842SOL     OW21424   0.102   4.013   6.214
 6842SOL    HW121425   0.083   3.955   6.134
 6842SOL    HW221426   0.017   4.029   6.264
 6843SOL     OW21427   3.510   1.772   2.219
 6843SOL    HW121428   3.603   1.805   2.229
 6843SOL    HW221429   3.450   1.821   2.283
 6844SOL     OW21430   4.821   5.189   4.319
 6844SOL    HW121431   4.815   5.245   4.236
 6844SOL    HW221432   4.769   5.105   4.307
 6845SOL     OW21433   4.957   4.536   2.248
 6845SOL    HW121434   4.914   4.583   2.171
 6845SOL    HW221435   4.953   4.437   2.233
 6846SOL     OW21436   3.868   2.907   2.340
 6846SOL    HW121437   3.915   2.964   2.273
 6846SOL    HW221438   3.864   2.813   2.307
 6847SOL     OW21439   6.307   3.005   1.748
 6847SOL    HW121440   6.380   2.939   1.770
 6847SOL    HW221441   6.345   3.097   1.749
 6848SOL     OW21442   1.234   6.303   3.413
 6848SOL    HW121443   1.260   6.370   3.483
 6848SOL    HW221444   1.302   6.230   3.409
 6849SOL     OW21445   3.984   5.776   4.032
 6849SOL    HW121446   3.914   5.786   3.960
 6849SOL    HW221447   4.025   5.865   4.051
 6850SOL     OW21448   5.254   2.921   2.935
 6850SOL    HW121449   5.294   2.871   3.012
 6850SOL    HW221450   5.323   2.983   2.897
 6851SOL     OW21451   1.435   5.067   5.755
 6851SOL    HW121452   1.399   4.974   5.747
 6851SOL    HW221453   1.533   5.064   5.774
 6852SOL     OW21454   1.048   4.239   1.816
 6852SOL    HW121455   1.025   4.333   1.790
 6852SOL    HW221456   1.063   4.184   1.734
 6853SOL     OW21457   0.365   4.455   5.469
 6853SOL    HW121458   0.279   4.430   5.424
 6853SOL    HW221459   0.363   4.552   5.493
 6854SOL     OW21460   6.968   3.209   6.799
 6854SOL    HW121461   0.038   3.253   6.791
 6854SOL    HW221462   6.896   3.277   6.787
 6855SOL     OW21463   3.100   6.922   2.176
 6855SOL    HW121464   3.150   6.850   2.224
 6855SOL    HW221465   3.110   6.909   2.077
 6856SOL     OW21466   6.140   3.576   4.854
 6856SOL    HW121467   6.163   3.642   4.926
 6856SOL    HW221468   6.041   3.563   4.851
 6857SOL     OW21469   3.105   2.239   6.218
 6857SOL    HW121470   3.063   2.156   6.182
 6857SOL    HW221471   3.166   2.216   6.294
 6858SOL     OW21472   3.977   2.972   5.282
 6858SOL    HW121473   3.956   2.898   5.346
 6858SOL    HW221474   4.069   3.007   5.301
 6859SOL     OW21475   3.344   0.309   0.383
 6859SOL    HW121476   3.380   0.339   0.471
 6859SOL    HW221477   3.274   0.372   0.351
 6860SOL     OW21478   5.555   4.101   0.662
 6860SOL    HW121479   5.502   4.186   0.665
 6860SOL    HW221480   5.560   4.068   0.568
 6861SOL     OW21481   6.087   5.133   0.398
 6861SOL    HW121482   6.106   5.226   0.367
 6861SOL    HW221483   6.120   5.068   0.331
 6862SOL     OW21484   3.304   5.402   4.261
 6862SOL    HW121485   3.209   5.381   4.286
 6862SOL    HW221486   3.358   5.415   4.344
 6863SOL     OW21487   5.811   2.123   4.265
 6863SOL    HW121488   5.854   2.106   4.354
 6863SOL    HW221489   5.877   2.107   4.192
 6864SOL     OW21490   2.949   6.279   4.208
 6864SOL    HW121491   2.961   6.232   4.121
 6864SOL    HW221492   2.965   6.215   4.284
 6865SOL     OW21493   6.528   4.019   4.021
 6865SOL    HW121494   6.600   4.087   4.033
 6865SOL    HW221495   6.440   4.065   4.006
 6866SOL     OW21496   6.813   3.375   2.033
 6866SOL    HW121497   6.725   3.386   2.079
 6866SOL    HW221498   6.827   3.278   2.011
 6867SOL     OW21499   2.257   4.026   2.151
 6867SOL    HW121500   2.214   3.949   2.198
 6867SOL    HW221501   2.277   4.000   2.057
 6868SOL     OW21502   2.065   5.623   4.310
 6868SOL    HW121503   1.996   5.631   4.382
 6868SOL    HW221504   2.150   5.666   4.341
 6869SOL     OW21505   5.456   2.153   5.567
 6869SOL    HW121506   5.364   2.182   5.596
 6869SOL    HW221507   5.477   2.192   5.478
 6870SOL     OW21508   5.798   3.793   2.818
 6870SOL    HW121509   5.863   3.833   2.883
 6870SOL    HW221510   5.779   3.698   2.844
 6871SOL     OW21511   5.367   5.372   1.355
 6871SOL    HW121512   5.376   5.276   1.382
 6871SOL    HW221513   5.354   5.378   1.256
 6872SOL     OW21514   2.080   3.410   0.345
 6872SOL    HW121515   2.009   3.341   0.332
 6872SOL    HW221516   2.038   3.494   0.379
 6873SOL     OW21517   6.081   3.613   6.413
 6873SOL    HW121518   6.061   3.708   6.437
 6873SOL    HW221519   6.179   3.597   6.422
 6874SOL     OW21520   0.702   2.532   4.630
 6874SOL    HW121521   0.753   2.536   4.715
 6874SOL    HW221522   0.640   2.611   4.624
 6875SOL     OW21523   2.058   1.087   2.801
 6875SOL    HW121524   2.116   1.008   2.821
 6875SOL    HW221525   2.100   1.142   2.729
 6876SOL     OW21526   3.775   5.915   0.345
 6876SOL    HW121527   3.690   5.922   0.293
 6876SOL    HW221528   3.754   5.918   0.443
 6877SOL     OW21529   2.446   3.942   0.345
 6877SOL    HW121530   2.476   3.891   0.264
 6877SOL    HW221531   2.389   4.019   0.317
 6878SOL     OW21532   2.177   1.575   5.479
 6878SOL    HW121533   2.100   1.638   5.487
 6878SOL    HW221534   2.257   1.625   5.444
 6879SOL     OW21535   1.040   2.487   6.955
 6879SOL    HW121536   1.111   2.472   6.886
 6879SOL    HW221537   1.047   2.417   0.006
 6880SOL     OW21538   2.202   4.076   4.726
 6880SOL    HW121539   2.243   4.102   4.814
 6880SOL    HW221540   2.210   3.977   4.715
 6881SOL     OW21541   0.413   3.871   1.331
 6881SOL    HW121542   0.421   3.971   1.332
 6881SOL    HW221543   0.330   3.845   1.281
 6882SOL     OW21544   2.413   0.718   5.026
 6882SOL    HW121545   2.424   0.745   5.122
 6882SOL    HW221546   2.470   0.776   4.969
 6883SOL     OW21547   4.222   0.850   1.586
 6883SOL    HW121548   4.192   0.773   1.642
 6883SOL    HW221549   4.141   0.899   1.552
 6884SOL     OW21550   1.958   4.801   4.486
 6884SOL    HW121551   1.921   4.726   4.539
 6884SOL    HW221552   1.979   4.770   4.393
 6885SOL     OW21553   2.651   5.974   4.175
 6885SOL    HW121554   2.745   5.950   4.198
 6885SOL    HW221555   2.649   6.026   4.090
 6886SOL     OW21556   5.459   0.989   2.699
 6886SOL    HW121557   5.457   1.073   2.645
 6886SOL    HW221558   5.550   0.948   2.694
 6887SOL     OW21559   6.108   0.899   4.758
 6887SOL    HW121560   6.196   0.855   4.739
 6887SOL    HW221561   6.108   0.935   4.851
 6888SOL     OW21562   6.316   0.510   4.617
 6888SOL    HW121563   6.367   0.425   4.633
 6888SOL    HW221564   6.221   0.498   4.647
 6889SOL     OW21565   1.220   4.352   6.061
 6889SOL    HW121566   1.288   4.302   6.115
 6889SOL    HW221567   1.241   4.449   6.062
 6890SOL     OW21568   2.057   6.639   1.196
 6890SOL    HW121569   2.106   6.626   1.109
 6890SOL    HW221570   2.028   6.734   1.204
 6891SOL     OW21571   2.069   3.574   3.828
 6891SOL    HW121572   2.110   3.664   3.810
 6891SOL    HW221573   2.136   3.502   3.809
 6892SOL     OW21574   3.259   0.417   4.152
 6892SOL    HW121575   3.268   0.388   4.247
 6892SOL    HW221576   3.306   0.505   4.139
 6893SOL     OW21577   4.936   5.844   2.837
 6893SOL    HW121578   5.031   5.817   2.846
 6893SOL    HW221579   4.931   5.944   2.827
 6894SOL     OW21580   5.653   5.295   0.261
 6894SOL    HW121581   5.706   5.213   0.240
 6894SOL    HW221582   5.611   5.330   0.178
 6895SOL     OW21583   2.665   4.216   0.183
 6895SOL    HW121584   2.582   4.207   0.129
 6895SOL    HW221585   2.642   4.225   0.280
 6896SOL     OW21586   3.649   0.279   3.108
 6896SOL    HW121587   3.726   0.270   3.044
 6896SOL    HW221588   3.623   0.375   3.115
 6897SOL     OW21589   3.544   3.803   0.408
 6897SOL    HW121590   3.638   3.832   0.390
 6897SOL    HW221591   3.499   3.872   0.465
 6898SOL     OW21592   4.055   1.595   1.776
 6898SOL    HW121593   3.961   1.624   1.757
 6898SOL    HW221594   4.118   1.640   1.712
 6899SOL     OW21595   4.792   6.245   6.829
 6899SOL    HW121596   4.825   6.339   6.831
 6899SOL    HW221597   4.801   6.204   6.919
 6900SOL     OW21598   5.409   0.309   6.144
 6900SOL    HW121599   5.478   0.244   6.112
 6900SOL    HW221600   5.447   0.365   6.217
 6901SOL     OW21601   1.819   0.052   6.496
 6901SOL    HW121602   1.855   0.057   6.589
 6901SOL    HW221603   1.723   0.025   6.499
 6902SOL     OW21604   0.470   6.117   0.062
 6902SOL    HW121605   0.547   6.055   0.078
 6902SOL    HW221606   0.504   6.202   0.023
 6903SOL     OW21607   4.120   4.526   0.641
 6903SOL    HW121608   4.120   4.448   0.703
 6903SOL    HW221609   4.030   4.570   0.643
 6904SOL     OW21610   6.405   1.350   3.587
 6904SOL    HW121611   6.395   1.275   3.521
 6904SOL    HW221612   6.359   1.326   3.672
 6905SOL     OW21613   5.645   6.530   0.920
 6905SOL    HW121614   5.558   6.577   0.907
 6905SOL    HW221615   5.637   6.467   0.997
 6906SOL     OW21616   3.752   0.727   2.992
 6906SOL    HW121617   3.745   0.822   3.021
 6906SOL    HW221618   3.732   0.721   2.894
 6907SOL     OW21619   3.715   1.117   1.689
 6907SOL    HW121620   3.669   1.041   1.644
 6907SOL    HW221621   3.664   1.143   1.772
 6908SOL     OW21622   1.044   6.618   5.287
 6908SOL    HW121623   1.093   6.676   5.222
 6908SOL    HW221624   1.109   6.568   5.343
 6909SOL     OW21625   4.759   4.238   0.478
 6909SOL    HW121626   4.820   4.255   0.556
 6909SOL    HW221627   4.667   4.217   0.511
 6910SOL     OW21628   6.047   1.731   1.728
 6910SOL    HW121629   5.992   1.710   1.809
 6910SOL    HW221630   6.010   1.813   1.683
 6911SOL     OW21631   3.920   0.772   4.344
 6911SOL    HW121632   3.932   0.837   4.269
 6911SOL    HW221633   3.868   0.816   4.417
 6912SOL     OW21634   4.935   4.707   0.762
 6912SOL    HW121635   5.013   4.740   0.709
 6912SOL    HW221636   4.914   4.772   0.834
 6913SOL     OW21637   5.179   4.992   4.820
 6913SOL    HW121638   5.278   4.984   4.810
 6913SOL    HW221639   5.152   5.087   4.805
 6914SOL     OW21640   6.064   5.402   0.515
 6914SOL    HW121641   5.991   5.470   0.508
 6914SOL    HW221642   6.027   5.317   0.552
 6915SOL     OW21643   0.405   4.824   3.339
 6915SOL    HW121644   0.452   4.860   3.258
 6915SOL    HW221645   0.395   4.725   3.330
 6916SOL     OW21646   6.349   3.588   7.014
 6916SOL    HW121647   6.433   3.642   7.015
 6916SOL    HW221648   6.340   3.538   0.081
 6917SOL     OW21649   4.889   6.515   6.340
 6917SOL    HW121650   4.878   6.609   6.307
 6917SOL    HW221651   4.935   6.460   6.270
 6918SOL     OW21652   6.871   3.716   3.901
 6918SOL    HW121653   6.774   3.733   3.883
 6918SOL    HW221654   6.926   3.787   3.858
 6919SOL     OW21655   1.743   6.325   2.554
 6919SOL    HW121656   1.682   6.377   2.613
 6919SOL    HW221657   1.809   6.275   2.610
 6920SOL     OW21658   5.117   5.728   4.727
 6920SOL    HW121659   5.162   5.774   4.804
 6920SOL    HW221660   5.176   5.730   4.647
 6921SOL     OW21661   6.841   0.213   3.249
 6921SOL    HW121662   6.833   0.241   3.345
 6921SOL    HW221663   6.928   0.245   3.212
 6922SOL     OW21664   2.719   6.073   0.929
 6922SOL    HW121665   2.776   6.153   0.912
 6922SOL    HW221666   2.777   5.996   0.955
 6923SOL     OW21667   4.657   0.098   4.141
 6923SOL    HW121668   4.702   0.008   4.135
 6923SOL    HW221669   4.648   0.136   4.049
 6924SOL     OW21670   0.274   5.108   1.543
 6924SOL    HW121671   0.200   5.058   1.588
 6924SOL    HW221672   0.281   5.078   1.448
 6925SOL     OW21673   4.634   6.627   2.824
 6925SOL    HW121674   4.632   6.606   2.727
 6925SOL    HW221675   4.541   6.640   2.858
 6926SOL     OW21676   3.210   3.851   3.999
 6926SOL    HW121677   3.245   3.887   4.086
 6926SOL    HW221678   3.250   3.902   3.923
 6927SOL     OW21679   5.165   3.978   6.269
 6927SOL    HW121680   5.105   3.918   6.321
 6927SOL    HW221681   5.223   4.030   6.332
 6928SOL     OW21682   4.978   0.659   6.493
 6928SOL    HW121683   4.896   0.714   6.480
 6928SOL    HW221684   4.960   0.565   6.464
 6929SOL     OW21685   4.242   6.242   0.298
 6929SOL    HW121686   4.254   6.342   0.292
 6929SOL    HW221687   4.150   6.221   0.331
 6930SOL     OW21688   0.734   6.847   2.171
 6930SOL    HW121689   0.807   6.788   2.206
 6930SOL    HW221690   0.713   6.822   2.076
 6931SOL     OW21691   1.772   0.338   1.333
 6931SOL    HW121692   1.791   0.426   1.378
 6931SOL    HW221693   1.834   0.268   1.369
 6932SOL     OW21694   2.623   1.515   0.010
 6932SOL    HW121695   2.639   1.441   0.075
 6932SOL    HW221696   2.707   1.533   6.978
 6933SOL     OW21697   4.121   5.535   5.669
 6933SOL    HW121698   4.066   5.610   5.632
 6933SOL    HW221699   4.207   5.572   5.705
 6934SOL     OW21700   4.899   3.447   0.181
 6934SOL    HW121701   4.881   3.362   0.131
 6934SOL    HW221702   4.986   3.439   0.230
 6935SOL     OW21703   4.494   6.543   3.454
 6935SOL    HW121704   4.399   6.512   3.450
 6935SOL    HW221705   4.555   6.465   3.467
 6936SOL     OW21706   0.810   2.728   0.934
 6936SOL    HW121707   0.722   2.709   0.891
 6936SOL    HW221708   0.882   2.728   0.865
 6937SOL     OW21709   4.643   6.334   6.200
 6937SOL    HW121710   4.628   6.406   6.133
 6937SOL    HW221711   4.734   6.343   6.239
 6938SOL     OW21712   4.785   3.269   5.381
 6938SOL    HW121713   4.830   3.345   5.334
 6938SOL    HW221714   4.851   3.220   5.438
 6939SOL     OW21715   6.941   4.210   2.435
 6939SOL    HW121716   6.933   4.201   2.336
 6939SOL    HW221717   0.015   4.234   2.459
 6940SOL     OW21718   4.811   0.581   5.633
 6940SOL    HW121719   4.829   0.483   5.639
 6940SOL    HW221720   4.876   0.630   5.691
 6941SOL     OW21721   4.088   3.164   3.860
 6941SOL    HW121722   4.050   3.136   3.948
 6941SOL    HW221723   4.171   3.112   3.841
 6942SOL     OW21724   6.904   3.267   0.686
 6942SOL    HW121725   6.999   3.241   0.703
 6942SOL    HW221726   6.857   3.193   0.637
 6943SOL     OW21727   5.276   6.415   6.154
 6943SOL    HW121728   5.305   6.322   6.130
 6943SOL    HW221729   5.311   6.479   6.086
 6944SOL     OW21730   1.102   5.328   6.422
 6944SOL    HW121731   1.043   5.309   6.343
 6944SOL    HW221732   1.048   5.370   6.495
 6945SOL     OW21733   6.332   3.076   6.348
 6945SOL    HW121734   6.291   3.076   6.440
 6945SOL    HW221735   6.364   3.168   6.326
 6946SOL     OW21736   5.722   4.224   2.663
 6946SOL    HW121737   5.704   4.249   2.759
 6946SOL    HW221738   5.796   4.157   2.660
 6947SOL     OW21739   3.293   6.699   2.837
 6947SOL    HW121740   3.227   6.735   2.903
 6947SOL    HW221741   3.324   6.772   2.777
 6948SOL     OW21742   4.854   0.953   6.773
 6948SOL    HW121743   4.932   0.918   6.826
 6948SOL    HW221744   4.833   0.889   6.699
 6949SOL     OW21745   5.252   6.864   3.209
 6949SOL    HW121746   5.294   6.932   3.149
 6949SOL    HW221747   5.312   6.784   3.217
 6950SOL     OW21748   2.204   0.887   2.904
 6950SOL    HW121749   2.295   0.926   2.888
 6950SOL    HW221750   2.179   0.901   3.000
 6951SOL     OW21751   6.451   6.042   5.546
 6951SOL    HW121752   6.468   6.029   5.448
 6951SOL    HW221753   6.387   5.971   5.578
 6952SOL     OW21754   0.367   5.260   4.312
 6952SOL    HW121755   0.403   5.348   4.342
 6952SOL    HW221756   0.440   5.208   4.268
 6953SOL     OW21757   4.675   1.041   5.654
 6953SOL    HW121758   4.678   0.945   5.626
 6953SOL    HW221759   4.672   1.099   5.573
 6954SOL     OW21760   6.582   3.335   4.484
 6954SOL    HW121761   6.661   3.340   4.545
 6954SOL    HW221762   6.577   3.419   4.429
 6955SOL     OW21763   0.216   6.342   1.545
 6955SOL    HW121764   0.152   6.419   1.551
 6955SOL    HW221765   0.166   6.259   1.521
 6956SOL     OW21766   4.624   5.229   1.927
 6956SOL    HW121767   4.629   5.323   1.962
 6956SOL    HW221768   4.529   5.199   1.925
 6957SOL     OW21769   0.262   4.835   1.950
 6957SOL    HW121770   0.330   4.902   1.921
 6957SOL    HW221771   0.289   4.796   2.038
 6958SOL     OW21772   2.360   3.090   6.023
 6958SOL    HW121773   2.407   3.007   5.993
 6958SOL    HW221774   2.338   3.082   6.120
 6959SOL     OW21775   3.738   1.677   4.828
 6959SOL    HW121776   3.816   1.696   4.887
 6959SOL    HW221777   3.764   1.687   4.732
 6960SOL     OW21778   6.931   4.888   0.112
 6960SOL    HW121779   6.884   4.801   0.096
 6960SOL    HW221780   6.995   4.906   0.037
 6961SOL     OW21781   1.303   2.062   3.426
 6961SOL    HW121782   1.277   2.047   3.331
 6961SOL    HW221783   1.397   2.029   3.441
 6962SOL     OW21784   4.960   4.963   2.050
 6962SOL    HW121785   4.996   4.910   2.126
 6962SOL    HW221786   4.985   5.059   2.063
 6963SOL     OW21787   0.773   5.004   1.756
 6963SOL    HW121788   0.713   5.080   1.782
 6963SOL    HW221789   0.759   4.981   1.660
 6964SOL     OW21790   4.523   5.427   5.190
 6964SOL    HW121791   4.594   5.357   5.201
 6964SOL    HW221792   4.497   5.434   5.094
 6965SOL     OW21793   6.716   3.321   6.396
 6965SOL    HW121794   6.680   3.228   6.387
 6965SOL    HW221795   6.720   3.363   6.305
 6966SOL     OW21796   5.047   2.551   2.736
 6966SOL    HW121797   5.080   2.471   2.686
 6966SOL    HW221798   5.011   2.618   2.671
 6967SOL     OW21799   1.411   2.061   6.072
 6967SOL    HW121800   1.329   2.005   6.060
 6967SOL    HW221801   1.392   2.155   6.044
 6968SOL     OW21802   4.098   5.716   1.485
 6968SOL    HW121803   4.110   5.797   1.544
 6968SOL    HW221804   4.156   5.726   1.404
 6969SOL     OW21805   3.466   1.605   1.123
 6969SOL    HW121806   3.500   1.511   1.129
 6969SOL    HW221807   3.475   1.649   1.212
 6970SOL     OW21808   3.806   4.380   0.679
 6970SOL    HW121809   3.767   4.457   0.729
 6970SOL    HW221810   3.858   4.414   0.601
 6971SOL     OW21811   6.435   2.471   1.634
 6971SOL    HW121812   6.442   2.378   1.598
 6971SOL    HW221813   6.452   2.537   1.560
 6972SOL     OW21814   5.464   4.419   4.328
 6972SOL    HW121815   5.495   4.328   4.301
 6972SOL    HW221816   5.457   4.424   4.427
 6973SOL     OW21817   1.975   5.131   4.306
 6973SOL    HW121818   1.934   5.157   4.218
 6973SOL    HW221819   1.925   5.177   4.380
 6974SOL     OW21820   3.148   4.081   3.339
 6974SOL    HW121821   3.120   4.089   3.435
 6974SOL    HW221822   3.114   3.994   3.303
 6975SOL     OW21823   3.752   0.575   6.064
 6975SOL    HW121824   3.742   0.647   5.996
 6975SOL    HW221825   3.702   0.601   6.147
 6976SOL     OW21826   2.426   4.971   6.691
 6976SOL    HW121827   2.402   5.054   6.741
 6976SOL    HW221828   2.522   4.973   6.665
 6977SOL     OW21829   3.734   1.271   2.585
 6977SOL    HW121830   3.785   1.318   2.513
 6977SOL    HW221831   3.643   1.246   2.551
 6978SOL     OW21832   0.185   0.436   1.855
 6978SOL    HW121833   0.223   0.386   1.778
 6978SOL    HW221834   0.150   0.372   1.923
 6979SOL     OW21835   0.545   4.444   2.411
 6979SOL    HW121836   0.574   4.470   2.503
 6979SOL    HW221837   0.600   4.492   2.343
 6980SOL     OW21838   2.386   1.149   3.404
 6980SOL    HW121839   2.369   1.248   3.408
 6980SOL    HW221840   2.309   1.101   3.447
 6981SOL     OW21841   2.193   4.625   0.473
 6981SOL    HW121842   2.255   4.621   0.395
 6981SOL    HW221843   2.242   4.659   0.553
 6982SOL     OW21844   1.563   0.655   4.098
 6982SOL    HW121845   1.540   0.592   4.024
 6982SOL    HW221846   1.489   0.656   4.165
 6983SOL     OW21847   6.996   0.277   4.657
 6983SOL    HW121848   6.987   0.190   4.705
 6983SOL    HW221849   6.938   0.276   4.575
 6984SOL     OW21850   2.033   1.999   5.738
 6984SOL    HW121851   2.013   2.054   5.820
 6984SOL    HW221852   1.986   2.039   5.660
 6985SOL     OW21853   4.017   5.905   2.193
 6985SOL    HW121854   4.000   5.879   2.288
 6985SOL    HW221855   4.025   6.004   2.187
 6986SOL     OW21856   1.727   6.248   5.330
 6986SOL    HW121857   1.684   6.296   5.254
 6986SOL    HW221858   1.822   6.227   5.307
 6987SOL     OW21859   6.919   2.842   6.552
 6987SOL    HW121860   6.929   2.756   6.501
 6987SOL    HW221861   6.904   2.917   6.488
 6988SOL     OW21862   5.179   1.491   3.918
 6988SOL    HW121863   5.250   1.560   3.934
 6988SOL    HW221864   5.137   1.507   3.828
 6989SOL     OW21865   1.401   1.756   3.812
 6989SOL    HW121866   1.301   1.759   3.812
 6989SOL    HW221867   1.433   1.718   3.725
 6990SOL     OW21868   4.532   2.914   6.771
 6990SOL    HW121869   4.599   2.851   6.810
 6990SOL    HW221870   4.518   2.893   6.674
 6991SOL     OW21871   2.383   4.776   5.583
 6991SOL    HW121872   2.480   4.779   5.558
 6991SOL    HW221873   2.344   4.868   5.576
 6992SOL     OW21874   6.188   6.308   4.392
 6992SOL    HW121875   6.143   6.228   4.353
 6992SOL    HW221876   6.249   6.348   4.323
 6993SOL     OW21877   0.045   0.306   3.130
 6993SOL    HW121878   0.110   0.247   3.084
 6993SOL    HW221879   0.012   0.376   3.067
 6994SOL     OW21880   1.741   3.462   6.058
 6994SOL    HW121881   1.708   3.556   6.060
 6994SOL    HW221882   1.705   3.412   6.136
 6995SOL     OW21883   5.758   5.709   4.475
 6995SOL    HW121884   5.803   5.636   4.526
 6995SOL    HW221885   5.718   5.672   4.391
 6996SOL     OW21886   2.478   0.776   5.293
 6996SOL    HW121887   2.561   0.734   5.257
 6996SOL    HW221888   2.434   0.714   5.358
 6997SOL     OW21889   4.850   5.964   4.471
 6997SOL    HW121890   4.935   5.998   4.510
 6997SOL    HW221891   4.782   6.038   4.471
 6998SOL     OW21892   2.069   3.035   1.985
 6998SOL    HW121893   2.041   3.117   2.035
 6998SOL    HW221894   2.005   3.020   1.909
 6999SOL     OW21895   2.368   2.182   5.912
 6999SOL    HW121896   2.434   2.130   5.966
 6999SOL    HW221897   2.286   2.199   5.966
 7000SOL     OW21898   0.490   6.131   2.919
 7000SOL    HW121899   0.477   6.180   3.005
 7000SOL    HW221900   0.409   6.142   2.862
 7001SOL     OW21901   2.097   3.063   5.932
 7001SOL    HW121902   2.190   3.101   5.935
 7001SOL    HW221903   2.045   3.109   5.860
 7002SOL     OW21904   1.612   5.074   3.929
 7002SOL    HW121905   1.530   5.053   3.875
 7002SOL    HW221906   1.585   5.107   4.019
 7003SOL     OW21907   3.170   0.035   0.400
 7003SOL    HW121908   3.254   7.003   0.386
 7003SOL    HW221909   3.191   0.133   0.403
 7004SOL     OW21910   1.802   4.416   1.397
 7004SOL    HW121911   1.837   4.448   1.485
 7004SOL    HW221912   1.705   4.439   1.389
 7005SOL     OW21913   6.053   6.553   6.398
 7005SOL    HW121914   6.062   6.558   6.298
 7005SOL    HW221915   5.964   6.513   6.421
 7006SOL     OW21916   4.799   4.080   4.837
 7006SOL    HW121917   4.765   4.101   4.929
 7006SOL    HW221918   4.850   3.994   4.840
 7007SOL     OW21919   5.217   6.894   2.799
 7007SOL    HW121920   5.120   6.886   2.824
 7007SOL    HW221921   5.274   6.873   2.878
 7008SOL     OW21922   2.401   5.450   4.787
 7008SOL    HW121923   2.475   5.517   4.783
 7008SOL    HW221924   2.363   5.447   4.880
 7009SOL     OW21925   6.264   5.709   2.278
 7009SOL    HW121926   6.208   5.766   2.219
 7009SOL    HW221927   6.361   5.725   2.257
 7010SOL     OW21928   3.287   4.456   5.986
 7010SOL    HW121929   3.350   4.528   5.956
 7010SOL    HW221930   3.193   4.488   5.976
 7011SOL     OW21931   2.118   6.816   5.462
 7011SOL    HW121932   2.093   6.912   5.455
 7011SOL    HW221933   2.036   6.761   5.477
 7012SOL     OW21934   1.228   0.137   1.726
 7012SOL    HW121935   1.283   0.178   1.799
 7012SOL    HW221936   1.265   0.163   1.637
 7013SOL     OW21937   1.080   0.000   1.271
 7013SOL    HW121938   1.012   0.058   1.225
 7013SOL    HW221939   1.172   0.030   1.246
 7014SOL     OW21940   3.360   4.578   1.098
 7014SOL    HW121941   3.335   4.640   1.172
 7014SOL    HW221942   3.278   4.539   1.057
 7015SOL     OW21943   4.971   2.773   2.587
 7015SOL    HW121944   4.963   2.765   2.487
 7015SOL    HW221945   4.882   2.799   2.625
 7016SOL     OW21946   4.637   4.761   1.829
 7016SOL    HW121947   4.548   4.767   1.785
 7016SOL    HW221948   4.646   4.833   1.898
 7017SOL     OW21949   3.060   1.609   3.296
 7017SOL    HW121950   3.152   1.576   3.272
 7017SOL    HW221951   3.003   1.531   3.321
 7018SOL     OW21952   0.212   4.222   4.408
 7018SOL    HW121953   0.216   4.293   4.479
 7018SOL    HW221954   0.201   4.133   4.452
 7019SOL     OW21955   2.711   4.950   6.758
 7019SOL    HW121956   2.743   4.860   6.785
 7019SOL    HW221957   2.664   4.993   6.835
 7020SOL     OW21958   5.970   0.343   6.944
 7020SOL    HW121959   5.955   0.412   7.014
 7020SOL    HW221960   5.973   0.252   6.986
 7021SOL     OW21961   2.508   1.063   5.157
 7021SOL    HW121962   2.492   0.990   5.223
 7021SOL    HW221963   2.513   1.151   5.204
 7022SOL     OW21964   5.141   3.430   0.701
 7022SOL    HW121965   5.143   3.482   0.616
 7022SOL    HW221966   5.148   3.493   0.778
 7023SOL     OW21967   6.213   2.551   2.291
 7023SOL    HW121968   6.125   2.564   2.244
 7023SOL    HW221969   6.199   2.495   2.372
 7024SOL     OW21970   1.950   6.128   6.571
 7024SOL    HW121971   1.905   6.045   6.537
 7024SOL    HW221972   1.881   6.191   6.607
 7025SOL     OW21973   3.134   1.937   6.411
 7025SOL    HW121974   3.207   1.971   6.470
 7025SOL    HW221975   3.047   1.974   6.442
 7026SOL     OW21976   3.152   1.801   2.021
 7026SOL    HW121977   3.181   1.894   2.044
 7026SOL    HW221978   3.220   1.736   2.056
 7027SOL     OW21979   4.044   5.607   3.725
 7027SOL    HW121980   4.026   5.687   3.668
 7027SOL    HW221981   4.118   5.628   3.789
 7028SOL     OW21982   4.857   6.873   3.397
 7028SOL    HW121983   4.832   6.832   3.309
 7028SOL    HW221984   4.844   6.806   3.470
 7029SOL     OW21985   3.747   6.591   0.152
 7029SOL    HW121986   3.768   6.667   0.090
 7029SOL    HW221987   3.754   6.621   0.247
 7030SOL     OW21988   0.330   3.589   5.593
 7030SOL    HW121989   0.352   3.502   5.548
 7030SOL    HW221990   0.357   3.585   5.689
 7031SOL     OW21991   2.162   5.378   4.231
 7031SOL    HW121992   2.113   5.463   4.252
 7031SOL    HW221993   2.156   5.316   4.309
 7032SOL     OW21994   4.880   6.747   2.788
 7032SOL    HW121995   4.807   6.691   2.826
 7032SOL    HW221996   4.934   6.692   2.724
 7033SOL     OW21997   0.282   1.116   3.663
 7033SOL    HW121998   0.269   1.028   3.709
 7033SOL    HW221999   0.268   1.105   3.565
 7034SOL     OW22000   5.059   0.134   3.036
 7034SOL    HW122001   4.976   0.188   3.021
 7034SOL    HW222002   5.040   0.038   3.014
 7035SOL     OW22003   0.487   6.430   2.719
 7035SOL    HW122004   0.410   6.488   2.746
 7035SOL    HW222005   0.487   6.347   2.774
 7036SOL     OW22006   6.979   5.944   1.919
 7036SOL    HW122007   0.052   5.963   1.885
 7036SOL    HW222008   6.918   6.019   1.893
 7037SOL     OW22009   0.699   6.035   5.147
 7037SOL    HW122010   0.756   5.994   5.218
 7037SOL    HW222011   0.609   5.991   5.147
 7038SOL     OW22012   1.115   4.152   3.312
 7038SOL    HW122013   1.046   4.176   3.245
 7038SOL    HW222014   1.105   4.056   3.337
 7039SOL     OW22015   3.686   0.094   6.466
 7039SOL    HW122016   3.611   0.126   6.525
 7039SOL    HW222017   3.654   0.015   6.413
 7040SOL     OW22018   4.450   2.908   6.121
 7040SOL    HW122019   4.527   2.932   6.180
 7040SOL    HW222020   4.416   2.990   6.075
 7041SOL     OW22021   1.071   0.809   3.136
 7041SOL    HW122022   1.165   0.842   3.127
 7041SOL    HW222023   1.066   0.714   3.108
 7042SOL     OW22024   4.327   5.579   6.056
 7042SOL    HW122025   4.325   5.534   6.146
 7042SOL    HW222026   4.398   5.648   6.055
 7043SOL     OW22027   1.433   2.486   3.321
 7043SOL    HW122028   1.511   2.548   3.316
 7043SOL    HW222029   1.439   2.420   3.246
 7044SOL     OW22030   4.758   4.669   2.702
 7044SOL    HW122031   4.754   4.739   2.631
 7044SOL    HW222032   4.697   4.593   2.678
 7045SOL     OW22033   4.964   6.381   1.279
 7045SOL    HW122034   4.982   6.432   1.195
 7045SOL    HW222035   5.051   6.358   1.323
 7046SOL     OW22036   3.887   0.444   4.654
 7046SOL    HW122037   3.831   0.515   4.612
 7046SOL    HW222038   3.918   0.474   4.744
 7047SOL     OW22039   0.759   1.903   3.591
 7047SOL    HW122040   0.667   1.876   3.562
 7047SOL    HW222041   0.753   1.982   3.653
 7048SOL     OW22042   0.298   5.917   1.012
 7048SOL    HW122043   0.384   5.952   1.048
 7048SOL    HW222044   0.305   5.818   1.000
 7049SOL     OW22045   1.724   0.853   0.821
 7049SOL    HW122046   1.704   0.790   0.746
 7049SOL    HW222047   1.685   0.816   0.906
 7050SOL     OW22048   3.486   4.197   4.543
 7050SOL    HW122049   3.393   4.194   4.506
 7050SOL    HW222050   3.551   4.216   4.470
 7051SOL     OW22051   6.830   0.184   0.917
 7051SOL    HW122052   6.837   0.283   0.908
 7051SOL    HW222053   6.918   0.142   0.896
 7052SOL     OW22054   0.023   1.743   4.426
 7052SOL    HW122055   6.959   1.798   4.427
 7052SOL    HW222056   0.081   1.770   4.349
 7053SOL     OW22057   0.390   3.890   6.522
 7053SOL    HW122058   0.462   3.925   6.582
 7053SOL    HW222059   0.369   3.958   6.452
 7054SOL     OW22060   6.272   6.807   1.613
 7054SOL    HW122061   6.248   6.888   1.560
 7054SOL    HW222062   6.348   6.828   1.674
 7055SOL     OW22063   4.547   0.375   5.616
 7055SOL    HW122064   4.633   0.327   5.632
 7055SOL    HW222065   4.494   0.376   5.701
 7056SOL     OW22066   5.465   4.683   2.849
 7056SOL    HW122067   5.522   4.611   2.887
 7056SOL    HW222068   5.507   4.772   2.868
 7057SOL     OW22069   0.237   4.149   3.984
 7057SOL    HW122070   0.153   4.177   3.939
 7057SOL    HW222071   0.293   4.095   3.921
 7058SOL     OW22072   0.332   5.328   4.981
 7058SOL    HW122073   0.430   5.343   4.963
 7058SOL    HW222074   0.312   5.230   4.977
 7059SOL     OW22075   0.504   0.046   1.737
 7059SOL    HW122076   0.495   0.007   1.829
 7059SOL    HW222077   0.593   0.020   1.698
 7060SOL     OW22078   3.176   0.163   1.159
 7060SOL    HW122079   3.104   0.199   1.099
 7060SOL    HW222080   3.136   0.101   1.226
 7061SOL     OW22081   0.396   1.822   3.072
 7061SOL    HW122082   0.358   1.814   3.164
 7061SOL    HW222083   0.322   1.818   3.004
 7062SOL     OW22084   5.956   1.933   5.449
 7062SOL    HW122085   5.885   1.995   5.481
 7062SOL    HW222086   5.934   1.904   5.355
 7063SOL     OW22087   2.045   6.519   1.457
 7063SOL    HW122088   1.992   6.435   1.449
 7063SOL    HW222089   2.060   6.559   1.366
 7064SOL     OW22090   4.435   2.357   1.767
 7064SOL    HW122091   4.484   2.366   1.854
 7064SOL    HW222092   4.495   2.382   1.692
 7065SOL     OW22093   4.537   4.181   1.153
 7065SOL    HW122094   4.472   4.256   1.145
 7065SOL    HW222095   4.505   4.115   1.220
 7066SOL     OW22096   3.895   0.419   0.667
 7066SOL    HW122097   3.903   0.510   0.628
 7066SOL    HW222098   3.961   0.358   0.624
 7067SOL     OW22099   0.989   4.050   5.679
 7067SOL    HW122100   1.044   4.093   5.750
 7067SOL    HW222101   1.001   4.099   5.593
 7068SOL     OW22102   0.799   2.671   3.092
 7068SOL    HW122103   0.761   2.657   3.001
 7068SOL    HW222104   0.899   2.665   3.088
 7069SOL     OW22105   6.448   3.573   5.683
 7069SOL    HW122106   6.427   3.493   5.739
 7069SOL    HW222107   6.519   3.550   5.616
 7070SOL     OW22108   6.444   4.592   5.251
 7070SOL    HW122109   6.389   4.578   5.333
 7070SOL    HW222110   6.461   4.690   5.238
 7071SOL     OW22111   0.914   5.772   5.105
 7071SOL    HW122112   0.982   5.846   5.105
 7071SOL    HW222113   0.892   5.748   5.200
 7072SOL     OW22114   6.815   6.133   5.965
 7072SOL    HW122115   6.794   6.224   6.001
 7072SOL    HW222116   6.756   6.114   5.886
 7073SOL     OW22117   0.193   0.732   5.603
 7073SOL    HW122118   0.215   0.828   5.582
 7073SOL    HW222119   0.270   0.674   5.577
 7074SOL     OW22120   3.334   2.701   1.720
 7074SOL    HW122121   3.398   2.626   1.739
 7074SOL    HW222122   3.253   2.664   1.674
 7075SOL     OW22123   1.651   5.729   4.210
 7075SOL    HW122124   1.611   5.690   4.293
 7075SOL    HW222125   1.725   5.670   4.178
 7076SOL     OW22126   3.309   1.993   6.803
 7076SOL    HW122127   3.272   1.908   6.841
 7076SOL    HW222128   3.403   1.978   6.773
 7077SOL     OW22129   2.231   5.504   5.405
 7077SOL    HW122130   2.318   5.551   5.423
 7077SOL    HW222131   2.157   5.549   5.455
 7078SOL     OW22132   6.256   6.634   3.056
 7078SOL    HW122133   6.321   6.559   3.070
 7078SOL    HW222134   6.190   6.608   2.985
 7079SOL     OW22135   6.654   6.100   5.736
 7079SOL    HW122136   6.620   6.176   5.792
 7079SOL    HW222137   6.591   6.084   5.660
 7080SOL     OW22138   3.930   2.200   3.808
 7080SOL    HW122139   3.833   2.177   3.815
 7080SOL    HW222140   3.974   2.187   3.896
 7081SOL     OW22141   3.135   1.126   5.144
 7081SOL    HW122142   3.192   1.115   5.062
 7081SOL    HW222143   3.130   1.223   5.168
 7082SOL     OW22144   5.334   1.556   6.799
 7082SOL    HW122145   5.361   1.640   6.847
 7082SOL    HW222146   5.415   1.499   6.785
 7083SOL     OW22147   2.847   1.426   6.286
 7083SOL    HW122148   2.856   1.333   6.322
 7083SOL    HW222149   2.919   1.484   6.324
 7084SOL     OW22150   6.767   6.953   5.473
 7084SOL    HW122151   6.820   0.005   5.428
 7084SOL    HW222152   6.670   6.966   5.453
 7085SOL     OW22153   2.379   2.409   3.308
 7085SOL    HW122154   2.438   2.385   3.385
 7085SOL    HW222155   2.410   2.494   3.267
 7086SOL     OW22156   5.249   0.770   6.554
 7086SOL    HW122157   5.250   0.794   6.651
 7086SOL    HW222158   5.172   0.708   6.536
 7087SOL     OW22159   1.186   3.513   4.528
 7087SOL    HW122160   1.217   3.598   4.571
 7087SOL    HW222161   1.100   3.530   4.480
 7088SOL     OW22162   4.952   2.919   4.547
 7088SOL    HW122163   4.993   2.860   4.477
 7088SOL    HW222164   4.946   3.013   4.512
 7089SOL     OW22165   3.673   2.548   6.339
 7089SOL    HW122166   3.762   2.594   6.338
 7089SOL    HW222167   3.601   2.615   6.357
 7090SOL     OW22168   1.594   1.273   5.617
 7090SOL    HW122169   1.597   1.360   5.667
 7090SOL    HW222170   1.672   1.267   5.556
 7091SOL     OW22171   0.332   1.071   0.139
 7091SOL    HW122172   0.263   1.089   0.208
 7091SOL    HW222173   0.419   1.048   0.184
 7092SOL     OW22174   4.190   4.101   0.111
 7092SOL    HW122175   4.250   4.056   0.044
 7092SOL    HW222176   4.206   4.200   0.108
 7093SOL     OW22177   3.394   4.183   4.177
 7093SOL    HW122178   3.313   4.128   4.195
 7093SOL    HW222179   3.385   4.272   4.223
 7094SOL     OW22180   0.501   6.475   5.958
 7094SOL    HW122181   0.450   6.409   5.903
 7094SOL    HW222182   0.584   6.502   5.908
 7095SOL     OW22183   1.959   3.124   6.752
 7095SOL    HW122184   2.055   3.096   6.748
 7095SOL    HW222185   1.939   3.186   6.676
 7096SOL     OW22186   5.359   2.323   3.633
 7096SOL    HW122187   5.280   2.269   3.603
 7096SOL    HW222188   5.443   2.285   3.594
 7097SOL     OW22189   6.816   0.545   1.575
 7097SOL    HW122190   6.833   0.474   1.507
 7097SOL    HW222191   6.897   0.555   1.633
 7098SOL     OW22192   1.094   5.967   5.054
 7098SOL    HW122193   1.064   6.062   5.062
 7098SOL    HW222194   1.186   5.957   5.091
 7099SOL     OW22195   1.109   1.579   5.186
 7099SOL    HW122196   1.064   1.574   5.276
 7099SOL    HW222197   1.204   1.606   5.198
 7100SOL     OW22198   4.983   3.906   0.956
 7100SOL    HW122199   4.998   3.835   1.024
 7100SOL    HW222200   4.896   3.952   0.975
 7101SOL     OW22201   2.853   0.206   4.651
 7101SOL    HW122202   2.837   0.186   4.554
 7101SOL    HW222203   2.938   0.161   4.680
 7102SOL     OW22204   4.215   0.861   1.035
 7102SOL    HW122205   4.244   0.766   1.044
 7102SOL    HW222206   4.294   0.918   1.013
 7103SOL     OW22207   3.535   5.815   6.693
 7103SOL    HW122208   3.526   5.758   6.775
 7103SOL    HW222209   3.469   5.890   6.697
 7104SOL     OW22210   1.543   2.948   3.446
 7104SOL    HW122211   1.573   3.033   3.403
 7104SOL    HW222212   1.616   2.915   3.506
 7105SOL     OW22213   3.355   3.431   4.963
 7105SOL    HW122214   3.346   3.403   4.867
 7105SOL    HW222215   3.408   3.362   5.013
 7106SOL     OW22216   3.753   2.946   4.744
 7106SOL    HW122217   3.724   3.009   4.671
 7106SOL    HW222218   3.672   2.910   4.790
 7107SOL     OW22219   3.032   1.204   0.230
 7107SOL    HW122220   3.110   1.150   0.196
 7107SOL    HW222221   3.010   1.174   0.323
 7108SOL     OW22222   4.096   6.433   1.522
 7108SOL    HW122223   4.166   6.500   1.497
 7108SOL    HW222224   4.123   6.343   1.487
 7109SOL     OW22225   3.339   0.210   6.013
 7109SOL    HW122226   3.374   0.161   5.933
 7109SOL    HW222227   3.302   0.145   6.079
 7110SOL     OW22228   5.308   5.345   4.207
 7110SOL    HW122229   5.300   5.245   4.203
 7110SOL    HW222230   5.360   5.377   4.127
 7111SOL     OW22231   1.341   3.411   3.910
 7111SOL    HW122232   1.405   3.467   3.857
 7111SOL    HW222233   1.280   3.363   3.847
 7112SOL     OW22234   1.642   5.891   3.933
 7112SOL    HW122235   1.647   5.989   3.952
 7112SOL    HW222236   1.665   5.839   4.016
 7113SOL     OW22237   3.986   3.868   4.780
 7113SOL    HW122238   4.035   3.830   4.858
 7113SOL    HW222239   4.032   3.840   4.695
 7114SOL     OW22240   3.795   0.726   1.473
 7114SOL    HW122241   3.793   0.626   1.462
 7114SOL    HW222242   3.722   0.754   1.536
 7115SOL     OW22243   5.421   2.266   1.248
 7115SOL    HW122244   5.405   2.214   1.331
 7115SOL    HW222245   5.335   2.303   1.213
 7116SOL     OW22246   5.756   4.145   3.652
 7116SOL    HW122247   5.740   4.099   3.565
 7116SOL    HW222248   5.847   4.121   3.687
 7117SOL     OW22249   0.084   6.307   3.572
 7117SOL    HW122250   7.015   6.323   3.617
 7117SOL    HW222251   0.120   6.219   3.602
 7118SOL     OW22252   5.405   3.428   1.535
 7118SOL    HW122253   5.487   3.440   1.480
 7118SOL    HW222254   5.326   3.466   1.487
 7119SOL     OW22255   5.711   1.058   3.103
 7119SOL    HW122256   5.743   1.100   3.188
 7119SOL    HW222257   5.738   1.115   3.026
 7120SOL     OW22258   4.604   1.532   3.089
 7120SOL    HW122259   4.669   1.582   3.147
 7120SOL    HW222260   4.588   1.441   3.129
 7121SOL     OW22261   2.140   6.760   3.575
 7121SOL    HW122262   2.098   6.678   3.538
 7121SOL    HW222263   2.176   6.816   3.500
 7122SOL     OW22264   6.596   1.027   0.313
 7122SOL    HW122265   6.510   0.985   0.340
 7122SOL    HW222266   6.670   0.959   0.315
 7123SOL     OW22267   2.680   5.389   1.681
 7123SOL    HW122268   2.627   5.321   1.731
 7123SOL    HW222269   2.745   5.433   1.744
 7124SOL     OW22270   0.587   4.837   0.750
 7124SOL    HW122271   0.661   4.878   0.803
 7124SOL    HW222272   0.626   4.777   0.680
 7125SOL     OW22273   6.235   6.597   1.439
 7125SOL    HW122274   6.273   6.655   1.511
 7125SOL    HW222275   6.260   6.635   1.350
 7126SOL     OW22276   2.502   3.727   0.550
 7126SOL    HW122277   2.413   3.726   0.504
 7126SOL    HW222278   2.499   3.791   0.627
 7127SOL     OW22279   3.429   5.296   4.025
 7127SOL    HW122280   3.376   5.344   4.095
 7127SOL    HW222281   3.464   5.210   4.063
 7128SOL     OW22282   3.471   4.594   0.710
 7128SOL    HW122283   3.420   4.513   0.738
 7128SOL    HW222284   3.410   4.674   0.711
 7129SOL     OW22285   3.147   0.875   1.395
 7129SOL    HW122286   3.079   0.804   1.378
 7129SOL    HW222287   3.116   0.936   1.467
 7130SOL     OW22288   3.458   5.013   4.046
 7130SOL    HW122289   3.457   4.962   3.960
 7130SOL    HW222290   3.368   5.006   4.089
 7131SOL     OW22291   2.735   1.540   1.494
 7131SOL    HW122292   2.756   1.595   1.413
 7131SOL    HW222293   2.755   1.594   1.576
 7132SOL     OW22294   4.075   3.479   3.266
 7132SOL    HW122295   4.021   3.554   3.228
 7132SOL    HW222296   4.125   3.433   3.192
 7133SOL     OW22297   4.988   5.172   3.084
 7133SOL    HW122298   4.947   5.262   3.070
 7133SOL    HW222299   4.946   5.128   3.163
 7134SOL     OW22300   6.572   6.176   4.010
 7134SOL    HW122301   6.548   6.124   3.928
 7134SOL    HW222302   6.622   6.116   4.073
 7135SOL     OW22303   1.293   0.698   4.218
 7135SOL    HW122304   1.240   0.629   4.268
 7135SOL    HW222305   1.307   0.778   4.276
 7136SOL     OW22306   1.762   1.469   0.887
 7136SOL    HW122307   1.811   1.418   0.958
 7136SOL    HW222308   1.668   1.435   0.880
 7137SOL     OW22309   4.338   1.071   4.557
 7137SOL    HW122310   4.410   1.041   4.494
 7137SOL    HW222311   4.374   1.143   4.616
 7138SOL     OW22312   3.326   2.729   1.186
 7138SOL    HW122313   3.307   2.816   1.139
 7138SOL    HW222314   3.383   2.747   1.266
 7139SOL     OW22315   4.877   3.307   1.883
 7139SOL    HW122316   4.829   3.224   1.911
 7139SOL    HW222317   4.971   3.305   1.918
 7140SOL     OW22318   5.902   3.087   5.099
 7140SOL    HW122319   5.806   3.059   5.101
 7140SOL    HW222320   5.955   3.022   5.045
 7141SOL     OW22321   3.436   0.540   0.885
 7141SOL    HW122322   3.536   0.539   0.884
 7141SOL    HW222323   3.402   0.447   0.900
 7142SOL     OW22324   4.450   0.161   3.703
 7142SOL    HW122325   4.521   0.109   3.655
 7142SOL    HW222326   4.372   0.101   3.723
 7143SOL     OW22327   1.973   3.648   6.232
 7143SOL    HW122328   2.020   3.571   6.275
 7143SOL    HW222329   1.953   3.717   6.301
 7144SOL     OW22330   0.810   1.192   2.644
 7144SOL    HW122331   0.745   1.237   2.705
 7144SOL    HW222332   0.849   1.259   2.582
 7145SOL     OW22333   4.606   6.585   6.497
 7145SOL    HW122334   4.694   6.544   6.472
 7145SOL    HW222335   4.558   6.526   6.562
 7146SOL     OW22336   2.801   6.771   0.747
 7146SOL    HW122337   2.760   6.690   0.704
 7146SOL    HW222338   2.896   6.779   0.718
 7147SOL     OW22339   6.931   6.792   3.505
 7147SOL    HW122340   6.987   6.848   3.443
 7147SOL    HW222341   6.895   6.850   3.578
 7148SOL     OW22342   0.919   6.642   1.668
 7148SOL    HW122343   0.900   6.566   1.606
 7148SOL    HW222344   0.924   6.727   1.615
 7149SOL     OW22345   6.800   0.778   3.517
 7149SOL    HW122346   6.734   0.703   3.521
 7149SOL    HW222347   6.756   0.863   3.546
 7150SOL     OW22348   4.857   3.129   1.491
 7150SOL    HW122349   4.758   3.127   1.475
 7150SOL    HW222350   4.904   3.136   1.403
 7151SOL     OW22351   1.677   5.888   0.805
 7151SOL    HW122352   1.769   5.852   0.820
 7151SOL    HW222353   1.643   5.857   0.716
 7152SOL     OW22354   0.774   3.583   5.159
 7152SOL    HW122355   0.864   3.543   5.180
 7152SOL    HW222356   0.787   3.664   5.102
 7153SOL     OW22357   3.798   6.778   5.525
 7153SOL    HW122358   3.811   6.705   5.459
 7153SOL    HW222359   3.750   6.743   5.605
 7154SOL     OW22360   3.955   5.808   4.383
 7154SOL    HW122361   3.932   5.724   4.334
 7154SOL    HW222362   3.938   5.794   4.481
 7155SOL     OW22363   1.338   6.395   2.005
 7155SOL    HW122364   1.344   6.489   1.971
 7155SOL    HW222365   1.385   6.334   1.942
 7156SOL     OW22366   6.888   4.856   5.193
 7156SOL    HW122367   6.904   4.776   5.136
 7156SOL    HW222368   6.820   4.835   5.263
 7157SOL     OW22369   6.354   5.430   0.439
 7157SOL    HW122370   6.254   5.428   0.441
 7157SOL    HW222371   6.385   5.512   0.392
 7158SOL     OW22372   6.848   6.711   3.218
 7158SOL    HW122373   6.929   6.657   3.237
 7158SOL    HW222374   6.847   6.792   3.276
 7159SOL     OW22375   0.321   4.695   1.558
 7159SOL    HW122376   0.307   4.603   1.595
 7159SOL    HW222377   0.242   4.721   1.503
 7160SOL     OW22378   6.427   0.236   1.619
 7160SOL    HW122379   6.425   0.295   1.699
 7160SOL    HW222380   6.389   0.285   1.540
 7161SOL     OW22381   3.240   3.553   3.945
 7161SOL    HW122382   3.190   3.639   3.951
 7161SOL    HW222383   3.310   3.560   3.874
 7162SOL     OW22384   3.658   5.319   4.603
 7162SOL    HW122385   3.752   5.307   4.571
 7162SOL    HW222386   3.626   5.411   4.578
 7163SOL     OW22387   3.558   0.411   3.440
 7163SOL    HW122388   3.571   0.439   3.345
 7163SOL    HW222389   3.623   0.338   3.462
 7164SOL     OW22390   2.197   1.349   2.975
 7164SOL    HW122391   2.108   1.353   2.929
 7164SOL    HW222392   2.269   1.334   2.908
 7165SOL     OW22393   5.870   1.211   0.314
 7165SOL    HW122394   5.873   1.162   0.401
 7165SOL    HW222395   5.945   1.181   0.256
 7166SOL     OW22396   4.794   4.301   1.597
 7166SOL    HW122397   4.812   4.399   1.605
 7166SOL    HW222398   4.696   4.285   1.606
 7167SOL     OW22399   5.005   3.759   5.102
 7167SOL    HW122400   5.022   3.831   5.034
 7167SOL    HW222401   4.933   3.699   5.069
 7168SOL     OW22402   1.307   1.689   4.251
 7168SOL    HW122403   1.270   1.782   4.241
 7168SOL    HW222404   1.305   1.643   4.163
 7169SOL     OW22405   1.606   3.280   5.887
 7169SOL    HW122406   1.667   3.327   5.950
 7169SOL    HW222407   1.561   3.204   5.934
 7170SOL     OW22408   4.735   5.261   2.772
 7170SOL    HW122409   4.767   5.278   2.865
 7170SOL    HW222410   4.666   5.330   2.748
 7171SOL     OW22411   4.616   2.869   5.697
 7171SOL    HW122412   4.530   2.817   5.702
 7171SOL    HW222413   4.609   2.950   5.754
 7172SOL     OW22414   1.288   6.836   0.156
 7172SOL    HW122415   1.251   6.897   0.086
 7172SOL    HW222416   1.248   6.859   0.245
 7173SOL     OW22417   6.257   5.044   4.269
 7173SOL    HW122418   6.204   4.985   4.208
 7173SOL    HW222419   6.224   5.138   4.260
 7174SOL     OW22420   1.694   5.367   6.560
 7174SOL    HW122421   1.640   5.364   6.477
 7174SOL    HW222422   1.718   5.274   6.588
 7175SOL     OW22423   5.136   3.613   1.223
 7175SOL    HW122424   5.131   3.601   1.124
 7175SOL    HW222425   5.162   3.707   1.244
 7176SOL     OW22426   6.927   4.875   2.609
 7176SOL    HW122427   6.897   4.790   2.653
 7176SOL    HW222428   6.956   4.855   2.516
 7177SOL     OW22429   1.849   5.736   3.831
 7177SOL    HW122430   1.771   5.798   3.843
 7177SOL    HW222431   1.914   5.751   3.906
 7178SOL     OW22432   1.739   2.614   5.875
 7178SOL    HW122433   1.774   2.554   5.946
 7178SOL    HW222434   1.803   2.689   5.859
 7179SOL     OW22435   2.646   3.310   5.725
 7179SOL    HW122436   2.593   3.305   5.810
 7179SOL    HW222437   2.641   3.403   5.688
 7180SOL     OW22438   0.889   5.110   6.592
 7180SOL    HW122439   0.821   5.039   6.580
 7180SOL    HW222440   0.946   5.090   6.672
 7181SOL     OW22441   3.703   0.775   0.374
 7181SOL    HW122442   3.787   0.732   0.341
 7181SOL    HW222443   3.701   0.871   0.346
 7182SOL     OW22444   1.898   4.172   5.584
 7182SOL    HW122445   1.875   4.255   5.533
 7182SOL    HW222446   1.977   4.190   5.643
 7183SOL     OW22447   1.609   5.001   2.489
 7183SOL    HW122448   1.537   4.977   2.553
 7183SOL    HW222449   1.582   4.976   2.396
 7184SOL     OW22450   1.131   6.816   3.968
 7184SOL    HW122451   1.142   6.909   4.004
 7184SOL    HW222452   1.212   6.762   3.990
 7185SOL     OW22453   5.371   2.995   6.642
 7185SOL    HW122454   5.298   3.035   6.698
 7185SOL    HW222455   5.458   3.039   6.663
 7186SOL     OW22456   6.889   0.165   5.421
 7186SOL    HW122457   6.972   0.216   5.446
 7186SOL    HW222458   6.812   0.200   5.474
 7187SOL     OW22459   1.793   4.552   1.654
 7187SOL    HW122460   1.841   4.553   1.742
 7187SOL    HW222461   1.702   4.512   1.666
 7188SOL     OW22462   5.083   6.940   1.654
 7188SOL    HW122463   5.175   6.981   1.660
 7188SOL    HW222464   5.088   6.857   1.599
 7189SOL     OW22465   6.439   1.188   6.599
 7189SOL    HW122466   6.431   1.173   6.501
 7189SOL    HW222467   6.473   1.280   6.616
 7190SOL     OW22468   5.159   4.328   3.290
 7190SOL    HW122469   5.247   4.362   3.323
 7190SOL    HW222470   5.147   4.233   3.319
 7191SOL     OW22471   1.084   3.703   2.678
 7191SOL    HW122472   1.032   3.647   2.613
 7191SOL    HW222473   1.124   3.644   2.748
 7192SOL     OW22474   2.269   5.788   5.739
 7192SOL    HW122475   2.177   5.808   5.774
 7192SOL    HW222476   2.300   5.865   5.684
 7193SOL     OW22477   2.905   2.191   4.596
 7193SOL    HW122478   3.001   2.218   4.606
 7193SOL    HW222479   2.895   2.134   4.514
 7194SOL     OW22480   1.995   1.568   1.115
 7194SOL    HW122481   2.002   1.469   1.100
 7194SOL    HW222482   2.052   1.594   1.193
 7195SOL     OW22483   0.194   4.938   1.011
 7195SOL    HW122484   0.107   4.987   1.000
 7195SOL    HW222485   0.243   4.938   0.924
 7196SOL     OW22486   3.025   3.206   3.395
 7196SOL    HW122487   2.986   3.271   3.460
 7196SOL    HW222488   3.105   3.248   3.351
 7197SOL     OW22489   6.644   1.764   5.298
 7197SOL    HW122490   6.643   1.703   5.219
 7197SOL    HW222491   6.573   1.736   5.363
 7198SOL     OW22492   1.647   6.638   5.820
 7198SOL    HW122493   1.655   6.682   5.909
 7198SOL    HW222494   1.559   6.591   5.813
 7199SOL     OW22495   0.402   0.394   2.692
 7199SOL    HW122496   0.375   0.416   2.786
 7199SOL    HW222497   0.449   0.473   2.652
 7200SOL     OW22498   2.537   0.922   0.253
 7200SOL    HW122499   2.493   0.963   0.172
 7200SOL    HW222500   2.625   0.967   0.269
 7201SOL     OW22501   1.862   4.969   3.055
 7201SOL    HW122502   1.851   5.067   3.072
 7201SOL    HW222503   1.782   4.920   3.090
 7202SOL     OW22504   3.984   0.270   6.430
 7202SOL    HW122505   4.039   0.199   6.386
 7202SOL    HW222506   3.903   0.289   6.374
 7203SOL     OW22507   6.596   0.272   0.477
 7203SOL    HW122508   6.509   0.233   0.508
 7203SOL    HW222509   6.609   0.362   0.519
 7204SOL     OW22510   6.530   0.247   3.843
 7204SOL    HW122511   6.574   0.235   3.754
 7204SOL    HW222512   6.597   0.283   3.908
 7205SOL     OW22513   1.947   5.637   3.315
 7205SOL    HW122514   1.901   5.652   3.402
 7205SOL    HW222515   2.043   5.665   3.323
 7206SOL     OW22516   0.295   1.299   1.046
 7206SOL    HW122517   0.391   1.311   1.021
 7206SOL    HW222518   0.284   1.213   1.096
 7207SOL     OW22519   3.416   0.091   1.076
 7207SOL    HW122520   3.327   0.110   1.117
 7207SOL    HW222521   3.466   0.026   1.133
 7208SOL     OW22522   3.858   6.640   4.659
 7208SOL    HW122523   3.790   6.687   4.602
 7208SOL    HW222524   3.943   6.693   4.660
 7209SOL     OW22525   3.623   3.027   4.165
 7209SOL    HW122526   3.523   3.027   4.160
 7209SOL    HW222527   3.652   2.987   4.252
 7210SOL     OW22528   4.540   1.012   3.548
 7210SOL    HW122529   4.554   1.107   3.519
 7210SOL    HW222530   4.479   1.010   3.627
 7211SOL     OW22531   1.050   6.344   4.034
 7211SOL    HW122532   1.017   6.358   4.128
 7211SOL    HW222533   1.045   6.247   4.011
 7212SOL     OW22534   0.290   5.990   4.605
 7212SOL    HW122535   0.197   5.955   4.615
 7212SOL    HW222536   0.326   5.965   4.515
 7213SOL     OW22537   5.670   0.096   5.387
 7213SOL    HW122538   5.769   0.113   5.385
 7213SOL    HW222539   5.651   0.007   5.347
 7214SOL     OW22540   2.207   5.237   4.470
 7214SOL    HW122541   2.219   5.144   4.433
 7214SOL    HW222542   2.146   5.233   4.549
 7215SOL     OW22543   1.427   2.976   4.222
 7215SOL    HW122544   1.345   2.925   4.247
 7215SOL    HW222545   1.489   2.917   4.170
 7216SOL     OW22546   2.655   5.768   6.933
 7216SOL    HW122547   2.710   5.722   6.863
 7216SOL    HW222548   2.668   5.722   0.002
 7217SOL     OW22549   1.746   4.685   2.468
 7217SOL    HW122550   1.830   4.728   2.501
 7217SOL    HW222551   1.677   4.686   2.540
 7218SOL     OW22552   4.811   1.898   5.472
 7218SOL    HW122553   4.745   1.869   5.542
 7218SOL    HW222554   4.853   1.984   5.500
 7219SOL     OW22555   4.669   7.018   3.561
 7219SOL    HW122556   4.703   0.082   3.516
 7219SOL    HW222557   4.710   6.938   3.518
 7220SOL     OW22558   6.340   0.585   3.236
 7220SOL    HW122559   6.282   0.646   3.183
 7220SOL    HW222560   6.359   0.502   3.183
 7221SOL     OW22561   5.996   4.576   5.315
 7221SOL    HW122562   6.033   4.598   5.225
 7221SOL    HW222563   5.906   4.533   5.305
 7222SOL     OW22564   5.975   6.359   1.131
 7222SOL    HW122565   6.012   6.344   1.223
 7222SOL    HW222566   5.938   6.452   1.125
 7223SOL     OW22567   3.130   1.859   0.605
 7223SOL    HW122568   3.102   1.783   0.546
 7223SOL    HW222569   3.105   1.945   0.562
 7224SOL     OW22570   5.870   1.404   4.682
 7224SOL    HW122571   5.810   1.432   4.607
 7224SOL    HW222572   5.941   1.343   4.647
 7225SOL     OW22573   1.607   5.648   0.353
 7225SOL    HW122574   1.706   5.631   0.356
 7225SOL    HW222575   1.559   5.564   0.329
 7226SOL     OW22576   0.266   6.795   0.294
 7226SOL    HW122577   0.246   6.829   0.202
 7226SOL    HW222578   0.206   6.718   0.315
 7227SOL     OW22579   0.581   1.695   6.972
 7227SOL    HW122580   0.587   1.641   6.888
 7227SOL    HW222581   0.609   1.789   6.954
 7228SOL     OW22582   6.753   6.401   1.632
 7228SOL    HW122583   6.700   6.472   1.678
 7228SOL    HW222584   6.739   6.314   1.680
 7229SOL     OW22585   1.120   0.551   4.347
 7229SOL    HW122586   1.070   0.634   4.322
 7229SOL    HW222587   1.058   0.486   4.389
 7230SOL     OW22588   4.738   5.636   3.953
 7230SOL    HW122589   4.728   5.661   4.049
 7230SOL    HW222590   4.648   5.627   3.911
 7231SOL     OW22591   5.707   1.743   6.273
 7231SOL    HW122592   5.737   1.770   6.365
 7231SOL    HW222593   5.771   1.676   6.236
 7232SOL     OW22594   4.168   4.838   2.603
 7232SOL    HW122595   4.228   4.758   2.614
 7232SOL    HW222596   4.081   4.821   2.647
 7233SOL     OW22597   0.135   2.691   5.288
 7233SOL    HW122598   0.109   2.736   5.373
 7233SOL    HW222599   0.213   2.739   5.247
 7234SOL     OW22600   6.145   2.115   1.701
 7234SOL    HW122601   6.123   2.202   1.656
 7234SOL    HW222602   6.243   2.101   1.700
 7235SOL     OW22603   5.416   4.123   4.726
 7235SOL    HW122604   5.452   4.204   4.772
 7235SOL    HW222605   5.460   4.041   4.763
 7236SOL     OW22606   3.801   1.702   2.878
 7236SOL    HW122607   3.743   1.670   2.804
 7236SOL    HW222608   3.802   1.634   2.952
 7237SOL     OW22609   6.671   6.351   5.264
 7237SOL    HW122610   6.653   6.420   5.335
 7237SOL    HW222611   6.702   6.266   5.307
 7238SOL     OW22612   2.686   1.780   2.235
 7238SOL    HW122613   2.761   1.788   2.169
 7238SOL    HW222614   2.613   1.723   2.197
 7239SOL     OW22615   1.693   1.449   2.453
 7239SOL    HW122616   1.597   1.426   2.468
 7239SOL    HW222617   1.719   1.523   2.515
 7240SOL     OW22618   2.804   3.892   1.065
 7240SOL    HW122619   2.773   3.806   1.023
 7240SOL    HW222620   2.902   3.886   1.084
 7241SOL     OW22621   3.906   0.680   5.738
 7241SOL    HW122622   3.963   0.600   5.756
 7241SOL    HW222623   3.950   0.762   5.776
 7242SOL     OW22624   5.588   4.219   6.687
 7242SOL    HW122625   5.685   4.227   6.707
 7242SOL    HW222626   5.535   4.232   6.770
 7243SOL     OW22627   1.184   4.796   6.581
 7243SOL    HW122628   1.101   4.789   6.636
 7243SOL    HW222629   1.208   4.706   6.545
 7244SOL     OW22630   5.611   1.803   1.310
 7244SOL    HW122631   5.679   1.842   1.247
 7244SOL    HW222632   5.520   1.813   1.271
 7245SOL     OW22633   0.150   1.976   4.739
 7245SOL    HW122634   0.102   1.901   4.784
 7245SOL    HW222635   0.092   2.057   4.738
 7246SOL     OW22636   6.197   6.963   4.676
 7246SOL    HW122637   6.220   6.871   4.709
 7246SOL    HW222638   6.231   6.975   4.582
 7247SOL     OW22639   2.695   6.374   1.848
 7247SOL    HW122640   2.606   6.361   1.892
 7247SOL    HW222641   2.712   6.299   1.784
 7248SOL     OW22642   3.765   0.870   4.060
 7248SOL    HW122643   3.782   0.774   4.035
 7248SOL    HW222644   3.851   0.912   4.090
 7249SOL     OW22645   5.369   4.296   0.768
 7249SOL    HW122646   5.284   4.250   0.794
 7249SOL    HW222647   5.407   4.343   0.848
 7250SOL     OW22648   2.210   4.752   6.176
 7250SOL    HW122649   2.293   4.698   6.163
 7250SOL    HW222650   2.193   4.808   6.095
 7251SOL     OW22651   6.818   6.640   4.872
 7251SOL    HW122652   6.885   6.586   4.820
 7251SOL    HW222653   6.771   6.580   4.936
 7252SOL     OW22654   2.949   3.377   4.882
 7252SOL    HW122655   2.981   3.321   4.806
 7252SOL    HW222656   2.982   3.339   4.969
 7253SOL     OW22657   2.818   6.304   1.404
 7253SOL    HW122658   2.913   6.275   1.418
 7253SOL    HW222659   2.810   6.348   1.315
 7254SOL     OW22660   3.857   5.417   3.770
 7254SOL    HW122661   3.933   5.477   3.746
 7254SOL    HW222662   3.771   5.458   3.739
 7255SOL     OW22663   3.029   3.502   2.299
 7255SOL    HW122664   3.017   3.566   2.223
 7255SOL    HW222665   2.989   3.414   2.276
 7256SOL     OW22666   4.066   5.238   4.272
 7256SOL    HW122667   4.114   5.307   4.218
 7256SOL    HW222668   4.060   5.152   4.221
 7257SOL     OW22669   5.506   2.716   2.909
 7257SOL    HW122670   5.508   2.720   2.809
 7257SOL    HW222671   5.556   2.794   2.946
 7258SOL     OW22672   3.706   0.274   4.761
 7258SOL    HW122673   3.614   0.266   4.722
 7258SOL    HW222674   3.762   0.330   4.700
 7259SOL     OW22675   2.404   3.916   6.942
 7259SOL    HW122676   2.431   3.868   0.006
 7259SOL    HW222677   2.483   3.921   6.880
 7260SOL     OW22678   3.472   2.016   2.839
 7260SOL    HW122679   3.425   2.081   2.899
 7260SOL    HW222680   3.551   1.977   2.887
 7261SOL     OW22681   2.003   3.307   1.938
 7261SOL    HW122682   2.033   3.262   1.854
 7261SOL    HW222683   2.077   3.365   1.973
 7262SOL     OW22684   5.348   2.079   4.648
 7262SOL    HW122685   5.441   2.109   4.668
 7262SOL    HW222686   5.308   2.137   4.578
 7263SOL     OW22687   1.075   5.903   1.162
 7263SOL    HW122688   1.137   5.880   1.088
 7263SOL    HW222689   1.125   5.952   1.233
 7264SOL     OW22690   6.219   1.063   6.745
 7264SOL    HW122691   6.181   1.005   6.674
 7264SOL    HW222692   6.287   1.125   6.705
 7265SOL     OW22693   5.180   5.275   5.500
 7265SOL    HW122694   5.205   5.192   5.549
 7265SOL    HW222695   5.089   5.265   5.459
 7266SOL     OW22696   4.900   0.597   1.824
 7266SOL    HW122697   4.806   0.572   1.801
 7266SOL    HW222698   4.949   0.516   1.857
 7267SOL     OW22699   0.232   4.000   4.571
 7267SOL    HW122700   0.313   3.951   4.603
 7267SOL    HW222701   0.176   4.028   4.649
 7268SOL     OW22702   3.765   6.469   1.580
 7268SOL    HW122703   3.676   6.497   1.614
 7268SOL    HW222704   3.812   6.548   1.539
 7269SOL     OW22705   0.678   5.892   1.628
 7269SOL    HW122706   0.635   5.958   1.689
 7269SOL    HW222707   0.683   5.803   1.673
 7270SOL     OW22708   2.501   1.694   2.662
 7270SOL    HW122709   2.429   1.726   2.601
 7270SOL    HW222710   2.586   1.683   2.611
 7271SOL     OW22711   0.004   3.953   3.230
 7271SOL    HW122712   7.000   4.048   3.209
 7271SOL    HW222713   6.944   3.894   3.212
 7272SOL     OW22714   4.683   2.812   3.123
 7272SOL    HW122715   4.746   2.871   3.072
 7272SOL    HW222716   4.677   2.843   3.218
 7273SOL     OW22717   5.599   4.341   1.474
 7273SOL    HW122718   5.620   4.425   1.424
 7273SOL    HW222719   5.682   4.285   1.480
 7274SOL     OW22720   6.872   5.018   5.776
 7274SOL    HW122721   6.933   4.967   5.714
 7274SOL    HW222722   6.863   4.969   5.862
 7275SOL     OW22723   6.810   0.393   0.032
 7275SOL    HW122724   6.750   0.469   0.006
 7275SOL    HW222725   6.901   0.407   7.014
 7276SOL     OW22726   2.262   2.111   3.981
 7276SOL    HW122727   2.261   2.207   3.955
 7276SOL    HW222728   2.191   2.094   4.048
 7277SOL     OW22729   4.882   1.532   4.616
 7277SOL    HW122730   4.958   1.499   4.672
 7277SOL    HW222731   4.918   1.581   4.537
 7278SOL     OW22732   3.398   1.376   3.603
 7278SOL    HW122733   3.377   1.473   3.590
 7278SOL    HW222734   3.319   1.331   3.645
 7279SOL     OW22735   4.730   4.699   0.033
 7279SOL    HW122736   4.673   4.756   0.092
 7279SOL    HW222737   4.763   4.753   6.975
 7280SOL     OW22738   5.404   2.173   5.215
 7280SOL    HW122739   5.366   2.215   5.133
 7280SOL    HW222740   5.441   2.083   5.192
 7281SOL     OW22741   3.445   6.928   2.047
 7281SOL    HW122742   3.448   7.005   2.111
 7281SOL    HW222743   3.459   6.842   2.096
 7282SOL     OW22744   6.619   5.316   2.004
 7282SOL    HW122745   6.715   5.290   2.016
 7282SOL    HW222746   6.614   5.413   1.978
 7283SOL     OW22747   4.025   5.185   2.673
 7283SOL    HW122748   3.925   5.177   2.682
 7283SOL    HW222749   4.070   5.135   2.747
 7284SOL     OW22750   6.817   1.607   3.671
 7284SOL    HW122751   6.738   1.639   3.618
 7284SOL    HW222752   6.855   1.526   3.627
 7285SOL     OW22753   4.701   2.764   1.908
 7285SOL    HW122754   4.749   2.765   1.996
 7285SOL    HW222755   4.674   2.856   1.883
 7286SOL     OW22756   0.331   0.501   0.415
 7286SOL    HW122757   0.316   0.405   0.393
 7286SOL    HW222758   0.258   0.534   0.474
 7287SOL     OW22759   1.299   2.691   3.989
 7287SOL    HW122760   1.268   2.779   3.954
 7287SOL    HW222761   1.299   2.693   4.089
 7288SOL     OW22762   3.065   2.041   3.272
 7288SOL    HW122763   3.040   2.122   3.325
 7288SOL    HW222764   3.157   2.053   3.234
 7289SOL     OW22765   6.201   2.833   1.313
 7289SOL    HW122766   6.232   2.927   1.324
 7289SOL    HW222767   6.190   2.813   1.216
 7290SOL     OW22768   3.595   1.237   4.874
 7290SOL    HW122769   3.600   1.321   4.821
 7290SOL    HW222770   3.660   1.241   4.950
 7291SOL     OW22771   3.845   0.915   0.033
 7291SOL    HW122772   3.923   0.884   6.999
 7291SOL    HW222773   3.876   0.977   0.105
 7292SOL     OW22774   1.937   6.503   3.065
 7292SOL    HW122775   1.898   6.569   3.000
 7292SOL    HW222776   1.924   6.537   3.158
 7293SOL     OW22777   1.554   0.817   5.004
 7293SOL    HW122778   1.589   0.887   5.066
 7293SOL    HW222779   1.618   0.739   5.003
 7294SOL     OW22780   2.576   5.252   1.102
 7294SOL    HW122781   2.541   5.325   1.161
 7294SOL    HW222782   2.672   5.270   1.080
 7295SOL     OW22783   6.399   5.146   2.416
 7295SOL    HW122784   6.456   5.217   2.375
 7295SOL    HW222785   6.310   5.143   2.370
 7296SOL     OW22786   4.126   4.807   2.159
 7296SOL    HW122787   4.124   4.865   2.240
 7296SOL    HW222788   4.208   4.828   2.105
 7297SOL     OW22789   3.852   6.091   1.281
 7297SOL    HW122790   3.760   6.103   1.244
 7297SOL    HW222791   3.886   5.999   1.258
 7298SOL     OW22792   4.870   5.734   6.404
 7298SOL    HW122793   4.820   5.801   6.350
 7298SOL    HW222794   4.961   5.770   6.426
 7299SOL     OW22795   1.413   2.748   0.460
 7299SOL    HW122796   1.377   2.840   0.444
 7299SOL    HW222797   1.365   2.683   0.401
 7300SOL     OW22798   1.045   4.857   1.730
 7300SOL    HW122799   1.103   4.815   1.800
 7300SOL    HW222800   0.965   4.899   1.773
 7301SOL     OW22801   5.487   6.736   5.478
 7301SOL    HW122802   5.393   6.750   5.446
 7301SOL    HW222803   5.495   6.768   5.572
 7302SOL     OW22804   5.110   2.642   5.772
 7302SOL    HW122805   5.185   2.691   5.817
 7302SOL    HW222806   5.029   2.700   5.767
 7303SOL     OW22807   2.730   0.940   1.028
 7303SOL    HW122808   2.724   1.034   1.061
 7303SOL    HW222809   2.689   0.934   0.937
 7304SOL     OW22810   2.733   5.407   2.169
 7304SOL    HW122811   2.806   5.369   2.111
 7304SOL    HW222812   2.667   5.455   2.112
 7305SOL     OW22813   5.983   2.389   0.627
 7305SOL    HW122814   5.913   2.453   0.660
 7305SOL    HW222815   5.958   2.354   0.537
 7306SOL     OW22816   2.168   1.608   1.318
 7306SOL    HW122817   2.243   1.663   1.352
 7306SOL    HW222818   2.169   1.518   1.362
 7307SOL     OW22819   1.842   6.844   1.289
 7307SOL    HW122820   1.927   6.848   1.342
 7307SOL    HW222821   1.854   6.897   1.205
 7308SOL     OW22822   4.748   1.037   2.474
 7308SOL    HW122823   4.712   1.032   2.381
 7308SOL    HW222824   4.696   0.976   2.534
 7309SOL     OW22825   2.052   5.325   3.450
 7309SOL    HW122826   1.953   5.339   3.458
 7309SOL    HW222827   2.070   5.256   3.380
 7310SOL     OW22828   1.876   3.256   0.241
 7310SOL    HW122829   1.805   3.260   0.312
 7310SOL    HW222830   1.868   3.170   0.191
 7311SOL     OW22831   0.072   6.764   6.466
 7311SOL    HW122832   0.062   6.675   6.510
 7311SOL    HW222833   0.051   6.836   6.532
 7312SOL     OW22834   0.022   2.398   5.258
 7312SOL    HW122835   0.011   2.359   5.166
 7312SOL    HW222836   0.053   2.493   5.250
 7313SOL     OW22837   2.585   0.674   2.236
 7313SOL    HW122838   2.617   0.642   2.325
 7313SOL    HW222839   2.486   0.662   2.231
 7314SOL     OW22840   0.613   4.512   6.912
 7314SOL    HW122841   0.646   4.577   6.980
 7314SOL    HW222842   0.632   4.419   6.943
 7315SOL     OW22843   0.843   5.067   2.302
 7315SOL    HW122844   0.923   5.010   2.286
 7315SOL    HW222845   0.775   5.051   2.230
 7316SOL     OW22846   3.602   2.076   0.311
 7316SOL    HW122847   3.583   2.059   0.408
 7316SOL    HW222848   3.652   2.161   0.301
 7317SOL     OW22849   3.488   1.430   1.873
 7317SOL    HW122850   3.431   1.475   1.941
 7317SOL    HW222851   3.501   1.334   1.897
 7318SOL     OW22852   3.643   0.268   1.029
 7318SOL    HW122853   3.555   0.230   1.059
 7318SOL    HW222854   3.711   0.195   1.026
 7319SOL     OW22855   6.898   5.090   0.295
 7319SOL    HW122856   6.953   5.043   0.365
 7319SOL    HW222857   6.886   5.029   0.216
 7320SOL     OW22858   6.955   2.988   1.028
 7320SOL    HW122859   7.019   2.945   1.091
 7320SOL    HW222860   6.986   3.080   1.006
 7321SOL     OW22861   2.122   6.032   7.013
 7321SOL    HW122862   2.067   5.987   6.943
 7321SOL    HW222863   2.217   6.040   6.980
 7322SOL     OW22864   0.528   2.481   2.349
 7322SOL    HW122865   0.580   2.440   2.274
 7322SOL    HW222866   0.484   2.566   2.317
 7323SOL     OW22867   1.252   1.766   1.413
 7323SOL    HW122868   1.294   1.681   1.381
 7323SOL    HW222869   1.152   1.759   1.403
 7324SOL     OW22870   5.669   4.528   2.942
 7324SOL    HW122871   5.680   4.563   3.035
 7324SOL    HW222872   5.729   4.578   2.880
 7325SOL     OW22873   4.358   0.947   6.252
 7325SOL    HW122874   4.418   1.018   6.289
 7325SOL    HW222875   4.327   0.974   6.161
 7326SOL     OW22876   2.452   0.499   0.370
 7326SOL    HW122877   2.496   0.436   0.306
 7326SOL    HW222878   2.397   0.565   0.318
 7327SOL     OW22879   6.393   3.704   3.127
 7327SOL    HW122880   6.355   3.764   3.197
 7327SOL    HW222881   6.377   3.744   3.037
 7328SOL     OW22882   4.251   4.794   4.974
 7328SOL    HW122883   4.280   4.699   4.988
 7328SOL    HW222884   4.200   4.825   5.055
 7329SOL     OW22885   2.730   3.449   0.762
 7329SOL    HW122886   2.682   3.362   0.769
 7329SOL    HW222887   2.710   3.492   0.673
 7330SOL     OW22888   3.898   2.786   1.164
 7330SOL    HW122889   3.915   2.764   1.260
 7330SOL    HW222890   3.833   2.720   1.126
 7331SOL     OW22891   4.524   0.422   2.127
 7331SOL    HW122892   4.449   0.472   2.171
 7331SOL    HW222893   4.596   0.487   2.100
 7332SOL     OW22894   2.947   4.070   6.618
 7332SOL    HW122895   3.029   4.126   6.622
 7332SOL    HW222896   2.916   4.049   6.710
 7333SOL     OW22897   6.794   2.238   1.635
 7333SOL    HW122898   6.746   2.267   1.718
 7333SOL    HW222899   6.862   2.169   1.658
 7334SOL     OW22900   3.006   0.057   5.617
 7334SOL    HW122901   3.059   0.066   5.533
 7334SOL    HW222902   3.067   0.028   5.691
 7335SOL     OW22903   6.857   2.715   2.481
 7335SOL    HW122904   6.820   2.783   2.544
 7335SOL    HW222905   6.956   2.722   2.478
 7336SOL     OW22906   1.277   6.292   1.059
 7336SOL    HW122907   1.352   6.231   1.083
 7336SOL    HW222908   1.204   6.283   1.127
 7337SOL     OW22909   2.299   2.076   2.702
 7337SOL    HW122910   2.374   2.016   2.730
 7337SOL    HW222911   2.260   2.121   2.783
 7338SOL     OW22912   5.546   3.053   2.025
 7338SOL    HW122913   5.527   3.014   1.935
 7338SOL    HW222914   5.530   3.152   2.022
 7339SOL     OW22915   6.339   5.423   4.859
 7339SOL    HW122916   6.254   5.380   4.891
 7339SOL    HW222917   6.332   5.440   4.761
 7340SOL     OW22918   3.021   6.855   0.286
 7340SOL    HW122919   3.007   6.865   0.187
 7340SOL    HW222920   3.085   6.924   0.318
 7341SOL     OW22921   6.556   5.141   4.085
 7341SOL    HW122922   6.557   5.059   4.027
 7341SOL    HW222923   6.645   5.151   4.129
 7342SOL     OW22924   6.991   0.033   0.606
 7342SOL    HW122925   6.896   0.006   0.587
 7342SOL    HW222926   7.005   0.033   0.705
 7343SOL     OW22927   6.132   4.007   2.557
 7343SOL    HW122928   6.204   3.938   2.556
 7343SOL    HW222929   6.171   4.095   2.530
 7344SOL     OW22930   2.092   6.319   0.013
 7344SOL    HW122931   2.101   6.222   0.033
 7344SOL    HW222932   2.091   6.333   6.933
 7345SOL     OW22933   4.386   5.406   5.838
 7345SOL    HW122934   4.322   5.330   5.842
 7345SOL    HW222935   4.346   5.487   5.880
 7346SOL     OW22936   3.701   4.644   1.610
 7346SOL    HW122937   3.652   4.652   1.697
 7346SOL    HW222938   3.646   4.591   1.545
 7347SOL     OW22939   5.951   1.398   1.886
 7347SOL    HW122940   5.915   1.486   1.919
 7347SOL    HW222941   6.051   1.397   1.896
 7348SOL     OW22942   1.701   2.142   3.937
 7348SOL    HW122943   1.624   2.178   3.990
 7348SOL    HW222944   1.726   2.052   3.973
 7349SOL     OW22945   4.130   1.590   0.683
 7349SOL    HW122946   4.092   1.547   0.765
 7349SOL    HW222947   4.058   1.607   0.617
 7350SOL     OW22948   1.228   2.023   3.159
 7350SOL    HW122949   1.195   2.116   3.143
 7350SOL    HW222950   1.155   1.958   3.136
 7351SOL     OW22951   4.577   4.961   6.690
 7351SOL    HW122952   4.510   4.979   6.761
 7351SOL    HW222953   4.536   4.977   6.600
 7352SOL     OW22954   0.754   1.865   2.365
 7352SOL    HW122955   0.717   1.947   2.323
 7352SOL    HW222956   0.706   1.785   2.330
 7353SOL     OW22957   5.723   1.676   4.794
 7353SOL    HW122958   5.818   1.645   4.800
 7353SOL    HW222959   5.704   1.740   4.869
 7354SOL     OW22960   6.454   6.309   5.621
 7354SOL    HW122961   6.440   6.219   5.579
 7354SOL    HW222962   6.380   6.370   5.593
 7355SOL     OW22963   0.657   5.657   1.761
 7355SOL    HW122964   0.722   5.615   1.698
 7355SOL    HW222965   0.703   5.675   1.848
 7356SOL     OW22966   6.402   1.911   6.621
 7356SOL    HW122967   6.496   1.938   6.644
 7356SOL    HW222968   6.404   1.844   6.547
 7357SOL     OW22969   5.587   2.385   6.635
 7357SOL    HW122970   5.623   2.440   6.560
 7357SOL    HW222971   5.646   2.396   6.716
 7358SOL     OW22972   3.131   1.627   4.342
 7358SOL    HW122973   3.058   1.560   4.354
 7358SOL    HW222974   3.111   1.708   4.398
 7359SOL     OW22975   3.866   2.967   3.073
 7359SOL    HW122976   3.809   2.887   3.091
 7359SOL    HW222977   3.840   3.041   3.135
 7360SOL     OW22978   1.328   2.346   5.302
 7360SOL    HW122979   1.358   2.251   5.296
 7360SOL    HW222980   1.245   2.358   5.247
 7361SOL     OW22981   5.305   5.848   1.712
 7361SOL    HW122982   5.348   5.904   1.642
 7361SOL    HW222983   5.268   5.765   1.671
 7362SOL     OW22984   2.067   5.910   5.394
 7362SOL    HW122985   1.978   5.955   5.381
 7362SOL    HW222986   2.136   5.957   5.340
 7363SOL     OW22987   4.938   2.875   0.093
 7363SOL    HW122988   4.954   2.834   0.003
 7363SOL    HW222989   5.025   2.901   0.134
 7364SOL     OW22990   4.293   6.545   1.122
 7364SOL    HW122991   4.349   6.482   1.175
 7364SOL    HW222992   4.197   6.535   1.148
 7365SOL     OW22993   2.484   0.165   2.398
 7365SOL    HW122994   2.423   0.239   2.371
 7365SOL    HW222995   2.556   0.154   2.330
 7366SOL     OW22996   6.943   5.237   6.935
 7366SOL    HW122997   6.967   5.324   6.978
 7366SOL    HW222998   0.006   5.183   6.920
 7367SOL     OW22999   4.833   3.731   1.890
 7367SOL    HW123000   4.829   3.793   1.811
 7367SOL    HW223001   4.921   3.683   1.889
 7368SOL     OW23002   3.004   3.660   4.788
 7368SOL    HW123003   2.936   3.591   4.811
 7368SOL    HW223004   2.969   3.751   4.811
 7369SOL     OW23005   4.960   3.970   0.654
 7369SOL    HW123006   4.913   4.057   0.672
 7369SOL    HW223007   4.957   3.913   0.736
 7370SOL     OW23008   2.294   6.680   0.770
 7370SOL    HW123009   2.363   6.721   0.831
 7370SOL    HW223010   2.339   6.646   0.687
 7371SOL     OW23011   3.209   4.976   4.153
 7371SOL    HW123012   3.182   5.038   4.080
 7371SOL    HW223013   3.128   4.936   4.195
 7372SOL     OW23014   3.720   0.200   5.761
 7372SOL    HW123015   3.683   0.231   5.849
 7372SOL    HW223016   3.704   0.270   5.691
 7373SOL     OW23017   3.427   0.541   2.929
 7373SOL    HW123018   3.507   0.516   2.875
 7373SOL    HW223019   3.413   0.640   2.925
 7374SOL     OW23020   1.573   3.004   6.262
 7374SOL    HW123021   1.600   3.022   6.356
 7374SOL    HW223022   1.624   2.925   6.227
 7375SOL     OW23023   1.359   0.860   4.450
 7375SOL    HW123024   1.344   0.907   4.537
 7375SOL    HW223025   1.448   0.885   4.413
 7376SOL     OW23026   2.773   2.770   6.853
 7376SOL    HW123027   2.766   2.774   6.753
 7376SOL    HW223028   2.686   2.742   6.892
 7377SOL     OW23029   4.832   4.621   2.025
 7377SOL    HW123030   4.891   4.573   1.960
 7377SOL    HW223031   4.819   4.715   1.996
 7378SOL     OW23032   0.588   1.419   4.867
 7378SOL    HW123033   0.599   1.468   4.954
 7378SOL    HW223034   0.498   1.439   4.829
 7379SOL     OW23035   3.866   1.371   2.378
 7379SOL    HW123036   3.789   1.433   2.363
 7379SOL    HW223037   3.925   1.371   2.298
 7380SOL     OW23038   0.078   3.131   5.847
 7380SOL    HW123039   0.020   3.184   5.910
 7380SOL    HW223040   0.107   3.190   5.772
 7381SOL     OW23041   4.369   2.233   2.200
 7381SOL    HW123042   4.310   2.255   2.122
 7381SOL    HW223043   4.442   2.172   2.170
 7382SOL     OW23044   0.055   4.706   4.454
 7382SOL    HW123045   0.075   4.793   4.408
 7382SOL    HW223046   0.117   4.695   4.532
 7383SOL     OW23047   0.228   6.294   2.864
 7383SOL    HW123048   0.148   6.244   2.895
 7383SOL    HW223049   0.209   6.335   2.775
 7384SOL     OW23050   5.026   6.691   2.244
 7384SOL    HW123051   5.025   6.614   2.307
 7384SOL    HW223052   5.097   6.677   2.175
 7385SOL     OW23053   4.771   6.014   1.837
 7385SOL    HW123054   4.866   5.983   1.835
 7385SOL    HW223055   4.714   5.948   1.788
 7386SOL     OW23056   1.155   2.579   5.522
 7386SOL    HW123057   1.218   2.583   5.600
 7386SOL    HW223058   1.175   2.498   5.467
 7387SOL     OW23059   4.477   5.208   4.319
 7387SOL    HW123060   4.465   5.114   4.349
 7387SOL    HW223061   4.490   5.211   4.220
 7388SOL     OW23062   6.516   4.657   4.427
 7388SOL    HW123063   6.496   4.735   4.367
 7388SOL    HW223064   6.434   4.631   4.478
 7389SOL     OW23065   1.651   4.100   6.972
 7389SOL    HW123066   1.673   4.003   6.979
 7389SOL    HW223067   1.696   4.138   6.890
 7390SOL     OW23068   0.411   1.189   6.053
 7390SOL    HW123069   0.315   1.164   6.071
 7390SOL    HW223070   0.444   1.138   5.974
 7391SOL     OW23071   5.909   3.778   6.112
 7391SOL    HW123072   5.883   3.774   6.016
 7391SOL    HW223073   5.933   3.687   6.144
 7392SOL     OW23074   1.505   5.020   4.680
 7392SOL    HW123075   1.554   4.963   4.747
 7392SOL    HW223076   1.534   4.995   4.588
 7393SOL     OW23077   6.565   5.398   2.560
 7393SOL    HW123078   6.541   5.482   2.608
 7393SOL    HW223079   6.538   5.406   2.464
 7394SOL     OW23080   3.839   3.732   6.407
 7394SOL    HW123081   3.857   3.643   6.450
 7394SOL    HW223082   3.926   3.772   6.377
 7395SOL     OW23083   0.601   6.934   6.774
 7395SOL    HW123084   0.596   0.003   6.820
 7395SOL    HW223085   0.550   6.938   6.688
 7396SOL     OW23086   1.195   0.669   6.123
 7396SOL    HW123087   1.128   0.682   6.196
 7396SOL    HW223088   1.255   0.592   6.145
 7397SOL     OW23089   6.875   4.288   4.765
 7397SOL    HW123090   6.818   4.251   4.838
 7397SOL    HW223091   6.877   4.388   4.772
 7398SOL     OW23092   4.746   4.934   4.346
 7398SOL    HW123093   4.698   4.969   4.427
 7398SOL    HW223094   4.766   4.837   4.359
 7399SOL     OW23095   6.017   3.909   5.655
 7399SOL    HW123096   5.959   3.954   5.723
 7399SOL    HW223097   6.010   3.809   5.666
 7400SOL     OW23098   2.977   4.563   0.276
 7400SOL    HW123099   2.979   4.482   0.218
 7400SOL    HW223100   2.928   4.637   0.229
 7401SOL     OW23101   0.063   1.665   4.025
 7401SOL    HW123102   0.071   1.571   4.058
 7401SOL    HW223103   0.128   1.680   3.951
 7402SOL     OW23104   2.236   6.938   3.759
 7402SOL    HW123105   2.208   6.854   3.713
 7402SOL    HW223106   2.293   6.915   3.838
 7403SOL     OW23107   1.989   3.455   3.536
 7403SOL    HW123108   2.029   3.393   3.604
 7403SOL    HW223109   2.062   3.506   3.491
 7404SOL     OW23110   1.027   0.549   1.239
 7404SOL    HW123111   0.955   0.611   1.267
 7404SOL    HW223112   1.049   0.565   1.142
 7405SOL     OW23113   2.852   5.206   5.089
 7405SOL    HW123114   2.829   5.109   5.101
 7405SOL    HW223115   2.769   5.261   5.089
 7406SOL     OW23116   1.621   3.779   2.172
 7406SOL    HW123117   1.526   3.792   2.201
 7406SOL    HW223118   1.676   3.752   2.252
 7407SOL     OW23119   1.032   6.244   5.049
 7407SOL    HW123120   1.127   6.274   5.048
 7407SOL    HW223121   0.972   6.324   5.055
 7408SOL     OW23122   1.751   4.602   5.555
 7408SOL    HW123123   1.797   4.598   5.466
 7408SOL    HW223124   1.687   4.679   5.556
 7409SOL     OW23125   1.105   0.872   5.030
 7409SOL    HW123126   1.190   0.882   5.082
 7409SOL    HW223127   1.109   0.787   4.978
 7410SOL     OW23128   0.316   5.061   1.220
 7410SOL    HW123129   0.336   5.154   1.188
 7410SOL    HW223130   0.287   5.005   1.143
 7411SOL     OW23131   2.734   6.439   4.969
 7411SOL    HW123132   2.720   6.496   4.888
 7411SOL    HW223133   2.661   6.371   4.974
 7412SOL     OW23134   2.096   0.872   0.855
 7412SOL    HW123135   2.153   0.792   0.836
 7412SOL    HW223136   2.085   0.926   0.772
 7413SOL     OW23137   6.187   3.476   4.607
 7413SOL    HW123138   6.125   3.398   4.598
 7413SOL    HW223139   6.173   3.519   4.696
 7414SOL     OW23140   6.260   6.448   2.100
 7414SOL    HW123141   6.216   6.369   2.057
 7414SOL    HW223142   6.348   6.466   2.055
 7415SOL     OW23143   2.049   3.486   2.889
 7415SOL    HW123144   1.954   3.465   2.912
 7415SOL    HW223145   2.070   3.453   2.797
 7416SOL     OW23146   3.528   1.221   4.292
 7416SOL    HW123147   3.564   1.132   4.321
 7416SOL    HW223148   3.510   1.278   4.372
 7417SOL     OW23149   1.237   6.748   6.651
 7417SOL    HW123150   1.190   6.832   6.624
 7417SOL    HW223151   1.331   6.751   6.618
 7418SOL     OW23152   2.595   4.176   1.510
 7418SOL    HW123153   2.622   4.255   1.565
 7418SOL    HW223154   2.662   4.103   1.520
 7419SOL     OW23155   5.477   1.601   4.907
 7419SOL    HW123156   5.443   1.507   4.899
 7419SOL    HW223157   5.554   1.614   4.846
 7420SOL     OW23158   6.429   6.167   1.695
 7420SOL    HW123159   6.481   6.177   1.780
 7420SOL    HW223160   6.434   6.252   1.643
 7421SOL     OW23161   3.797   3.955   1.612
 7421SOL    HW123162   3.798   4.044   1.567
 7421SOL    HW223163   3.844   3.962   1.700
 7422SOL     OW23164   0.396   3.474   0.878
 7422SOL    HW123165   0.455   3.398   0.847
 7422SOL    HW223166   0.313   3.437   0.920
 7423SOL     OW23167   1.970   5.080   6.137
 7423SOL    HW123168   1.999   5.150   6.072
 7423SOL    HW223169   2.013   4.993   6.114
 7424SOL     OW23170   5.469   1.347   4.620
 7424SOL    HW123171   5.558   1.313   4.589
 7424SOL    HW223172   5.410   1.364   4.541
 7425SOL     OW23173   3.529   4.611   6.329
 7425SOL    HW123174   3.549   4.540   6.262
 7425SOL    HW223175   3.530   4.572   6.421
 7426SOL     OW23176   0.356   1.704   6.028
 7426SOL    HW123177   0.258   1.721   6.026
 7426SOL    HW223178   0.373   1.609   6.055
 7427SOL     OW23179   3.137   5.972   4.728
 7427SOL    HW123180   3.131   5.926   4.817
 7427SOL    HW223181   3.232   5.996   4.709
 7428SOL     OW23182   3.709   2.379   6.111
 7428SOL    HW123183   3.638   2.385   6.040
 7428SOL    HW223184   3.693   2.449   6.180
 7429SOL     OW23185   0.117   7.007   2.193
 7429SOL    HW123186   0.062   0.070   2.205
 7429SOL    HW223187   0.098   6.942   2.267
 7430SOL     OW23188   6.779   3.520   5.292
 7430SOL    HW123189   6.873   3.520   5.258
 7430SOL    HW223190   6.780   3.530   5.391
 7431SOL     OW23191   0.521   3.429   1.975
 7431SOL    HW123192   0.517   3.494   1.899
 7431SOL    HW223193   0.571   3.471   2.052
 7432SOL     OW23194   0.656   6.971   3.956
 7432SOL    HW123195   0.655   0.001   4.043
 7432SOL    HW223196   0.740   6.992   3.906
 7433SOL     OW23197   5.852   5.246   0.617
 7433SOL    HW123198   5.783   5.262   0.688
 7433SOL    HW223199   5.939   5.221   0.660
 7434SOL     OW23200   2.749   1.961   6.667
 7434SOL    HW123201   2.760   1.962   6.766
 7434SOL    HW223202   2.744   1.867   6.634
 7435SOL     OW23203   3.259   6.343   6.055
 7435SOL    HW123204   3.273   6.279   5.980
 7435SOL    HW223205   3.317   6.318   6.132
 7436SOL     OW23206   5.452   3.203   6.815
 7436SOL    HW123207   5.472   3.129   6.878
 7436SOL    HW223208   5.354   3.210   6.800
 7437SOL     OW23209   7.017   5.126   6.119
 7437SOL    HW123210   0.029   5.041   6.076
 7437SOL    HW223211   6.917   5.122   6.131
 7438SOL     OW23212   0.356   4.416   2.177
 7438SOL    HW123213   0.360   4.319   2.152
 7438SOL    HW223214   0.400   4.428   2.267
 7439SOL     OW23215   2.140   0.221   4.072
 7439SOL    HW123216   2.194   0.137   4.080
 7439SOL    HW223217   2.089   0.220   3.986
 7440SOL     OW23218   1.426   2.707   4.508
 7440SOL    HW123219   1.520   2.679   4.489
 7440SOL    HW223220   1.382   2.640   4.568
 7441SOL     OW23221   5.614   1.045   4.118
 7441SOL    HW123222   5.555   1.042   4.198
 7441SOL    HW223223   5.670   1.128   4.121
 7442SOL     OW23224   0.869   1.696   6.388
 7442SOL    HW123225   0.915   1.647   6.314
 7442SOL    HW223226   0.828   1.780   6.352
 7443SOL     OW23227   0.645   1.433   6.309
 7443SOL    HW123228   0.594   1.352   6.283
 7443SOL    HW223229   0.731   1.406   6.352
 7444SOL     OW23230   6.987   3.320   6.001
 7444SOL    HW123231   0.018   3.331   6.087
 7444SOL    HW223232   6.978   3.409   5.956
 7445SOL     OW23233   5.126   1.626   1.702
 7445SOL    HW123234   5.220   1.650   1.675
 7445SOL    HW223235   5.127   1.538   1.749
 7446SOL     OW23236   6.415   3.738   1.009
 7446SOL    HW123237   6.476   3.700   1.078
 7446SOL    HW223238   6.437   3.700   0.920
 7447SOL     OW23239   1.736   4.373   0.424
 7447SOL    HW123240   1.683   4.349   0.343
 7447SOL    HW223241   1.792   4.453   0.405
 7448SOL     OW23242   5.527   0.323   5.384
 7448SOL    HW123243   5.581   0.240   5.394
 7448SOL    HW223244   5.444   0.316   5.440
 7449SOL     OW23245   5.018   2.169   2.301
 7449SOL    HW123246   5.052   2.125   2.384
 7449SOL    HW223247   4.926   2.136   2.281
 7450SOL     OW23248   4.374   2.339   3.014
 7450SOL    HW123249   4.412   2.430   2.996
 7450SOL    HW223250   4.404   2.276   2.942
 7451SOL     OW23251   1.546   1.253   5.153
 7451SOL    HW123252   1.532   1.268   5.055
 7451SOL    HW223253   1.559   1.156   5.171
 7452SOL     OW23254   2.122   0.339   5.089
 7452SOL    HW123255   2.142   0.241   5.079
 7452SOL    HW223256   2.064   0.368   5.013
 7453SOL     OW23257   5.977   6.745   4.905
 7453SOL    HW123258   6.040   6.776   4.834
 7453SOL    HW223259   5.900   6.809   4.912
 7454SOL     OW23260   0.825   3.619   1.721
 7454SOL    HW123261   0.803   3.716   1.730
 7454SOL    HW223262   0.876   3.588   1.801
 7455SOL     OW23263   5.058   2.350   0.910
 7455SOL    HW123264   4.962   2.357   0.881
 7455SOL    HW223265   5.107   2.290   0.847
 7456SOL     OW23266   1.536   3.142   4.447
 7456SOL    HW123267   1.487   3.229   4.460
 7456SOL    HW223268   1.505   3.098   4.363
 7457SOL     OW23269   5.352   1.088   5.269
 7457SOL    HW123270   5.333   1.136   5.183
 7457SOL    HW223271   5.427   1.135   5.317
 7458SOL     OW23272   2.986   0.181   0.077
 7458SOL    HW123273   2.992   0.232   7.011
 7458SOL    HW223274   2.923   0.228   0.140
 7459SOL     OW23275   4.941   6.881   5.693
 7459SOL    HW123276   4.911   6.856   5.601
 7459SOL    HW223277   5.018   6.945   5.687
 7460SOL     OW23278   1.561   4.588   0.658
 7460SOL    HW123279   1.589   4.493   0.675
 7460SOL    HW223280   1.533   4.630   0.745
 7461SOL     OW23281   5.460   1.144   5.794
 7461SOL    HW123282   5.414   1.222   5.753
 7461SOL    HW223283   5.422   1.126   5.884
 7462SOL     OW23284   2.109   1.872   2.225
 7462SOL    HW123285   2.150   1.959   2.199
 7462SOL    HW223286   2.173   1.821   2.283
 7463SOL     OW23287   3.842   3.337   1.672
 7463SOL    HW123288   3.795   3.412   1.625
 7463SOL    HW223289   3.778   3.290   1.733
 7464SOL     OW23290   4.129   6.165   0.765
 7464SOL    HW123291   4.046   6.111   0.778
 7464SOL    HW223292   4.148   6.174   0.667
 7465SOL     OW23293   2.203   0.119   1.391
 7465SOL    HW123294   2.264   0.194   1.417
 7465SOL    HW223295   2.221   0.039   1.448
 7466SOL     OW23296   0.201   0.354   6.568
 7466SOL    HW123297   0.267   0.411   6.519
 7466SOL    HW223298   0.144   0.304   6.502
 7467SOL     OW23299   6.776   2.209   1.234
 7467SOL    HW123300   6.854   2.220   1.173
 7467SOL    HW223301   6.739   2.117   1.225
 7468SOL     OW23302   5.453   1.523   2.767
 7468SOL    HW123303   5.551   1.528   2.747
 7468SOL    HW223304   5.429   1.428   2.789
 7469SOL     OW23305   0.962   0.189   6.568
 7469SOL    HW123306   0.870   0.212   6.535
 7469SOL    HW223307   1.030   0.245   6.520
 7470SOL     OW23308   0.105   1.929   2.465
 7470SOL    HW123309   0.199   1.941   2.496
 7470SOL    HW223310   0.069   2.017   2.433
 7471SOL     OW23311   6.403   6.820   5.125
 7471SOL    HW123312   6.490   6.836   5.079
 7471SOL    HW223313   6.353   6.906   5.134
 7472SOL     OW23314   3.843   0.044   4.502
 7472SOL    HW123315   3.744   0.042   4.517
 7472SOL    HW223316   3.868   6.988   4.441
 7473SOL     OW23317   6.568   3.566   4.341
 7473SOL    HW123318   6.564   3.659   4.378
 7473SOL    HW223319   6.657   3.551   4.299
 7474SOL     OW23320   3.387   0.668   4.100
 7474SOL    HW123321   3.449   0.671   4.022
 7474SOL    HW223322   3.439   0.669   4.185
 7475SOL     OW23323   4.055   0.467   1.502
 7475SOL    HW123324   3.966   0.432   1.472
 7475SOL    HW223325   4.126   0.434   1.441
 7476SOL     OW23326   4.468   5.767   4.428
 7476SOL    HW123327   4.444   5.790   4.334
 7476SOL    HW223328   4.392   5.788   4.489
 7477SOL     OW23329   4.013   0.968   4.146
 7477SOL    HW123330   4.048   0.955   4.054
 7477SOL    HW223331   4.075   1.027   4.198
 7478SOL     OW23332   2.699   3.706   6.347
 7478SOL    HW123333   2.663   3.627   6.398
 7478SOL    HW223334   2.774   3.747   6.398
 7479SOL     OW23335   4.534   0.919   0.447
 7479SOL    HW123336   4.616   0.977   0.449
 7479SOL    HW223337   4.471   0.954   0.378
 7480SOL     OW23338   5.751   5.680   1.661
 7480SOL    HW123339   5.698   5.655   1.742
 7480SOL    HW223340   5.689   5.713   1.589
 7481SOL     OW23341   5.516   4.890   0.484
 7481SOL    HW123342   5.566   4.908   0.400
 7481SOL    HW223343   5.559   4.813   0.532
 7482SOL     OW23344   4.580   0.867   2.639
 7482SOL    HW123345   4.545   0.777   2.611
 7482SOL    HW223346   4.506   0.935   2.631
 7483SOL     OW23347   3.371   2.130   4.591
 7483SOL    HW123348   3.469   2.142   4.576
 7483SOL    HW223349   3.344   2.036   4.571
 7484SOL     OW23350   2.016   6.725   1.654
 7484SOL    HW123351   2.013   6.643   1.597
 7484SOL    HW223352   1.987   6.702   1.747
 7485SOL     OW23353   3.141   5.957   5.790
 7485SOL    HW123354   3.227   6.007   5.798
 7485SOL    HW223355   3.071   6.018   5.752
 7486SOL     OW23356   3.155   6.420   5.071
 7486SOL    HW123357   3.059   6.446   5.058
 7486SOL    HW223358   3.182   6.438   5.166
 7487SOL     OW23359   2.866   6.300   3.286
 7487SOL    HW123360   2.825   6.354   3.213
 7487SOL    HW223361   2.941   6.246   3.249
 7488SOL     OW23362   3.423   0.097   5.750
 7488SOL    HW123363   3.517   0.066   5.735
 7488SOL    HW223364   3.386   0.130   5.664
 7489SOL     OW23365   4.423   2.001   4.003
 7489SOL    HW123366   4.444   1.986   4.099
 7489SOL    HW223367   4.453   2.092   3.976
 7490SOL     OW23368   0.109   0.602   0.607
 7490SOL    HW123369   0.115   0.674   0.677
 7490SOL    HW223370   0.015   0.598   0.572
 7491SOL     OW23371   0.162   5.838   6.486
 7491SOL    HW123372   0.170   5.827   6.585
 7491SOL    HW223373   0.113   5.759   6.448
 7492SOL     OW23374   1.779   2.841   5.351
 7492SOL    HW123375   1.680   2.838   5.360
 7492SOL    HW223376   1.815   2.748   5.350
 7493SOL     OW23377   5.847   4.337   6.288
 7493SOL    HW123378   5.779   4.392   6.337
 7493SOL    HW223379   5.861   4.250   6.335
 7494SOL     OW23380   5.573   0.968   2.064
 7494SOL    HW123381   5.662   0.953   2.106
 7494SOL    HW223382   5.505   0.984   2.135
 7495SOL     OW23383   2.401   2.015   0.585
 7495SOL    HW123384   2.341   1.983   0.512
 7495SOL    HW223385   2.347   2.048   0.662
 7496SOL     OW23386   0.796   5.048   6.097
 7496SOL    HW123387   0.848   5.034   6.012
 7496SOL    HW223388   0.859   5.067   6.172
 7497SOL     OW23389   2.651   4.895   2.162
 7497SOL    HW123390   2.725   4.945   2.206
 7497SOL    HW223391   2.661   4.899   2.063
 7498SOL     OW23392   2.839   1.165   4.922
 7498SOL    HW123393   2.842   1.096   4.994
 7498SOL    HW223394   2.868   1.125   4.835
 7499SOL     OW23395   5.399   6.645   4.429
 7499SOL    HW123396   5.442   6.730   4.462
 7499SOL    HW223397   5.363   6.594   4.507
 7500SOL     OW23398   4.348   5.925   2.555
 7500SOL    HW123399   4.281   5.956   2.622
 7500SOL    HW223400   4.431   5.980   2.564
 7501SOL     OW23401   1.194   3.232   3.791
 7501SOL    HW123402   1.201   3.134   3.810
 7501SOL    HW223403   1.221   3.250   3.697
 7502SOL     OW23404   1.942   0.857   5.196
 7502SOL    HW123405   2.024   0.842   5.252
 7502SOL    HW223406   1.922   0.774   5.143
 7503SOL     OW23407   2.805   0.819   6.498
 7503SOL    HW123408   2.774   0.812   6.593
 7503SOL    HW223409   2.801   0.915   6.469
 7504SOL     OW23410   4.236   6.494   3.495
 7504SOL    HW123411   4.151   6.466   3.450
 7504SOL    HW223412   4.237   6.458   3.588
 7505SOL     OW23413   2.128   0.815   5.384
 7505SOL    HW123414   2.065   0.762   5.440
 7505SOL    HW223415   2.209   0.837   5.438
 7506SOL     OW23416   3.524   0.788   2.746
 7506SOL    HW123417   3.499   0.856   2.678
 7506SOL    HW223418   3.596   0.728   2.710
 7507SOL     OW23419   0.411   5.693   6.470
 7507SOL    HW123420   0.368   5.603   6.465
 7507SOL    HW223421   0.341   5.763   6.483
 7508SOL     OW23422   5.643   6.535   3.327
 7508SOL    HW123423   5.683   6.595   3.397
 7508SOL    HW223424   5.709   6.521   3.254
 7509SOL     OW23425   5.219   4.377   6.594
 7509SOL    HW123426   5.202   4.475   6.607
 7509SOL    HW223427   5.132   4.329   6.585
 7510SOL     OW23428   2.998   3.957   4.839
 7510SOL    HW123429   3.071   3.973   4.905
 7510SOL    HW223430   2.909   3.977   4.880
 7511SOL     OW23431   1.929   0.285   2.475
 7511SOL    HW123432   1.963   0.219   2.408
 7511SOL    HW223433   1.862   0.344   2.430
 7512SOL     OW23434   2.605   3.040   1.731
 7512SOL    HW123435   2.571   3.132   1.749
 7512SOL    HW223436   2.694   3.046   1.685
 7513SOL     OW23437   1.053   2.648   5.875
 7513SOL    HW123438   1.043   2.746   5.895
 7513SOL    HW223439   1.149   2.625   5.864
 7514SOL     OW23440   2.958   5.850   1.690
 7514SOL    HW123441   2.993   5.889   1.775
 7514SOL    HW223442   2.864   5.882   1.675
 7515SOL     OW23443   0.475   6.925   2.767
 7515SOL    HW123444   0.565   6.954   2.801
 7515SOL    HW223445   0.424   6.880   2.840
 7516SOL     OW23446   6.901   6.759   4.350
 7516SOL    HW123447   6.892   6.659   4.354
 7516SOL    HW223448   6.952   6.784   4.267
 7517SOL     OW23449   0.153   3.781   1.325
 7517SOL    HW123450   0.146   3.682   1.329
 7517SOL    HW223451   0.091   3.816   1.254
 7518SOL     OW23452   4.175   5.710   3.439
 7518SOL    HW123453   4.174   5.610   3.445
 7518SOL    HW223454   4.090   5.746   3.477
 7519SOL     OW23455   1.372   6.947   5.020
 7519SOL    HW123456   1.409   0.018   4.998
 7519SOL    HW223457   1.381   6.930   5.118
 7520SOL     OW23458   1.516   6.834   2.891
 7520SOL    HW123459   1.545   6.807   2.800
 7520SOL    HW223460   1.420   6.812   2.905
 7521SOL     OW23461   4.449   4.415   5.297
 7521SOL    HW123462   4.450   4.351   5.375
 7521SOL    HW223463   4.371   4.393   5.238
 7522SOL     OW23464   2.215   1.160   0.017
 7522SOL    HW123465   2.175   1.080   0.062
 7522SOL    HW223466   2.309   1.173   0.049
 7523SOL     OW23467   5.681   0.192   5.670
 7523SOL    HW123468   5.659   0.178   5.574
 7523SOL    HW223469   5.633   0.273   5.704
 7524SOL     OW23470   0.157   1.619   5.728
 7524SOL    HW123471   0.211   1.703   5.725
 7524SOL    HW223472   0.077   1.632   5.787
 7525SOL     OW23473   2.257   0.214   0.429
 7525SOL    HW123474   2.316   0.145   0.386
 7525SOL    HW223475   2.170   0.172   0.454
 7526SOL     OW23476   3.486   3.168   4.785
 7526SOL    HW123477   3.403   3.119   4.755
 7526SOL    HW223478   3.500   3.153   4.883
 7527SOL     OW23479   5.145   4.004   2.939
 7527SOL    HW123480   5.134   4.071   2.865
 7527SOL    HW223481   5.081   4.025   3.013
 7528SOL     OW23482   4.794   2.865   0.815
 7528SOL    HW123483   4.886   2.839   0.846
 7528SOL    HW223484   4.744   2.906   0.891
 7529SOL     OW23485   4.580   1.129   3.949
 7529SOL    HW123486   4.527   1.186   4.012
 7529SOL    HW223487   4.649   1.078   4.001
 7530SOL     OW23488   0.134   3.546   2.307
 7530SOL    HW123489   0.202   3.591   2.249
 7530SOL    HW223490   0.133   3.448   2.289
 7531SOL     OW23491   4.121   1.916   3.531
 7531SOL    HW123492   4.219   1.925   3.549
 7531SOL    HW223493   4.077   2.004   3.546
 7532SOL     OW23494   5.496   6.147   1.940
 7532SOL    HW123495   5.422   6.106   1.994
 7532SOL    HW223496   5.500   6.245   1.958
 7533SOL     OW23497   2.844   1.317   4.126
 7533SOL    HW123498   2.760   1.281   4.085
 7533SOL    HW223499   2.922   1.267   4.090
 7534SOL     OW23500   3.970   6.311   5.633
 7534SOL    HW123501   4.036   6.237   5.621
 7534SOL    HW223502   3.891   6.277   5.683
 7535SOL     OW23503   2.905   2.161   5.334
 7535SOL    HW123504   2.976   2.090   5.331
 7535SOL    HW223505   2.875   2.181   5.241
 7536SOL     OW23506   4.569   5.333   4.916
 7536SOL    HW123507   4.604   5.245   4.948
 7536SOL    HW223508   4.620   5.361   4.835
 7537SOL     OW23509   2.030   4.279   4.673
 7537SOL    HW123510   2.102   4.210   4.672
 7537SOL    HW223511   2.006   4.303   4.579
 7538SOL     OW23512   3.091   3.056   3.027
 7538SOL    HW123513   2.991   3.048   3.032
 7538SOL    HW223514   3.117   3.152   3.040
 7539SOL     OW23515   1.511   3.095   5.153
 7539SOL    HW123516   1.475   3.173   5.103
 7539SOL    HW223517   1.605   3.115   5.183
 7540SOL     OW23518   2.372   0.892   6.891
 7540SOL    HW123519   2.448   0.929   6.945
 7540SOL    HW223520   2.310   0.967   6.866
 7541SOL     OW23521   6.284   2.780   5.653
 7541SOL    HW123522   6.361   2.718   5.662
 7541SOL    HW223523   6.280   2.839   5.734
 7542SOL     OW23524   1.316   6.968   5.827
 7542SOL    HW123525   1.219   6.943   5.833
 7542SOL    HW223526   1.371   6.884   5.818
 7543SOL     OW23527   4.237   2.825   0.525
 7543SOL    HW123528   4.257   2.918   0.553
 7543SOL    HW223529   4.286   2.761   0.584
 7544SOL     OW23530   1.146   1.971   2.898
 7544SOL    HW123531   1.223   1.994   2.957
 7544SOL    HW223532   1.076   1.923   2.952
 7545SOL     OW23533   4.792   6.917   2.603
 7545SOL    HW123534   4.780   6.839   2.542
 7545SOL    HW223535   4.804   6.884   2.697
 7546SOL     OW23536   5.073   0.941   0.211
 7546SOL    HW123537   4.988   0.992   0.226
 7546SOL    HW223538   5.148   0.987   0.260
 7547SOL     OW23539   3.913   0.708   0.217
 7547SOL    HW123540   3.888   0.747   0.128
 7547SOL    HW223541   3.969   0.626   0.204
 7548SOL     OW23542   2.034   1.852   1.314
 7548SOL    HW123543   2.080   1.766   1.334
 7548SOL    HW223544   1.963   1.837   1.245
 7549SOL     OW23545   5.615   1.239   2.617
 7549SOL    HW123546   5.681   1.170   2.587
 7549SOL    HW223547   5.633   1.263   2.713
 7550SOL     OW23548   1.480   5.510   2.469
 7550SOL    HW123549   1.439   5.573   2.403
 7550SOL    HW223550   1.533   5.562   2.536
 7551SOL     OW23551   4.353   3.402   6.966
 7551SOL    HW123552   4.339   3.303   6.971
 7551SOL    HW223553   4.438   3.426   7.014
 7552SOL     OW23554   2.319   5.673   4.423
 7552SOL    HW123555   2.333   5.581   4.460
 7552SOL    HW223556   2.399   5.698   4.367
 7553SOL     OW23557   4.051   4.760   5.832
 7553SOL    HW123558   4.000   4.837   5.870
 7553SOL    HW223559   3.988   4.685   5.811
 7554SOL     OW23560   5.099   1.736   0.847
 7554SOL    HW123561   5.116   1.708   0.753
 7554SOL    HW223562   5.010   1.702   0.877
 7555SOL     OW23563   0.627   5.458   5.602
 7555SOL    HW123564   0.606   5.402   5.682
 7555SOL    HW223565   0.695   5.527   5.627
 7556SOL     OW23566   0.689   3.119   5.087
 7556SOL    HW123567   0.602   3.072   5.102
 7556SOL    HW223568   0.758   3.082   5.149
 7557SOL     OW23569   4.941   4.343   6.154
 7557SOL    HW123570   4.970   4.309   6.243
 7557SOL    HW223571   4.968   4.439   6.144
 7558SOL     OW23572   2.096   2.401   4.044
 7558SOL    HW123573   2.064   2.475   4.103
 7558SOL    HW223574   2.143   2.332   4.100
 7559SOL     OW23575   6.161   5.078   1.047
 7559SOL    HW123576   6.223   5.008   1.082
 7559SOL    HW223577   6.178   5.164   1.093
 7560SOL     OW23578   4.806   6.860   0.880
 7560SOL    HW123579   4.808   6.803   0.962
 7560SOL    HW223580   4.719   6.908   0.874
 7561SOL     OW23581   0.804   3.237   0.844
 7561SOL    HW123582   0.861   3.306   0.799
 7561SOL    HW223583   0.768   3.274   0.930
 7562SOL     OW23584   5.750   6.642   4.725
 7562SOL    HW123585   5.762   6.699   4.643
 7562SOL    HW223586   5.815   6.671   4.795
 7563SOL     OW23587   2.707   0.562   1.712
 7563SOL    HW123588   2.678   0.571   1.807
 7563SOL    HW223589   2.753   0.474   1.699
 7564SOL     OW23590   5.558   6.776   2.952
 7564SOL    HW123591   5.557   6.875   2.939
 7564SOL    HW223592   5.645   6.739   2.919
 7565SOL     OW23593   5.173   5.291   6.344
 7565SOL    HW123594   5.204   5.377   6.384
 7565SOL    HW223595   5.143   5.307   6.250
 7566SOL     OW23596   0.158   5.161   4.155
 7566SOL    HW123597   0.214   5.216   4.216
 7566SOL    HW223598   0.130   5.216   4.077
 7567SOL     OW23599   2.684   4.415   5.942
 7567SOL    HW123600   2.665   4.361   6.024
 7567SOL    HW223601   2.644   4.370   5.862
 7568SOL     OW23602   5.680   5.624   3.752
 7568SOL    HW123603   5.588   5.653   3.726
 7568SOL    HW223604   5.732   5.601   3.669
 7569SOL     OW23605   4.060   5.928   6.641
 7569SOL    HW123606   3.976   5.929   6.696
 7569SOL    HW223607   4.096   5.835   6.639
 7570SOL     OW23608   5.775   4.360   4.541
 7570SOL    HW123609   5.765   4.310   4.454
 7570SOL    HW223610   5.835   4.439   4.527
 7571SOL     OW23611   5.511   3.722   2.014
 7571SOL    HW123612   5.418   3.704   1.980
 7571SOL    HW223613   5.548   3.803   1.969
 7572SOL     OW23614   4.962   0.559   3.860
 7572SOL    HW123615   4.868   0.543   3.831
 7572SOL    HW223616   5.000   0.639   3.813
 7573SOL     OW23617   0.008   5.915   4.594
 7573SOL    HW123618   7.012   5.866   4.508
 7573SOL    HW223619   6.996   5.859   4.671
 7574SOL     OW23620   6.276   0.952   3.557
 7574SOL    HW123621   6.270   0.967   3.656
 7574SOL    HW223622   6.338   0.876   3.538
 7575SOL     OW23623   4.313   1.236   5.808
 7575SOL    HW123624   4.314   1.189   5.719
 7575SOL    HW223625   4.265   1.323   5.799
 7576SOL     OW23626   5.869   5.094   0.224
 7576SOL    HW123627   5.911   5.134   0.143
 7576SOL    HW223628   5.927   5.111   0.304
 7577SOL     OW23629   6.585   0.647   4.567
 7577SOL    HW123630   6.515   0.598   4.618
 7577SOL    HW223631   6.672   0.643   4.617
 7578SOL     OW23632   2.119   6.389   4.453
 7578SOL    HW123633   2.104   6.381   4.355
 7578SOL    HW223634   2.033   6.374   4.501
 7579SOL     OW23635   4.244   2.318   2.425
 7579SOL    HW123636   4.162   2.262   2.418
 7579SOL    HW223637   4.300   2.306   2.343
 7580SOL     OW23638   1.448   3.638   3.157
 7580SOL    HW123639   1.350   3.617   3.157
 7580SOL    HW223640   1.476   3.668   3.248
 7581SOL     OW23641   5.443   1.716   0.773
 7581SOL    HW123642   5.395   1.786   0.720
 7581SOL    HW223643   5.453   1.747   0.867
 7582SOL     OW23644   3.929   1.630   0.514
 7582SOL    HW123645   3.875   1.548   0.536
 7582SOL    HW223646   3.869   1.710   0.511
 7583SOL     OW23647   5.867   4.133   1.844
 7583SOL    HW123648   5.879   4.054   1.783
 7583SOL    HW223649   5.830   4.210   1.792
 7584SOL     OW23650   2.839   6.696   1.056
 7584SOL    HW123651   2.897   6.751   1.115
 7584SOL    HW223652   2.811   6.750   0.977
 7585SOL     OW23653   1.536   3.981   6.661
 7585SOL    HW123654   1.487   3.904   6.619
 7585SOL    HW223655   1.502   3.995   6.754
 7586SOL     OW23656   2.980   0.189   2.503
 7586SOL    HW123657   2.944   0.193   2.596
 7586SOL    HW223658   2.988   0.093   2.475
 7587SOL     OW23659   1.981   1.785   0.025
 7587SOL    HW123660   1.970   1.718   0.100
 7587SOL    HW223661   2.054   1.754   6.983
 7588SOL     OW23662   0.562   5.314   2.062
 7588SOL    HW123663   0.507   5.390   2.096
 7588SOL    HW223664   0.654   5.346   2.041
 7589SOL     OW23665   6.038   5.943   0.196
 7589SOL    HW123666   5.942   5.956   0.170
 7589SOL    HW223667   6.064   6.012   0.263
 7590SOL     OW23668   2.831   1.842   5.490
 7590SOL    HW123669   2.771   1.862   5.568
 7590SOL    HW223670   2.909   1.905   5.492
 7591SOL     OW23671   0.274   4.912   0.523
 7591SOL    HW123672   0.186   4.957   0.510
 7591SOL    HW223673   0.347   4.972   0.489
 7592SOL     OW23674   6.391   4.958   6.893
 7592SOL    HW123675   6.312   4.900   6.874
 7592SOL    HW223676   6.448   4.965   6.811
 7593SOL     OW23677   5.736   2.673   6.920
 7593SOL    HW123678   5.792   2.700   6.999
 7593SOL    HW223679   5.640   2.692   6.940
 7594SOL     OW23680   0.749   5.067   3.129
 7594SOL    HW123681   0.813   5.060   3.053
 7594SOL    HW223682   0.800   5.069   3.215
 7595SOL     OW23683   0.222   3.603   6.149
 7595SOL    HW123684   0.317   3.575   6.160
 7595SOL    HW223685   0.165   3.556   6.217
 7596SOL     OW23686   4.931   4.869   2.817
 7596SOL    HW123687   4.922   4.917   2.905
 7596SOL    HW223688   4.850   4.813   2.801
 7597SOL     OW23689   3.211   5.468   2.334
 7597SOL    HW123690   3.167   5.539   2.280
 7597SOL    HW223691   3.253   5.508   2.415
 7598SOL     OW23692   6.856   0.525   2.678
 7598SOL    HW123693   6.890   0.492   2.767
 7598SOL    HW223694   6.891   0.617   2.662
 7599SOL     OW23695   5.994   1.318   2.995
 7599SOL    HW123696   5.999   1.335   3.093
 7599SOL    HW223697   6.058   1.378   2.947
 7600SOL     OW23698   1.880   0.195   2.041
 7600SOL    HW123699   1.975   0.195   2.071
 7600SOL    HW223700   1.847   0.289   2.035
 7601SOL     OW23701   2.308   5.824   3.522
 7601SOL    HW123702   2.406   5.829   3.502
 7601SOL    HW223703   2.291   5.866   3.611
 7602SOL     OW23704   2.327   4.467   4.763
 7602SOL    HW123705   2.300   4.409   4.686
 7602SOL    HW223706   2.354   4.557   4.730
 7603SOL     OW23707   1.255   6.065   6.771
 7603SOL    HW123708   1.191   6.003   6.816
 7603SOL    HW223709   1.238   6.063   6.672
 7604SOL     OW23710   3.618   5.918   4.066
 7604SOL    HW123711   3.646   5.857   3.992
 7604SOL    HW223712   3.546   5.979   4.032
 7605SOL     OW23713   1.748   5.330   0.001
 7605SOL    HW123714   1.688   5.355   0.077
 7605SOL    HW223715   1.753   5.230   7.013
 7606SOL     OW23716   0.433   2.698   2.208
 7606SOL    HW123717   0.385   2.752   2.139
 7606SOL    HW223718   0.496   2.756   2.258
 7607SOL     OW23719   4.727   6.895   0.413
 7607SOL    HW123720   4.821   6.911   0.385
 7607SOL    HW223721   4.725   6.873   0.511
 7608SOL     OW23722   3.057   3.884   3.131
 7608SOL    HW123723   3.125   3.811   3.129
 7608SOL    HW223724   3.039   3.916   3.038
 7609SOL     OW23725   6.818   3.596   3.615
 7609SOL    HW123726   6.844   3.588   3.711
 7609SOL    HW223727   6.900   3.602   3.558
 7610SOL     OW23728   6.050   0.665   1.164
 7610SOL    HW123729   6.025   0.719   1.084
 7610SOL    HW223730   6.122   0.712   1.216
 7611SOL     OW23731   1.364   1.772   6.913
 7611SOL    HW123732   1.373   1.834   6.835
 7611SOL    HW223733   1.454   1.757   6.953
 7612SOL     OW23734   3.757   1.357   4.194
 7612SOL    HW123735   3.686   1.322   4.255
 7612SOL    HW223736   3.714   1.402   4.116
 7613SOL     OW23737   4.845   1.519   1.315
 7613SOL    HW123738   4.763   1.509   1.371
 7613SOL    HW223739   4.896   1.432   1.314
 7614SOL     OW23740   3.997   2.306   1.786
 7614SOL    HW123741   4.011   2.403   1.768
 7614SOL    HW223742   3.918   2.294   1.846
 7615SOL     OW23743   4.807   5.021   6.415
 7615SOL    HW123744   4.759   5.075   6.484
 7615SOL    HW223745   4.801   5.066   6.327
 7616SOL     OW23746   0.719   4.248   4.525
 7616SOL    HW123747   0.807   4.267   4.568
 7616SOL    HW223748   0.712   4.150   4.504
 7617SOL     OW23749   2.956   5.766   3.889
 7617SOL    HW123750   2.889   5.692   3.888
 7617SOL    HW223751   3.037   5.739   3.836
 7618SOL     OW23752   1.297   2.137   6.324
 7618SOL    HW123753   1.375   2.195   6.301
 7618SOL    HW223754   1.330   2.052   6.365
 7619SOL     OW23755   5.766   3.224   5.609
 7619SOL    HW123756   5.771   3.126   5.627
 7619SOL    HW223757   5.750   3.274   5.694
 7620SOL     OW23758   3.712   0.462   0.864
 7620SOL    HW123759   3.780   0.439   0.795
 7620SOL    HW223760   3.695   0.383   0.923
 7621SOL     OW23761   0.982   0.604   0.273
 7621SOL    HW123762   0.930   0.524   0.244
 7621SOL    HW223763   0.976   0.675   0.204
 7622SOL     OW23764   5.140   2.584   1.619
 7622SOL    HW123765   5.173   2.588   1.713
 7622SOL    HW223766   5.109   2.675   1.591
 7623SOL     OW23767   4.458   5.797   6.305
 7623SOL    HW123768   4.521   5.761   6.375
 7623SOL    HW223769   4.364   5.778   6.332
 7624SOL     OW23770   0.191   2.273   3.603
 7624SOL    HW123771   0.261   2.314   3.545
 7624SOL    HW223772   0.126   2.223   3.546
 7625SOL     OW23773   5.492   1.436   0.669
 7625SOL    HW123774   5.580   1.411   0.711
 7625SOL    HW223775   5.477   1.534   0.677
 7626SOL     OW23776   0.186   6.678   5.399
 7626SOL    HW123777   0.119   6.649   5.330
 7626SOL    HW223778   0.268   6.621   5.391
 7627SOL     OW23779   6.390   3.408   0.815
 7627SOL    HW123780   6.443   3.324   0.815
 7627SOL    HW223781   6.452   3.487   0.809
 7628SOL     OW23782   2.661   0.718   1.467
 7628SOL    HW123783   2.667   0.817   1.471
 7628SOL    HW223784   2.677   0.679   1.558
 7629SOL     OW23785   6.489   6.054   2.101
 7629SOL    HW123786   6.423   5.983   2.076
 7629SOL    HW223787   6.479   6.077   2.198
 7630SOL     OW23788   6.260   6.622   2.296
 7630SOL    HW123789   6.189   6.614   2.365
 7630SOL    HW223790   6.242   6.559   2.221
 7631SOL     OW23791   1.283   1.998   5.096
 7631SOL    HW123792   1.236   2.062   5.035
 7631SOL    HW223793   1.321   2.048   5.174
 7632SOL     OW23794   4.144   1.991   1.245
 7632SOL    HW123795   4.096   1.976   1.331
 7632SOL    HW223796   4.118   2.080   1.207
 7633SOL     OW23797   5.630   3.322   0.314
 7633SOL    HW123798   5.557   3.298   0.378
 7633SOL    HW223799   5.707   3.362   0.365
 7634SOL     OW23800   1.521   1.068   2.354
 7634SOL    HW123801   1.599   1.031   2.303
 7634SOL    HW223802   1.469   0.993   2.395
 7635SOL     OW23803   2.702   5.481   5.400
 7635SOL    HW123804   2.704   5.381   5.406
 7635SOL    HW223805   2.764   5.519   5.468
 7636SOL     OW23806   1.376   1.530   4.033
 7636SOL    HW123807   1.400   1.604   3.970
 7636SOL    HW223808   1.456   1.471   4.047
 7637SOL     OW23809   1.813   6.800   3.843
 7637SOL    HW123810   1.799   6.815   3.941
 7637SOL    HW223811   1.895   6.745   3.829
 7638SOL     OW23812   5.998   5.638   1.584
 7638SOL    HW123813   6.073   5.659   1.646
 7638SOL    HW223814   5.911   5.660   1.628
 7639SOL     OW23815   0.679   2.099   6.485
 7639SOL    HW123816   0.714   2.027   6.425
 7639SOL    HW223817   0.579   2.095   6.488
 7640SOL     OW23818   2.376   2.344   0.612
 7640SOL    HW123819   2.351   2.251   0.587
 7640SOL    HW223820   2.429   2.343   0.697
 7641SOL     OW23821   0.743   4.580   1.910
 7641SOL    HW123822   0.656   4.627   1.927
 7641SOL    HW223823   0.772   4.597   1.816
 7642SOL     OW23824   2.865   1.872   2.666
 7642SOL    HW123825   2.825   1.952   2.712
 7642SOL    HW223826   2.955   1.852   2.705
 7643SOL     OW23827   4.760   2.466   3.505
 7643SOL    HW123828   4.664   2.463   3.531
 7643SOL    HW223829   4.814   2.414   3.572
 7644SOL     OW23830   6.284   2.154   2.552
 7644SOL    HW123831   6.201   2.210   2.543
 7644SOL    HW223832   6.260   2.058   2.546
 7645SOL     OW23833   4.672   5.249   6.507
 7645SOL    HW123834   4.762   5.279   6.538
 7645SOL    HW223835   4.609   5.246   6.585
 7646SOL     OW23836   1.578   2.067   2.095
 7646SOL    HW123837   1.617   1.991   2.147
 7646SOL    HW223838   1.597   2.153   2.142
 7647SOL     OW23839   0.949   3.338   1.671
 7647SOL    HW123840   1.040   3.345   1.712
 7647SOL    HW223841   0.912   3.429   1.655
 7648SOL     OW23842   4.434   1.895   3.524
 7648SOL    HW123843   4.413   1.889   3.622
 7648SOL    HW223844   4.410   1.985   3.489
 7649SOL     OW23845   0.740   0.426   2.262
 7649SOL    HW123846   0.780   0.367   2.333
 7649SOL    HW223847   0.667   0.376   2.215
 7650SOL     OW23848   6.177   2.830   1.939
 7650SOL    HW123849   6.223   2.893   1.877
 7650SOL    HW223850   6.139   2.754   1.886
 7651SOL     OW23851   2.570   6.992   6.853
 7651SOL    HW123852   2.610   7.015   6.941
 7651SOL    HW223853   2.518   6.906   6.860
 7652SOL     OW23854   6.009   3.592   4.146
 7652SOL    HW123855   6.075   3.638   4.204
 7652SOL    HW223856   6.056   3.531   4.083
 7653SOL     OW23857   2.118   1.031   0.585
 7653SOL    HW123858   2.029   1.049   0.628
 7653SOL    HW223859   2.189   1.082   0.633
 7654SOL     OW23860   4.799   2.304   3.282
 7654SOL    HW123861   4.792   2.382   3.344
 7654SOL    HW223862   4.752   2.325   3.196
 7655SOL     OW23863   4.162   0.129   4.022
 7655SOL    HW123864   4.089   0.155   4.084
 7655SOL    HW223865   4.124   0.079   3.944
 7656SOL     OW23866   0.353   5.714   5.770
 7656SOL    HW123867   0.265   5.704   5.723
 7656SOL    HW223868   0.339   5.704   5.869
 7657SOL     OW23869   3.183   2.040   3.004
 7657SOL    HW123870   3.199   2.069   2.910
 7657SOL    HW223871   3.134   1.952   3.004
 7658SOL     OW23872   4.674   0.601   6.224
 7658SOL    HW123873   4.737   0.679   6.229
 7658SOL    HW223874   4.603   0.620   6.157
 7659SOL     OW23875   5.741   6.993   0.709
 7659SOL    HW123876   5.748   7.012   0.611
 7659SOL    HW223877   5.756   6.895   0.726
 7660SOL     OW23878   5.443   6.134   3.770
 7660SOL    HW123879   5.516   6.104   3.710
 7660SOL    HW223880   5.415   6.227   3.746
 7661SOL     OW23881   5.921   2.046   4.522
 7661SOL    HW123882   5.851   2.023   4.590
 7661SOL    HW223883   5.990   2.105   4.564
 7662SOL     OW23884   1.551   2.425   1.963
 7662SOL    HW123885   1.644   2.439   1.928
 7662SOL    HW223886   1.521   2.332   1.940
 7663SOL     OW23887   6.855   5.338   6.684
 7663SOL    HW123888   6.776   5.394   6.703
 7663SOL    HW223889   6.872   5.276   6.761
 7664SOL     OW23890   3.046   6.299   2.475
 7664SOL    HW123891   2.992   6.345   2.547
 7664SOL    HW223892   3.015   6.205   2.466
 7665SOL     OW23893   3.092   0.054   3.693
 7665SOL    HW123894   3.123   0.075   3.600
 7665SOL    HW223895   3.052   6.982   3.695
 7666SOL     OW23896   0.318   6.810   1.395
 7666SOL    HW123897   0.321   6.891   1.455
 7666SOL    HW223898   0.395   6.812   1.333
 7667SOL     OW23899   4.978   6.020   6.843
 7667SOL    HW123900   4.995   6.083   6.919
 7667SOL    HW223901   5.064   5.984   6.808
 7668SOL     OW23902   3.256   4.041   1.524
 7668SOL    HW123903   3.185   4.044   1.454
 7668SOL    HW223904   3.261   3.949   1.562
 7669SOL     OW23905   5.361   1.055   4.704
 7669SOL    HW123906   5.366   1.037   4.605
 7669SOL    HW223907   5.357   1.154   4.719
 7670SOL     OW23908   1.471   5.666   6.574
 7670SOL    HW123909   1.506   5.748   6.620
 7670SOL    HW223910   1.469   5.590   6.639
 7671SOL     OW23911   4.752   1.450   4.109
 7671SOL    HW123912   4.796   1.412   4.027
 7671SOL    HW223913   4.812   1.438   4.188
 7672SOL     OW23914   6.303   0.321   3.732
 7672SOL    HW123915   6.399   0.318   3.759
 7672SOL    HW223916   6.272   0.416   3.730
 7673SOL     OW23917   1.556   4.907   0.914
 7673SOL    HW123918   1.637   4.854   0.887
 7673SOL    HW223919   1.480   4.845   0.933
 7674SOL     OW23920   6.617   1.929   4.661
 7674SOL    HW123921   6.576   2.013   4.697
 7674SOL    HW223922   6.609   1.929   4.561
 7675SOL     OW23923   5.030   0.585   2.295
 7675SOL    HW123924   5.128   0.565   2.296
 7675SOL    HW223925   4.984   0.529   2.364
 7676SOL     OW23926   0.729   1.700   6.627
 7676SOL    HW123927   0.808   1.690   6.566
 7676SOL    HW223928   0.660   1.759   6.584
 7677SOL     OW23929   1.883   2.957   1.791
 7677SOL    HW123930   1.884   2.861   1.816
 7677SOL    HW223931   1.886   2.965   1.691
 7678SOL     OW23932   1.400   0.921   6.407
 7678SOL    HW123933   1.438   0.849   6.350
 7678SOL    HW223934   1.475   0.978   6.442
 7679SOL     OW23935   1.161   5.392   5.059
 7679SOL    HW123936   1.175   5.349   4.970
 7679SOL    HW223937   1.063   5.401   5.077
 7680SOL     OW23938   2.755   3.266   6.890
 7680SOL    HW123939   2.668   3.217   6.904
 7680SOL    HW223940   2.751   3.355   6.936
 7681SOL     OW23941   3.116   0.429   0.322
 7681SOL    HW123942   3.042   0.432   0.255
 7681SOL    HW223943   3.079   0.444   0.413
 7682SOL     OW23944   2.506   6.868   1.815
 7682SOL    HW123945   2.434   6.903   1.875
 7682SOL    HW223946   2.591   6.859   1.867
 7683SOL     OW23947   6.601   2.757   3.064
 7683SOL    HW123948   6.655   2.735   3.145
 7683SOL    HW223949   6.572   2.671   3.020
 7684SOL     OW23950   5.764   2.697   6.656
 7684SOL    HW123951   5.717   2.626   6.604
 7684SOL    HW223952   5.772   2.669   6.752
 7685SOL     OW23953   3.852   2.913   0.266
 7685SOL    HW123954   3.799   2.949   0.189
 7685SOL    HW223955   3.949   2.936   0.253
 7686SOL     OW23956   4.073   0.058   2.853
 7686SOL    HW123957   4.159   0.046   2.804
 7686SOL    HW223958   4.004   7.017   2.814
 7687SOL     OW23959   5.203   5.746   5.711
 7687SOL    HW123960   5.202   5.725   5.808
 7687SOL    HW223961   5.181   5.664   5.658
 7688SOL     OW23962   6.897   6.925   6.020
 7688SOL    HW123963   6.840   6.907   5.940
 7688SOL    HW223964   6.896   6.846   6.080
 7689SOL     OW23965   5.012   5.903   4.101
 7689SOL    HW123966   5.016   5.874   4.005
 7689SOL    HW223967   5.009   5.822   4.160
 7690SOL     OW23968   5.322   5.433   3.029
 7690SOL    HW123969   5.250   5.382   2.982
 7690SOL    HW223970   5.335   5.521   2.985
 7691SOL     OW23971   4.918   2.819   3.989
 7691SOL    HW123972   4.852   2.833   3.915
 7691SOL    HW223973   4.939   2.722   3.997
 7692SOL     OW23974   0.977   6.706   1.013
 7692SOL    HW123975   1.057   6.704   1.073
 7692SOL    HW223976   0.898   6.741   1.063
 7693SOL     OW23977   4.058   0.804   6.923
 7693SOL    HW123978   4.014   0.767   6.841
 7693SOL    HW223979   4.139   0.750   6.946
 7694SOL     OW23980   0.671   4.722   3.965
 7694SOL    HW123981   0.733   4.729   4.043
 7694SOL    HW223982   0.676   4.630   3.927
 7695SOL     OW23983   3.919   0.682   0.898
 7695SOL    HW123984   3.875   0.771   0.911
 7695SOL    HW223985   3.861   0.624   0.842
 7696SOL     OW23986   6.834   2.121   4.121
 7696SOL    HW123987   6.905   2.186   4.148
 7696SOL    HW223988   6.779   2.162   4.047
 7697SOL     OW23989   2.324   1.542   3.127
 7697SOL    HW123990   2.274   1.466   3.086
 7697SOL    HW223991   2.276   1.628   3.108
 7698SOL     OW23992   0.132   3.141   4.470
 7698SOL    HW123993   0.143   3.055   4.519
 7698SOL    HW223994   0.221   3.180   4.451
 7699SOL     OW23995   2.182   5.869   6.724
 7699SOL    HW123996   2.254   5.918   6.673
 7699SOL    HW223997   2.104   5.930   6.737
 7700SOL     OW23998   4.368   6.932   5.301
 7700SOL    HW123999   4.351   6.983   5.386
 7700SOL    HW224000   4.463   6.902   5.299
 7701SOL     OW24001   6.535   1.083   6.161
 7701SOL    HW124002   6.474   1.140   6.106
 7701SOL    HW224003   6.494   1.065   6.250
 7702SOL     OW24004   3.451   6.522   6.032
 7702SOL    HW124005   3.383   6.449   6.025
 7702SOL    HW224006   3.405   6.610   6.019
 7703SOL     OW24007   6.388   1.589   5.429
 7703SOL    HW124008   6.433   1.508   5.468
 7703SOL    HW224009   6.370   1.655   5.501
 7704SOL     OW24010   4.126   5.135   6.262
 7704SOL    HW124011   4.089   5.221   6.299
 7704SOL    HW224012   4.116   5.063   6.330
 7705SOL     OW24013   3.482   4.970   5.253
 7705SOL    HW124014   3.446   4.990   5.162
 7705SOL    HW224015   3.576   4.939   5.246
 7706SOL     OW24016   6.110   0.560   5.564
 7706SOL    HW124017   6.184   0.612   5.605
 7706SOL    HW224018   6.122   0.557   5.464
 7707SOL     OW24019   0.215   5.256   6.275
 7707SOL    HW124020   0.225   5.316   6.197
 7707SOL    HW224021   0.185   5.165   6.244
 7708SOL     OW24022   5.346   6.197   4.903
 7708SOL    HW124023   5.254   6.193   4.863
 7708SOL    HW224024   5.340   6.207   5.002
 7709SOL     OW24025   4.611   2.632   2.530
 7709SOL    HW124026   4.559   2.629   2.445
 7709SOL    HW224027   4.697   2.582   2.519
 7710SOL     OW24028   2.420   6.973   0.638
 7710SOL    HW124029   2.373   6.888   0.659
 7710SOL    HW224030   2.393   7.005   0.547
 7711SOL     OW24031   6.224   6.481   5.645
 7711SOL    HW124032   6.193   6.504   5.553
 7711SOL    HW224033   6.174   6.401   5.679
 7712SOL     OW24034   6.556   5.322   1.568
 7712SOL    HW124035   6.607   5.382   1.629
 7712SOL    HW224036   6.620   5.278   1.504
 7713SOL     OW24037   1.963   3.991   0.611
 7713SOL    HW124038   1.975   4.090   0.621
 7713SOL    HW224039   2.013   3.944   0.684
 7714SOL     OW24040   6.359   4.515   4.132
 7714SOL    HW124041   6.295   4.542   4.204
 7714SOL    HW224042   6.314   4.451   4.070
 7715SOL     OW24043   4.756   0.851   1.140
 7715SOL    HW124044   4.805   0.924   1.187
 7715SOL    HW224045   4.757   0.868   1.041
 7716SOL     OW24046   4.747   2.784   2.761
 7716SOL    HW124047   4.663   2.736   2.737
 7716SOL    HW224048   4.756   2.789   2.860
 7717SOL     OW24049   2.755   1.413   4.997
 7717SOL    HW124050   2.784   1.325   4.960
 7717SOL    HW224051   2.782   1.420   5.093
 7718SOL     OW24052   2.103   1.623   2.839
 7718SOL    HW124053   2.072   1.692   2.773
 7718SOL    HW224054   2.037   1.549   2.843
 7719SOL     OW24055   0.003   3.171   4.234
 7719SOL    HW124056   0.029   3.160   4.330
 7719SOL    HW224057   0.063   3.114   4.178
 7720SOL     OW24058   6.228   6.419   0.868
 7720SOL    HW124059   6.214   6.328   0.830
 7720SOL    HW224060   6.144   6.472   0.862
 7721SOL     OW24061   1.778   4.380   2.963
 7721SOL    HW124062   1.778   4.332   2.875
 7721SOL    HW224063   1.867   4.421   2.979
 7722SOL     OW24064   6.853   5.517   3.136
 7722SOL    HW124065   6.815   5.445   3.194
 7722SOL    HW224066   6.786   5.592   3.130
 7723SOL     OW24067   0.112   3.200   0.454
 7723SOL    HW124068   0.021   3.243   0.455
 7723SOL    HW224069   0.127   3.151   0.539
 7724SOL     OW24070   1.805   4.162   1.904
 7724SOL    HW124071   1.882   4.183   1.965
 7724SOL    HW224072   1.840   4.126   1.818
 7725SOL     OW24073   5.276   2.588   3.008
 7725SOL    HW124074   5.260   2.499   2.966
 7725SOL    HW224075   5.345   2.637   2.957
 7726SOL     OW24076   0.015   4.527   3.484
 7726SOL    HW124077   0.052   4.440   3.454
 7726SOL    HW224078   0.086   4.581   3.528
 7727SOL     OW24079   5.947   2.138   4.037
 7727SOL    HW124080   6.009   2.214   4.018
 7727SOL    HW224081   5.984   2.054   3.998
 7728SOL     OW24082   1.329   3.290   2.881
 7728SOL    HW124083   1.412   3.336   2.911
 7728SOL    HW224084   1.254   3.357   2.876
 7729SOL     OW24085   5.730   2.398   1.073
 7729SOL    HW124086   5.695   2.461   1.143
 7729SOL    HW224087   5.766   2.451   0.996
 7730SOL     OW24088   5.513   6.079   2.951
 7730SOL    HW124089   5.479   6.022   2.877
 7730SOL    HW224090   5.436   6.117   3.002
 7731SOL     OW24091   6.305   1.238   0.400
 7731SOL    HW124092   6.338   1.151   0.437
 7731SOL    HW224093   6.266   1.223   0.309
 7732SOL     OW24094   4.949   5.800   0.427
 7732SOL    HW124095   4.906   5.880   0.468
 7732SOL    HW224096   5.019   5.829   0.362
 7733SOL     OW24097   3.879   0.022   1.092
 7733SOL    HW124098   3.925   0.030   1.181
 7733SOL    HW224099   3.936   0.066   1.022
 7734SOL     OW24100   1.625   3.213   3.242
 7734SOL    HW124101   1.631   3.136   3.179
 7734SOL    HW224102   1.703   3.274   3.229
 7735SOL     OW24103   4.765   4.623   6.684
 7735SOL    HW124104   4.782   4.529   6.715
 7735SOL    HW224105   4.783   4.629   6.586
 7736SOL     OW24106   5.065   4.252   0.561
 7736SOL    HW124107   5.111   4.230   0.476
 7736SOL    HW224108   5.086   4.183   0.630
 7737SOL     OW24109   4.669   2.075   1.034
 7737SOL    HW124110   4.593   2.070   0.969
 7737SOL    HW224111   4.705   2.168   1.036
 7738SOL     OW24112   2.337   5.925   0.936
 7738SOL    HW124113   2.354   5.942   0.839
 7738SOL    HW224114   2.418   5.883   0.977
 7739SOL     OW24115   0.885   2.578   0.669
 7739SOL    HW124116   0.858   2.515   0.742
 7739SOL    HW224117   0.844   2.547   0.583
 7740SOL     OW24118   6.849   6.767   2.543
 7740SOL    HW124119   6.794   6.831   2.596
 7740SOL    HW224120   6.907   6.714   2.604
 7741SOL     OW24121   1.638   5.403   4.267
 7741SOL    HW124122   1.725   5.411   4.218
 7741SOL    HW224123   1.623   5.486   4.321
 7742SOL     OW24124   6.035   2.337   2.996
 7742SOL    HW124125   6.103   2.400   2.959
 7742SOL    HW224126   5.997   2.374   3.080
 7743SOL     OW24127   4.277   3.265   5.760
 7743SOL    HW124128   4.310   3.243   5.668
 7743SOL    HW224129   4.233   3.185   5.800
 7744SOL     OW24130   6.976   6.317   3.979
 7744SOL    HW124131   0.024   6.260   3.933
 7744SOL    HW224132   6.913   6.355   3.911
 7745SOL     OW24133   3.845   2.681   6.024
 7745SOL    HW124134   3.819   2.768   5.982
 7745SOL    HW224135   3.763   2.635   6.057
 7746SOL     OW24136   1.769   0.177   0.412
 7746SOL    HW124137   1.716   0.103   0.453
 7746SOL    HW224138   1.745   0.186   0.315
 7747SOL     OW24139   4.927   6.494   1.039
 7747SOL    HW124140   4.937   6.426   0.967
 7747SOL    HW224141   4.830   6.514   1.052
 7748SOL     OW24142   3.166   3.501   6.139
 7748SOL    HW124143   3.068   3.515   6.153
 7748SOL    HW224144   3.218   3.564   6.196
 7749SOL     OW24145   4.899   3.110   5.784
 7749SOL    HW124146   4.928   3.072   5.696
 7749SOL    HW224147   4.801   3.092   5.797
 7750SOL     OW24148   0.635   6.547   1.375
 7750SOL    HW124149   0.693   6.494   1.438
 7750SOL    HW224150   0.539   6.532   1.398
 7751SOL     OW24151   0.808   1.683   2.047
 7751SOL    HW124152   0.902   1.651   2.034
 7751SOL    HW224153   0.778   1.662   2.141
 7752SOL     OW24154   5.148   0.765   4.387
 7752SOL    HW124155   5.208   0.699   4.432
 7752SOL    HW224156   5.075   0.792   4.449
 7753SOL     OW24157   1.827   1.356   4.697
 7753SOL    HW124158   1.791   1.418   4.766
 7753SOL    HW224159   1.911   1.394   4.659
 7754SOL     OW24160   3.557   5.883   1.636
 7754SOL    HW124161   3.461   5.898   1.613
 7754SOL    HW224162   3.595   5.966   1.677
 7755SOL     OW24163   2.112   4.253   6.718
 7755SOL    HW124164   2.122   4.264   6.817
 7755SOL    HW224165   2.109   4.343   6.675
 7756SOL     OW24166   2.222   5.688   1.582
 7756SOL    HW124167   2.289   5.628   1.625
 7756SOL    HW224168   2.146   5.703   1.646
 7757SOL     OW24169   0.077   4.614   2.631
 7757SOL    HW124170   0.044   4.584   2.720
 7757SOL    HW224171   0.026   4.568   2.559
 7758SOL     OW24172   1.506   1.041   5.884
 7758SOL    HW124173   1.571   1.115   5.867
 7758SOL    HW224174   1.437   1.071   5.951
 7759SOL     OW24175   2.857   2.525   6.178
 7759SOL    HW124176   2.789   2.476   6.233
 7759SOL    HW224177   2.899   2.461   6.113
 7760SOL     OW24178   4.490   1.902   1.571
 7760SOL    HW124179   4.497   1.815   1.621
 7760SOL    HW224180   4.465   1.975   1.635
 7761SOL     OW24181   5.005   5.466   4.739
 7761SOL    HW124182   5.007   5.421   4.650
 7761SOL    HW224183   5.049   5.555   4.732
 7762SOL     OW24184   0.002   0.355   3.878
 7762SOL    HW124185   7.009   0.274   3.934
 7762SOL    HW224186   6.948   0.421   3.897
 7763SOL     OW24187   2.698   0.437   5.028
 7763SOL    HW124188   2.629   0.375   5.066
 7763SOL    HW224189   2.682   0.449   4.930
 7764SOL     OW24190   3.229   3.778   5.533
 7764SOL    HW124191   3.233   3.843   5.609
 7764SOL    HW224192   3.277   3.695   5.558
 7765SOL     OW24193   6.830   3.453   4.335
 7765SOL    HW124194   6.869   3.522   4.397
 7765SOL    HW224195   6.899   3.382   4.317
 7766SOL     OW24196   0.571   4.617   0.287
 7766SOL    HW124197   0.579   4.548   0.359
 7766SOL    HW224198   0.476   4.644   0.276
 7767SOL     OW24199   2.933   0.495   2.832
 7767SOL    HW124200   2.989   0.564   2.786
 7767SOL    HW224201   2.975   0.470   2.919
 7768SOL     OW24202   4.296   4.662   2.958
 7768SOL    HW124203   4.238   4.637   2.880
 7768SOL    HW224204   4.383   4.699   2.924
 7769SOL     OW24205   3.379   2.443   5.418
 7769SOL    HW124206   3.328   2.457   5.333
 7769SOL    HW224207   3.473   2.418   5.397
 7770SOL     OW24208   1.394   3.370   4.398
 7770SOL    HW124209   1.313   3.412   4.440
 7770SOL    HW224210   1.433   3.434   4.331
 7771SOL     OW24211   3.034   2.714   5.907
 7771SOL    HW124212   2.999   2.715   5.814
 7771SOL    HW224213   3.109   2.649   5.914
 7772SOL     OW24214   4.945   1.058   1.274
 7772SOL    HW124215   4.913   1.031   1.364
 7772SOL    HW224216   5.044   1.072   1.276
 7773SOL     OW24217   2.955   6.025   0.360
 7773SOL    HW124218   2.981   5.941   0.409
 7773SOL    HW224219   2.902   6.084   0.422
 7774SOL     OW24220   4.706   1.416   2.831
 7774SOL    HW124221   4.706   1.415   2.931
 7774SOL    HW224222   4.731   1.508   2.799
 7775SOL     OW24223   3.111   0.749   0.047
 7775SOL    HW124224   3.086   0.767   6.971
 7775SOL    HW224225   3.205   0.713   0.050
 7776SOL     OW24226   0.819   6.643   5.431
 7776SOL    HW124227   0.905   6.640   5.380
 7776SOL    HW224228   0.833   6.692   5.517
 7777SOL     OW24229   5.271   5.038   3.679
 7777SOL    HW124230   5.355   5.033   3.732
 7777SOL    HW224231   5.193   5.025   3.740
 7778SOL     OW24232   6.263   4.031   2.886
 7778SOL    HW124233   6.186   3.978   2.922
 7778SOL    HW224234   6.230   4.098   2.820
 7779SOL     OW24235   3.057   5.951   1.920
 7779SOL    HW124236   3.075   5.948   2.018
 7779SOL    HW224237   3.143   5.937   1.870
 7780SOL     OW24238   6.789   6.131   5.399
 7780SOL    HW124239   6.791   6.041   5.355
 7780SOL    HW224240   6.778   6.120   5.498
 7781SOL     OW24241   1.655   2.915   0.815
 7781SOL    HW124242   1.686   2.915   0.910
 7781SOL    HW224243   1.727   2.951   0.756
 7782SOL     OW24244   6.391   5.189   3.505
 7782SOL    HW124245   6.407   5.206   3.602
 7782SOL    HW224246   6.426   5.099   3.481
 7783SOL     OW24247   1.179   0.190   5.130
 7783SOL    HW124248   1.272   0.184   5.167
 7783SOL    HW224249   1.138   0.278   5.156
 7784SOL     OW24250   2.698   2.265   2.171
 7784SOL    HW124251   2.777   2.285   2.113
 7784SOL    HW224252   2.617   2.256   2.113
 7785SOL     OW24253   0.893   6.284   2.267
 7785SOL    HW124254   0.879   6.228   2.348
 7785SOL    HW224255   0.986   6.272   2.232
 7786SOL     OW24256   4.438   0.269   6.411
 7786SOL    HW124257   4.400   0.236   6.497
 7786SOL    HW224258   4.422   0.367   6.402
 7787SOL     OW24259   2.944   2.926   1.185
 7787SOL    HW124260   2.855   2.885   1.205
 7787SOL    HW224261   2.940   2.976   1.099
 7788SOL     OW24262   0.981   4.429   1.402
 7788SOL    HW124263   0.979   4.523   1.438
 7788SOL    HW224264   0.903   4.378   1.439
 7789SOL     OW24265   3.311   0.882   6.559
 7789SOL    HW124266   3.330   0.879   6.658
 7789SOL    HW224267   3.319   0.790   6.521
 7790SOL     OW24268   5.705   4.773   2.034
 7790SOL    HW124269   5.699   4.783   2.133
 7790SOL    HW224270   5.731   4.860   1.992
 7791SOL     OW24271   2.188   5.234   2.040
 7791SOL    HW124272   2.185   5.206   2.136
 7791SOL    HW224273   2.224   5.159   1.985
 7792SOL     OW24274   1.094   1.751   2.570
 7792SOL    HW124275   1.094   1.789   2.478
 7792SOL    HW224276   1.007   1.770   2.614
 7793SOL     OW24277   4.665   1.667   0.337
 7793SOL    HW124278   4.654   1.763   0.363
 7793SOL    HW224279   4.577   1.620   0.350
 7794SOL     OW24280   0.823   5.442   2.802
 7794SOL    HW124281   0.906   5.401   2.764
 7794SOL    HW224282   0.783   5.505   2.735
 7795SOL     OW24283   3.046   5.226   5.947
 7795SOL    HW124284   3.073   5.180   6.032
 7795SOL    HW224285   3.113   5.205   5.876
 7796SOL     OW24286   3.651   3.254   6.391
 7796SOL    HW124287   3.641   3.294   6.482
 7796SOL    HW224288   3.568   3.269   6.339
 7797SOL     OW24289   0.773   5.706   3.661
 7797SOL    HW124290   0.829   5.688   3.741
 7797SOL    HW224291   0.716   5.786   3.677
 7798SOL     OW24292   0.497   2.209   0.937
 7798SOL    HW124293   0.559   2.143   0.897
 7798SOL    HW224294   0.403   2.174   0.934
 7799SOL     OW24295   2.680   6.275   3.504
 7799SOL    HW124296   2.728   6.296   3.418
 7799SOL    HW224297   2.589   6.240   3.483
 7800SOL     OW24298   0.033   6.326   1.220
 7800SOL    HW124299   0.133   6.320   1.221
 7800SOL    HW224300   0.001   6.338   1.126
 7801SOL     OW24301   1.891   2.437   2.791
 7801SOL    HW124302   1.968   2.444   2.854
 7801SOL    HW224303   1.808   2.413   2.842
 7802SOL     OW24304   6.739   3.955   5.719
 7802SOL    HW124305   6.748   4.026   5.649
 7802SOL    HW224306   6.642   3.935   5.735
 7803SOL     OW24307   4.886   2.213   5.498
 7803SOL    HW124308   4.896   2.270   5.579
 7803SOL    HW224309   4.948   2.246   5.427
 7804SOL     OW24310   2.718   2.369   4.878
 7804SOL    HW124311   2.674   2.435   4.940
 7804SOL    HW224312   2.655   2.294   4.859
 7805SOL     OW24313   5.220   2.877   1.247
 7805SOL    HW124314   5.198   2.955   1.306
 7805SOL    HW224315   5.314   2.847   1.266
 7806SOL     OW24316   6.548   2.288   5.651
 7806SOL    HW124317   6.640   2.274   5.688
 7806SOL    HW224318   6.490   2.326   5.722
 7807SOL     OW24319   1.716   5.030   5.775
 7807SOL    HW124320   1.748   4.936   5.785
 7807SOL    HW224321   1.735   5.082   5.858
 7808SOL     OW24322   5.440   4.142   2.716
 7808SOL    HW124323   5.376   4.202   2.764
 7808SOL    HW224324   5.531   4.151   2.757
 7809SOL     OW24325   4.834   5.211   3.595
 7809SOL    HW124326   4.902   5.166   3.539
 7809SOL    HW224327   4.830   5.308   3.571
 7810SOL     OW24328   4.178   6.164   5.200
 7810SOL    HW124329   4.223   6.119   5.277
 7810SOL    HW224330   4.174   6.101   5.123
 7811SOL     OW24331   1.147   5.704   2.113
 7811SOL    HW124332   1.121   5.637   2.182
 7811SOL    HW224333   1.071   5.767   2.097
 7812SOL     OW24334   2.182   3.154   5.497
 7812SOL    HW124335   2.107   3.090   5.513
 7812SOL    HW224336   2.164   3.239   5.547
 7813SOL     OW24337   5.740   1.575   1.064
 7813SOL    HW124338   5.760   1.634   1.142
 7813SOL    HW224339   5.814   1.509   1.053
 7814SOL     OW24340   6.720   2.961   1.983
 7814SOL    HW124341   6.714   2.920   2.074
 7814SOL    HW224342   6.646   2.926   1.925
 7815SOL     OW24343   6.045   2.669   5.572
 7815SOL    HW124344   5.975   2.737   5.549
 7815SOL    HW224345   6.135   2.714   5.576
 7816SOL     OW24346   0.387   1.546   5.263
 7816SOL    HW124347   0.373   1.638   5.301
 7816SOL    HW224348   0.477   1.542   5.219
 7817SOL     OW24349   3.086   2.980   6.466
 7817SOL    HW124350   3.073   2.882   6.483
 7817SOL    HW224351   2.998   3.021   6.440
 7818SOL     OW24352   5.656   1.254   2.322
 7818SOL    HW124353   5.638   1.351   2.306
 7818SOL    HW224354   5.571   1.202   2.315
 7819SOL     OW24355   1.220   3.700   3.888
 7819SOL    HW124356   1.314   3.715   3.919
 7819SOL    HW224357   1.186   3.613   3.923
 7820SOL     OW24358   1.263   0.677   5.477
 7820SOL    HW124359   1.320   0.749   5.438
 7820SOL    HW224360   1.170   0.712   5.489
 7821SOL     OW24361   6.411   5.592   0.035
 7821SOL    HW124362   6.448   5.508   7.013
 7821SOL    HW224363   6.452   5.672   7.010
 7822SOL     OW24364   1.370   1.197   4.696
 7822SOL    HW124365   1.359   1.294   4.718
 7822SOL    HW224366   1.396   1.188   4.599
 7823SOL     OW24367   1.429   3.883   0.150
 7823SOL    HW124368   1.430   3.979   0.176
 7823SOL    HW224369   1.522   3.847   0.148
 7824SOL     OW24370   5.025   2.339   2.546
 7824SOL    HW124371   4.943   2.353   2.490
 7824SOL    HW224372   5.031   2.243   2.572
 7825SOL     OW24373   3.382   3.131   1.504
 7825SOL    HW124374   3.370   3.175   1.593
 7825SOL    HW224375   3.435   3.047   1.515
 7826SOL     OW24376   6.601   1.028   0.706
 7826SOL    HW124377   6.646   1.118   0.705
 7826SOL    HW224378   6.580   1.001   0.612
 7827SOL     OW24379   5.001   5.326   1.415
 7827SOL    HW124380   5.011   5.226   1.412
 7827SOL    HW224381   5.058   5.362   1.489
 7828SOL     OW24382   0.510   6.248   0.867
 7828SOL    HW124383   0.563   6.329   0.841
 7828SOL    HW224384   0.558   6.198   0.939
 7829SOL     OW24385   3.428   2.817   1.421
 7829SOL    HW124386   3.371   2.770   1.489
 7829SOL    HW224387   3.508   2.856   1.466
 7830SOL     OW24388   6.057   3.251   0.140
 7830SOL    HW124389   6.116   3.249   0.221
 7830SOL    HW224390   6.114   3.263   0.059
 7831SOL     OW24391   1.454   3.288   0.901
 7831SOL    HW124392   1.507   3.275   0.817
 7831SOL    HW224393   1.503   3.244   0.977
 7832SOL     OW24394   2.652   2.289   5.500
 7832SOL    HW124395   2.591   2.337   5.563
 7832SOL    HW224396   2.613   2.200   5.477
 7833SOL     OW24397   0.850   6.779   0.379
 7833SOL    HW124398   0.901   6.694   0.364
 7833SOL    HW224399   0.752   6.761   0.366
 7834SOL     OW24400   0.931   0.917   1.456
 7834SOL    HW124401   0.868   0.934   1.531
 7834SOL    HW224402   1.019   0.885   1.493
 7835SOL     OW24403   2.239   2.909   4.805
 7835SOL    HW124404   2.156   2.960   4.784
 7835SOL    HW224405   2.306   2.970   4.848
 7836SOL     OW24406   3.145   6.595   6.821
 7836SOL    HW124407   3.081   6.598   6.897
 7836SOL    HW224408   3.232   6.635   6.849
 7837SOL     OW24409   5.953   6.343   2.865
 7837SOL    HW124410   5.978   6.258   2.818
 7837SOL    HW224411   5.854   6.353   2.867
 7838SOL     OW24412   4.207   6.822   4.905
 7838SOL    HW124413   4.307   6.832   4.903
 7838SOL    HW224414   4.169   6.841   4.815
 7839SOL     OW24415   5.951   4.809   4.785
 7839SOL    HW124416   6.043   4.839   4.811
 7839SOL    HW224417   5.897   4.791   4.867
 7840SOL     OW24418   5.130   3.000   4.076
 7840SOL    HW124419   5.036   2.967   4.064
 7840SOL    HW224420   5.192   2.939   4.027
 7841SOL     OW24421   0.280   1.919   6.244
 7841SOL    HW124422   0.260   1.845   6.308
 7841SOL    HW224423   0.297   1.881   6.153
 7842SOL     OW24424   2.354   1.525   2.798
 7842SOL    HW124425   2.270   1.575   2.819
 7842SOL    HW224426   2.418   1.586   2.750
 7843SOL     OW24427   5.835   3.925   1.282
 7843SOL    HW124428   5.856   4.020   1.258
 7843SOL    HW224429   5.747   3.922   1.331
 7844SOL     OW24430   3.793   0.765   3.422
 7844SOL    HW124431   3.826   0.753   3.328
 7844SOL    HW224432   3.785   0.676   3.466
 7845SOL     OW24433   6.587   1.231   4.343
 7845SOL    HW124434   6.583   1.293   4.264
 7845SOL    HW224435   6.564   1.138   4.314
 7846SOL     OW24436   2.367   0.296   1.490
 7846SOL    HW124437   2.406   0.387   1.495
 7846SOL    HW224438   2.415   0.235   1.554
 7847SOL     OW24439   6.789   0.248   0.282
 7847SOL    HW124440   6.727   0.283   0.353
 7847SOL    HW224441   6.773   0.296   0.196
 7848SOL     OW24442   4.344   3.856   1.596
 7848SOL    HW124443   4.274   3.884   1.530
 7848SOL    HW224444   4.362   3.932   1.659
 7849SOL     OW24445   5.331   2.843   4.579
 7849SOL    HW124446   5.403   2.894   4.532
 7849SOL    HW224447   5.253   2.903   4.595
 7850SOL     OW24448   0.278   0.969   5.593
 7850SOL    HW124449   0.255   0.982   5.690
 7850SOL    HW224450   0.238   1.043   5.539
 7851SOL     OW24451   5.624   0.584   0.294
 7851SOL    HW124452   5.534   0.558   0.329
 7851SOL    HW224453   5.629   0.563   0.197
 7852SOL     OW24454   3.034   6.497   0.032
 7852SOL    HW124455   3.102   6.506   0.105
 7852SOL    HW224456   3.039   6.404   7.013
 7853SOL     OW24457   2.848   2.850   0.526
 7853SOL    HW124458   2.936   2.828   0.485
 7853SOL    HW224459   2.859   2.865   0.624
 7854SOL     OW24460   3.563   3.795   2.340
 7854SOL    HW124461   3.609   3.746   2.266
 7854SOL    HW224462   3.600   3.888   2.345
 7855SOL     OW24463   4.590   5.482   6.736
 7855SOL    HW124464   4.676   5.530   6.753
 7855SOL    HW224465   4.578   5.410   6.804
 7856SOL     OW24466   5.418   3.585   5.270
 7856SOL    HW124467   5.494   3.552   5.213
 7856SOL    HW224468   5.340   3.523   5.260
 7857SOL     OW24469   5.979   1.711   5.889
 7857SOL    HW124470   5.931   1.646   5.829
 7857SOL    HW224471   5.918   1.787   5.910
 7858SOL     OW24472   5.994   3.954   3.268
 7858SOL    HW124473   5.916   3.893   3.278
 7858SOL    HW224474   5.962   4.045   3.241
 7859SOL     OW24475   1.114   4.690   5.930
 7859SOL    HW124476   1.036   4.648   5.976
 7859SOL    HW224477   1.198   4.666   5.979
 7860SOL     OW24478   3.832   6.948   1.571
 7860SOL    HW124479   3.756   6.913   1.516
 7860SOL    HW224480   3.901   6.877   1.582
 7861SOL     OW24481   4.226   5.006   1.150
 7861SOL    HW124482   4.227   5.102   1.177
 7861SOL    HW224483   4.135   4.968   1.167
 7862SOL     OW24484   2.923   4.139   1.763
 7862SOL    HW124485   2.994   4.197   1.723
 7862SOL    HW224486   2.848   4.196   1.796
 7863SOL     OW24487   6.286   5.939   1.787
 7863SOL    HW124488   6.194   5.966   1.817
 7863SOL    HW224489   6.329   6.016   1.740
 7864SOL     OW24490   0.682   5.724   4.644
 7864SOL    HW124491   0.666   5.822   4.630
 7864SOL    HW224492   0.771   5.699   4.608
 7865SOL     OW24493   3.544   6.327   3.365
 7865SOL    HW124494   3.545   6.422   3.393
 7865SOL    HW224495   3.559   6.321   3.266
 7866SOL     OW24496   2.822   1.826   3.402
 7866SOL    HW124497   2.859   1.834   3.494
 7866SOL    HW224498   2.815   1.917   3.360
 7867SOL     OW24499   6.498   5.429   2.290
 7867SOL    HW124500   6.502   5.387   2.199
 7867SOL    HW224501   6.494   5.528   2.281
 7868SOL     OW24502   5.336   6.194   1.020
 7868SOL    HW124503   5.288   6.149   1.096
 7868SOL    HW224504   5.310   6.290   1.016
 7869SOL     OW24505   0.307   2.851   2.012
 7869SOL    HW124506   0.214   2.816   2.001
 7869SOL    HW224507   0.348   2.865   1.922
 7870SOL     OW24508   6.549   5.352   3.754
 7870SOL    HW124509   6.631   5.296   3.756
 7870SOL    HW224510   6.541   5.402   3.840
 7871SOL     OW24511   5.990   2.664   2.851
 7871SOL    HW124512   5.935   2.638   2.771
 7871SOL    HW224513   5.934   2.718   2.914
 7872SOL     OW24514   0.131   3.279   2.837
 7872SOL    HW124515   0.094   3.207   2.895
 7872SOL    HW224516   0.062   3.309   2.773
 7873SOL     OW24517   0.282   6.172   6.013
 7873SOL    HW124518   0.199   6.227   6.010
 7873SOL    HW224519   0.331   6.189   6.098
 7874SOL     OW24520   5.857   1.645   0.247
 7874SOL    HW124521   5.822   1.737   0.262
 7874SOL    HW224522   5.818   1.583   0.316
 7875SOL     OW24523   4.664   3.695   6.243
 7875SOL    HW124524   4.593   3.657   6.303
 7875SOL    HW224525   4.625   3.769   6.189
 7876SOL     OW24526   6.722   6.958   3.922
 7876SOL    HW124527   6.627   6.991   3.921
 7876SOL    HW224528   6.762   6.975   4.012
 7877SOL     OW24529   6.858   2.605   2.938
 7877SOL    HW124530   6.899   2.646   3.019
 7877SOL    HW224531   6.929   2.563   2.882
 7878SOL     OW24532   4.690   4.233   2.468
 7878SOL    HW124533   4.643   4.233   2.379
 7878SOL    HW224534   4.784   4.203   2.456
 7879SOL     OW24535   5.138   6.718   3.590
 7879SOL    HW124536   5.060   6.716   3.653
 7879SOL    HW224537   5.181   6.808   3.593
 7880SOL     OW24538   0.511   6.201   6.736
 7880SOL    HW124539   0.508   6.207   6.637
 7880SOL    HW224540   0.546   6.111   6.764
 7881SOL     OW24541   0.227   4.091   5.380
 7881SOL    HW124542   0.242   4.004   5.427
 7881SOL    HW224543   0.263   4.084   5.287
 7882SOL     OW24544   0.604   3.149   2.772
 7882SOL    HW124545   0.546   3.106   2.703
 7882SOL    HW224546   0.547   3.186   2.845
 7883SOL     OW24547   2.520   0.957   3.026
 7883SOL    HW124548   2.546   1.047   3.061
 7883SOL    HW224549   2.488   0.967   2.931
 7884SOL     OW24550   1.551   4.321   3.522
 7884SOL    HW124551   1.572   4.349   3.616
 7884SOL    HW224552   1.622   4.259   3.489
 7885SOL     OW24553   5.724   5.626   3.116
 7885SOL    HW124554   5.791   5.589   3.052
 7885SOL    HW224555   5.726   5.726   3.112
 7886SOL     OW24556   4.822   2.994   1.728
 7886SOL    HW124557   4.788   3.030   1.641
 7886SOL    HW224558   4.773   3.036   1.804
 7887SOL     OW24559   4.158   3.431   0.189
 7887SOL    HW124560   4.120   3.515   0.228
 7887SOL    HW224561   4.187   3.448   0.095
 7888SOL     OW24562   6.110   1.315   4.163
 7888SOL    HW124563   6.195   1.272   4.193
 7888SOL    HW224564   6.051   1.332   4.242
 7889SOL     OW24565   5.354   5.107   0.538
 7889SOL    HW124566   5.428   5.040   0.532
 7889SOL    HW224567   5.381   5.182   0.599
 7890SOL     OW24568   1.137   2.922   3.916
 7890SOL    HW124569   1.068   2.854   3.941
 7890SOL    HW224570   1.127   3.003   3.974
 7891SOL     OW24571   0.154   1.856   4.224
 7891SOL    HW124572   0.164   1.955   4.213
 7891SOL    HW224573   0.149   1.813   4.134
 7892SOL     OW24574   1.410   3.414   5.764
 7892SOL    HW124575   1.488   3.371   5.810
 7892SOL    HW224576   1.423   3.408   5.665
 7893SOL     OW24577   5.879   0.481   2.065
 7893SOL    HW124578   5.865   0.387   2.035
 7893SOL    HW224579   5.972   0.510   2.042
 7894SOL     OW24580   2.697   1.438   6.042
 7894SOL    HW124581   2.744   1.433   6.130
 7894SOL    HW224582   2.718   1.526   5.998
 7895SOL     OW24583   3.950   6.131   3.439
 7895SOL    HW124584   3.912   6.122   3.531
 7895SOL    HW224585   3.913   6.059   3.381
 7896SOL     OW24586   4.060   2.569   1.697
 7896SOL    HW124587   4.151   2.607   1.685
 7896SOL    HW224588   3.992   2.640   1.679
 7897SOL     OW24589   3.968   4.126   6.447
 7897SOL    HW124590   3.880   4.149   6.489
 7897SOL    HW224591   4.027   4.083   6.516
 7898SOL     OW24592   5.026   0.335   4.456
 7898SOL    HW124593   5.000   0.318   4.362
 7898SOL    HW224594   5.036   0.248   4.505
 7899SOL     OW24595   5.040   5.037   1.354
 7899SOL    HW124596   5.043   4.950   1.306
 7899SOL    HW224597   5.062   5.023   1.451
 7900SOL     OW24598   0.436   3.875   0.765
 7900SOL    HW124599   0.496   3.899   0.840
 7900SOL    HW224600   0.432   3.776   0.755
 7901SOL     OW24601   5.252   1.072   6.153
 7901SOL    HW124602   5.233   1.032   6.242
 7901SOL    HW224603   5.190   1.033   6.085
 7902SOL     OW24604   0.654   6.178   2.696
 7902SOL    HW124605   0.584   6.144   2.758
 7902SOL    HW224606   0.610   6.213   2.613
 7903SOL     OW24607   2.421   1.573   4.693
 7903SOL    HW124608   2.389   1.666   4.711
 7903SOL    HW224609   2.375   1.537   4.611
 7904SOL     OW24610   6.204   0.782   2.410
 7904SOL    HW124611   6.130   0.806   2.474
 7904SOL    HW224612   6.287   0.763   2.461
 7905SOL     OW24613   5.611   1.011   0.458
 7905SOL    HW124614   5.679   1.084   0.459
 7905SOL    HW224615   5.581   0.996   0.363
 7906SOL     OW24616   1.335   5.178   1.048
 7906SOL    HW124617   1.354   5.276   1.055
 7906SOL    HW224618   1.280   5.160   0.966
 7907SOL     OW24619   6.173   0.204   2.763
 7907SOL    HW124620   6.117   0.123   2.749
 7907SOL    HW224621   6.127   0.266   2.827
 7908SOL     OW24622   0.687   0.748   6.678
 7908SOL    HW124623   0.618   0.763   6.749
 7908SOL    HW224624   0.689   0.826   6.616
 7909SOL     OW24625   5.694   3.695   2.436
 7909SOL    HW124626   5.655   3.711   2.527
 7909SOL    HW224627   5.622   3.666   2.374
 7910SOL     OW24628   2.020   3.939   0.986
 7910SOL    HW124629   2.050   3.907   1.075
 7910SOL    HW224630   1.953   3.875   0.948
 7911SOL     OW24631   0.850   3.975   0.902
 7911SOL    HW124632   0.816   3.908   0.836
 7911SOL    HW224633   0.950   3.973   0.904
 7912SOL     OW24634   5.254   5.587   0.389
 7912SOL    HW124635   5.352   5.578   0.377
 7912SOL    HW224636   5.235   5.652   0.463
 7913SOL     OW24637   0.140   3.407   0.943
 7913SOL    HW124638   0.120   3.498   0.907
 7913SOL    HW224639   0.117   3.337   0.875
 7914SOL     OW24640   6.230   5.495   5.123
 7914SOL    HW124641   6.149   5.504   5.180
 7914SOL    HW224642   6.224   5.559   5.046
 7915SOL     OW24643   3.669   6.891   2.674
 7915SOL    HW124644   3.712   6.803   2.656
 7915SOL    HW224645   3.736   6.965   2.660
 7916SOL     OW24646   1.169   0.278   4.868
 7916SOL    HW124647   1.251   0.322   4.830
 7916SOL    HW224648   1.182   0.263   4.966
 7917SOL     OW24649   3.936   2.597   0.053
 7917SOL    HW124650   3.991   2.555   7.000
 7917SOL    HW224651   3.997   2.630   0.126
 7918SOL     OW24652   2.053   0.845   4.929
 7918SOL    HW124653   2.078   0.766   4.984
 7918SOL    HW224654   2.135   0.885   4.887
 7919SOL     OW24655   1.003   5.196   3.199
 7919SOL    HW124656   1.068   5.140   3.252
 7919SOL    HW224657   0.963   5.266   3.259
 7920SOL     OW24658   4.608   0.612   1.220
 7920SOL    HW124659   4.672   0.687   1.204
 7920SOL    HW224660   4.565   0.624   1.310
 7921SOL     OW24661   5.135   1.794   1.920
 7921SOL    HW124662   5.133   1.741   1.835
 7921SOL    HW224663   5.051   1.777   1.971
 7922SOL     OW24664   0.728   6.112   0.342
 7922SOL    HW124665   0.756   6.195   0.390
 7922SOL    HW224666   0.775   6.106   0.254
 7923SOL     OW24667   3.810   1.502   6.817
 7923SOL    HW124668   3.749   1.576   6.785
 7923SOL    HW224669   3.754   1.426   6.850
 7924SOL     OW24670   5.799   6.462   1.427
 7924SOL    HW124671   5.881   6.404   1.434
 7924SOL    HW224672   5.812   6.529   1.354
 7925SOL     OW24673   2.577   6.367   0.872
 7925SOL    HW124674   2.613   6.455   0.900
 7925SOL    HW224675   2.651   6.311   0.834
 7926SOL     OW24676   5.535   0.426   6.368
 7926SOL    HW124677   5.545   0.503   6.431
 7926SOL    HW224678   5.577   0.345   6.409
 7927SOL     OW24679   4.890   0.178   2.520
 7927SOL    HW124680   4.962   0.109   2.510
 7927SOL    HW224681   4.802   0.132   2.531
 7928SOL     OW24682   6.828   0.827   2.929
 7928SOL    HW124683   6.768   0.895   2.887
 7928SOL    HW224684   6.921   0.838   2.891
 7929SOL     OW24685   4.556   3.917   6.121
 7929SOL    HW124686   4.597   3.944   6.034
 7929SOL    HW224687   4.459   3.895   6.107
 7930SOL     OW24688   3.923   5.994   5.553
 7930SOL    HW124689   3.937   5.931   5.476
 7930SOL    HW224690   4.008   6.043   5.572
 7931SOL     OW24691   2.809   2.451   0.548
 7931SOL    HW124692   2.870   2.451   0.469
 7931SOL    HW224693   2.714   2.460   0.516
 7932SOL     OW24694   6.950   5.213   1.505
 7932SOL    HW124695   6.861   5.193   1.463
 7932SOL    HW224696   7.012   5.249   1.437
 7933SOL     OW24697   6.617   1.483   5.979
 7933SOL    HW124698   6.576   1.555   5.922
 7933SOL    HW224699   6.670   1.525   6.052
 7934SOL     OW24700   1.522   4.325   0.948
 7934SOL    HW124701   1.569   4.273   1.019
 7934SOL    HW224702   1.566   4.309   0.860
 7935SOL     OW24703   5.555   3.806   2.675
 7935SOL    HW124704   5.469   3.804   2.727
 7935SOL    HW224705   5.630   3.778   2.735
 7936SOL     OW24706   3.755   6.518   3.913
 7936SOL    HW124707   3.827   6.510   3.844
 7936SOL    HW224708   3.736   6.615   3.929
 7937SOL     OW24709   2.361   5.976   5.541
 7937SOL    HW124710   2.459   5.990   5.554
 7937SOL    HW224711   2.311   6.024   5.613
 7938SOL     OW24712   4.481   6.835   4.869
 7938SOL    HW124713   4.565   6.880   4.900
 7938SOL    HW224714   4.479   6.832   4.769
 7939SOL     OW24715   0.657   1.878   5.029
 7939SOL    HW124716   0.740   1.898   4.975
 7939SOL    HW224717   0.580   1.930   4.992
 7940SOL     OW24718   4.766   1.672   2.744
 7940SOL    HW124719   4.830   1.686   2.820
 7940SOL    HW224720   4.794   1.730   2.667
 7941SOL     OW24721   4.110   6.444   2.059
 7941SOL    HW124722   4.109   6.350   2.093
 7941SOL    HW224723   4.108   6.444   1.959
 7942SOL     OW24724   0.710   2.892   1.731
 7942SOL    HW124725   0.627   2.905   1.786
 7942SOL    HW224726   0.698   2.814   1.670
 7943SOL     OW24727   2.247   5.331   6.125
 7943SOL    HW124728   2.184   5.316   6.202
 7943SOL    HW224729   2.201   5.306   6.040
 7944SOL     OW24730   0.609   2.830   1.232
 7944SOL    HW124731   0.568   2.739   1.234
 7944SOL    HW224732   0.629   2.855   1.137
 7945SOL     OW24733   5.887   5.101   2.744
 7945SOL    HW124734   5.897   5.193   2.783
 7945SOL    HW224735   5.798   5.064   2.769
 7946SOL     OW24736   4.202   0.692   5.548
 7946SOL    HW124737   4.234   0.657   5.637
 7946SOL    HW224738   4.237   0.634   5.475
 7947SOL     OW24739   1.196   2.836   5.391
 7947SOL    HW124740   1.157   2.885   5.469
 7947SOL    HW224741   1.220   2.743   5.418
 7948SOL     OW24742   1.560   4.704   2.677
 7948SOL    HW124743   1.527   4.793   2.710
 7948SOL    HW224744   1.482   4.650   2.646
 7949SOL     OW24745   4.458   5.148   6.144
 7949SOL    HW124746   4.432   5.068   6.090
 7949SOL    HW224747   4.386   5.217   6.138
 7950SOL     OW24748   6.194   5.639   5.491
 7950SOL    HW124749   6.170   5.545   5.518
 7950SOL    HW224750   6.200   5.644   5.391
 7951SOL     OW24751   2.922   5.394   2.495
 7951SOL    HW124752   2.825   5.378   2.479
 7951SOL    HW224753   2.974   5.370   2.413
 7952SOL     OW24754   5.847   3.466   0.398
 7952SOL    HW124755   5.919   3.436   0.335
 7952SOL    HW224756   5.888   3.517   0.474
 7953SOL     OW24757   3.931   1.936   0.448
 7953SOL    HW124758   4.018   1.911   0.490
 7953SOL    HW224759   3.867   1.966   0.519
 7954SOL     OW24760   3.669   3.190   6.897
 7954SOL    HW124761   3.753   3.238   6.875
 7954SOL    HW224762   3.664   3.176   6.996
 7955SOL     OW24763   1.537   1.432   6.691
 7955SOL    HW124764   1.565   1.432   6.595
 7955SOL    HW224765   1.606   1.482   6.745
 7956SOL     OW24766   6.423   0.870   1.676
 7956SOL    HW124767   6.367   0.933   1.731
 7956SOL    HW224768   6.363   0.818   1.614
 7957SOL     OW24769   4.705   0.516   5.400
 7957SOL    HW124770   4.785   0.554   5.445
 7957SOL    HW224771   4.648   0.468   5.467
 7958SOL     OW24772   5.725   3.742   6.839
 7958SOL    HW124773   5.688   3.650   6.824
 7958SOL    HW224774   5.762   3.777   6.753
 7959SOL     OW24775   4.896   1.105   6.243
 7959SOL    HW124776   4.973   1.051   6.210
 7959SOL    HW224777   4.928   1.176   6.306
 7960SOL     OW24778   6.590   0.948   6.631
 7960SOL    HW124779   6.500   0.985   6.654
 7960SOL    HW224780   6.653   1.022   6.609
 7961SOL     OW24781   6.205   6.851   6.749
 7961SOL    HW124782   6.118   6.805   6.730
 7961SOL    HW224783   6.246   6.814   6.832
 7962SOL     OW24784   6.516   0.040   5.716
 7962SOL    HW124785   6.482   0.090   5.795
 7962SOL    HW224786   6.545   6.968   5.744
 7963SOL     OW24787   6.044   4.291   4.449
 7963SOL    HW124788   6.067   4.374   4.398
 7963SOL    HW224789   6.083   4.297   4.541
 7964SOL     OW24790   6.651   3.394   1.762
 7964SOL    HW124791   6.714   3.436   1.696
 7964SOL    HW224792   6.629   3.461   1.833
 7965SOL     OW24793   4.459   1.973   6.758
 7965SOL    HW124794   4.554   1.948   6.742
 7965SOL    HW224795   4.404   1.891   6.767
 7966SOL     OW24796   4.022   4.304   5.314
 7966SOL    HW124797   3.930   4.315   5.277
 7966SOL    HW224798   4.089   4.309   5.240
 7967SOL     OW24799   1.586   5.373   2.241
 7967SOL    HW124800   1.660   5.308   2.255
 7967SOL    HW224801   1.562   5.415   2.329
 7968SOL     OW24802   6.604   1.931   4.387
 7968SOL    HW124803   6.597   1.833   4.368
 7968SOL    HW224804   6.547   1.982   4.322
 7969SOL     OW24805   4.541   6.044   6.918
 7969SOL    HW124806   4.583   5.967   6.870
 7969SOL    HW224807   4.608   6.087   6.978
 7970SOL     OW24808   6.615   2.915   2.523
 7970SOL    HW124809   6.522   2.890   2.497
 7970SOL    HW224810   6.639   2.871   2.609
 7971SOL     OW24811   3.207   1.445   1.116
 7971SOL    HW124812   3.266   1.526   1.118
 7971SOL    HW224813   3.263   1.364   1.104
 7972SOL     OW24814   3.965   3.069   2.839
 7972SOL    HW124815   3.945   3.015   2.921
 7972SOL    HW224816   3.950   3.014   2.758
 7973SOL     OW24817   6.250   3.879   3.288
 7973SOL    HW124818   6.151   3.878   3.301
 7973SOL    HW224819   6.284   3.972   3.301
 7974SOL     OW24820   6.106   1.449   5.518
 7974SOL    HW124821   6.130   1.546   5.524
 7974SOL    HW224822   6.146   1.401   5.597
 7975SOL     OW24823   4.820   1.806   0.623
 7975SOL    HW124824   4.748   1.858   0.578
 7975SOL    HW224825   4.808   1.812   0.723
 7976SOL     OW24826   1.550   6.738   6.908
 7976SOL    HW124827   1.555   6.834   6.937
 7976SOL    HW224828   1.626   6.687   6.948
 7977SOL     OW24829   5.521   6.263   3.315
 7977SOL    HW124830   5.446   6.307   3.365
 7977SOL    HW224831   5.595   6.329   3.301
 7978SOL     OW24832   0.445   4.135   1.334
 7978SOL    HW124833   0.430   4.186   1.419
 7978SOL    HW224834   0.514   4.182   1.279
 7979SOL     OW24835   1.883   3.506   4.681
 7979SOL    HW124836   1.822   3.582   4.656
 7979SOL    HW224837   1.958   3.541   4.738
 7980SOL     OW24838   3.436   4.642   5.871
 7980SOL    HW124839   3.432   4.593   5.784
 7980SOL    HW224840   3.531   4.660   5.895
 7981SOL     OW24841   1.762   5.267   3.401
 7981SOL    HW124842   1.692   5.197   3.405
 7981SOL    HW224843   1.722   5.356   3.422
 7982SOL     OW24844   1.662   1.663   6.182
 7982SOL    HW124845   1.636   1.583   6.127
 7982SOL    HW224846   1.600   1.671   6.260
 7983SOL     OW24847   5.152   1.304   0.981
 7983SOL    HW124848   5.201   1.227   1.021
 7983SOL    HW224849   5.204   1.388   0.996
 7984SOL     OW24850   0.834   1.479   1.424
 7984SOL    HW124851   0.846   1.579   1.425
 7984SOL    HW224852   0.855   1.445   1.332
 7985SOL     OW24853   2.434   2.433   5.591
 7985SOL    HW124854   2.443   2.524   5.551
 7985SOL    HW224855   2.384   2.439   5.677
 7986SOL     OW24856   3.395   1.295   4.067
 7986SOL    HW124857   3.439   1.267   4.153
 7986SOL    HW224858   3.464   1.338   4.008
 7987SOL     OW24859   1.361   3.889   1.022
 7987SOL    HW124860   1.387   3.792   1.019
 7987SOL    HW224861   1.364   3.922   1.117
 7988SOL     OW24862   6.980   1.303   1.681
 7988SOL    HW124863   6.978   1.207   1.652
 7988SOL    HW224864   0.001   1.310   1.772
 7989SOL     OW24865   1.214   4.281   0.527
 7989SOL    HW124866   1.262   4.207   0.574
 7989SOL    HW224867   1.171   4.341   0.594
 7990SOL     OW24868   2.464   6.518   5.174
 7990SOL    HW124869   2.408   6.449   5.127
 7990SOL    HW224870   2.547   6.535   5.121
 7991SOL     OW24871   5.214   1.683   4.864
 7991SOL    HW124872   5.307   1.654   4.885
 7991SOL    HW224873   5.151   1.606   4.874
 7992SOL     OW24874   1.742   0.656   0.639
 7992SOL    HW124875   1.711   0.561   0.636
 7992SOL    HW224876   1.830   0.664   0.593
 7993SOL     OW24877   6.991   6.696   1.427
 7993SOL    HW124878   7.002   6.620   1.490
 7993SOL    HW224879   0.016   6.675   1.340
 7994SOL     OW24880   5.386   0.601   3.431
 7994SOL    HW124881   5.314   0.630   3.367
 7994SOL    HW224882   5.386   0.501   3.437
 7995SOL     OW24883   6.670   4.511   2.246
 7995SOL    HW124884   6.600   4.450   2.208
 7995SOL    HW224885   6.651   4.605   2.219
 7996SOL     OW24886   4.125   0.032   3.248
 7996SOL    HW124887   4.033   0.027   3.287
 7996SOL    HW224888   4.133   0.113   3.191
 7997SOL     OW24889   0.974   1.899   6.780
 7997SOL    HW124890   0.891   1.951   6.763
 7997SOL    HW224891   0.979   1.873   6.877
 7998SOL     OW24892   2.812   0.542   0.200
 7998SOL    HW124893   2.803   0.443   0.197
 7998SOL    HW224894   2.748   0.583   0.135
 7999SOL     OW24895   1.248   1.829   5.415
 7999SOL    HW124896   1.287   1.756   5.358
 7999SOL    HW224897   1.196   1.891   5.358
 8000SOL     OW24898   5.837   6.390   6.484
 8000SOL    HW124899   5.804   6.296   6.472
 8000SOL    HW224900   5.812   6.423   6.575
 8001SOL     OW24901   5.083   0.472   0.832
 8001SOL    HW124902   5.180   0.451   0.843
 8001SOL    HW224903   5.053   0.531   0.907
 8002SOL     OW24904   0.432   0.700   6.001
 8002SOL    HW124905   0.343   0.688   5.957
 8002SOL    HW224906   0.460   0.795   5.995
 8003SOL     OW24907   1.944   6.606   2.756
 8003SOL    HW124908   1.960   6.700   2.726
 8003SOL    HW224909   2.016   6.547   2.721
 8004SOL     OW24910   1.459   2.577   3.629
 8004SOL    HW124911   1.376   2.531   3.662
 8004SOL    HW224912   1.435   2.636   3.552
 8005SOL     OW24913   2.340   0.102   3.488
 8005SOL    HW124914   2.406   0.176   3.472
 8005SOL    HW224915   2.364   0.024   3.431
 8006SOL     OW24916   3.724   5.540   4.815
 8006SOL    HW124917   3.744   5.577   4.724
 8006SOL    HW224918   3.626   5.521   4.822
 8007SOL     OW24919   6.245   1.652   6.427
 8007SOL    HW124920   6.260   1.580   6.359
 8007SOL    HW224921   6.277   1.740   6.390
 8008SOL     OW24922   4.220   6.592   0.074
 8008SOL    HW124923   4.203   6.604   6.995
 8008SOL    HW224924   4.318   6.586   0.091
 8009SOL     OW24925   5.001   1.441   0.793
 8009SOL    HW124926   5.039   1.394   0.873
 8009SOL    HW224927   4.903   1.421   0.787
 8010SOL     OW24928   2.603   2.677   5.284
 8010SOL    HW124929   2.644   2.749   5.341
 8010SOL    HW224930   2.649   2.590   5.302
 8011SOL     OW24931   3.472   2.051   1.976
 8011SOL    HW124932   3.553   2.081   2.027
 8011SOL    HW224933   3.500   2.017   1.886
 8012SOL     OW24934   1.135   3.102   5.617
 8012SOL    HW124935   1.198   3.092   5.540
 8012SOL    HW224936   1.184   3.141   5.695
 8013SOL     OW24937   1.585   2.277   3.434
 8013SOL    HW124938   1.508   2.336   3.460
 8013SOL    HW224939   1.671   2.319   3.464
 8014SOL     OW24940   1.901   0.743   3.370
 8014SOL    HW124941   1.942   0.830   3.340
 8014SOL    HW224942   1.816   0.762   3.419
 8015SOL     OW24943   1.737   0.314   5.702
 8015SOL    HW124944   1.745   0.346   5.797
 8015SOL    HW224945   1.682   0.231   5.700
 8016SOL     OW24946   4.263   1.623   5.639
 8016SOL    HW124947   4.343   1.563   5.633
 8016SOL    HW224948   4.238   1.654   5.547
 8017SOL     OW24949   6.965   0.025   0.334
 8017SOL    HW124950   6.952   0.026   0.433
 8017SOL    HW224951   6.906   0.094   0.292
 8018SOL     OW24952   3.965   2.219   0.221
 8018SOL    HW124953   3.974   2.120   0.225
 8018SOL    HW224954   4.035   2.261   0.280
 8019SOL     OW24955   3.431   3.345   1.104
 8019SOL    HW124956   3.356   3.282   1.085
 8019SOL    HW224957   3.431   3.368   1.201
 8020SOL     OW24958   6.479   0.291   4.677
 8020SOL    HW124959   6.567   0.325   4.711
 8020SOL    HW224960   6.492   0.202   4.635
 8021SOL     OW24961   1.721   2.268   2.191
 8021SOL    HW124962   1.782   2.269   2.270
 8021SOL    HW224963   1.775   2.256   2.108
 8022SOL     OW24964   5.573   1.252   1.999
 8022SOL    HW124965   5.673   1.248   2.008
 8022SOL    HW224966   5.536   1.159   1.995
 8023SOL     OW24967   5.315   6.303   3.472
 8023SOL    HW124968   5.319   6.333   3.567
 8023SOL    HW224969   5.220   6.307   3.440
 8024SOL     OW24970   1.821   6.437   6.429
 8024SOL    HW124971   1.889   6.429   6.355
 8024SOL    HW224972   1.744   6.377   6.410
 8025SOL     OW24973   1.738   4.633   1.999
 8025SOL    HW124974   1.727   4.733   1.995
 8025SOL    HW224975   1.655   4.593   2.038
 8026SOL     OW24976   0.288   4.564   0.256
 8026SOL    HW124977   0.217   4.614   0.207
 8026SOL    HW224978   0.257   4.545   0.349
 8027SOL     OW24979   4.166   6.454   6.014
 8027SOL    HW124980   4.127   6.364   6.038
 8027SOL    HW224981   4.106   6.499   5.949
 8028SOL     OW24982   3.431   5.645   4.185
 8028SOL    HW124983   3.353   5.591   4.214
 8028SOL    HW224984   3.414   5.742   4.204
 8029SOL     OW24985   6.222   1.216   1.427
 8029SOL    HW124986   6.160   1.137   1.425
 8029SOL    HW224987   6.287   1.208   1.351
 8030SOL     OW24988   5.708   4.947   0.979
 8030SOL    HW124989   5.771   4.877   0.944
 8030SOL    HW224990   5.616   4.929   0.945
 8031SOL     OW24991   5.762   0.473   2.637
 8031SOL    HW124992   5.830   0.519   2.694
 8031SOL    HW224993   5.802   0.391   2.597
 8032SOL     OW24994   5.195   3.111   1.382
 8032SOL    HW124995   5.154   3.187   1.332
 8032SOL    HW224996   5.196   3.132   1.480
 8033SOL     OW24997   3.731   4.116   0.535
 8033SOL    HW124998   3.799   4.043   0.536
 8033SOL    HW224999   3.775   4.203   0.558
 8034SOL     OW25000   5.734   0.183   4.800
 8034SOL    HW125001   5.765   0.241   4.725
 8034SOL    HW225002   5.766   0.220   4.887
 8035SOL     OW25003   4.469   1.088   2.874
 8035SOL    HW125004   4.463   1.023   2.950
 8035SOL    HW225005   4.555   1.138   2.879
 8036SOL     OW25006   6.870   2.590   4.109
 8036SOL    HW125007   6.916   2.625   4.191
 8036SOL    HW225008   6.937   2.548   4.048
 8037SOL     OW25009   1.153   2.823   6.506
 8037SOL    HW125010   1.226   2.770   6.549
 8037SOL    HW225011   1.066   2.801   6.550
 8038SOL     OW25012   6.048   6.416   2.455
 8038SOL    HW125013   6.028   6.504   2.499
 8038SOL    HW225014   5.984   6.402   2.379
 8039SOL     OW25015   0.864   2.417   5.472
 8039SOL    HW125016   0.774   2.422   5.517
 8039SOL    HW225017   0.914   2.338   5.509
 8040SOL     OW25018   1.595   6.049   5.480
 8040SOL    HW125019   1.651   6.095   5.412
 8040SOL    HW225020   1.586   5.953   5.457
 8041SOL     OW25021   3.369   1.317   2.964
 8041SOL    HW125022   3.282   1.367   2.970
 8041SOL    HW225023   3.434   1.355   3.030
 8042SOL     OW25024   4.293   4.290   5.925
 8042SOL    HW125025   4.275   4.231   6.004
 8042SOL    HW225026   4.358   4.244   5.864
 8043SOL     OW25027   4.812   4.615   1.400
 8043SOL    HW125028   4.738   4.549   1.390
 8043SOL    HW225029   4.821   4.640   1.497
 8044SOL     OW25030   3.944   3.571   1.364
 8044SOL    HW125031   3.855   3.551   1.324
 8044SOL    HW225032   4.016   3.548   1.299
 8045SOL     OW25033   0.423   0.730   2.814
 8045SOL    HW125034   0.478   0.724   2.730
 8045SOL    HW225035   0.483   0.726   2.893
 8046SOL     OW25036   0.413   5.519   2.127
 8046SOL    HW125037   0.403   5.534   2.226
 8046SOL    HW225038   0.323   5.505   2.086
 8047SOL     OW25039   3.868   6.904   6.213
 8047SOL    HW125040   3.948   6.887   6.155
 8047SOL    HW225041   3.812   6.975   6.171
 8048SOL     OW25042   3.381   3.592   0.329
 8048SOL    HW125043   3.432   3.672   0.362
 8048SOL    HW225044   3.301   3.578   0.388
 8049SOL     OW25045   1.529   0.028   0.705
 8049SOL    HW125046   1.580   0.111   0.727
 8049SOL    HW225047   1.456   0.015   0.773
 8050SOL     OW25048   1.474   4.025   4.356
 8050SOL    HW125049   1.429   4.041   4.268
 8050SOL    HW225050   1.514   3.933   4.357
 8051SOL     OW25051   4.628   6.153   4.398
 8051SOL    HW125052   4.529   6.144   4.406
 8051SOL    HW225053   4.652   6.171   4.302
 8052SOL     OW25054   2.140   1.578   2.072
 8052SOL    HW125055   2.173   1.609   2.161
 8052SOL    HW225056   2.064   1.515   2.085
 8053SOL     OW25057   3.383   3.295   6.370
 8053SOL    HW125058   3.339   3.334   6.289
 8053SOL    HW225059   3.330   3.318   6.451
 8054SOL     OW25060   5.299   4.107   5.075
 8054SOL    HW125061   5.377   4.059   5.034
 8054SOL    HW225062   5.311   4.110   5.174
 8055SOL     OW25063   0.142   0.828   5.198
 8055SOL    HW125064   0.174   0.733   5.199
 8055SOL    HW225065   0.219   0.889   5.217
 8056SOL     OW25066   2.534   0.304   3.520
 8056SOL    HW125067   2.553   0.258   3.606
 8056SOL    HW225068   2.586   0.389   3.515
 8057SOL     OW25069   2.443   2.292   1.528
 8057SOL    HW125070   2.519   2.294   1.594
 8057SOL    HW225071   2.357   2.282   1.578
 8058SOL     OW25072   3.104   6.503   3.782
 8058SOL    HW125073   3.076   6.491   3.686
 8058SOL    HW225074   3.200   6.530   3.785
 8059SOL     OW25075   2.792   2.257   5.826
 8059SOL    HW125076   2.825   2.235   5.918
 8059SOL    HW225077   2.826   2.347   5.799
 8060SOL     OW25078   6.711   0.763   6.487
 8060SOL    HW125079   6.805   0.788   6.511
 8060SOL    HW225080   6.648   0.831   6.524
 8061SOL     OW25081   0.450   0.944   2.055
 8061SOL    HW125082   0.440   0.859   2.003
 8061SOL    HW225083   0.515   1.004   2.010
 8062SOL     OW25084   4.054   5.444   5.086
 8062SOL    HW125085   4.002   5.415   5.006
 8062SOL    HW225086   4.056   5.369   5.153
 8063SOL     OW25087   3.294   0.495   3.452
 8063SOL    HW125088   3.381   0.450   3.471
 8063SOL    HW225089   3.310   0.576   3.396
 8064SOL     OW25090   6.446   3.275   0.081
 8064SOL    HW125091   6.398   3.244   0.162
 8064SOL    HW225092   6.387   3.265   0.001
 8065SOL     OW25093   3.570   6.985   4.552
 8065SOL    HW125094   3.534   0.045   4.601
 8065SOL    HW225095   3.494   6.926   4.523
 8066SOL     OW25096   6.775   1.199   4.539
 8066SOL    HW125097   6.712   1.214   4.463
 8066SOL    HW225098   6.869   1.219   4.508
 8067SOL     OW25099   5.280   3.234   3.724
 8067SOL    HW125100   5.363   3.290   3.730
 8067SOL    HW225101   5.305   3.141   3.698
 8068SOL     OW25102   0.327   4.488   1.776
 8068SOL    HW125103   0.276   4.413   1.817
 8068SOL    HW225104   0.362   4.547   1.849
 8069SOL     OW25105   2.844   5.082   2.272
 8069SOL    HW125106   2.806   5.106   2.361
 8069SOL    HW225107   2.899   5.158   2.237
 8070SOL     OW25108   4.309   4.675   0.518
 8070SOL    HW125109   4.384   4.611   0.500
 8070SOL    HW225110   4.237   4.628   0.569
 8071SOL     OW25111   4.046   6.727   5.663
 8071SOL    HW125112   3.975   6.775   5.612
 8071SOL    HW225113   4.004   6.650   5.712
 8072SOL     OW25114   2.549   2.867   0.292
 8072SOL    HW125115   2.484   2.813   0.347
 8072SOL    HW225116   2.520   2.963   0.291
 8073SOL     OW25117   2.615   0.008   6.212
 8073SOL    HW125118   2.599   6.985   6.123
 8073SOL    HW225119   2.663   0.095   6.199
 8074SOL     OW25120   1.840   1.635   0.450
 8074SOL    HW125121   1.916   1.618   0.387
 8074SOL    HW225122   1.808   1.548   0.488
 8075SOL     OW25123   0.253   6.344   6.767
 8075SOL    HW125124   0.348   6.310   6.764
 8075SOL    HW225125   0.193   6.278   6.721
 8076SOL     OW25126   6.830   6.881   6.770
 8076SOL    HW125127   6.801   6.964   6.819
 8076SOL    HW225128   6.750   6.838   6.728
 8077SOL     OW25129   3.922   5.755   1.765
 8077SOL    HW125130   3.838   5.766   1.711
 8077SOL    HW225131   3.974   5.840   1.764
 8078SOL     OW25132   0.769   1.805   0.501
 8078SOL    HW125133   0.746   1.851   0.415
 8078SOL    HW225134   0.695   1.817   0.566
 8079SOL     OW25135   0.557   1.326   4.285
 8079SOL    HW125136   0.550   1.365   4.377
 8079SOL    HW225137   0.623   1.379   4.231
 8080SOL     OW25138   0.795   2.963   2.685
 8080SOL    HW125139   0.793   3.036   2.754
 8080SOL    HW225140   0.706   2.957   2.640
 8081SOL     OW25141   5.758   4.449   5.182
 8081SOL    HW125142   5.839   4.452   5.124
 8081SOL    HW225143   5.707   4.535   5.173
 8082SOL     OW25144   2.426   1.065   2.284
 8082SOL    HW125145   2.526   1.057   2.274
 8082SOL    HW225146   2.382   0.996   2.227
 8083SOL     OW25147   5.600   2.552   4.107
 8083SOL    HW125148   5.699   2.544   4.106
 8083SOL    HW225149   5.560   2.477   4.054
 8084SOL     OW25150   1.931   0.422   5.908
 8084SOL    HW125151   1.896   0.510   5.878
 8084SOL    HW225152   2.020   0.434   5.952
 8085SOL     OW25153   0.186   6.091   3.174
 8085SOL    HW125154   0.143   6.174   3.208
 8085SOL    HW225155   0.285   6.097   3.189
 8086SOL     OW25156   0.201   1.141   1.507
 8086SOL    HW125157   0.293   1.118   1.539
 8086SOL    HW225158   0.134   1.102   1.571
 8087SOL     OW25159   1.009   0.755   6.611
 8087SOL    HW125160   1.021   0.708   6.699
 8087SOL    HW225161   0.914   0.747   6.582
 8088SOL     OW25162   5.517   6.550   6.618
 8088SOL    HW125163   5.543   6.625   6.556
 8088SOL    HW225164   5.447   6.494   6.575
 8089SOL     OW25165   5.906   2.867   6.503
 8089SOL    HW125166   5.845   2.813   6.561
 8089SOL    HW225167   5.864   2.955   6.484
 8090SOL     OW25168   4.170   1.614   6.684
 8090SOL    HW125169   4.098   1.578   6.624
 8090SOL    HW225170   4.226   1.538   6.718
 8091SOL     OW25171   1.481   4.299   4.114
 8091SOL    HW125172   1.459   4.379   4.171
 8091SOL    HW225173   1.578   4.277   4.125
 8092SOL     OW25174   4.684   2.149   5.198
 8092SOL    HW125175   4.625   2.075   5.167
 8092SOL    HW225176   4.666   2.167   5.295
 8093SOL     OW25177   3.043   5.861   3.260
 8093SOL    HW125178   3.088   5.773   3.274
 8093SOL    HW225179   2.944   5.849   3.264
 8094SOL     OW25180   0.842   3.814   4.933
 8094SOL    HW125181   0.811   3.899   4.891
 8094SOL    HW225182   0.938   3.799   4.912
 8095SOL     OW25183   1.284   4.702   5.293
 8095SOL    HW125184   1.248   4.657   5.211
 8095SOL    HW225185   1.232   4.786   5.310
 8096SOL     OW25186   1.334   0.236   1.942
 8096SOL    HW125187   1.269   0.247   2.016
 8096SOL    HW225188   1.416   0.290   1.960
 8097SOL     OW25189   3.757   0.082   5.130
 8097SOL    HW125190   3.816   0.047   5.203
 8097SOL    HW225191   3.797   0.059   5.041
 8098SOL     OW25192   0.812   6.163   4.065
 8098SOL    HW125193   0.881   6.106   4.020
 8098SOL    HW225194   0.855   6.217   4.137
 8099SOL     OW25195   4.372   5.802   4.161
 8099SOL    HW125196   4.386   5.704   4.151
 8099SOL    HW225197   4.452   5.851   4.124
 8100SOL     OW25198   5.643   1.243   6.237
 8100SOL    HW125199   5.574   1.221   6.167
 8100SOL    HW225200   5.612   1.323   6.289
 8101SOL     OW25201   2.451   5.547   0.660
 8101SOL    HW125202   2.437   5.487   0.582
 8101SOL    HW225203   2.387   5.524   0.733
 8102SOL     OW25204   1.008   3.243   4.356
 8102SOL    HW125205   1.005   3.299   4.273
 8102SOL    HW225206   0.936   3.273   4.419
 8103SOL     OW25207   3.793   0.948   2.332
 8103SOL    HW125208   3.868   0.965   2.396
 8103SOL    HW225209   3.808   1.001   2.248
 8104SOL     OW25210   1.850   6.919   5.675
 8104SOL    HW125211   1.923   6.930   5.742
 8104SOL    HW225212   1.868   6.838   5.619
 8105SOL     OW25213   0.017   2.152   3.026
 8105SOL    HW125214   0.095   2.125   2.969
 8105SOL    HW225215   6.952   2.119   2.984
 8106SOL     OW25216   2.803   6.629   4.213
 8106SOL    HW125217   2.839   6.585   4.131
 8106SOL    HW225218   2.834   6.579   4.294
 8107SOL     OW25219   1.722   5.595   4.652
 8107SOL    HW125220   1.732   5.651   4.734
 8107SOL    HW225221   1.695   5.503   4.678
 8108SOL     OW25222   6.611   1.575   6.727
 8108SOL    HW125223   6.662   1.519   6.661
 8108SOL    HW225224   6.623   1.536   6.818
 8109SOL     OW25225   6.894   3.944   6.480
 8109SOL    HW125226   6.858   3.937   6.387
 8109SOL    HW225227   6.989   3.913   6.482
 8110SOL     OW25228   4.004   4.880   1.328
 8110SOL    HW125229   4.042   4.873   1.420
 8110SOL    HW225230   3.921   4.824   1.322
 8111SOL     OW25231   5.750   1.158   3.580
 8111SOL    HW125232   5.697   1.197   3.505
 8111SOL    HW225233   5.692   1.151   3.661
 8112SOL     OW25234   0.323   3.069   4.806
 8112SOL    HW125235   0.254   3.006   4.770
 8112SOL    HW225236   0.338   3.050   4.903
 8113SOL     OW25237   6.636   3.173   1.494
 8113SOL    HW125238   6.724   3.191   1.537
 8113SOL    HW225239   6.563   3.186   1.561
 8114SOL     OW25240   0.892   4.324   2.297
 8114SOL    HW125241   0.844   4.411   2.308
 8114SOL    HW225242   0.945   4.326   2.212
 8115SOL     OW25243   2.897   6.703   6.153
 8115SOL    HW125244   2.847   6.721   6.238
 8115SOL    HW225245   2.995   6.694   6.173
 8116SOL     OW25246   4.147   5.516   0.456
 8116SOL    HW125247   4.204   5.441   0.425
 8116SOL    HW225248   4.192   5.563   0.532
 8117SOL     OW25249   2.252   6.553   3.173
 8117SOL    HW125250   2.197   6.498   3.110
 8117SOL    HW225251   2.265   6.503   3.259
 8118SOL     OW25252   6.387   4.399   6.574
 8118SOL    HW125253   6.302   4.443   6.603
 8118SOL    HW225254   6.390   4.305   6.609
 8119SOL     OW25255   5.001   6.339   6.170
 8119SOL    HW125256   4.970   6.326   6.076
 8119SOL    HW225257   5.098   6.363   6.169
 8120SOL     OW25258   2.487   5.117   0.751
 8120SOL    HW125259   2.537   5.041   0.793
 8120SOL    HW225260   2.443   5.171   0.822
 8121SOL     OW25261   0.933   4.217   3.117
 8121SOL    HW125262   0.836   4.202   3.135
 8121SOL    HW225263   0.944   4.272   3.034
 8122SOL     OW25264   0.962   4.372   2.916
 8122SOL    HW125265   0.887   4.434   2.937
 8122SOL    HW225266   0.976   4.368   2.817
 8123SOL     OW25267   0.573   1.298   0.115
 8123SOL    HW125268   0.646   1.338   0.060
 8123SOL    HW225269   0.487   1.345   0.094
 8124SOL     OW25270   5.599   6.331   4.156
 8124SOL    HW125271   5.657   6.410   4.136
 8124SOL    HW225272   5.505   6.363   4.172
 8125SOL     OW25273   1.179   0.792   2.824
 8125SOL    HW125274   1.161   0.729   2.900
 8125SOL    HW225275   1.253   0.756   2.768
 8126SOL     OW25276   4.572   5.077   3.638
 8126SOL    HW125277   4.565   5.021   3.720
 8126SOL    HW225278   4.667   5.079   3.607
 8127SOL     OW25279   3.015   2.668   6.789
 8127SOL    HW125280   2.917   2.685   6.804
 8127SOL    HW225281   3.057   2.639   6.874
 8128SOL     OW25282   3.219   2.327   1.536
 8128SOL    HW125283   3.216   2.399   1.605
 8128SOL    HW225284   3.295   2.344   1.473
 8129SOL     OW25285   1.765   1.984   0.058
 8129SOL    HW125286   1.745   2.019   6.986
 8129SOL    HW225287   1.847   1.927   0.055
 8130SOL     OW25288   1.497   6.045   0.062
 8130SOL    HW125289   1.572   5.983   0.085
 8130SOL    HW225290   1.529   6.112   7.014
 8131SOL     OW25291   3.052   2.719   0.962
 8131SOL    HW125292   3.060   2.620   0.951
 8131SOL    HW225293   2.972   2.740   1.018
 8132SOL     OW25294   6.555   6.696   4.549
 8132SOL    HW125295   6.464   6.657   4.553
 8132SOL    HW225296   6.582   6.709   4.454
 8133SOL     OW25297   3.981   5.406   2.272
 8133SOL    HW125298   3.955   5.470   2.345
 8133SOL    HW225299   4.032   5.329   2.312
 8134SOL     OW25300   6.070   1.319   5.978
 8134SOL    HW125301   5.984   1.328   6.029
 8134SOL    HW225302   6.099   1.223   5.981
 8135SOL     OW25303   1.911   0.510   1.549
 8135SOL    HW125304   1.914   0.603   1.586
 8135SOL    HW225305   1.860   0.451   1.611
 8136SOL     OW25306   5.087   5.437   2.329
 8136SOL    HW125307   5.097   5.500   2.406
 8136SOL    HW225308   5.105   5.343   2.360
 8137SOL     OW25309   2.951   0.994   5.269
 8137SOL    HW125310   2.889   0.953   5.201
 8137SOL    HW225311   3.026   1.040   5.221
 8138SOL     OW25312   5.790   1.385   1.291
 8138SOL    HW125313   5.855   1.460   1.278
 8138SOL    HW225314   5.707   1.420   1.333
 8139SOL     OW25315   0.403   1.630   2.518
 8139SOL    HW125316   0.437   1.555   2.462
 8139SOL    HW225317   0.468   1.651   2.590
 8140SOL     OW25318   4.328   1.395   4.387
 8140SOL    HW125319   4.301   1.489   4.366
 8140SOL    HW225320   4.325   1.381   4.486
 8141SOL     OW25321   3.590   5.364   5.516
 8141SOL    HW125322   3.532   5.294   5.557
 8141SOL    HW225323   3.640   5.412   5.588
 8142SOL     OW25324   6.299   4.932   0.347
 8142SOL    HW125325   6.372   4.987   0.305
 8142SOL    HW225326   6.329   4.902   0.437
 8143SOL     OW25327   6.249   4.817   6.254
 8143SOL    HW125328   6.157   4.800   6.288
 8143SOL    HW225329   6.256   4.787   6.159
 8144SOL     OW25330   5.454   0.214   6.965
 8144SOL    HW125331   5.372   0.168   6.999
 8144SOL    HW225332   5.529   0.199   0.009
 8145SOL     OW25333   6.146   5.859   2.800
 8145SOL    HW125334   6.159   5.775   2.748
 8145SOL    HW225335   6.154   5.938   2.740
 8146SOL     OW25336   3.559   1.078   6.000
 8146SOL    HW125337   3.471   1.094   6.046
 8146SOL    HW225338   3.581   1.157   5.943
 8147SOL     OW25339   5.409   1.787   3.295
 8147SOL    HW125340   5.333   1.792   3.231
 8147SOL    HW225341   5.375   1.796   3.388
 8148SOL     OW25342   5.560   3.326   2.500
 8148SOL    HW125343   5.520   3.386   2.431
 8148SOL    HW225344   5.492   3.258   2.528
 8149SOL     OW25345   3.075   5.735   2.615
 8149SOL    HW125346   3.118   5.645   2.611
 8149SOL    HW225347   3.012   5.739   2.692
 8150SOL     OW25348   0.030   4.719   1.073
 8150SOL    HW125349   0.102   4.783   1.044
 8150SOL    HW225350   6.995   4.761   1.145
 8151SOL     OW25351   0.789   2.124   3.365
 8151SOL    HW125352   0.825   2.040   3.405
 8151SOL    HW225353   0.850   2.200   3.388
 8152SOL     OW25354   1.548   1.046   2.889
 8152SOL    HW125355   1.583   1.046   2.795
 8152SOL    HW225356   1.448   1.043   2.888
 8153SOL     OW25357   2.962   6.928   2.455
 8153SOL    HW125358   2.887   6.888   2.507
 8153SOL    HW225359   3.043   6.870   2.462
 8154SOL     OW25360   2.390   6.115   4.224
 8154SOL    HW125361   2.474   6.062   4.233
 8154SOL    HW225362   2.378   6.174   4.304
 8155SOL     OW25363   3.191   3.070   2.241
 8155SOL    HW125364   3.275   3.124   2.246
 8155SOL    HW225365   3.211   2.980   2.203
 8156SOL     OW25366   5.626   0.665   4.976
 8156SOL    HW125367   5.612   0.758   4.941
 8156SOL    HW225368   5.702   0.665   5.041
 8157SOL     OW25369   5.632   5.150   6.838
 8157SOL    HW125370   5.642   5.052   6.854
 8157SOL    HW225371   5.659   5.172   6.744
 8158SOL     OW25372   1.037   5.634   1.182
 8158SOL    HW125373   0.966   5.600   1.120
 8158SOL    HW225374   1.039   5.734   1.177
 8159SOL     OW25375   1.801   5.214   2.252
 8159SOL    HW125376   1.849   5.136   2.213
 8159SOL    HW225377   1.777   5.194   2.347
 8160SOL     OW25378   4.965   2.021   1.452
 8160SOL    HW125379   4.966   1.927   1.488
 8160SOL    HW225380   4.910   2.024   1.368
 8161SOL     OW25381   5.030   1.121   0.588
 8161SOL    HW125382   5.105   1.143   0.650
 8161SOL    HW225383   4.958   1.190   0.597
 8162SOL     OW25384   5.934   6.922   1.018
 8162SOL    HW125385   5.946   6.965   0.929
 8162SOL    HW225386   6.018   6.930   1.072
 8163SOL     OW25387   2.600   4.321   5.322
 8163SOL    HW125388   2.580   4.233   5.278
 8163SOL    HW225389   2.515   4.362   5.355
 8164SOL     OW25390   5.561   2.951   1.708
 8164SOL    HW125391   5.557   3.051   1.706
 8164SOL    HW225392   5.468   2.914   1.717
 8165SOL     OW25393   2.010   4.319   1.245
 8165SOL    HW125394   1.985   4.279   1.157
 8165SOL    HW225395   1.927   4.339   1.297
 8166SOL     OW25396   2.317   0.645   2.169
 8166SOL    HW125397   2.278   0.640   2.261
 8166SOL    HW225398   2.256   0.599   2.104
 8167SOL     OW25399   6.033   2.834   3.553
 8167SOL    HW125400   5.934   2.844   3.549
 8167SOL    HW225401   6.057   2.768   3.623
 8168SOL     OW25402   3.392   1.492   2.723
 8168SOL    HW125403   3.306   1.499   2.673
 8168SOL    HW225404   3.392   1.410   2.779
 8169SOL     OW25405   4.587   3.777   0.800
 8169SOL    HW125406   4.637   3.733   0.875
 8169SOL    HW225407   4.551   3.865   0.830
 8170SOL     OW25408   1.371   6.205   3.770
 8170SOL    HW125409   1.411   6.116   3.750
 8170SOL    HW225410   1.275   6.206   3.745
 8171SOL     OW25411   0.497   1.877   6.516
 8171SOL    HW125412   0.493   1.822   6.433
 8171SOL    HW225413   0.407   1.876   6.560
 8172SOL     OW25414   0.167   6.853   0.544
 8172SOL    HW125415   0.201   6.840   0.451
 8172SOL    HW225416   0.119   6.940   0.550
 8173SOL     OW25417   3.732   2.757   0.022
 8173SOL    HW125418   3.728   2.765   6.942
 8173SOL    HW225419   3.812   2.703   0.048
 8174SOL     OW25420   5.905   1.953   0.927
 8174SOL    HW125421   5.833   2.003   0.976
 8174SOL    HW225422   5.964   2.018   0.879
 8175SOL     OW25423   6.894   2.439   6.168
 8175SOL    HW125424   6.857   2.382   6.241
 8175SOL    HW225425   6.976   2.396   6.130
 8176SOL     OW25426   2.498   5.765   2.219
 8176SOL    HW125427   2.399   5.773   2.209
 8176SOL    HW225428   2.533   5.699   2.153
 8177SOL     OW25429   1.035   6.030   3.960
 8177SOL    HW125430   1.062   6.096   3.890
 8177SOL    HW225431   1.016   5.942   3.917
 8178SOL     OW25432   2.145   0.047   6.160
 8178SOL    HW125433   2.194   0.105   6.224
 8178SOL    HW225434   2.127   0.097   6.075
 8179SOL     OW25435   3.207   2.901   0.190
 8179SOL    HW125436   3.277   2.830   0.196
 8179SOL    HW225437   3.232   2.966   0.118
 8180SOL     OW25438   0.683   0.181   4.727
 8180SOL    HW125439   0.762   0.184   4.789
 8180SOL    HW225440   0.685   0.096   4.675
 8181SOL     OW25441   2.576   2.416   2.771
 8181SOL    HW125442   2.535   2.467   2.696
 8181SOL    HW225443   2.600   2.324   2.740
 8182SOL     OW25444   2.988   2.347   6.011
 8182SOL    HW125445   3.042   2.354   5.927
 8182SOL    HW225446   3.046   2.310   6.084
 8183SOL     OW25447   0.569   3.662   5.318
 8183SOL    HW125448   0.607   3.621   5.400
 8183SOL    HW225449   0.629   3.643   5.240
 8184SOL     OW25450   6.968   0.632   5.635
 8184SOL    HW125451   0.034   0.674   5.605
 8184SOL    HW225452   6.907   0.622   5.557
 8185SOL     OW25453   2.732   1.234   1.791
 8185SOL    HW125454   2.675   1.301   1.838
 8185SOL    HW225455   2.780   1.278   1.715
 8186SOL     OW25456   3.305   6.182   5.832
 8186SOL    HW125457   3.386   6.185   5.773
 8186SOL    HW225458   3.225   6.212   5.779
 8187SOL     OW25459   1.533   1.853   5.609
 8187SOL    HW125460   1.470   1.775   5.617
 8187SOL    HW225461   1.615   1.834   5.662
 8188SOL     OW25462   5.773   1.894   2.724
 8188SOL    HW125463   5.724   1.863   2.805
 8188SOL    HW225464   5.748   1.836   2.646
 8189SOL     OW25465   5.444   4.010   2.224
 8189SOL    HW125466   5.521   3.990   2.164
 8189SOL    HW225467   5.477   4.017   2.319
 8190SOL     OW25468   5.127   3.602   4.210
 8190SOL    HW125469   5.169   3.673   4.267
 8190SOL    HW225470   5.196   3.565   4.148
 8191SOL     OW25471   1.034   5.801   3.863
 8191SOL    HW125472   1.021   5.752   3.949
 8191SOL    HW225473   1.119   5.770   3.819
 8192SOL     OW25474   2.549   5.524   2.013
 8192SOL    HW125475   2.575   5.600   1.953
 8192SOL    HW225476   2.466   5.480   1.977
 8193SOL     OW25477   4.940   6.752   4.939
 8193SOL    HW125478   4.945   6.822   5.009
 8193SOL    HW225479   4.864   6.690   4.959
 8194SOL     OW25480   6.374   1.193   6.929
 8194SOL    HW125481   6.316   1.257   6.978
 8194SOL    HW225482   6.318   1.131   6.875
 8195SOL     OW25483   6.536   6.939   0.027
 8195SOL    HW125484   6.595   6.948   0.108
 8195SOL    HW225485   6.511   6.843   0.015
 8196SOL     OW25486   3.779   6.486   6.444
 8196SOL    HW125487   3.787   6.564   6.381
 8196SOL    HW225488   3.727   6.513   6.525
 8197SOL     OW25489   6.603   0.669   6.223
 8197SOL    HW125490   6.652   0.678   6.310
 8197SOL    HW225491   6.505   0.668   6.240
 8198SOL     OW25492   2.596   6.498   3.237
 8198SOL    HW125493   2.512   6.461   3.278
 8198SOL    HW225494   2.604   6.466   3.143
 8199SOL     OW25495   0.448   3.855   6.952
 8199SOL    HW125496   0.392   3.778   6.982
 8199SOL    HW225497   0.405   3.898   6.872
 8200SOL     OW25498   4.526   4.246   1.583
 8200SOL    HW125499   4.513   4.212   1.677
 8200SOL    HW225500   4.459   4.318   1.565
 8201SOL     OW25501   5.857   0.154   3.586
 8201SOL    HW125502   5.804   0.150   3.670
 8201SOL    HW225503   5.917   0.074   3.579
 8202SOL     OW25504   1.337   4.656   3.428
 8202SOL    HW125505   1.420   4.628   3.379
 8202SOL    HW225506   1.350   4.748   3.466
 8203SOL     OW25507   5.129   3.531   1.492
 8203SOL    HW125508   5.086   3.455   1.541
 8203SOL    HW225509   5.077   3.552   1.410
 8204SOL     OW25510   3.216   6.756   2.376
 8204SOL    HW125511   3.201   6.663   2.343
 8204SOL    HW225512   3.294   6.758   2.438
 8205SOL     OW25513   5.458   5.218   1.837
 8205SOL    HW125514   5.430   5.294   1.778
 8205SOL    HW225515   5.557   5.216   1.844
 8206SOL     OW25516   4.237   2.184   5.428
 8206SOL    HW125517   4.319   2.136   5.460
 8206SOL    HW225518   4.183   2.214   5.506
 8207SOL     OW25519   3.256   4.812   6.051
 8207SOL    HW125520   3.310   4.751   5.994
 8207SOL    HW225521   3.243   4.771   6.141
 8208SOL     OW25522   1.847   5.021   1.839
 8208SOL    HW125523   1.892   4.964   1.771
 8208SOL    HW225524   1.871   5.117   1.823
 8209SOL     OW25525   1.348   0.896   5.181
 8209SOL    HW125526   1.410   0.871   5.107
 8209SOL    HW225527   1.400   0.903   5.267
 8210SOL     OW25528   2.054   1.386   0.489
 8210SOL    HW125529   2.118   1.374   0.566
 8210SOL    HW225530   1.961   1.394   0.524
 8211SOL     OW25531   2.988   3.214   4.327
 8211SOL    HW125532   2.957   3.174   4.240
 8211SOL    HW225533   2.996   3.313   4.316
 8212SOL     OW25534   2.339   6.987   1.133
 8212SOL    HW125535   2.266   0.033   1.114
 8212SOL    HW225536   2.302   6.911   1.188
 8213SOL     OW25537   4.256   4.435   1.761
 8213SOL    HW125538   4.247   4.517   1.818
 8213SOL    HW225539   4.286   4.358   1.818
 8214SOL     OW25540   3.148   5.772   4.109
 8214SOL    HW125541   3.218   5.789   4.178
 8214SOL    HW225542   3.164   5.832   4.030
 8215SOL     OW25543   3.998   6.408   0.162
 8215SOL    HW125544   3.966   6.458   0.243
 8215SOL    HW225545   4.076   6.455   0.122
 8216SOL     OW25546   4.717   6.075   2.354
 8216SOL    HW125547   4.690   6.028   2.270
 8216SOL    HW225548   4.808   6.044   2.382
 8217SOL     OW25549   2.803   5.392   3.732
 8217SOL    HW125550   2.815   5.304   3.777
 8217SOL    HW225551   2.780   5.377   3.635
 8218SOL     OW25552   1.682   0.347   4.716
 8218SOL    HW125553   1.714   0.360   4.809
 8218SOL    HW225554   1.760   0.346   4.653
 8219SOL     OW25555   3.937   3.887   0.511
 8219SOL    HW125556   3.888   3.868   0.426
 8219SOL    HW225557   4.013   3.949   0.493
 8220SOL     OW25558   3.807   4.091   4.586
 8220SOL    HW125559   3.766   4.161   4.644
 8220SOL    HW225560   3.814   4.005   4.637
 8221SOL     OW25561   6.156   3.360   3.681
 8221SOL    HW125562   6.152   3.270   3.638
 8221SOL    HW225563   6.243   3.404   3.658
 8222SOL     OW25564   5.988   2.545   1.345
 8222SOL    HW125565   6.086   2.563   1.331
 8222SOL    HW225566   5.935   2.623   1.311
 8223SOL     OW25567   0.086   5.935   5.671
 8223SOL    HW125568   7.007   5.951   5.670
 8223SOL    HW225569   0.118   5.929   5.765
 8224SOL     OW25570   5.419   2.236   0.097
 8224SOL    HW125571   5.446   2.201   0.007
 8224SOL    HW225572   5.360   2.170   0.143
 8225SOL     OW25573   4.682   1.944   0.440
 8225SOL    HW125574   4.756   2.011   0.437
 8225SOL    HW225575   4.602   1.981   0.395
 8226SOL     OW25576   3.420   0.759   0.323
 8226SOL    HW125577   3.516   0.747   0.346
 8226SOL    HW225578   3.399   0.709   0.239
 8227SOL     OW25579   5.343   2.337   2.867
 8227SOL    HW125580   5.366   2.243   2.842
 8227SOL    HW225581   5.350   2.396   2.786
 8228SOL     OW25582   1.016   1.210   5.558
 8228SOL    HW125583   1.088   1.226   5.491
 8228SOL    HW225584   1.006   1.111   5.573
 8229SOL     OW25585   4.159   4.743   0.888
 8229SOL    HW125586   4.256   4.723   0.900
 8229SOL    HW225587   4.105   4.661   0.907
 8230SOL     OW25588   4.317   1.067   5.559
 8230SOL    HW125589   4.335   1.002   5.633
 8230SOL    HW225590   4.373   1.044   5.479
 8231SOL     OW25591   2.917   1.324   2.614
 8231SOL    HW125592   2.884   1.344   2.706
 8231SOL    HW225593   3.006   1.369   2.601
 8232SOL     OW25594   4.494   6.675   2.526
 8232SOL    HW125595   4.454   6.683   2.617
 8232SOL    HW225596   4.450   6.739   2.464
 8233SOL     OW25597   0.504   0.794   5.143
 8233SOL    HW125598   0.428   0.787   5.078
 8233SOL    HW225599   0.589   0.809   5.093
 8234SOL     OW25600   2.294   2.631   0.291
 8234SOL    HW125601   2.344   2.645   0.376
 8234SOL    HW225602   2.253   2.718   0.262
 8235SOL     OW25603   0.044   5.633   0.486
 8235SOL    HW125604   0.030   5.636   0.585
 8235SOL    HW225605   7.004   5.701   0.442
 8236SOL     OW25606   1.197   6.555   6.190
 8236SOL    HW125607   1.115   6.599   6.154
 8236SOL    HW225608   1.275   6.617   6.181
 8237SOL     OW25609   4.313   5.451   6.301
 8237SOL    HW125610   4.258   5.369   6.318
 8237SOL    HW225611   4.408   5.433   6.325
 8238SOL     OW25612   1.942   4.601   0.964
 8238SOL    HW125613   2.010   4.620   1.036
 8238SOL    HW225614   1.990   4.577   0.879
 8239SOL     OW25615   0.404   1.846   5.395
 8239SOL    HW125616   0.421   1.857   5.493
 8239SOL    HW225617   0.338   1.916   5.366
 8240SOL     OW25618   3.736   3.932   4.832
 8240SOL    HW125619   3.719   4.022   4.873
 8240SOL    HW225620   3.834   3.912   4.834
 8241SOL     OW25621   1.898   3.848   6.403
 8241SOL    HW125622   1.853   3.883   6.320
 8241SOL    HW225623   1.907   3.922   6.469
 8242SOL     OW25624   0.507   3.677   4.487
 8242SOL    HW125625   0.484   3.687   4.390
 8242SOL    HW225626   0.566   3.597   4.499
 8243SOL     OW25627   0.609   4.900   4.845
 8243SOL    HW125628   0.560   4.976   4.802
 8243SOL    HW225629   0.575   4.814   4.807
 8244SOL     OW25630   1.812   0.255   3.596
 8244SOL    HW125631   1.736   0.217   3.545
 8244SOL    HW225632   1.862   0.319   3.539
 8245SOL     OW25633   5.482   1.443   3.995
 8245SOL    HW125634   5.472   1.542   4.009
 8245SOL    HW225635   5.476   1.396   4.083
 8246SOL     OW25636   1.368   4.443   6.835
 8246SOL    HW125637   1.452   4.431   6.888
 8246SOL    HW225638   1.389   4.486   6.748
 8247SOL     OW25639   3.495   5.576   3.296
 8247SOL    HW125640   3.448   5.554   3.211
 8247SOL    HW225641   3.548   5.497   3.326
 8248SOL     OW25642   0.693   5.075   2.728
 8248SOL    HW125643   0.733   5.026   2.806
 8248SOL    HW225644   0.619   5.134   2.761
 8249SOL     OW25645   2.530   1.970   6.023
 8249SOL    HW125646   2.613   2.022   6.046
 8249SOL    HW225647   2.556   1.887   5.973
 8250SOL     OW25648   1.745   1.571   6.508
 8250SOL    HW125649   1.813   1.568   6.435
 8250SOL    HW225650   1.788   1.546   6.595
 8251SOL     OW25651   0.031   2.222   4.731
 8251SOL    HW125652   0.020   2.321   4.717
 8251SOL    HW225653   6.971   2.174   4.694
 8252SOL     OW25654   1.865   2.269   6.771
 8252SOL    HW125655   1.905   2.293   6.859
 8252SOL    HW225656   1.778   2.317   6.759
 8253SOL     OW25657   4.062   5.931   0.390
 8253SOL    HW125658   3.966   5.910   0.371
 8253SOL    HW225659   4.118   5.905   0.311
 8254SOL     OW25660   5.148   5.368   0.518
 8254SOL    HW125661   5.202   5.436   0.468
 8254SOL    HW225662   5.183   5.276   0.498
 8255SOL     OW25663   0.536   6.206   6.233
 8255SOL    HW125664   0.521   6.122   6.180
 8255SOL    HW225665   0.604   6.263   6.187
 8256SOL     OW25666   1.840   5.701   3.064
 8256SOL    HW125667   1.759   5.675   3.116
 8256SOL    HW225668   1.917   5.716   3.127
 8257SOL     OW25669   4.877   4.008   3.967
 8257SOL    HW125670   4.962   4.031   3.919
 8257SOL    HW225671   4.890   3.922   4.017
 8258SOL     OW25672   6.761   3.132   1.753
 8258SOL    HW125673   6.725   3.067   1.819
 8258SOL    HW225674   6.737   3.225   1.781
 8259SOL     OW25675   4.191   1.520   3.741
 8259SOL    HW125676   4.146   1.438   3.777
 8259SOL    HW225677   4.269   1.543   3.799
 8260SOL     OW25678   3.332   0.761   1.038
 8260SOL    HW125679   3.232   0.772   1.036
 8260SOL    HW225680   3.359   0.692   0.972
 8261SOL     OW25681   5.431   0.482   3.100
 8261SOL    HW125682   5.348   0.451   3.055
 8261SOL    HW225683   5.449   0.425   3.180
 8262SOL     OW25684   6.904   4.018   1.965
 8262SOL    HW125685   6.915   4.025   1.866
 8262SOL    HW225686   6.814   3.982   1.986
 8263SOL     OW25687   0.098   2.394   6.020
 8263SOL    HW125688   0.138   2.317   6.070
 8263SOL    HW225689   0.171   2.451   5.983
 8264SOL     OW25690   2.135   6.353   3.017
 8264SOL    HW125691   2.052   6.409   3.021
 8264SOL    HW225692   2.162   6.341   2.921
 8265SOL     OW25693   5.481   0.954   0.672
 8265SOL    HW125694   5.540   0.979   0.595
 8265SOL    HW225695   5.419   1.030   0.692
 8266SOL     OW25696   2.138   0.314   3.577
 8266SOL    HW125697   2.086   0.399   3.571
 8266SOL    HW225698   2.227   0.327   3.532
 8267SOL     OW25699   1.797   3.998   3.128
 8267SOL    HW125700   1.774   4.009   3.031
 8267SOL    HW225701   1.776   3.904   3.156
 8268SOL     OW25702   3.127   4.809   6.857
 8268SOL    HW125703   3.158   4.834   6.949
 8268SOL    HW225704   3.033   4.775   6.861
 8269SOL     OW25705   4.887   2.058   3.360
 8269SOL    HW125706   4.819   1.999   3.405
 8269SOL    HW225707   4.842   2.142   3.329
 8270SOL     OW25708   3.734   0.071   6.031
 8270SOL    HW125709   3.829   0.095   6.011
 8270SOL    HW225710   3.681   0.154   6.046
 8271SOL     OW25711   4.087   6.497   5.340
 8271SOL    HW125712   4.106   6.468   5.434
 8271SOL    HW225713   4.012   6.563   5.340
 8272SOL     OW25714   0.732   6.962   1.629
 8272SOL    HW125715   0.830   6.966   1.610
 8272SOL    HW225716   0.681   6.998   1.551
 8273SOL     OW25717   2.759   6.683   6.849
 8273SOL    HW125718   2.815   6.749   6.799
 8273SOL    HW225719   2.761   6.705   6.947
 8274SOL     OW25720   5.294   6.470   6.445
 8274SOL    HW125721   5.308   6.466   6.346
 8274SOL    HW225722   5.215   6.415   6.470
 8275SOL     OW25723   5.647   1.032   4.483
 8275SOL    HW125724   5.697   0.965   4.537
 8275SOL    HW225725   5.562   0.991   4.450
 8276SOL     OW25726   6.635   3.027   6.299
 8276SOL    HW125727   6.565   3.003   6.366
 8276SOL    HW225728   6.643   2.954   6.231
 8277SOL     OW25729   1.242   5.677   6.320
 8277SOL    HW125730   1.296   5.619   6.259
 8277SOL    HW225731   1.281   5.676   6.412
 8278SOL     OW25732   3.662   1.366   0.132
 8278SOL    HW125733   3.615   1.398   0.215
 8278SOL    HW225734   3.741   1.312   0.158
 8279SOL     OW25735   4.870   5.681   5.536
 8279SOL    HW125736   4.931   5.687   5.457
 8279SOL    HW225737   4.840   5.586   5.548
 8280SOL     OW25738   5.668   3.034   6.937
 8280SOL    HW125739   5.631   3.033   0.010
 8280SOL    HW225740   5.766   3.015   6.939
 8281SOL     OW25741   2.132   4.863   6.931
 8281SOL    HW125742   2.217   4.826   6.969
 8281SOL    HW225743   2.127   4.961   6.948
 8282SOL     OW25744   2.997   2.529   0.740
 8282SOL    HW125745   2.925   2.504   0.675
 8282SOL    HW225746   3.032   2.620   0.717
 8283SOL     OW25747   0.309   5.120   2.921
 8283SOL    HW125748   0.330   5.078   3.009
 8283SOL    HW225749   0.388   5.172   2.890
 8284SOL     OW25750   2.360   2.252   2.312
 8284SOL    HW125751   2.416   2.170   2.299
 8284SOL    HW225752   2.411   2.332   2.282
 8285SOL     OW25753   3.320   4.350   6.253
 8285SOL    HW125754   3.307   4.388   6.162
 8285SOL    HW225755   3.415   4.321   6.263
 8286SOL     OW25756   5.304   0.886   5.030
 8286SOL    HW125757   5.276   0.975   5.067
 8286SOL    HW225758   5.253   0.867   4.947
 8287SOL     OW25759   1.973   0.547   3.590
 8287SOL    HW125760   1.964   0.581   3.684
 8287SOL    HW225761   1.999   0.622   3.529
 8288SOL     OW25762   1.236   1.355   2.683
 8288SOL    HW125763   1.211   1.387   2.775
 8288SOL    HW225764   1.195   1.265   2.668
 8289SOL     OW25765   6.553   1.418   5.566
 8289SOL    HW125766   6.624   1.487   5.575
 8289SOL    HW225767   6.510   1.403   5.655
 8290SOL     OW25768   3.852   2.400   1.516
 8290SOL    HW125769   3.932   2.405   1.576
 8290SOL    HW225770   3.878   2.358   1.429
 8291SOL     OW25771   5.959   5.852   5.979
 8291SOL    HW125772   5.979   5.772   6.036
 8291SOL    HW225773   5.871   5.839   5.934
 8292SOL     OW25774   0.972   3.546   4.344
 8292SOL    HW125775   0.889   3.557   4.289
 8292SOL    HW225776   1.052   3.550   4.284
 8293SOL     OW25777   3.226   5.355   3.350
 8293SOL    HW125778   3.249   5.322   3.259
 8293SOL    HW225779   3.165   5.434   3.342
 8294SOL     OW25780   6.089   4.009   6.120
 8294SOL    HW125781   6.031   3.928   6.113
 8294SOL    HW225782   6.033   4.091   6.108
 8295SOL     OW25783   4.695   4.401   2.182
 8295SOL    HW125784   4.790   4.394   2.151
 8295SOL    HW225785   4.634   4.364   2.111
 8296SOL     OW25786   3.598   6.842   1.489
 8296SOL    HW125787   3.512   6.802   1.455
 8296SOL    HW225788   3.608   6.821   1.586
 8297SOL     OW25789   5.851   4.641   2.707
 8297SOL    HW125790   5.899   4.618   2.792
 8297SOL    HW225791   5.891   4.723   2.667
 8298SOL     OW25792   6.268   0.186   6.161
 8298SOL    HW125793   6.242   0.151   6.071
 8298SOL    HW225794   6.289   0.110   6.222
 8299SOL     OW25795   0.933   3.537   1.138
 8299SOL    HW125796   0.885   3.573   1.217
 8299SOL    HW225797   1.027   3.572   1.137
 8300SOL     OW25798   5.907   5.161   3.120
 8300SOL    HW125799   5.856   5.119   3.196
 8300SOL    HW225800   5.976   5.223   3.157
 8301SOL     OW25801   4.322   6.504   0.377
 8301SOL    HW125802   4.277   6.593   0.381
 8301SOL    HW225803   4.421   6.517   0.367
 8302SOL     OW25804   3.819   6.625   5.302
 8302SOL    HW125805   3.826   6.634   5.203
 8302SOL    HW225806   3.767   6.543   5.325
 8303SOL     OW25807   6.602   6.227   2.867
 8303SOL    HW125808   6.542   6.163   2.916
 8303SOL    HW225809   6.623   6.304   2.927
 8304SOL     OW25810   5.557   3.845   3.383
 8304SOL    HW125811   5.573   3.836   3.284
 8304SOL    HW225812   5.467   3.808   3.406
 8305SOL     OW25813   5.326   5.753   4.542
 8305SOL    HW125814   5.418   5.759   4.581
 8305SOL    HW225815   5.322   5.808   4.458
 8306SOL     OW25816   6.646   0.899   2.227
 8306SOL    HW125817   6.694   0.874   2.143
 8306SOL    HW225818   6.550   0.916   2.207
 8307SOL     OW25819   2.471   4.874   2.975
 8307SOL    HW125820   2.436   4.919   2.893
 8307SOL    HW225821   2.437   4.920   3.056
 8308SOL     OW25822   1.267   5.041   0.008
 8308SOL    HW125823   1.359   5.008   7.005
 8308SOL    HW225824   1.273   5.133   0.046
 8309SOL     OW25825   6.122   4.394   3.959
 8309SOL    HW125826   6.172   4.410   3.874
 8309SOL    HW225827   6.027   4.426   3.948
 8310SOL     OW25828   0.947   6.463   0.045
 8310SOL    HW125829   1.034   6.420   0.021
 8310SOL    HW225830   0.909   6.509   6.985
 8311SOL     OW25831   5.240   0.656   3.675
 8311SOL    HW125832   5.151   0.679   3.636
 8311SOL    HW225833   5.312   0.682   3.611
 8312SOL     OW25834   5.330   1.638   6.548
 8312SOL    HW125835   5.332   1.599   6.640
 8312SOL    HW225836   5.406   1.702   6.537
 8313SOL     OW25837   4.287   1.689   4.916
 8313SOL    HW125838   4.315   1.778   4.952
 8313SOL    HW225839   4.188   1.681   4.920
 8314SOL     OW25840   4.941   6.046   5.780
 8314SOL    HW125841   5.038   6.058   5.801
 8314SOL    HW225842   4.931   5.975   5.710
 8315SOL     OW25843   3.840   3.568   4.796
 8315SOL    HW125844   3.811   3.491   4.853
 8315SOL    HW225845   3.852   3.649   4.852
 8316SOL     OW25846   1.624   2.355   6.710
 8316SOL    HW125847   1.551   2.337   6.776
 8316SOL    HW225848   1.609   2.302   6.627
 8317SOL     OW25849   1.981   1.513   3.498
 8317SOL    HW125850   1.939   1.474   3.416
 8317SOL    HW225851   1.928   1.487   3.579
 8318SOL     OW25852   4.156   0.107   6.808
 8318SOL    HW125853   4.250   0.122   6.779
 8318SOL    HW225854   4.097   0.178   6.769
 8319SOL     OW25855   1.806   6.608   6.631
 8319SOL    HW125856   1.807   6.550   6.550
 8319SOL    HW225857   1.731   6.674   6.625
 8320SOL     OW25858   3.213   3.945   4.666
 8320SOL    HW125859   3.193   3.868   4.604
 8320SOL    HW225860   3.133   3.962   4.724
 8321SOL     OW25861   6.230   6.637   0.554
 8321SOL    HW125862   6.228   6.674   0.647
 8321SOL    HW225863   6.175   6.554   0.550
 8322SOL     OW25864   0.157   0.903   6.933
 8322SOL    HW125865   0.114   0.914   0.004
 8322SOL    HW225866   0.118   0.970   6.870
 8323SOL     OW25867   4.440   4.689   0.956
 8323SOL    HW125868   4.492   4.738   0.886
 8323SOL    HW225869   4.445   4.739   1.043
 8324SOL     OW25870   5.800   6.964   6.804
 8324SOL    HW125871   5.861   6.944   6.727
 8324SOL    HW225872   5.734   0.014   6.777
 8325SOL     OW25873   1.155   5.776   5.720
 8325SOL    HW125874   1.241   5.800   5.765
 8325SOL    HW225875   1.141   5.677   5.724
 8326SOL     OW25876   1.406   4.133   1.795
 8326SOL    HW125877   1.369   4.054   1.747
 8326SOL    HW225878   1.400   4.118   1.894
 8327SOL     OW25879   1.171   6.899   4.494
 8327SOL    HW125880   1.191   6.814   4.543
 8327SOL    HW225881   1.254   6.955   4.489
 8328SOL     OW25882   1.705   0.425   6.827
 8328SOL    HW125883   1.772   0.456   6.760
 8328SOL    HW225884   1.613   0.450   6.798
 8329SOL     OW25885   1.509   2.603   5.053
 8329SOL    HW125886   1.557   2.689   5.038
 8329SOL    HW225887   1.572   2.526   5.040
 8330SOL     OW25888   3.102   1.520   6.393
 8330SOL    HW125889   3.176   1.578   6.359
 8330SOL    HW225890   3.080   1.547   6.487
 8331SOL     OW25891   2.016   2.327   7.010
 8331SOL    HW125892   1.999   2.276   0.075
 8331SOL    HW225893   2.102   2.296   6.970
 8332SOL     OW25894   5.943   5.159   2.175
 8332SOL    HW125895   5.866   5.198   2.226
 8332SOL    HW225896   6.002   5.109   2.237
 8333SOL     OW25897   2.693   4.838   1.254
 8333SOL    HW125898   2.739   4.764   1.304
 8333SOL    HW225899   2.652   4.902   1.319
 8334SOL     OW25900   3.952   1.822   6.156
 8334SOL    HW125901   3.916   1.890   6.092
 8334SOL    HW225902   3.990   1.869   6.235
 8335SOL     OW25903   5.124   3.751   5.869
 8335SOL    HW125904   5.158   3.819   5.933
 8335SOL    HW225905   5.081   3.676   5.919
 8336SOL     OW25906   1.081   3.862   3.443
 8336SOL    HW125907   1.112   3.805   3.519
 8336SOL    HW225908   1.079   3.806   3.359
 8337SOL     OW25909   0.493   1.567   4.004
 8337SOL    HW125910   0.478   1.529   3.912
 8337SOL    HW225911   0.575   1.526   4.044
 8338SOL     OW25912   4.457   5.258   2.793
 8338SOL    HW125913   4.481   5.344   2.748
 8338SOL    HW225914   4.405   5.201   2.730
 8339SOL     OW25915   6.326   0.115   0.495
 8339SOL    HW125916   6.332   0.020   0.525
 8339SOL    HW225917   6.290   0.118   0.401
 8340SOL     OW25918   5.826   2.738   0.450
 8340SOL    HW125919   5.811   2.821   0.504
 8340SOL    HW225920   5.770   2.742   0.367
 8341SOL     OW25921   3.147   1.284   0.684
 8341SOL    HW125922   3.052   1.275   0.715
 8341SOL    HW225923   3.173   1.203   0.631
 8342SOL     OW25924   4.673   0.448   0.156
 8342SOL    HW125925   4.757   0.497   0.177
 8342SOL    HW225926   4.639   0.475   0.066
 8343SOL     OW25927   5.945   3.794   3.644
 8343SOL    HW125928   5.994   3.731   3.704
 8343SOL    HW225929   5.862   3.749   3.609
 8344SOL     OW25930   1.339   5.125   5.465
 8344SOL    HW125931   1.420   5.128   5.522
 8344SOL    HW225932   1.346   5.195   5.394
 8345SOL     OW25933   4.497   0.605   2.563
 8345SOL    HW125934   4.563   0.548   2.514
 8345SOL    HW225935   4.496   0.580   2.660
 8346SOL     OW25936   4.979   3.039   5.513
 8346SOL    HW125937   5.048   3.079   5.453
 8346SOL    HW225938   4.901   3.009   5.459
 8347SOL     OW25939   2.458   0.282   6.008
 8347SOL    HW125940   2.393   0.331   5.950
 8347SOL    HW225941   2.463   0.327   6.098
 8348SOL     OW25942   3.613   0.150   2.055
 8348SOL    HW125943   3.700   0.158   2.103
 8348SOL    HW225944   3.630   0.148   1.956
 8349SOL     OW25945   1.129   6.378   2.164
 8349SOL    HW125946   1.076   6.449   2.117
 8349SOL    HW225947   1.214   6.363   2.114
 8350SOL     OW25948   2.483   6.739   6.761
 8350SOL    HW125949   2.569   6.705   6.797
 8350SOL    HW225950   2.494   6.761   6.664
 8351SOL     OW25951   6.761   3.942   3.675
 8351SOL    HW125952   6.829   3.962   3.745
 8351SOL    HW225953   6.696   3.874   3.710
 8352SOL     OW25954   2.719   5.387   1.407
 8352SOL    HW125955   2.742   5.399   1.504
 8352SOL    HW225956   2.703   5.477   1.366
 8353SOL     OW25957   1.690   3.775   2.506
 8353SOL    HW125958   1.750   3.695   2.513
 8353SOL    HW225959   1.683   3.819   2.595
 8354SOL     OW25960   3.526   0.007   3.875
 8354SOL    HW125961   3.620   0.040   3.880
 8354SOL    HW225962   3.471   0.071   3.821
 8355SOL     OW25963   2.027   6.240   5.695
 8355SOL    HW125964   1.988   6.309   5.634
 8355SOL    HW225965   2.031   6.276   5.788
 8356SOL     OW25966   1.564   5.457   1.132
 8356SOL    HW125967   1.532   5.433   1.040
 8356SOL    HW225968   1.513   5.404   1.199
 8357SOL     OW25969   4.574   6.135   6.036
 8357SOL    HW125970   4.553   6.190   5.954
 8357SOL    HW225971   4.607   6.195   6.108
 8358SOL     OW25972   1.177   2.379   4.665
 8358SOL    HW125973   1.174   2.474   4.697
 8358SOL    HW225974   1.145   2.318   4.737
 8359SOL     OW25975   3.096   1.959   5.373
 8359SOL    HW125976   3.146   1.903   5.439
 8359SOL    HW225977   3.091   1.912   5.285
 8360SOL     OW25978   4.983   0.655   1.021
 8360SOL    HW125979   4.977   0.748   1.059
 8360SOL    HW225980   4.923   0.594   1.073
 8361SOL     OW25981   3.454   0.175   0.162
 8361SOL    HW125982   3.516   0.102   0.188
 8361SOL    HW225983   3.425   0.225   0.243
 8362SOL     OW25984   6.768   3.725   1.770
 8362SOL    HW125985   6.819   3.810   1.757
 8362SOL    HW225986   6.831   3.653   1.799
 8363SOL     OW25987   2.486   2.668   6.890
 8363SOL    HW125988   2.449   2.648   6.981
 8363SOL    HW225989   2.507   2.582   6.843
 8364SOL     OW25990   7.013   2.285   4.238
 8364SOL    HW125991   0.076   2.252   4.282
 8364SOL    HW225992   0.016   2.360   4.176
 8365SOL     OW25993   2.149   2.718   3.064
 8365SOL    HW125994   2.058   2.747   3.035
 8365SOL    HW225995   2.194   2.670   2.989
 8366SOL     OW25996   5.158   5.841   1.352
 8366SOL    HW125997   5.181   5.787   1.433
 8366SOL    HW225998   5.076   5.895   1.370
 8367SOL     OW25999   4.253   5.173   4.659
 8367SOL    HW126000   4.190   5.109   4.616
 8367SOL    HW226001   4.221   5.266   4.646
 8368SOL     OW26002   0.374   6.009   0.588
 8368SOL    HW126003   0.374   5.929   0.528
 8368SOL    HW226004   0.284   6.052   0.587
 8369SOL     OW26005   1.706   1.264   0.208
 8369SOL    HW126006   1.777   1.309   0.156
 8369SOL    HW226007   1.636   1.229   0.146
 8370SOL     OW26008   2.994   2.493   0.332
 8370SOL    HW126009   3.000   2.572   0.270
 8370SOL    HW226010   3.080   2.485   0.382
 8371SOL     OW26011   2.130   4.542   5.939
 8371SOL    HW126012   2.068   4.545   6.017
 8371SOL    HW226013   2.080   4.564   5.855
 8372SOL     OW26014   1.643   5.824   2.573
 8372SOL    HW126015   1.544   5.806   2.577
 8372SOL    HW226016   1.690   5.767   2.640
 8373SOL     OW26017   0.091   0.892   4.225
 8373SOL    HW126018   0.148   0.812   4.206
 8373SOL    HW226019   0.120   0.935   4.310
 8374SOL     OW26020   1.384   0.464   4.857
 8374SOL    HW126021   1.312   0.534   4.856
 8374SOL    HW226022   1.428   0.464   4.947
 8375SOL     OW26023   4.028   1.418   4.739
 8375SOL    HW126024   4.100   1.452   4.677
 8375SOL    HW226025   4.071   1.372   4.817
 8376SOL     OW26026   1.701   0.655   3.150
 8376SOL    HW126027   1.616   0.606   3.165
 8376SOL    HW226028   1.746   0.672   3.238
 8377SOL     OW26029   5.290   5.485   6.469
 8377SOL    HW126030   5.266   5.540   6.550
 8377SOL    HW226031   5.304   5.546   6.391
 8378SOL     OW26032   6.524   6.040   3.761
 8378SOL    HW126033   6.462   5.961   3.762
 8378SOL    HW226034   6.490   6.108   3.697
 8379SOL     OW26035   5.978   1.008   1.991
 8379SOL    HW126036   5.952   1.086   2.047
 8379SOL    HW226037   6.010   0.933   2.049
 8380SOL     OW26038   6.670   5.552   0.454
 8380SOL    HW126039   6.685   5.455   0.470
 8380SOL    HW226040   6.666   5.570   0.355
 8381SOL     OW26041   0.131   1.552   2.579
 8381SOL    HW126042   0.075   1.625   2.619
 8381SOL    HW226043   0.228   1.577   2.586
 8382SOL     OW26044   2.547   0.309   0.192
 8382SOL    HW126045   2.512   0.325   0.100
 8382SOL    HW226046   2.515   0.221   0.226
 8383SOL     OW26047   2.859   6.237   5.293
 8383SOL    HW126048   2.891   6.310   5.353
 8383SOL    HW226049   2.762   6.252   5.271
 8384SOL     OW26050   0.628   2.867   0.675
 8384SOL    HW126051   0.550   2.906   0.626
 8384SOL    HW226052   0.713   2.899   0.634
 8385SOL     OW26053   4.160   3.620   0.640
 8385SOL    HW126054   4.102   3.553   0.593
 8385SOL    HW226055   4.166   3.703   0.586
 8386SOL     OW26056   1.234   5.500   1.883
 8386SOL    HW126057   1.285   5.415   1.890
 8386SOL    HW226058   1.295   5.577   1.903
 8387SOL     OW26059   1.918   1.086   1.664
 8387SOL    HW126060   1.979   1.125   1.732
 8387SOL    HW226061   1.840   1.147   1.650
 8388SOL     OW26062   3.102   6.740   0.733
 8388SOL    HW126063   3.192   6.769   0.768
 8388SOL    HW226064   3.075   6.655   0.778
 8389SOL     OW26065   1.247   2.599   4.327
 8389SOL    HW126066   1.327   2.641   4.369
 8389SOL    HW226067   1.179   2.578   4.397
 8390SOL     OW26068   1.995   0.650   5.587
 8390SOL    HW126069   1.973   0.553   5.585
 8390SOL    HW226070   2.093   0.663   5.569
 8391SOL     OW26071   4.757   5.313   1.518
 8391SOL    HW126072   4.845   5.316   1.470
 8391SOL    HW226073   4.755   5.234   1.580
 8392SOL     OW26074   5.943   6.530   5.339
 8392SOL    HW126075   5.910   6.614   5.296
 8392SOL    HW226076   6.041   6.537   5.356
 8393SOL     OW26077   0.548   6.322   3.141
 8393SOL    HW126078   0.641   6.314   3.106
 8393SOL    HW226079   0.547   6.386   3.217
 8394SOL     OW26080   0.784   1.670   3.385
 8394SOL    HW126081   0.869   1.723   3.378
 8394SOL    HW226082   0.707   1.729   3.363
 8395SOL     OW26083   0.202   6.292   4.791
 8395SOL    HW126084   0.142   6.294   4.871
 8395SOL    HW226085   0.290   6.335   4.815
 8396SOL     OW26086   4.800   4.166   2.721
 8396SOL    HW126087   4.714   4.178   2.672
 8396SOL    HW226088   4.792   4.207   2.812
 8397SOL     OW26089   1.834   5.975   2.929
 8397SOL    HW126090   1.813   5.886   2.970
 8397SOL    HW226091   1.752   6.011   2.885
 8398SOL     OW26092   4.405   1.593   0.408
 8398SOL    HW126093   4.363   1.519   0.355
 8398SOL    HW226094   4.339   1.667   0.419
 8399SOL     OW26095   5.371   6.109   0.174
 8399SOL    HW126096   5.426   6.030   0.146
 8399SOL    HW226097   5.279   6.101   0.135
 8400SOL     OW26098   0.112   0.221   2.773
 8400SOL    HW126099   0.049   0.293   2.802
 8400SOL    HW226100   0.155   0.246   2.686
 8401SOL     OW26101   3.656   4.137   6.062
 8401SOL    HW126102   3.747   4.129   6.020
 8401SOL    HW226103   3.601   4.058   6.035
 8402SOL     OW26104   4.041   1.929   6.386
 8402SOL    HW126105   4.132   1.908   6.422
 8402SOL    HW226106   3.988   1.975   6.457
 8403SOL     OW26107   1.469   1.504   4.411
 8403SOL    HW126108   1.565   1.475   4.406
 8403SOL    HW226109   1.443   1.547   4.325
 8404SOL     OW26110   4.750   5.811   5.739
 8404SOL    HW126111   4.775   5.777   5.829
 8404SOL    HW226112   4.790   5.751   5.669
 8405SOL     OW26113   0.182   2.454   6.374
 8405SOL    HW126114   0.178   2.382   6.305
 8405SOL    HW226115   0.257   2.516   6.352
 8406SOL     OW26116   4.871   2.464   1.495
 8406SOL    HW126117   4.886   2.529   1.570
 8406SOL    HW226118   4.949   2.402   1.489
 8407SOL     OW26119   5.520   4.166   4.083
 8407SOL    HW126120   5.556   4.089   4.030
 8407SOL    HW226121   5.551   4.158   4.178
 8408SOL     OW26122   5.102   1.936   3.981
 8408SOL    HW126123   5.070   1.979   4.066
 8408SOL    HW226124   5.030   1.877   3.945
 8409SOL     OW26125   1.706   1.503   4.123
 8409SOL    HW126126   1.799   1.522   4.091
 8409SOL    HW226127   1.655   1.454   4.052
 8410SOL     OW26128   3.888   6.767   1.289
 8410SOL    HW126129   3.946   6.847   1.274
 8410SOL    HW226130   3.882   6.747   1.386
 8411SOL     OW26131   1.989   4.268   4.408
 8411SOL    HW126132   2.051   4.309   4.341
 8411SOL    HW226133   1.894   4.281   4.379
 8412SOL     OW26134   4.438   2.061   1.782
 8412SOL    HW126135   4.524   2.098   1.818
 8412SOL    HW226136   4.371   2.135   1.775
 8413SOL     OW26137   3.491   4.984   0.475
 8413SOL    HW126138   3.570   5.043   0.460
 8413SOL    HW226139   3.507   4.895   0.431
 8414SOL     OW26140   4.093   6.211   3.112
 8414SOL    HW126141   4.142   6.170   3.035
 8414SOL    HW226142   4.153   6.213   3.192
 8415SOL     OW26143   6.628   4.052   3.428
 8415SOL    HW126144   6.695   4.069   3.501
 8415SOL    HW226145   6.609   3.954   3.422
 8416SOL     OW26146   5.213   3.646   2.667
 8416SOL    HW126147   5.170   3.721   2.616
 8416SOL    HW226148   5.278   3.683   2.733
 8417SOL     OW26149   2.145   6.157   6.376
 8417SOL    HW126150   2.195   6.071   6.380
 8417SOL    HW226151   2.070   6.156   6.443
 8418SOL     OW26152   6.478   5.617   2.705
 8418SOL    HW126153   6.480   5.714   2.727
 8418SOL    HW226154   6.411   5.571   2.763
 8419SOL     OW26155   4.245   0.323   2.274
 8419SOL    HW126156   4.213   0.405   2.322
 8419SOL    HW226157   4.317   0.279   2.327
 8420SOL     OW26158   4.034   0.458   6.060
 8420SOL    HW126159   4.021   0.421   5.968
 8420SOL    HW226160   3.945   0.481   6.099
 8421SOL     OW26161   1.920   6.367   2.055
 8421SOL    HW126162   1.895   6.297   2.121
 8421SOL    HW226163   1.983   6.329   1.987
 8422SOL     OW26164   4.485   6.832   0.292
 8422SOL    HW126165   4.446   6.767   0.357
 8422SOL    HW226166   4.575   6.862   0.324
 8423SOL     OW26167   3.616   4.572   0.472
 8423SOL    HW126168   3.563   4.633   0.412
 8423SOL    HW226169   3.576   4.573   0.564
 8424SOL     OW26170   3.392   1.699   2.906
 8424SOL    HW126171   3.406   1.627   2.838
 8424SOL    HW226172   3.455   1.774   2.889
 8425SOL     OW26173   5.933   4.926   1.304
 8425SOL    HW126174   6.020   4.944   1.259
 8425SOL    HW226175   5.913   4.999   1.369
 8426SOL     OW26176   3.809   3.413   3.569
 8426SOL    HW126177   3.775   3.497   3.611
 8426SOL    HW226178   3.810   3.340   3.637
 8427SOL     OW26179   2.249   3.761   6.743
 8427SOL    HW126180   2.162   3.738   6.787
 8427SOL    HW226181   2.308   3.809   6.807
 8428SOL     OW26182   0.330   4.154   2.095
 8428SOL    HW126183   0.316   4.133   2.192
 8428SOL    HW226184   0.304   4.074   2.040
 8429SOL     OW26185   2.156   5.588   3.813
 8429SOL    HW126186   2.225   5.521   3.840
 8429SOL    HW226187   2.167   5.671   3.868
 8430SOL     OW26188   4.504   4.594   3.194
 8430SOL    HW126189   4.554   4.515   3.157
 8430SOL    HW226190   4.476   4.653   3.119
 8431SOL     OW26191   3.641   4.522   1.141
 8431SOL    HW126192   3.648   4.469   1.225
 8431SOL    HW226193   3.546   4.547   1.125
 8432SOL     OW26194   3.939   5.656   6.393
 8432SOL    HW126195   3.861   5.661   6.455
 8432SOL    HW226196   3.908   5.666   6.299
 8433SOL     OW26197   1.166   2.837   6.234
 8433SOL    HW126198   1.180   2.824   6.333
 8433SOL    HW226199   1.148   2.748   6.191
 8434SOL     OW26200   4.934   6.332   5.904
 8434SOL    HW126201   5.012   6.285   5.862
 8434SOL    HW226202   4.851   6.309   5.854
 8435SOL     OW26203   4.747   1.971   1.263
 8435SOL    HW126204   4.754   1.872   1.269
 8435SOL    HW226205   4.692   1.997   1.184
 8436SOL     OW26206   4.294   4.648   2.328
 8436SOL    HW126207   4.210   4.683   2.287
 8436SOL    HW226208   4.353   4.609   2.258
 8437SOL     OW26209   0.724   1.209   0.882
 8437SOL    HW126210   0.716   1.184   0.979
 8437SOL    HW226211   0.783   1.289   0.874
 8438SOL     OW26212   2.851   4.720   2.414
 8438SOL    HW126213   2.935   4.767   2.385
 8438SOL    HW226214   2.811   4.672   2.336
 8439SOL     OW26215   0.355   5.422   2.413
 8439SOL    HW126216   0.309   5.372   2.339
 8439SOL    HW226217   0.302   5.413   2.497
 8440SOL     OW26218   0.406   0.767   1.526
 8440SOL    HW126219   0.413   0.867   1.521
 8440SOL    HW226220   0.312   0.742   1.549
 8441SOL     OW26221   5.506   5.844   6.324
 8441SOL    HW126222   5.560   5.785   6.264
 8441SOL    HW226223   5.463   5.917   6.271
 8442SOL     OW26224   2.500   4.549   0.286
 8442SOL    HW126225   2.543   4.509   0.205
 8442SOL    HW226226   2.570   4.572   0.353
 8443SOL     OW26227   0.971   0.537   3.120
 8443SOL    HW126228   0.916   0.502   3.044
 8443SOL    HW226229   0.911   0.577   3.189
 8444SOL     OW26230   3.973   6.497   3.726
 8444SOL    HW126231   3.940   6.478   3.634
 8444SOL    HW226232   4.031   6.422   3.758
 8445SOL     OW26233   3.702   5.409   2.932
 8445SOL    HW126234   3.687   5.322   2.885
 8445SOL    HW226235   3.736   5.391   3.025
 8446SOL     OW26236   5.515   5.216   2.828
 8446SOL    HW126237   5.529   5.232   2.925
 8446SOL    HW226238   5.435   5.267   2.797
 8447SOL     OW26239   5.198   2.303   2.177
 8447SOL    HW126240   5.123   2.246   2.210
 8447SOL    HW226241   5.239   2.352   2.254
 8448SOL     OW26242   0.118   3.813   6.501
 8448SOL    HW126243   0.201   3.868   6.494
 8448SOL    HW226244   0.121   3.739   6.434
 8449SOL     OW26245   0.617   3.464   4.846
 8449SOL    HW126246   0.539   3.420   4.801
 8449SOL    HW226247   0.663   3.398   4.905
 8450SOL     OW26248   1.624   6.172   2.812
 8450SOL    HW126249   1.598   6.268   2.822
 8450SOL    HW226250   1.546   6.114   2.838
 8451SOL     OW26251   3.918   3.129   1.310
 8451SOL    HW126252   3.957   3.160   1.223
 8451SOL    HW226253   3.955   3.183   1.385
 8452SOL     OW26254   6.550   0.346   1.285
 8452SOL    HW126255   6.626   0.394   1.330
 8452SOL    HW226256   6.585   0.271   1.229
 8453SOL     OW26257   6.328   4.620   6.869
 8453SOL    HW126258   6.309   4.570   6.954
 8453SOL    HW226259   6.409   4.582   6.826
 8454SOL     OW26260   1.255   6.717   3.004
 8454SOL    HW126261   1.270   6.672   3.092
 8454SOL    HW226262   1.211   6.805   3.018
 8455SOL     OW26263   4.838   1.650   1.032
 8455SOL    HW126264   4.830   1.567   0.977
 8455SOL    HW226265   4.779   1.643   1.112
 8456SOL     OW26266   5.427   5.392   3.978
 8456SOL    HW126267   5.393   5.436   3.895
 8456SOL    HW226268   5.497   5.324   3.953
 8457SOL     OW26269   0.029   0.367   5.614
 8457SOL    HW126270   0.016   0.307   5.692
 8457SOL    HW226271   7.003   0.455   5.631
 8458SOL     OW26272   1.896   2.105   0.263
 8458SOL    HW126273   1.847   2.071   0.184
 8458SOL    HW226274   1.904   2.033   0.332
 8459SOL     OW26275   3.570   5.701   2.090
 8459SOL    HW126276   3.562   5.801   2.091
 8459SOL    HW226277   3.509   5.664   2.020
 8460SOL     OW26278   4.728   2.314   6.792
 8460SOL    HW126279   4.754   2.232   6.742
 8460SOL    HW226280   4.656   2.291   6.858
 8461SOL     OW26281   0.544   4.129   1.729
 8461SOL    HW126282   0.448   4.156   1.741
 8461SOL    HW226283   0.547   4.047   1.672
 8462SOL     OW26284   3.526   4.243   6.937
 8462SOL    HW126285   3.622   4.212   6.936
 8462SOL    HW226286   3.472   4.181   6.994
 8463SOL     OW26287   6.966   1.985   0.347
 8463SOL    HW126288   7.002   2.029   0.265
 8463SOL    HW226289   6.881   1.937   0.325
 8464SOL     OW26290   0.273   3.537   6.595
 8464SOL    HW126291   0.367   3.571   6.597
 8464SOL    HW226292   0.270   3.451   6.544
 8465SOL     OW26293   3.610   2.166   1.181
 8465SOL    HW126294   3.673   2.122   1.246
 8465SOL    HW226295   3.621   2.265   1.186
 8466SOL     OW26296   5.427   0.578   5.429
 8466SOL    HW126297   5.477   0.500   5.394
 8466SOL    HW226298   5.482   0.626   5.497
 8467SOL     OW26299   3.253   1.062   0.529
 8467SOL    HW126300   3.334   1.029   0.481
 8467SOL    HW226301   3.236   1.004   0.609
 8468SOL     OW26302   6.041   3.859   6.678
 8468SOL    HW126303   6.072   3.855   6.583
 8468SOL    HW226304   6.087   3.787   6.731
 8469SOL     OW26305   4.198   2.746   5.542
 8469SOL    HW126306   4.107   2.776   5.571
 8469SOL    HW226307   4.255   2.731   5.623
 8470SOL     OW26308   0.883   4.590   1.199
 8470SOL    HW126309   0.813   4.660   1.217
 8470SOL    HW226310   0.923   4.561   1.286
 8471SOL     OW26311   2.785   0.663   5.174
 8471SOL    HW126312   2.825   0.614   5.251
 8471SOL    HW226313   2.743   0.598   5.111
 8472SOL     OW26314   5.314   1.651   6.266
 8472SOL    HW126315   5.328   1.655   6.365
 8472SOL    HW226316   5.229   1.600   6.246
 8473SOL     OW26317   5.079   4.861   6.844
 8473SOL    HW126318   5.115   4.943   6.799
 8473SOL    HW226319   4.984   4.876   6.870
 8474SOL     OW26320   3.129   3.028   2.553
 8474SOL    HW126321   3.161   3.063   2.465
 8474SOL    HW226322   3.031   3.011   2.548
 8475SOL     OW26323   0.110   3.502   1.312
 8475SOL    HW126324   0.155   3.487   1.224
 8475SOL    HW226325   0.022   3.455   1.314
 8476SOL     OW26326   6.130   0.323   1.732
 8476SOL    HW126327   6.106   0.312   1.636
 8476SOL    HW226328   6.134   0.233   1.776
 8477SOL     OW26329   4.601   0.064   1.510
 8477SOL    HW126330   4.667   7.012   1.487
 8477SOL    HW226331   4.628   0.108   1.596
 8478SOL     OW26332   0.675   0.303   5.649
 8478SOL    HW126333   0.612   0.364   5.697
 8478SOL    HW226334   0.749   0.277   5.711
 8479SOL     OW26335   1.804   2.461   1.295
 8479SOL    HW126336   1.893   2.463   1.250
 8479SOL    HW226337   1.770   2.367   1.300
 8480SOL     OW26338   4.540   3.161   0.316
 8480SOL    HW126339   4.592   3.091   0.267
 8480SOL    HW226340   4.597   3.198   0.390
 8481SOL     OW26341   3.664   2.102   4.603
 8481SOL    HW126342   3.643   2.096   4.700
 8481SOL    HW226343   3.763   2.110   4.591
 8482SOL     OW26344   4.793   1.032   0.011
 8482SOL    HW126345   4.755   0.950   0.053
 8482SOL    HW226346   4.821   1.012   6.937
 8483SOL     OW26347   3.669   5.989   3.651
 8483SOL    HW126348   3.690   5.892   3.645
 8483SOL    HW226349   3.583   6.008   3.603
 8484SOL     OW26350   6.393   6.090   5.041
 8484SOL    HW126351   6.319   6.138   4.994
 8484SOL    HW226352   6.481   6.131   5.015
 8485SOL     OW26353   3.710   2.332   0.247
 8485SOL    HW126354   3.668   2.365   0.162
 8485SOL    HW226355   3.800   2.294   0.227
 8486SOL     OW26356   1.458   1.260   2.162
 8486SOL    HW126357   1.467   1.171   2.207
 8486SOL    HW226358   1.450   1.248   2.063
 8487SOL     OW26359   5.472   1.958   5.926
 8487SOL    HW126360   5.484   1.916   6.016
 8487SOL    HW226361   5.542   2.027   5.911
 8488SOL     OW26362   5.705   6.023   2.587
 8488SOL    HW126363   5.772   5.963   2.544
 8488SOL    HW226364   5.673   6.091   2.520
 8489SOL     OW26365   5.504   1.025   1.261
 8489SOL    HW126366   5.597   0.989   1.248
 8489SOL    HW226367   5.501   1.121   1.233
 8490SOL     OW26368   2.512   6.571   6.309
 8490SOL    HW126369   2.560   6.483   6.307
 8490SOL    HW226370   2.431   6.566   6.250
 8491SOL     OW26371   1.980   5.780   2.430
 8491SOL    HW126372   1.928   5.745   2.508
 8491SOL    HW226373   1.935   5.753   2.345
 8492SOL     OW26374   6.106   3.960   4.572
 8492SOL    HW126375   6.040   3.918   4.509
 8492SOL    HW226376   6.193   3.972   4.525
 8493SOL     OW26377   3.329   1.477   0.460
 8493SOL    HW126378   3.312   1.485   0.558
 8493SOL    HW226379   3.422   1.508   0.441
 8494SOL     OW26380   5.843   4.982   1.978
 8494SOL    HW126381   5.897   4.906   1.941
 8494SOL    HW226382   5.902   5.041   2.034
 8495SOL     OW26383   6.095   5.182   0.795
 8495SOL    HW126384   6.130   5.158   0.885
 8495SOL    HW226385   6.092   5.099   0.738
 8496SOL     OW26386   5.517   1.506   2.094
 8496SOL    HW126387   5.525   1.420   2.044
 8496SOL    HW226388   5.538   1.582   2.033
 8497SOL     OW26389   0.130   0.208   3.681
 8497SOL    HW126390   0.180   0.137   3.729
 8497SOL    HW226391   0.083   0.266   3.747
 8498SOL     OW26392   5.307   6.954   3.927
 8498SOL    HW126393   5.274   0.029   3.921
 8498SOL    HW226394   5.231   6.894   3.953
 8499SOL     OW26395   6.914   5.828   0.357
 8499SOL    HW126396   6.831   5.883   0.349
 8499SOL    HW226397   6.957   5.819   0.267
 8500SOL     OW26398   1.655   1.250   5.961
 8500SOL    HW126399   1.601   1.312   6.018
 8500SOL    HW226400   1.746   1.289   5.946
 8501SOL     OW26401   0.587   1.970   6.932
 8501SOL    HW126402   0.659   1.990   6.866
 8501SOL    HW226403   0.507   2.026   6.912
 8502SOL     OW26404   0.414   3.010   6.555
 8502SOL    HW126405   0.473   2.981   6.630
 8502SOL    HW226406   0.374   2.929   6.511
 8503SOL     OW26407   6.641   6.172   4.594
 8503SOL    HW126408   6.557   6.154   4.646
 8503SOL    HW226409   6.620   6.180   4.497
 8504SOL     OW26410   2.101   5.515   2.306
 8504SOL    HW126411   2.165   5.438   2.309
 8504SOL    HW226412   2.017   5.487   2.259
 8505SOL     OW26413   5.403   3.418   2.804
 8505SOL    HW126414   5.437   3.443   2.714
 8505SOL    HW226415   5.307   3.390   2.797
 8506SOL     OW26416   1.762   0.946   0.161
 8506SOL    HW126417   1.808   0.871   0.114
 8506SOL    HW226418   1.827   0.993   0.220
 8507SOL     OW26419   4.745   0.280   5.217
 8507SOL    HW126420   4.654   0.249   5.245
 8507SOL    HW226421   4.782   0.341   5.287
 8508SOL     OW26422   4.302   2.234   6.652
 8508SOL    HW126423   4.211   2.194   6.664
 8508SOL    HW226424   4.371   2.169   6.684
 8509SOL     OW26425   5.767   0.104   3.273
 8509SOL    HW126426   5.762   0.204   3.284
 8509SOL    HW226427   5.863   0.076   3.263
 8510SOL     OW26428   5.480   2.738   4.257
 8510SOL    HW126429   5.402   2.687   4.292
 8510SOL    HW226430   5.535   2.679   4.198
 8511SOL     OW26431   5.655   2.908   2.235
 8511SOL    HW126432   5.577   2.891   2.296
 8511SOL    HW226433   5.634   2.985   2.174
 8512SOL     OW26434   1.995   0.020   3.450
 8512SOL    HW126435   1.904   7.014   3.418
 8512SOL    HW226436   2.048   0.058   3.374
 8513SOL     OW26437   6.016   6.300   7.001
 8513SOL    HW126438   5.920   6.316   6.977
 8513SOL    HW226439   6.030   6.321   0.078
 8514SOL     OW26440   3.230   6.276   3.562
 8514SOL    HW126441   3.217   6.179   3.544
 8514SOL    HW226442   3.317   6.306   3.524
 8515SOL     OW26443   5.976   2.138   0.720
 8515SOL    HW126444   5.879   2.118   0.719
 8515SOL    HW226445   5.993   2.227   0.677
 8516SOL     OW26446   6.543   2.158   2.163
 8516SOL    HW126447   6.473   2.216   2.123
 8516SOL    HW226448   6.560   2.187   2.257
 8517SOL     OW26449   1.225   2.550   6.223
 8517SOL    HW126450   1.191   2.458   6.240
 8517SOL    HW226451   1.304   2.568   6.281
 8518SOL     OW26452   3.195   5.859   0.151
 8518SOL    HW126453   3.169   5.848   0.247
 8518SOL    HW226454   3.134   5.804   0.094
 8519SOL     OW26455   1.381   5.674   2.286
 8519SOL    HW126456   1.380   5.773   2.301
 8519SOL    HW226457   1.314   5.650   2.215
 8520SOL     OW26458   3.926   1.225   0.165
 8520SOL    HW126459   3.956   1.228   0.069
 8520SOL    HW226460   4.005   1.240   0.225
 8521SOL     OW26461   0.776   6.232   6.075
 8521SOL    HW126462   0.756   6.140   6.041
 8521SOL    HW226463   0.874   6.249   6.067
 8522SOL     OW26464   0.995   6.430   4.302
 8522SOL    HW126465   1.029   6.448   4.394
 8522SOL    HW226466   0.952   6.512   4.266
 8523SOL     OW26467   2.119   6.805   6.199
 8523SOL    HW126468   2.148   6.901   6.193
 8523SOL    HW226469   2.182   6.755   6.258
 8524SOL     OW26470   1.291   3.727   5.478
 8524SOL    HW126471   1.352   3.652   5.452
 8524SOL    HW226472   1.298   3.742   5.576
 8525SOL     OW26473   5.730   3.530   2.849
 8525SOL    HW126474   5.724   3.483   2.937
 8525SOL    HW226475   5.759   3.466   2.779
 8526SOL     OW26476   2.556   2.747   1.726
 8526SOL    HW126477   2.478   2.747   1.789
 8526SOL    HW226478   2.580   2.841   1.702
 8527SOL     OW26479   4.513   0.443   4.314
 8527SOL    HW126480   4.558   0.526   4.348
 8527SOL    HW226481   4.578   0.367   4.317
 8528SOL     OW26482   4.621   3.086   5.865
 8528SOL    HW126483   4.529   3.125   5.871
 8528SOL    HW226484   4.674   3.114   5.945
 8529SOL     OW26485   1.634   4.715   6.955
 8529SOL    HW126486   1.631   4.692   6.857
 8529SOL    HW226487   1.580   4.649   7.006
 8530SOL     OW26488   1.228   4.209   5.378
 8530SOL    HW126489   1.293   4.219   5.302
 8530SOL    HW226490   1.237   4.287   5.440
 8531SOL     OW26491   5.449   5.200   2.465
 8531SOL    HW126492   5.452   5.141   2.384
 8531SOL    HW226493   5.466   5.144   2.546
 8532SOL     OW26494   3.418   4.949   5.665
 8532SOL    HW126495   3.396   5.045   5.685
 8532SOL    HW226496   3.355   4.890   5.715
 8533SOL     OW26497   3.102   1.072   4.634
 8533SOL    HW126498   3.121   1.156   4.686
 8533SOL    HW226499   3.004   1.068   4.613
 8534SOL     OW26500   1.529   3.402   3.036
 8534SOL    HW126501   1.486   3.474   3.092
 8534SOL    HW226502   1.566   3.331   3.096
 8535SOL     OW26503   0.635   1.985   4.600
 8535SOL    HW126504   0.729   2.015   4.618
 8535SOL    HW226505   0.626   1.963   4.503
 8536SOL     OW26506   6.570   1.810   5.580
 8536SOL    HW126507   6.512   1.891   5.565
 8536SOL    HW226508   6.661   1.826   5.542
 8537SOL     OW26509   5.702   0.467   1.199
 8537SOL    HW126510   5.751   0.381   1.185
 8537SOL    HW226511   5.708   0.494   1.295
 8538SOL     OW26512   0.193   0.448   4.649
 8538SOL    HW126513   0.160   0.537   4.616
 8538SOL    HW226514   0.116   0.384   4.657
 8539SOL     OW26515   0.527   2.538   1.959
 8539SOL    HW126516   0.510   2.593   1.878
 8539SOL    HW226517   0.510   2.592   2.041
 8540SOL     OW26518   3.189   0.757   0.458
 8540SOL    HW126519   3.265   0.776   0.396
 8540SOL    HW226520   3.106   0.738   0.405
 8541SOL     OW26521   3.036   1.505   4.647
 8541SOL    HW126522   2.941   1.511   4.614
 8541SOL    HW226523   3.047   1.419   4.698
 8542SOL     OW26524   2.116   4.561   6.692
 8542SOL    HW126525   2.042   4.571   6.626
 8542SOL    HW226526   2.084   4.587   6.783
 8543SOL     OW26527   2.051   2.464   5.619
 8543SOL    HW126528   2.089   2.505   5.535
 8543SOL    HW226529   2.123   2.413   5.666
 8544SOL     OW26530   5.091   4.077   5.382
 8544SOL    HW126531   5.174   4.126   5.354
 8544SOL    HW226532   5.079   4.084   5.481
 8545SOL     OW26533   3.455   6.829   5.812
 8545SOL    HW126534   3.483   6.874   5.897
 8545SOL    HW226535   3.374   6.773   5.829
 8546SOL     OW26536   5.220   0.660   1.727
 8546SOL    HW126537   5.131   0.684   1.688
 8546SOL    HW226538   5.256   0.737   1.780
 8547SOL     OW26539   6.372   6.651   5.812
 8547SOL    HW126540   6.411   6.599   5.888
 8547SOL    HW226541   6.334   6.589   5.744
 8548SOL     OW26542   0.981   3.374   6.074
 8548SOL    HW126543   1.050   3.315   6.116
 8548SOL    HW226544   0.966   3.344   5.980
 8549SOL     OW26545   2.061   0.802   3.107
 8549SOL    HW126546   2.074   0.877   3.172
 8549SOL    HW226547   1.985   0.745   3.137
 8550SOL     OW26548   0.667   4.202   6.999
 8550SOL    HW126549   0.663   4.240   0.072
 8550SOL    HW226550   0.762   4.177   6.977
 8551SOL     OW26551   2.026   2.047   6.018
 8551SOL    HW126552   2.065   1.955   6.010
 8551SOL    HW226553   1.936   2.041   6.059
 8552SOL     OW26554   2.503   1.299   2.813
 8552SOL    HW126555   2.599   1.324   2.811
 8552SOL    HW226556   2.448   1.378   2.784
 8553SOL     OW26557   4.943   3.191   0.931
 8553SOL    HW126558   5.004   3.117   0.902
 8553SOL    HW226559   4.896   3.229   0.851
 8554SOL     OW26560   0.784   6.697   0.677
 8554SOL    HW126561   0.869   6.648   0.696
 8554SOL    HW226562   0.795   6.751   0.593
 8555SOL     OW26563   4.490   1.277   3.446
 8555SOL    HW126564   4.526   1.369   3.464
 8555SOL    HW226565   4.392   1.274   3.467
 8556SOL     OW26566   1.802   6.250   0.086
 8556SOL    HW126567   1.769   6.170   0.036
 8556SOL    HW226568   1.891   6.277   0.049
 8557SOL     OW26569   7.011   0.921   0.154
 8557SOL    HW126570   0.039   0.856   0.214
 8557SOL    HW226571   0.018   1.014   0.178
 8558SOL     OW26572   3.039   4.840   3.279
 8558SOL    HW126573   3.068   4.878   3.367
 8558SOL    HW226574   2.944   4.866   3.260
 8559SOL     OW26575   0.870   5.231   2.548
 8559SOL    HW126576   0.854   5.190   2.458
 8559SOL    HW226577   0.810   5.188   2.615
 8560SOL     OW26578   2.406   4.670   1.450
 8560SOL    HW126579   2.461   4.754   1.447
 8560SOL    HW226580   2.309   4.694   1.442
 8561SOL     OW26581   4.147   7.002   2.254
 8561SOL    HW126582   4.076   6.941   2.218
 8561SOL    HW226583   4.187   0.035   2.179
 8562SOL     OW26584   4.058   1.347   6.734
 8562SOL    HW126585   3.989   1.400   6.785
 8562SOL    HW226586   4.040   1.355   6.636
 8563SOL     OW26587   1.583   5.706   3.411
 8563SOL    HW126588   1.484   5.700   3.393
 8563SOL    HW226589   1.612   5.623   3.459
 8564SOL     OW26590   4.070   0.414   6.874
 8564SOL    HW126591   3.984   0.464   6.877
 8564SOL    HW226592   4.096   0.398   6.779
 8565SOL     OW26593   2.732   5.524   1.044
 8565SOL    HW126594   2.693   5.498   0.955
 8565SOL    HW226595   2.832   5.513   1.040
 8566SOL     OW26596   3.288   1.324   3.326
 8566SOL    HW126597   3.327   1.307   3.416
 8566SOL    HW226598   3.215   1.259   3.308
 8567SOL     OW26599   1.706   2.184   1.687
 8567SOL    HW126600   1.794   2.140   1.673
 8567SOL    HW226601   1.717   2.283   1.681
 8568SOL     OW26602   0.041   1.621   6.876
 8568SOL    HW126603   0.131   1.662   6.864
 8568SOL    HW226604   7.012   1.667   6.951
 8569SOL     OW26605   5.484   2.506   6.092
 8569SOL    HW126606   5.538   2.450   6.155
 8569SOL    HW226607   5.431   2.573   6.144
 8570SOL     OW26608   1.576   2.597   4.023
 8570SOL    HW126609   1.599   2.505   4.056
 8570SOL    HW226610   1.491   2.594   3.970
 8571SOL     OW26611   1.898   0.663   3.825
 8571SOL    HW126612   1.800   0.677   3.830
 8571SOL    HW226613   1.932   0.633   3.915
 8572SOL     OW26614   3.016   4.372   5.766
 8572SOL    HW126615   3.044   4.448   5.825
 8572SOL    HW226616   2.976   4.299   5.822
 8573SOL     OW26617   3.530   6.161   0.699
 8573SOL    HW126618   3.492   6.197   0.614
 8573SOL    HW226619   3.600   6.224   0.734
 8574SOL     OW26620   6.759   6.622   5.748
 8574SOL    HW126621   6.705   6.554   5.698
 8574SOL    HW226622   6.794   6.581   5.832
 8575SOL     OW26623   3.322   5.861   2.707
 8575SOL    HW126624   3.253   5.816   2.650
 8575SOL    HW226625   3.338   5.954   2.673
 8576SOL     OW26626   0.518   3.800   3.678
 8576SOL    HW126627   0.484   3.737   3.609
 8576SOL    HW226628   0.614   3.823   3.658
 8577SOL     OW26629   1.951   1.475   6.690
 8577SOL    HW126630   1.989   1.420   6.764
 8577SOL    HW226631   2.017   1.546   6.664
 8578SOL     OW26632   6.332   0.064   5.116
 8578SOL    HW126633   6.415   0.095   5.162
 8578SOL    HW226634   6.341   0.076   5.018
 8579SOL     OW26635   2.943   6.099   2.813
 8579SOL    HW126636   2.956   6.001   2.830
 8579SOL    HW226637   2.888   6.112   2.731
 8580SOL     OW26638   1.720   6.554   1.411
 8580SOL    HW126639   1.654   6.553   1.336
 8580SOL    HW226640   1.797   6.613   1.387
 8581SOL     OW26641   3.499   5.002   1.290
 8581SOL    HW126642   3.436   5.079   1.291
 8581SOL    HW226643   3.528   4.984   1.196
 8582SOL     OW26644   3.884   4.606   5.668
 8582SOL    HW126645   3.818   4.533   5.686
 8582SOL    HW226646   3.957   4.571   5.608
 8583SOL     OW26647   4.265   0.865   2.809
 8583SOL    HW126648   4.351   0.858   2.859
 8583SOL    HW226649   4.241   0.961   2.798
 8584SOL     OW26650   6.812   0.933   4.644
 8584SOL    HW126651   6.795   1.031   4.633
 8584SOL    HW226652   6.898   0.919   4.693
 8585SOL     OW26653   5.691   2.114   1.548
 8585SOL    HW126654   5.742   2.138   1.465
 8585SOL    HW226655   5.633   2.191   1.574
 8586SOL     OW26656   5.506   6.025   1.270
 8586SOL    HW126657   5.546   6.017   1.180
 8586SOL    HW226658   5.531   6.114   1.310
 8587SOL     OW26659   1.299   1.326   5.847
 8587SOL    HW126660   1.202   1.307   5.860
 8587SOL    HW226661   1.353   1.258   5.897
 8588SOL     OW26662   2.901   1.664   0.135
 8588SOL    HW126663   2.983   1.721   0.149
 8588SOL    HW226664   2.863   1.682   0.045
 8589SOL     OW26665   0.711   3.077   5.696
 8589SOL    HW126666   0.800   3.034   5.680
 8589SOL    HW226667   0.724   3.166   5.739
 8590SOL     OW26668   0.577   1.901   2.732
 8590SOL    HW126669   0.560   1.979   2.792
 8590SOL    HW226670   0.658   1.919   2.677
 8591SOL     OW26671   6.694   5.215   0.140
 8591SOL    HW126672   6.763   5.186   0.206
 8591SOL    HW226673   6.724   5.300   0.096
 8592SOL     OW26674   0.821   2.535   6.575
 8592SOL    HW126675   0.754   2.569   6.641
 8592SOL    HW226676   0.912   2.570   6.599
 8593SOL     OW26677   2.733   0.295   6.708
 8593SOL    HW126678   2.688   0.363   6.766
 8593SOL    HW226679   2.664   0.235   6.668
 8594SOL     OW26680   6.334   2.709   6.047
 8594SOL    HW126681   6.339   2.809   6.044
 8594SOL    HW226682   6.245   2.679   6.013
 8595SOL     OW26683   4.854   6.738   2.027
 8595SOL    HW126684   4.916   6.722   2.105
 8595SOL    HW226685   4.881   6.821   1.980
 8596SOL     OW26686   0.822   2.877   3.422
 8596SOL    HW126687   0.756   2.897   3.350
 8596SOL    HW226688   0.894   2.818   3.386
 8597SOL     OW26689   5.718   3.524   1.295
 8597SOL    HW126690   5.817   3.526   1.290
 8597SOL    HW226691   5.688   3.547   1.388
 8598SOL     OW26692   5.772   0.397   4.572
 8598SOL    HW126693   5.778   0.336   4.493
 8598SOL    HW226694   5.737   0.486   4.543
 8599SOL     OW26695   1.726   2.564   3.615
 8599SOL    HW126696   1.745   2.517   3.701
 8599SOL    HW226697   1.628   2.582   3.608
 8600SOL     OW26698   4.583   3.129   1.440
 8600SOL    HW126699   4.530   3.062   1.492
 8600SOL    HW226700   4.549   3.221   1.461
 8601SOL     OW26701   1.057   0.573   3.543
 8601SOL    HW126702   1.007   0.604   3.624
 8601SOL    HW226703   1.095   0.653   3.495
 8602SOL     OW26704   2.712   0.078   4.408
 8602SOL    HW126705   2.674   0.023   4.334
 8602SOL    HW226706   2.806   0.049   4.427
 8603SOL     OW26707   6.792   0.644   0.265
 8603SOL    HW126708   6.837   0.592   0.338
 8603SOL    HW226709   6.835   0.624   0.177
 8604SOL     OW26710   1.415   4.122   5.955
 8604SOL    HW126711   1.439   4.025   5.945
 8604SOL    HW226712   1.400   4.143   6.051
 8605SOL     OW26713   6.733   4.764   4.547
 8605SOL    HW126714   6.645   4.718   4.534
 8605SOL    HW226715   6.794   4.741   4.472
 8606SOL     OW26716   2.040   2.349   6.548
 8606SOL    HW126717   1.996   2.324   6.634
 8606SOL    HW226718   1.990   2.308   6.472
 8607SOL     OW26719   2.031   4.915   1.637
 8607SOL    HW126720   1.974   4.897   1.557
 8607SOL    HW226721   2.122   4.875   1.624
 8608SOL     OW26722   2.738   4.894   3.290
 8608SOL    HW126723   2.754   4.975   3.233
 8608SOL    HW226724   2.650   4.853   3.265
 8609SOL     OW26725   5.247   1.388   3.615
 8609SOL    HW126726   5.344   1.387   3.638
 8609SOL    HW226727   5.221   1.301   3.573
 8610SOL     OW26728   0.292   6.294   3.325
 8610SOL    HW126729   0.363   6.231   3.295
 8610SOL    HW226730   0.292   6.300   3.425
 8611SOL     OW26731   3.107   1.497   3.863
 8611SOL    HW126732   3.117   1.547   3.949
 8611SOL    HW226733   3.086   1.561   3.789
 8612SOL     OW26734   3.927   3.263   3.375
 8612SOL    HW126735   3.876   3.296   3.455
 8612SOL    HW226736   3.985   3.336   3.339
 8613SOL     OW26737   2.963   2.505   1.424
 8613SOL    HW126738   3.019   2.428   1.394
 8613SOL    HW226739   2.883   2.514   1.364
 8614SOL     OW26740   0.880   2.107   1.279
 8614SOL    HW126741   0.979   2.102   1.268
 8614SOL    HW226742   0.836   2.063   1.201
 8615SOL     OW26743   4.350   1.633   3.525
 8615SOL    HW126744   4.303   1.626   3.613
 8615SOL    HW226745   4.403   1.717   3.522
 8616SOL     OW26746   4.434   4.882   2.424
 8616SOL    HW126747   4.378   4.801   2.437
 8616SOL    HW226748   4.443   4.900   2.326
 8617SOL     OW26749   4.917   0.187   3.965
 8617SOL    HW126750   4.916   0.117   4.036
 8617SOL    HW226751   4.830   0.237   3.967
 8618SOL     OW26752   5.336   4.044   1.532
 8618SOL    HW126753   5.254   4.100   1.520
 8618SOL    HW226754   5.379   4.066   1.620
 8619SOL     OW26755   5.236   4.633   1.987
 8619SOL    HW126756   5.313   4.581   1.952
 8619SOL    HW226757   5.232   4.623   2.087
 8620SOL     OW26758   2.225   0.930   4.647
 8620SOL    HW126759   2.258   0.838   4.666
 8620SOL    HW226760   2.293   0.997   4.676
 8621SOL     OW26761   4.912   2.456   2.187
 8621SOL    HW126762   4.977   2.382   2.207
 8621SOL    HW226763   4.904   2.467   2.088
 8622SOL     OW26764   6.586   5.176   2.914
 8622SOL    HW126765   6.533   5.205   2.994
 8622SOL    HW226766   6.674   5.223   2.914
 8623SOL     OW26767   6.798   2.923   5.463
 8623SOL    HW126768   6.842   2.833   5.454
 8623SOL    HW226769   6.846   2.988   5.404
 8624SOL     OW26770   3.530   3.952   6.329
 8624SOL    HW126771   3.558   4.046   6.307
 8624SOL    HW226772   3.435   3.952   6.359
 8625SOL     OW26773   3.792   1.558   5.375
 8625SOL    HW126774   3.881   1.561   5.329
 8625SOL    HW226775   3.719   1.558   5.306
 8626SOL     OW26776   4.633   3.392   0.173
 8626SOL    HW126777   4.592   3.328   0.238
 8626SOL    HW226778   4.730   3.405   0.197
 8627SOL     OW26779   1.703   1.394   2.191
 8627SOL    HW126780   1.697   1.421   2.287
 8627SOL    HW226781   1.621   1.343   2.166
 8628SOL     OW26782   0.592   6.443   0.287
 8628SOL    HW126783   0.560   6.416   0.196
 8628SOL    HW226784   0.681   6.401   0.305
 8629SOL     OW26785   0.478   0.114   4.343
 8629SOL    HW126786   0.431   0.165   4.416
 8629SOL    HW226787   0.465   0.016   4.357
 8630SOL     OW26788   4.970   3.420   3.417
 8630SOL    HW126789   4.911   3.356   3.368
 8630SOL    HW226790   4.984   3.502   3.362
 8631SOL     OW26791   2.753   6.442   6.731
 8631SOL    HW126792   2.825   6.375   6.745
 8631SOL    HW226793   2.775   6.526   6.781
 8632SOL     OW26794   4.486   4.747   5.209
 8632SOL    HW126795   4.398   4.716   5.245
 8632SOL    HW226796   4.479   4.842   5.180
 8633SOL     OW26797   5.523   4.099   5.669
 8633SOL    HW126798   5.444   4.126   5.723
 8633SOL    HW226799   5.603   4.152   5.698
 8634SOL     OW26800   5.386   5.060   1.026
 8634SOL    HW126801   5.435   5.050   1.112
 8634SOL    HW226802   5.294   5.095   1.044
 8635SOL     OW26803   6.494   3.145   6.645
 8635SOL    HW126804   6.525   3.061   6.601
 8635SOL    HW226805   6.566   3.180   6.705
 8636SOL     OW26806   4.283   5.997   0.896
 8636SOL    HW126807   4.278   6.035   0.989
 8636SOL    HW226808   4.233   6.056   0.833
 8637SOL     OW26809   2.272   1.886   6.481
 8637SOL    HW126810   2.216   1.953   6.530
 8637SOL    HW226811   2.298   1.923   6.392
 8638SOL     OW26812   4.259   2.999   5.322
 8638SOL    HW126813   4.354   3.020   5.299
 8638SOL    HW226814   4.256   2.923   5.387
 8639SOL     OW26815   4.162   3.315   6.713
 8639SOL    HW126816   4.175   3.233   6.657
 8639SOL    HW226817   4.251   3.350   6.741
 8640SOL     OW26818   3.059   3.362   1.201
 8640SOL    HW126819   3.107   3.323   1.123
 8640SOL    HW226820   3.056   3.296   1.275
 8641SOL     OW26821   4.593   5.496   2.700
 8641SOL    HW126822   4.672   5.545   2.734
 8641SOL    HW226823   4.521   5.561   2.676
 8642SOL     OW26824   1.185   6.454   4.509
 8642SOL    HW126825   1.150   6.523   4.572
 8642SOL    HW226826   1.204   6.369   4.559
 8643SOL     OW26827   3.357   6.885   0.778
 8643SOL    HW126828   3.395   6.955   0.718
 8643SOL    HW226829   3.431   6.838   0.826
 8644SOL     OW26830   6.194   1.977   6.781
 8644SOL    HW126831   6.276   1.972   6.724
 8644SOL    HW226832   6.185   1.892   6.833
 8645SOL     OW26833   6.100   4.131   2.018
 8645SOL    HW126834   6.040   4.130   1.938
 8645SOL    HW226835   6.151   4.046   2.023
 8646SOL     OW26836   0.085   2.250   5.729
 8646SOL    HW126837   0.179   2.284   5.732
 8646SOL    HW226838   0.080   2.161   5.776
 8647SOL     OW26839   2.176   4.823   1.298
 8647SOL    HW126840   2.097   4.880   1.271
 8647SOL    HW226841   2.259   4.859   1.255
 8648SOL     OW26842   5.673   5.803   1.404
 8648SOL    HW126843   5.652   5.899   1.384
 8648SOL    HW226844   5.751   5.774   1.349
 8649SOL     OW26845   4.008   6.833   0.619
 8649SOL    HW126846   3.993   6.929   0.597
 8649SOL    HW226847   4.072   6.826   0.695
 8650SOL     OW26848   2.293   6.879   4.345
 8650SOL    HW126849   2.277   6.972   4.377
 8650SOL    HW226850   2.391   6.864   4.333
 8651SOL     OW26851   2.416   1.521   0.609
 8651SOL    HW126852   2.491   1.557   0.553
 8651SOL    HW226853   2.450   1.498   0.700
 8652SOL     OW26854   1.213   4.381   3.959
 8652SOL    HW126855   1.241   4.299   4.010
 8652SOL    HW226856   1.295   4.433   3.933
 8653SOL     OW26857   6.940   1.641   5.887
 8653SOL    HW126858   6.879   1.712   5.922
 8653SOL    HW226859   6.905   1.551   5.914
 8654SOL     OW26860   1.048   4.874   2.229
 8654SOL    HW126861   1.091   4.785   2.246
 8654SOL    HW226862   1.061   4.899   2.133
 8655SOL     OW26863   6.813   1.513   5.450
 8655SOL    HW126864   6.769   1.429   5.418
 8655SOL    HW226865   6.874   1.548   5.380
 8656SOL     OW26866   4.726   6.841   1.694
 8656SOL    HW126867   4.765   6.750   1.683
 8656SOL    HW226868   4.789   6.899   1.746
 8657SOL     OW26869   5.301   0.510   2.270
 8657SOL    HW126870   5.374   0.559   2.223
 8657SOL    HW226871   5.339   0.465   2.351
 8658SOL     OW26872   6.136   4.859   1.506
 8658SOL    HW126873   6.130   4.893   1.600
 8658SOL    HW226874   6.043   4.851   1.468
 8659SOL     OW26875   5.161   1.381   2.586
 8659SOL    HW126876   5.170   1.477   2.611
 8659SOL    HW226877   5.096   1.336   2.647
 8660SOL     OW26878   0.898   2.583   1.382
 8660SOL    HW126879   0.922   2.628   1.297
 8660SOL    HW226880   0.977   2.534   1.418
 8661SOL     OW26881   5.999   3.172   2.895
 8661SOL    HW126882   6.045   3.086   2.918
 8661SOL    HW226883   5.992   3.180   2.796
 8662SOL     OW26884   3.357   5.314   2.661
 8662SOL    HW126885   3.307   5.248   2.605
 8662SOL    HW226886   3.438   5.271   2.701
 8663SOL     OW26887   3.703   5.420   3.376
 8663SOL    HW126888   3.707   5.363   3.294
 8663SOL    HW226889   3.778   5.395   3.437
 8664SOL     OW26890   2.474   5.816   3.257
 8664SOL    HW126891   2.383   5.782   3.279
 8664SOL    HW226892   2.506   5.776   3.171
 8665SOL     OW26893   6.111   4.326   5.995
 8665SOL    HW126894   6.096   4.340   5.897
 8665SOL    HW226895   6.197   4.276   6.009
 8666SOL     OW26896   5.473   0.334   3.301
 8666SOL    HW126897   5.407   0.268   3.338
 8666SOL    HW226898   5.561   0.324   3.348
 8667SOL     OW26899   5.023   1.872   4.240
 8667SOL    HW126900   4.940   1.842   4.192
 8667SOL    HW226901   4.998   1.934   4.314
 8668SOL     OW26902   5.425   3.060   5.247
 8668SOL    HW126903   5.341   3.020   5.209
 8668SOL    HW226904   5.400   3.131   5.313
 8669SOL     OW26905   5.956   6.550   6.114
 8669SOL    HW126906   5.863   6.564   6.150
 8669SOL    HW226907   5.964   6.594   6.025
 8670SOL     OW26908   6.200   4.794   5.584
 8670SOL    HW126909   6.145   4.826   5.661
 8670SOL    HW226910   6.295   4.782   5.613
 8671SOL     OW26911   0.320   2.376   2.471
 8671SOL    HW126912   0.369   2.303   2.518
 8671SOL    HW226913   0.382   2.423   2.408
 8672SOL     OW26914   0.264   0.336   3.305
 8672SOL    HW126915   0.255   0.252   3.360
 8672SOL    HW226916   0.186   0.345   3.244
 8673SOL     OW26917   0.925   1.589   0.138
 8673SOL    HW126918   0.874   1.541   0.067
 8673SOL    HW226919   0.999   1.531   0.171
 8674SOL     OW26920   0.249   4.449   3.248
 8674SOL    HW126921   0.303   4.458   3.332
 8674SOL    HW226922   0.217   4.355   3.240
 8675SOL     OW26923   3.270   1.852   6.004
 8675SOL    HW126924   3.345   1.872   5.941
 8675SOL    HW226925   3.228   1.765   5.979
 8676SOL     OW26926   5.581   1.173   0.994
 8676SOL    HW126927   5.572   1.272   0.990
 8676SOL    HW226928   5.676   1.149   1.015
 8677SOL     OW26929   1.591   6.673   5.553
 8677SOL    HW126930   1.633   6.706   5.638
 8677SOL    HW226931   1.596   6.573   5.551
 8678SOL     OW26932   1.392   0.394   0.906
 8678SOL    HW126933   1.345   0.315   0.867
 8678SOL    HW226934   1.400   0.465   0.836
 8679SOL     OW26935   2.280   1.161   3.982
 8679SOL    HW126936   2.225   1.098   3.928
 8679SOL    HW226937   2.374   1.128   3.985
 8680SOL     OW26938   6.458   2.594   6.290
 8680SOL    HW126939   6.393   2.630   6.222
 8680SOL    HW226940   6.440   2.637   6.379
 8681SOL     OW26941   5.305   5.668   1.169
 8681SOL    HW126942   5.219   5.623   1.191
 8681SOL    HW226943   5.320   5.745   1.231
 8682SOL     OW26944   0.112   0.238   1.285
 8682SOL    HW126945   0.182   0.295   1.242
 8682SOL    HW226946   0.078   0.171   1.220
 8683SOL     OW26947   1.897   3.863   4.924
 8683SOL    HW126948   1.874   3.775   4.965
 8683SOL    HW226949   1.956   3.914   4.986
 8684SOL     OW26950   0.663   3.968   4.538
 8684SOL    HW126951   0.589   3.913   4.498
 8684SOL    HW226952   0.745   3.912   4.547
 8685SOL     OW26953   4.814   2.284   5.993
 8685SOL    HW126954   4.912   2.293   5.976
 8685SOL    HW226955   4.778   2.209   5.938
 8686SOL     OW26956   6.412   6.398   2.372
 8686SOL    HW126957   6.511   6.402   2.360
 8686SOL    HW226958   6.371   6.483   2.341
 8687SOL     OW26959   6.022   3.004   3.203
 8687SOL    HW126960   5.967   3.007   3.287
 8687SOL    HW226961   5.993   2.926   3.147
 8688SOL     OW26962   1.378   4.182   6.240
 8688SOL    HW126963   1.443   4.237   6.293
 8688SOL    HW226964   1.325   4.124   6.302
 8689SOL     OW26965   4.295   3.072   0.594
 8689SOL    HW126966   4.291   3.167   0.562
 8689SOL    HW226967   4.372   3.061   0.657
 8690SOL     OW26968   1.737   1.684   3.379
 8690SOL    HW126969   1.751   1.588   3.354
 8690SOL    HW226970   1.789   1.705   3.462
 8691SOL     OW26971   2.910   2.023   4.846
 8691SOL    HW126972   2.885   2.093   4.780
 8691SOL    HW226973   2.874   1.934   4.816
 8692SOL     OW26974   4.471   2.188   5.720
 8692SOL    HW126975   4.381   2.179   5.763
 8692SOL    HW226976   4.527   2.252   5.773
 8693SOL     OW26977   6.011   0.907   6.566
 8693SOL    HW126978   5.983   0.821   6.609
 8693SOL    HW226979   6.064   0.887   6.484
 8694SOL     OW26980   5.853   3.212   3.742
 8694SOL    HW126981   5.898   3.196   3.654
 8694SOL    HW226982   5.842   3.310   3.756
 8695SOL     OW26983   4.056   3.745   6.664
 8695SOL    HW126984   3.980   3.706   6.613
 8695SOL    HW226985   4.096   3.675   6.723
 8696SOL     OW26986   2.659   5.787   5.887
 8696SOL    HW126987   2.603   5.715   5.928
 8696SOL    HW226988   2.610   5.874   5.890
 8697SOL     OW26989   1.699   4.000   5.646
 8697SOL    HW126990   1.636   4.011   5.570
 8697SOL    HW226991   1.777   4.062   5.634
 8698SOL     OW26992   5.339   6.168   5.170
 8698SOL    HW126993   5.433   6.143   5.193
 8698SOL    HW226994   5.280   6.088   5.179
 8699SOL     OW26995   2.371   2.931   6.818
 8699SOL    HW126996   2.273   2.912   6.828
 8699SOL    HW226997   2.423   2.846   6.826
 8700SOL     OW26998   0.407   0.229   5.259
 8700SOL    HW126999   0.367   0.288   5.329
 8700SOL    HW227000   0.499   0.203   5.285
 8701SOL     OW27001   0.758   1.941   6.275
 8701SOL    HW127002   0.836   1.950   6.213
 8701SOL    HW227003   0.680   1.992   6.239
 8702SOL     OW27004   5.005   4.497   1.834
 8702SOL    HW127005   5.077   4.496   1.904
 8702SOL    HW227006   5.044   4.523   1.746
 8703SOL     OW27007   2.387   4.505   1.212
 8703SOL    HW127008   2.394   4.579   1.279
 8703SOL    HW227009   2.297   4.506   1.170
 8704SOL     OW27010   0.742   2.326   4.052
 8704SOL    HW127011   0.695   2.241   4.077
 8704SOL    HW227012   0.781   2.317   3.960
 8705SOL     OW27013   4.487   2.703   0.032
 8705SOL    HW127014   4.422   2.709   6.975
 8705SOL    HW227015   4.449   2.644   0.103
 8706SOL     OW27016   4.987   3.592   6.515
 8706SOL    HW127017   4.935   3.568   6.597
 8706SOL    HW227018   5.085   3.578   6.532
 8707SOL     OW27019   1.445   1.864   4.455
 8707SOL    HW127020   1.378   1.793   4.477
 8707SOL    HW227021   1.403   1.932   4.395
 8708SOL     OW27022   5.958   2.059   2.628
 8708SOL    HW127023   5.910   2.123   2.568
 8708SOL    HW227024   5.891   2.000   2.673
 8709SOL     OW27025   6.413   0.504   5.794
 8709SOL    HW127026   6.500   0.502   5.744
 8709SOL    HW227027   6.369   0.415   5.788
 8710SOL     OW27028   2.222   1.105   3.122
 8710SOL    HW127029   2.218   1.185   3.063
 8710SOL    HW227030   2.299   1.113   3.185
 8711SOL     OW27031   1.092   0.698   1.543
 8711SOL    HW127032   1.176   0.666   1.501
 8711SOL    HW227033   1.027   0.622   1.550
 8712SOL     OW27034   2.082   2.847   5.580
 8712SOL    HW127035   2.049   2.766   5.531
 8712SOL    HW227036   2.167   2.878   5.538
 8713SOL     OW27037   0.932   4.544   2.108
 8713SOL    HW127038   1.013   4.603   2.111
 8713SOL    HW227039   0.927   4.499   2.019
 8714SOL     OW27040   6.798   6.090   6.737
 8714SOL    HW127041   6.716   6.082   6.679
 8714SOL    HW227042   6.777   6.146   6.817
 8715SOL     OW27043   2.779   2.160   0.346
 8715SOL    HW127044   2.871   2.188   0.374
 8715SOL    HW227045   2.723   2.142   0.427
 8716SOL     OW27046   6.654   6.679   1.204
 8716SOL    HW127047   6.630   6.608   1.138
 8716SOL    HW227048   6.716   6.745   1.162
 8717SOL     OW27049   2.228   4.581   0.200
 8717SOL    HW127050   2.149   4.521   0.188
 8717SOL    HW227051   2.312   4.526   0.205
 8718SOL     OW27052   2.104   3.988   6.595
 8718SOL    HW127053   2.104   4.049   6.675
 8718SOL    HW227054   2.169   3.913   6.611
 8719SOL     OW27055   3.694   0.823   5.966
 8719SOL    HW127056   3.771   0.858   5.914
 8719SOL    HW227057   3.636   0.899   5.996
 8720SOL     OW27058   6.512   3.922   5.025
 8720SOL    HW127059   6.579   3.851   5.042
 8720SOL    HW227060   6.435   3.911   5.088
 8721SOL     OW27061   0.082   6.573   6.704
 8721SOL    HW127062   7.009   6.536   6.710
 8721SOL    HW227063   0.148   6.503   6.730
 8722SOL     OW27064   4.013   1.025   1.052
 8722SOL    HW127065   3.948   0.997   1.123
 8722SOL    HW227066   4.078   0.951   1.036
 8723SOL     OW27067   5.038   6.986   2.292
 8723SOL    HW127068   5.000   6.895   2.279
 8723SOL    HW227069   5.098   7.009   2.215
 8724SOL     OW27070   4.310   0.183   4.486
 8724SOL    HW127071   4.314   0.275   4.447
 8724SOL    HW227072   4.219   0.168   4.526
 8725SOL     OW27073   0.479   6.513   4.681
 8725SOL    HW127074   0.578   6.528   4.676
 8725SOL    HW227075   0.432   6.597   4.652
 8726SOL     OW27076   0.712   0.799   0.368
 8726SOL    HW127077   0.768   0.879   0.351
 8726SOL    HW227078   0.645   0.788   0.294
 8727SOL     OW27079   5.836   5.856   6.348
 8727SOL    HW127080   5.872   5.936   6.301
 8727SOL    HW227081   5.769   5.810   6.290
 8728SOL     OW27082   5.854   0.346   3.016
 8728SOL    HW127083   5.779   0.404   3.048
 8728SOL    HW227084   5.826   0.250   3.020
 8729SOL     OW27085   3.730   5.256   6.201
 8729SOL    HW127086   3.641   5.283   6.165
 8729SOL    HW227087   3.762   5.174   6.154
 8730SOL     OW27088   5.624   4.804   2.290
 8730SOL    HW127089   5.705   4.767   2.335
 8730SOL    HW227090   5.543   4.756   2.322
 8731SOL     OW27091   0.237   2.123   3.273
 8731SOL    HW127092   0.275   2.209   3.242
 8731SOL    HW227093   0.151   2.140   3.322
 8732SOL     OW27094   5.081   5.505   1.187
 8732SOL    HW127095   5.013   5.572   1.157
 8732SOL    HW227096   5.045   5.457   1.268
 8733SOL     OW27097   0.451   4.578   1.990
 8733SOL    HW127098   0.422   4.507   2.053
 8733SOL    HW227099   0.461   4.665   2.040
 8734SOL     OW27100   6.948   3.566   1.909
 8734SOL    HW127101   6.983   3.504   1.839
 8734SOL    HW227102   6.887   3.516   1.970
 8735SOL     OW27103   2.017   4.016   5.387
 8735SOL    HW127104   2.116   4.027   5.396
 8735SOL    HW227105   1.971   4.087   5.441
 8736SOL     OW27106   0.493   5.714   2.717
 8736SOL    HW127107   0.533   5.748   2.802
 8736SOL    HW227108   0.406   5.759   2.700
 8737SOL     OW27109   1.315   5.194   6.327
 8737SOL    HW127110   1.255   5.246   6.388
 8737SOL    HW227111   1.266   5.169   6.244
 8738SOL     OW27112   0.989   4.000   3.657
 8738SOL    HW127113   1.018   3.947   3.577
 8738SOL    HW227114   1.050   4.078   3.669
 8739SOL     OW27115   5.195   4.354   5.034
 8739SOL    HW127116   5.226   4.260   5.050
 8739SOL    HW227117   5.142   4.358   4.950
 8740SOL     OW27118   3.613   1.641   3.741
 8740SOL    HW127119   3.574   1.637   3.649
 8740SOL    HW227120   3.552   1.692   3.801
 8741SOL     OW27121   1.577   0.002   2.353
 8741SOL    HW127122   1.613   0.069   2.289
 8741SOL    HW227123   1.638   6.942   2.354
 8742SOL     OW27124   3.395   1.351   2.345
 8742SOL    HW127125   3.298   1.358   2.320
 8742SOL    HW227126   3.437   1.276   2.295
 8743SOL     OW27127   1.715   0.683   1.919
 8743SOL    HW127128   1.693   0.635   1.834
 8743SOL    HW227129   1.678   0.776   1.915
 8744SOL     OW27130   3.869   3.920   6.816
 8744SOL    HW127131   3.830   3.952   6.730
 8744SOL    HW227132   3.966   3.900   6.803
 8745SOL     OW27133   6.582   1.757   6.298
 8745SOL    HW127134   6.633   1.796   6.375
 8745SOL    HW227135   6.502   1.814   6.279
 8746SOL     OW27136   5.132   5.635   4.282
 8746SOL    HW127137   5.200   5.708   4.276
 8746SOL    HW227138   5.168   5.560   4.337
 8747SOL     OW27139   6.836   0.655   2.006
 8747SOL    HW127140   6.832   0.755   2.012
 8747SOL    HW227141   6.743   0.618   2.001
 8748SOL     OW27142   0.504   2.144   3.707
 8748SOL    HW127143   0.481   2.238   3.681
 8748SOL    HW227144   0.431   2.083   3.676
 8749SOL     OW27145   2.971   1.621   5.524
 8749SOL    HW127146   2.933   1.532   5.499
 8749SOL    HW227147   2.913   1.694   5.485
 8750SOL     OW27148   4.525   2.675   5.978
 8750SOL    HW127149   4.623   2.653   5.981
 8750SOL    HW227150   4.507   2.758   6.031
 8751SOL     OW27151   0.309   6.324   1.795
 8751SOL    HW127152   0.408   6.314   1.791
 8751SOL    HW227153   0.271   6.315   1.703
 8752SOL     OW27154   4.905   3.205   0.020
 8752SOL    HW127155   4.928   3.113   0.053
 8752SOL    HW227156   4.881   3.200   6.943
 8753SOL     OW27157   1.812   2.960   0.078
 8753SOL    HW127158   1.849   2.939   7.007
 8753SOL    HW227159   1.850   2.896   0.145
 8754SOL     OW27160   2.900   5.018   6.993
 8754SOL    HW127161   2.805   5.048   7.002
 8754SOL    HW227162   2.906   4.919   7.006
 8755SOL     OW27163   0.435   1.729   2.208
 8755SOL    HW127164   0.428   1.701   2.304
 8755SOL    HW227165   0.466   1.651   2.153
 8756SOL     OW27166   2.305   2.625   3.893
 8756SOL    HW127167   2.208   2.641   3.872
 8756SOL    HW227168   2.322   2.647   3.989
 8757SOL     OW27169   4.791   6.648   5.546
 8757SOL    HW127170   4.824   6.613   5.458
 8757SOL    HW227171   4.863   6.640   5.614
 8758SOL     OW27172   3.543   6.333   3.737
 8758SOL    HW127173   3.633   6.335   3.781
 8758SOL    HW227174   3.506   6.240   3.743
 8759SOL     OW27175   5.842   1.139   6.940
 8759SOL    HW127176   5.916   1.116   7.004
 8759SOL    HW227177   5.877   1.137   6.847
 8760SOL     OW27178   1.996   1.843   4.431
 8760SOL    HW127179   1.908   1.877   4.397
 8760SOL    HW227180   2.068   1.907   4.404
 8761SOL     OW27181   4.615   1.307   2.183
 8761SOL    HW127182   4.525   1.317   2.224
 8761SOL    HW227183   4.684   1.351   2.242
 8762SOL     OW27184   1.203   5.067   3.599
 8762SOL    HW127185   1.173   5.010   3.523
 8762SOL    HW227186   1.208   5.162   3.570
 8763SOL     OW27187   0.186   1.021   6.046
 8763SOL    HW127188   0.113   0.960   6.076
 8763SOL    HW227189   0.176   1.041   5.949
 8764SOL     OW27190   3.951   5.079   5.505
 8764SOL    HW127191   3.860   5.041   5.492
 8764SOL    HW227192   4.014   5.005   5.533
 8765SOL     OW27193   5.119   0.248   5.182
 8765SOL    HW127194   5.176   0.292   5.112
 8765SOL    HW227195   5.024   0.278   5.171
 8766SOL     OW27196   5.202   4.563   5.716
 8766SOL    HW127197   5.185   4.599   5.807
 8766SOL    HW227198   5.260   4.626   5.664
 8767SOL     OW27199   2.870   0.407   3.731
 8767SOL    HW127200   2.832   0.470   3.664
 8767SOL    HW227201   2.970   0.410   3.725
 8768SOL     OW27202   6.727   2.703   0.244
 8768SOL    HW127203   6.647   2.762   0.249
 8768SOL    HW227204   6.729   2.642   0.323
 8769SOL     OW27205   6.632   1.126   1.242
 8769SOL    HW127206   6.669   1.121   1.335
 8769SOL    HW227207   6.615   1.034   1.207
 8770SOL     OW27208   4.933   3.329   2.520
 8770SOL    HW127209   5.027   3.362   2.511
 8770SOL    HW227210   4.904   3.336   2.616
 8771SOL     OW27211   0.497   3.566   6.135
 8771SOL    HW127212   0.552   3.643   6.167
 8771SOL    HW227213   0.521   3.484   6.187
 8772SOL     OW27214   5.807   0.198   4.369
 8772SOL    HW127215   5.882   0.138   4.342
 8772SOL    HW227216   5.720   0.155   4.341
 8773SOL     OW27217   6.703   1.912   3.990
 8773SOL    HW127218   6.762   1.837   3.960
 8773SOL    HW227219   6.734   1.946   4.079
 8774SOL     OW27220   1.252   0.012   6.978
 8774SOL    HW127221   1.272   0.110   6.988
 8774SOL    HW227222   1.160   0.001   6.941
 8775SOL     OW27223   5.546   1.858   4.191
 8775SOL    HW127224   5.536   1.957   4.182
 8775SOL    HW227225   5.461   1.814   4.161
 8776SOL     OW27226   5.202   2.971   0.183
 8776SOL    HW127227   5.205   2.898   0.251
 8776SOL    HW227228   5.229   3.057   0.226
 8777SOL     OW27229   1.296   2.623   3.019
 8777SOL    HW127230   1.353   2.689   3.068
 8777SOL    HW227231   1.349   2.540   3.002
 8778SOL     OW27232   4.294   4.507   5.680
 8778SOL    HW127233   4.281   4.513   5.779
 8778SOL    HW227234   4.340   4.589   5.647
 8779SOL     OW27235   3.369   5.024   2.847
 8779SOL    HW127236   3.350   4.983   2.757
 8779SOL    HW227237   3.305   4.987   2.914
 8780SOL     OW27238   0.059   5.629   2.625
 8780SOL    HW127239   7.009   5.575   2.577
 8780SOL    HW227240   0.132   5.568   2.656
 8781SOL     OW27241   3.621   6.527   1.955
 8781SOL    HW127242   3.534   6.482   1.970
 8781SOL    HW227243   3.643   6.585   2.033
 8782SOL     OW27244   4.861   1.026   1.875
 8782SOL    HW127245   4.893   1.035   1.969
 8782SOL    HW227246   4.781   1.083   1.862
 8783SOL     OW27247   4.919   3.409   4.844
 8783SOL    HW127248   4.903   3.480   4.913
 8783SOL    HW227249   4.963   3.450   4.764
 8784SOL     OW27250   5.485   6.201   0.793
 8784SOL    HW127251   5.473   6.211   0.892
 8784SOL    HW227252   5.396   6.198   0.749
 8785SOL     OW27253   0.554   5.372   6.281
 8785SOL    HW127254   0.461   5.364   6.318
 8785SOL    HW227255   0.602   5.445   6.331
 8786SOL     OW27256   4.180   2.207   1.963
 8786SOL    HW127257   4.107   2.169   2.020
 8786SOL    HW227258   4.141   2.245   1.879
 8787SOL     OW27259   3.810   0.821   2.019
 8787SOL    HW127260   3.722   0.793   1.980
 8787SOL    HW227261   3.847   0.897   1.965
 8788SOL     OW27262   0.487   0.262   5.010
 8788SOL    HW127263   0.555   0.195   4.982
 8788SOL    HW227264   0.453   0.240   5.101
 8789SOL     OW27265   0.434   3.855   4.698
 8789SOL    HW127266   0.476   3.807   4.621
 8789SOL    HW227267   0.454   3.806   4.783
 8790SOL     OW27268   6.085   2.830   0.110
 8790SOL    HW127269   6.089   2.731   0.099
 8790SOL    HW227270   6.089   2.852   0.207
 8791SOL     OW27271   4.661   5.648   5.291
 8791SOL    HW127272   4.676   5.614   5.384
 8791SOL    HW227273   4.610   5.580   5.238
 8792SOL     OW27274   4.771   5.138   1.725
 8792SOL    HW127275   4.746   5.048   1.691
 8792SOL    HW227276   4.717   5.159   1.807
 8793SOL     OW27277   0.556   4.944   4.492
 8793SOL    HW127278   0.480   4.882   4.478
 8793SOL    HW227279   0.538   5.002   4.571
 8794SOL     OW27280   0.064   0.239   2.014
 8794SOL    HW127281   0.026   0.159   1.968
 8794SOL    HW227282   0.003   0.266   2.089
 8795SOL     OW27283   1.816   5.190   5.565
 8795SOL    HW127284   1.790   5.174   5.661
 8795SOL    HW227285   1.809   5.288   5.545
 8796SOL     OW27286   6.439   3.376   3.573
 8796SOL    HW127287   6.408   3.423   3.490
 8796SOL    HW227288   6.412   3.280   3.569
 8797SOL     OW27289   6.112   0.139   3.837
 8797SOL    HW127290   6.178   0.194   3.786
 8797SOL    HW227291   6.071   0.072   3.776
 8798SOL     OW27292   4.550   6.517   5.756
 8798SOL    HW127293   4.507   6.581   5.692
 8798SOL    HW227294   4.615   6.566   5.814
 8799SOL     OW27295   2.152   4.842   2.110
 8799SOL    HW127296   2.097   4.759   2.125
 8799SOL    HW227297   2.211   4.829   2.031
 8800SOL     OW27298   6.878   5.851   5.308
 8800SOL    HW127299   6.815   5.887   5.240
 8800SOL    HW227300   6.969   5.890   5.294
 8801SOL     OW27301   6.102   2.203   4.656
 8801SOL    HW127302   6.153   2.289   4.656
 8801SOL    HW227303   6.121   2.154   4.741
 8802SOL     OW27304   0.967   6.235   5.674
 8802SOL    HW127305   0.962   6.254   5.576
 8802SOL    HW227306   1.002   6.142   5.688
 8803SOL     OW27307   6.173   0.858   6.364
 8803SOL    HW127308   6.237   0.791   6.325
 8803SOL    HW227309   6.090   0.860   6.308
 8804SOL     OW27310   1.606   5.956   1.650
 8804SOL    HW127311   1.696   5.917   1.632
 8804SOL    HW227312   1.538   5.912   1.590
 8805SOL     OW27313   4.269   5.686   2.399
 8805SOL    HW127314   4.169   5.692   2.408
 8805SOL    HW227315   4.309   5.775   2.420
 8806SOL     OW27316   2.198   6.420   0.251
 8806SOL    HW127317   2.153   6.380   0.172
 8806SOL    HW227318   2.241   6.507   0.224
 8807SOL     OW27319   5.103   1.915   1.090
 8807SOL    HW127320   5.009   1.917   1.124
 8807SOL    HW227321   5.102   1.891   0.993
 8808SOL     OW27322   2.138   2.461   0.464
 8808SOL    HW127323   2.210   2.441   0.531
 8808SOL    HW227324   2.174   2.520   0.392
 8809SOL     OW27325   1.602   3.936   3.912
 8809SOL    HW127326   1.520   3.978   3.951
 8809SOL    HW227327   1.584   3.911   3.817
 8810SOL     OW27328   6.837   1.810   5.500
 8810SOL    HW127329   6.935   1.818   5.482
 8810SOL    HW227330   6.801   1.729   5.453
 8811SOL     OW27331   4.111   6.176   2.161
 8811SOL    HW127332   4.188   6.144   2.215
 8811SOL    HW227333   4.124   6.148   2.065
 8812SOL     OW27334   3.609   1.672   6.743
 8812SOL    HW127335   3.610   1.754   6.802
 8812SOL    HW227336   3.595   1.700   6.648
 8813SOL     OW27337   2.525   4.716   3.514
 8813SOL    HW127338   2.538   4.769   3.430
 8813SOL    HW227339   2.436   4.669   3.510
 8814SOL     OW27340   5.736   0.176   0.021
 8814SOL    HW127341   5.811   0.170   6.976
 8814SOL    HW227342   5.770   0.161   0.114
 8815SOL     OW27343   5.179   1.466   0.592
 8815SOL    HW127344   5.118   1.436   0.665
 8815SOL    HW227345   5.253   1.520   0.630
 8816SOL     OW27346   0.674   6.204   5.717
 8816SOL    HW127347   0.730   6.225   5.637
 8816SOL    HW227348   0.624   6.286   5.745
 8817SOL     OW27349   1.241   3.177   4.082
 8817SOL    HW127350   1.303   3.229   4.022
 8817SOL    HW227351   1.292   3.104   4.126
 8818SOL     OW27352   2.411   6.916   3.965
 8818SOL    HW127353   2.480   6.850   3.995
 8818SOL    HW227354   2.438   7.008   3.993
 8819SOL     OW27355   4.960   4.371   5.684
 8819SOL    HW127356   4.986   4.462   5.716
 8819SOL    HW227357   4.861   4.362   5.687
 8820SOL     OW27358   3.180   0.807   4.666
 8820SOL    HW127359   3.170   0.903   4.638
 8820SOL    HW227360   3.192   0.803   4.766
 8821SOL     OW27361   1.332   4.914   0.560
 8821SOL    HW127362   1.390   4.983   0.518
 8821SOL    HW227363   1.244   4.955   0.584
 8822SOL     OW27364   6.699   6.691   3.915
 8822SOL    HW127365   6.765   6.634   3.867
 8822SOL    HW227366   6.724   6.787   3.905
 8823SOL     OW27367   3.668   0.995   3.016
 8823SOL    HW127368   3.629   1.036   3.098
 8823SOL    HW227369   3.600   0.998   2.942
 8824SOL     OW27370   1.828   1.028   1.007
 8824SOL    HW127371   1.744   1.078   1.028
 8824SOL    HW227372   1.806   0.952   0.946
 8825SOL     OW27373   0.169   6.830   0.017
 8825SOL    HW127374   0.085   6.881   0.038
 8825SOL    HW227375   0.190   6.838   6.939
 8826SOL     OW27376   1.189   3.301   0.909
 8826SOL    HW127377   1.288   3.303   0.922
 8826SOL    HW227378   1.145   3.263   0.991
 8827SOL     OW27379   4.074   0.156   2.444
 8827SOL    HW127380   4.105   0.103   2.364
 8827SOL    HW227381   4.151   0.206   2.482
 8828SOL     OW27382   4.275   3.667   6.340
 8828SOL    HW127383   4.227   3.754   6.336
 8828SOL    HW227384   4.211   3.594   6.366
 8829SOL     OW27385   6.995   1.929   1.940
 8829SOL    HW127386   6.964   1.834   1.933
 8829SOL    HW227387   0.075   1.932   1.947
 8830SOL     OW27388   2.524   2.158   3.040
 8830SOL    HW127389   2.534   2.118   3.131
 8830SOL    HW227390   2.509   2.257   3.048
 8831SOL     OW27391   0.665   2.025   1.924
 8831SOL    HW127392   0.743   2.018   1.987
 8831SOL    HW227393   0.635   2.121   1.920
 8832SOL     OW27394   0.059   6.810   4.153
 8832SOL    HW127395   0.146   6.811   4.203
 8832SOL    HW227396   0.075   6.832   4.057
 8833SOL     OW27397   3.671   2.635   1.033
 8833SOL    HW127398   3.617   2.716   1.008
 8833SOL    HW227399   3.696   2.585   0.950
 8834SOL     OW27400   5.977   3.697   5.268
 8834SOL    HW127401   5.970   3.784   5.315
 8834SOL    HW227402   5.956   3.622   5.332
 8835SOL     OW27403   6.307   0.780   5.550
 8835SOL    HW127404   6.257   0.785   5.463
 8835SOL    HW227405   6.325   0.872   5.583
 8836SOL     OW27406   4.909   2.461   6.316
 8836SOL    HW127407   4.962   2.377   6.320
 8836SOL    HW227408   4.816   2.440   6.286
 8837SOL     OW27409   5.815   0.011   2.023
 8837SOL    HW127410   5.840   0.083   1.958
 8837SOL    HW227411   5.886   6.960   2.024
 8838SOL     OW27412   6.979   4.208   3.112
 8838SOL    HW127413   0.018   4.156   3.050
 8838SOL    HW227414   6.945   4.290   3.065
 8839SOL     OW27415   5.294   6.174   3.148
 8839SOL    HW127416   5.358   6.144   3.219
 8839SOL    HW227417   5.250   6.259   3.178
 8840SOL     OW27418   0.210   1.090   1.223
 8840SOL    HW127419   0.195   1.104   1.321
 8840SOL    HW227420   0.298   1.045   1.209
 8841SOL     OW27421   3.602   1.186   2.237
 8841SOL    HW127422   3.570   1.158   2.327
 8841SOL    HW227423   3.694   1.150   2.222
 8842SOL     OW27424   3.337   3.025   4.166
 8842SOL    HW127425   3.291   3.005   4.079
 8842SOL    HW227426   3.277   3.080   4.224
 8843SOL     OW27427   2.050   3.541   5.157
 8843SOL    HW127428   2.067   3.451   5.198
 8843SOL    HW227429   2.122   3.604   5.187
 8844SOL     OW27430   5.173   1.950   5.004
 8844SOL    HW127431   5.183   1.862   4.957
 8844SOL    HW227432   5.100   1.942   5.072
 8845SOL     OW27433   1.082   5.052   1.520
 8845SOL    HW127434   1.171   5.083   1.553
 8845SOL    HW227435   1.041   4.991   1.587
 8846SOL     OW27436   5.398   4.566   3.661
 8846SOL    HW127437   5.445   4.606   3.582
 8846SOL    HW227438   5.323   4.625   3.689
 8847SOL     OW27439   2.314   2.608   2.871
 8847SOL    HW127440   2.368   2.572   2.795
 8847SOL    HW227441   2.238   2.545   2.890
 8848SOL     OW27442   3.019   1.680   1.226
 8848SOL    HW127443   3.050   1.751   1.164
 8848SOL    HW227444   3.067   1.594   1.206
 8849SOL     OW27445   3.419   5.975   4.666
 8849SOL    HW127446   3.413   5.919   4.584
 8849SOL    HW227447   3.450   5.919   4.743
 8850SOL     OW27448   3.067   2.106   0.514
 8850SOL    HW127449   3.066   2.149   0.604
 8850SOL    HW227450   3.129   2.156   0.454
 8851SOL     OW27451   1.069   4.747   3.500
 8851SOL    HW127452   1.146   4.689   3.472
 8851SOL    HW227453   1.039   4.721   3.592
 8852SOL     OW27454   5.510   2.955   5.793
 8852SOL    HW127455   5.435   3.019   5.809
 8852SOL    HW227456   5.570   2.990   5.721
 8853SOL     OW27457   4.145   1.692   5.342
 8853SOL    HW127458   4.122   1.595   5.333
 8853SOL    HW227459   4.232   1.710   5.297
 8854SOL     OW27460   1.685   1.541   5.800
 8854SOL    HW127461   1.737   1.626   5.811
 8854SOL    HW227462   1.608   1.540   5.863
 8855SOL     OW27463   6.259   5.995   6.699
 8855SOL    HW127464   6.300   5.904   6.694
 8855SOL    HW227465   6.232   6.015   6.793
 8856SOL     OW27466   5.700   1.208   5.176
 8856SOL    HW127467   5.721   1.222   5.080
 8856SOL    HW227468   5.779   1.235   5.232
 8857SOL     OW27469   6.168   2.296   3.539
 8857SOL    HW127470   6.189   2.316   3.635
 8857SOL    HW227471   6.224   2.354   3.480
 8858SOL     OW27472   0.926   3.786   5.746
 8858SOL    HW127473   0.951   3.866   5.692
 8858SOL    HW227474   0.828   3.769   5.736
 8859SOL     OW27475   1.338   6.352   4.907
 8859SOL    HW127476   1.364   6.442   4.872
 8859SOL    HW227477   1.368   6.343   5.001
 8860SOL     OW27478   1.231   2.083   2.400
 8860SOL    HW127479   1.230   2.100   2.498
 8860SOL    HW227480   1.219   1.985   2.383
 8861SOL     OW27481   3.875   3.314   0.063
 8861SOL    HW127482   3.823   3.395   0.034
 8861SOL    HW227483   3.966   3.343   0.095
 8862SOL     OW27484   5.891   1.522   5.112
 8862SOL    HW127485   5.986   1.509   5.143
 8862SOL    HW227486   5.891   1.583   5.032
 8863SOL     OW27487   2.204   5.902   4.800
 8863SOL    HW127488   2.266   5.921   4.723
 8863SOL    HW227489   2.259   5.886   4.883
 8864SOL     OW27490   2.137   3.360   6.483
 8864SOL    HW127491   2.163   3.304   6.561
 8864SOL    HW227492   2.195   3.441   6.479
 8865SOL     OW27493   2.629   2.059   5.299
 8865SOL    HW127494   2.710   2.111   5.327
 8865SOL    HW227495   2.647   2.012   5.213
 8866SOL     OW27496   3.489   6.620   3.389
 8866SOL    HW127497   3.558   6.632   3.318
 8866SOL    HW227498   3.400   6.649   3.354
 8867SOL     OW27499   5.749   1.581   2.842
 8867SOL    HW127500   5.714   1.660   2.893
 8867SOL    HW227501   5.832   1.547   2.887
 8868SOL     OW27502   4.549   3.935   0.352
 8868SOL    HW127503   4.512   4.005   0.412
 8868SOL    HW227504   4.621   3.885   0.399
 8869SOL     OW27505   4.901   3.830   3.513
 8869SOL    HW127506   4.884   3.807   3.609
 8869SOL    HW227507   4.902   3.929   3.502
 8870SOL     OW27508   4.114   1.019   0.745
 8870SOL    HW127509   4.169   0.943   0.711
 8870SOL    HW227510   4.121   1.024   0.844
 8871SOL     OW27511   1.796   1.429   3.724
 8871SOL    HW127512   1.841   1.401   3.809
 8871SOL    HW227513   1.711   1.379   3.713
 8872SOL     OW27514   1.759   4.244   4.146
 8872SOL    HW127515   1.827   4.310   4.113
 8872SOL    HW227516   1.784   4.152   4.117
 8873SOL     OW27517   0.681   5.743   4.089
 8873SOL    HW127518   0.680   5.830   4.040
 8873SOL    HW227519   0.590   5.724   4.127
 8874SOL     OW27520   2.453   0.791   1.037
 8874SOL    HW127521   2.492   0.821   0.950
 8874SOL    HW227522   2.470   0.693   1.050
 8875SOL     OW27523   1.618   2.861   4.073
 8875SOL    HW127524   1.624   2.762   4.065
 8875SOL    HW227525   1.692   2.903   4.020
 8876SOL     OW27526   0.293   1.047   5.098
 8876SOL    HW127527   0.339   1.026   5.011
 8876SOL    HW227528   0.279   1.146   5.106
 8877SOL     OW27529   2.830   0.874   4.381
 8877SOL    HW127530   2.904   0.880   4.314
 8877SOL    HW227531   2.816   0.963   4.424
 8878SOL     OW27532   6.943   4.488   0.144
 8878SOL    HW127533   6.962   4.533   0.231
 8878SOL    HW227534   6.929   4.558   0.073
 8879SOL     OW27535   5.370   6.047   0.469
 8879SOL    HW127536   5.348   6.050   0.371
 8879SOL    HW227537   5.461   6.006   0.481
 8880SOL     OW27538   6.497   4.919   4.286
 8880SOL    HW127539   6.418   4.981   4.296
 8880SOL    HW227540   6.580   4.968   4.313
 8881SOL     OW27541   7.000   1.326   1.959
 8881SOL    HW127542   0.009   1.397   2.024
 8881SOL    HW227543   6.987   1.239   2.008
 8882SOL     OW27544   5.257   2.232   6.408
 8882SOL    HW127545   5.271   2.205   6.312
 8882SOL    HW227546   5.265   2.331   6.416
 8883SOL     OW27547   6.116   1.048   5.992
 8883SOL    HW127548   6.197   1.014   5.945
 8883SOL    HW227549   6.090   0.983   6.064
 8884SOL     OW27550   5.604   0.128   6.052
 8884SOL    HW127551   5.603   0.034   6.085
 8884SOL    HW227552   5.698   0.161   6.046
 8885SOL     OW27553   5.899   3.823   1.879
 8885SOL    HW127554   5.815   3.773   1.862
 8885SOL    HW227555   5.907   3.842   1.977
 8886SOL     OW27556   2.845   6.514   5.932
 8886SOL    HW127557   2.823   6.565   6.015
 8886SOL    HW227558   2.767   6.516   5.869
 8887SOL     OW27559   2.537   1.374   1.353
 8887SOL    HW127560   2.481   1.332   1.424
 8887SOL    HW227561   2.609   1.430   1.396
 8888SOL     OW27562   1.722   1.386   1.200
 8888SOL    HW127563   1.763   1.352   1.285
 8888SOL    HW227564   1.756   1.479   1.182
 8889SOL     OW27565   4.703   0.320   4.667
 8889SOL    HW127566   4.780   0.350   4.724
 8889SOL    HW227567   4.716   0.352   4.573
 8890SOL     OW27568   6.971   5.698   4.775
 8890SOL    HW127569   6.910   5.627   4.811
 8890SOL    HW227570   0.046   5.669   4.786
 8891SOL     OW27571   5.750   3.339   6.539
 8891SOL    HW127572   5.715   3.255   6.497
 8891SOL    HW227573   5.845   3.354   6.510
 8892SOL     OW27574   1.872   0.254   3.253
 8892SOL    HW127575   1.808   0.244   3.329
 8892SOL    HW227576   1.822   0.277   3.170
 8893SOL     OW27577   6.974   1.201   0.941
 8893SOL    HW127578   0.050   1.225   0.923
 8893SOL    HW227579   6.946   1.241   1.028
 8894SOL     OW27580   4.295   2.476   6.010
 8894SOL    HW127581   4.390   2.506   6.003
 8894SOL    HW227582   4.235   2.540   5.963
 8895SOL     OW27583   0.524   6.837   1.217
 8895SOL    HW127584   0.611   6.789   1.201
 8895SOL    HW227585   0.475   6.847   1.130
 8896SOL     OW27586   1.481   3.999   5.000
 8896SOL    HW127587   1.546   3.986   4.924
 8896SOL    HW227588   1.499   4.086   5.044
 8897SOL     OW27589   1.477   1.311   1.501
 8897SOL    HW127590   1.409   1.240   1.483
 8897SOL    HW227591   1.448   1.365   1.580
 8898SOL     OW27592   5.797   3.369   4.140
 8898SOL    HW127593   5.876   3.410   4.095
 8898SOL    HW227594   5.769   3.427   4.217
 8899SOL     OW27595   2.009   4.432   0.162
 8899SOL    HW127596   1.911   4.449   0.166
 8899SOL    HW227597   2.025   4.344   0.117
 8900SOL     OW27598   4.709   2.306   3.009
 8900SOL    HW127599   4.660   2.223   2.984
 8900SOL    HW227600   4.650   2.385   2.998
 8901SOL     OW27601   1.370   0.447   2.761
 8901SOL    HW127602   1.341   0.380   2.694
 8901SOL    HW227603   1.469   0.463   2.752
 8902SOL     OW27604   1.761   5.387   6.173
 8902SOL    HW127605   1.700   5.445   6.120
 8902SOL    HW227606   1.711   5.346   6.249
 8903SOL     OW27607   2.359   1.677   3.955
 8903SOL    HW127608   2.364   1.596   3.897
 8903SOL    HW227609   2.387   1.757   3.903
 8904SOL     OW27610   0.127   5.825   4.191
 8904SOL    HW127611   0.190   5.828   4.113
 8904SOL    HW227612   0.074   5.910   4.195
 8905SOL     OW27613   2.105   3.443   5.555
 8905SOL    HW127614   2.142   3.489   5.475
 8905SOL    HW227615   2.013   3.478   5.575
 8906SOL     OW27616   6.486   6.494   6.114
 8906SOL    HW127617   6.484   6.448   6.202
 8906SOL    HW227618   6.541   6.441   6.050
 8907SOL     OW27619   3.360   2.729   5.214
 8907SOL    HW127620   3.320   2.639   5.200
 8907SOL    HW227621   3.310   2.797   5.161
 8908SOL     OW27622   1.517   2.262   1.427
 8908SOL    HW127623   1.572   2.284   1.508
 8908SOL    HW227624   1.549   2.176   1.387
 8909SOL     OW27625   2.887   0.719   6.113
 8909SOL    HW127626   2.852   0.684   6.026
 8909SOL    HW227627   2.820   0.703   6.185
 8910SOL     OW27628   3.182   3.295   6.598
 8910SOL    HW127629   3.184   3.201   6.632
 8910SOL    HW227630   3.095   3.312   6.552
 8911SOL     OW27631   3.150   2.161   4.743
 8911SOL    HW127632   3.154   2.184   4.840
 8911SOL    HW227633   3.240   2.176   4.701
 8912SOL     OW27634   4.540   1.694   6.099
 8912SOL    HW127635   4.511   1.780   6.057
 8912SOL    HW227636   4.471   1.624   6.084
 8913SOL     OW27637   4.978   4.174   1.794
 8913SOL    HW127638   4.900   4.227   1.825
 8913SOL    HW227639   5.006   4.206   1.704
 8914SOL     OW27640   3.872   1.545   5.102
 8914SOL    HW127641   3.834   1.456   5.076
 8914SOL    HW227642   3.951   1.566   5.045
 8915SOL     OW27643   2.153   3.315   3.710
 8915SOL    HW127644   2.250   3.302   3.688
 8915SOL    HW227645   2.134   3.273   3.799
 8916SOL     OW27646   6.793   4.644   2.695
 8916SOL    HW127647   6.860   4.623   2.766
 8916SOL    HW227648   6.795   4.572   2.625
 8917SOL     OW27649   6.086   6.124   6.318
 8917SOL    HW127650   6.109   6.195   6.385
 8917SOL    HW227651   6.113   6.035   6.353
 8918SOL     OW27652   5.714   6.287   6.981
 8918SOL    HW127653   5.658   6.299   0.043
 8918SOL    HW227654   5.667   6.328   6.903
 8919SOL     OW27655   3.376   4.238   0.941
 8919SOL    HW127656   3.284   4.202   0.955
 8919SOL    HW227657   3.377   4.296   0.860
 8920SOL     OW27658   5.958   5.355   6.131
 8920SOL    HW127659   5.888   5.400   6.185
 8920SOL    HW227660   5.926   5.343   6.037
 8921SOL     OW27661   1.503   1.177   3.755
 8921SOL    HW127662   1.414   1.169   3.711
 8921SOL    HW227663   1.573   1.136   3.698
 8922SOL     OW27664   1.830   4.806   0.815
 8922SOL    HW127665   1.880   4.736   0.866
 8922SOL    HW227666   1.819   4.777   0.720
 8923SOL     OW27667   1.902   3.567   6.564
 8923SOL    HW127668   1.857   3.603   6.483
 8923SOL    HW227669   2.001   3.582   6.557
 8924SOL     OW27670   3.056   5.266   5.300
 8924SOL    HW127671   2.965   5.287   5.264
 8924SOL    HW227672   3.112   5.348   5.300
 8925SOL     OW27673   6.587   6.862   2.142
 8925SOL    HW127674   6.607   6.791   2.210
 8925SOL    HW227675   6.492   6.892   2.151
 8926SOL     OW27676   5.524   1.994   1.834
 8926SOL    HW127677   5.463   1.952   1.767
 8926SOL    HW227678   5.500   2.091   1.845
 8927SOL     OW27679   2.365   2.729   5.161
 8927SOL    HW127680   2.447   2.718   5.218
 8927SOL    HW227681   2.380   2.804   5.096
 8928SOL     OW27682   0.461   0.632   5.609
 8928SOL    HW127683   0.488   0.728   5.619
 8928SOL    HW227684   0.491   0.581   5.690
 8929SOL     OW27685   6.886   3.776   4.186
 8929SOL    HW127686   6.852   3.757   4.094
 8929SOL    HW227687   6.937   3.698   4.220
 8930SOL     OW27688   1.322   5.319   4.829
 8930SOL    HW127689   1.388   5.370   4.884
 8930SOL    HW227690   1.335   5.341   4.732
 8931SOL     OW27691   4.911   1.726   1.497
 8931SOL    HW127692   4.891   1.679   1.411
 8931SOL    HW227693   4.966   1.666   1.555
 8932SOL     OW27694   5.955   0.669   6.697
 8932SOL    HW127695   5.929   0.708   6.786
 8932SOL    HW227696   6.049   0.635   6.702
 8933SOL     OW27697   1.405   0.907   4.734
 8933SOL    HW127698   1.372   1.001   4.747
 8933SOL    HW227699   1.466   0.883   4.809
 8934SOL     OW27700   3.983   5.581   3.181
 8934SOL    HW127701   4.044   5.508   3.211
 8934SOL    HW227702   3.913   5.597   3.250
 8935SOL     OW27703   4.513   2.572   2.803
 8935SOL    HW127704   4.552   2.563   2.712
 8935SOL    HW227705   4.420   2.608   2.796
 8936SOL     OW27706   0.640   4.703   1.278
 8936SOL    HW127707   0.615   4.781   1.336
 8936SOL    HW227708   0.578   4.627   1.297
 8937SOL     OW27709   0.421   6.858   4.314
 8937SOL    HW127710   0.386   6.824   4.401
 8937SOL    HW227711   0.410   6.788   4.243
 8938SOL     OW27712   6.132   0.879   0.481
 8938SOL    HW127713   6.092   0.804   0.534
 8938SOL    HW227714   6.089   0.883   0.391
 8939SOL     OW27715   0.175   2.746   4.436
 8939SOL    HW127716   0.233   2.812   4.388
 8939SOL    HW227717   0.086   2.739   4.390
 8940SOL     OW27718   0.141   3.195   0.779
 8940SOL    HW127719   0.093   3.107   0.782
 8940SOL    HW227720   0.221   3.192   0.838
 8941SOL     OW27721   5.370   2.567   2.200
 8941SOL    HW127722   5.439   2.506   2.238
 8941SOL    HW227723   5.289   2.566   2.258
 8942SOL     OW27724   6.475   4.921   3.859
 8942SOL    HW127725   6.439   4.858   3.792
 8942SOL    HW227726   6.411   4.929   3.936
 8943SOL     OW27727   4.538   3.641   0.194
 8943SOL    HW127728   4.575   3.552   0.166
 8943SOL    HW227729   4.515   3.638   0.291
 8944SOL     OW27730   4.453   5.473   4.403
 8944SOL    HW127731   4.521   5.502   4.470
 8944SOL    HW227732   4.456   5.373   4.394
 8945SOL     OW27733   6.356   3.741   4.758
 8945SOL    HW127734   6.303   3.821   4.728
 8945SOL    HW227735   6.294   3.665   4.777
 8946SOL     OW27736   5.343   1.141   4.240
 8946SOL    HW127737   5.346   1.133   4.140
 8946SOL    HW227738   5.393   1.223   4.268
 8947SOL     OW27739   1.372   4.617   6.082
 8947SOL    HW127740   1.441   4.676   6.040
 8947SOL    HW227741   1.387   4.614   6.181
 8948SOL     OW27742   6.664   0.153   3.596
 8948SOL    HW127743   6.691   0.236   3.548
 8948SOL    HW227744   6.746   0.100   3.620
 8949SOL     OW27745   3.209   6.467   0.245
 8949SOL    HW127746   3.164   6.524   0.314
 8949SOL    HW227747   3.308   6.485   0.247
 8950SOL     OW27748   4.403   4.705   1.427
 8950SOL    HW127749   4.444   4.796   1.429
 8950SOL    HW227750   4.427   4.660   1.341
 8951SOL     OW27751   2.426   1.137   4.324
 8951SOL    HW127752   2.463   1.111   4.235
 8951SOL    HW227753   2.338   1.183   4.312
 8952SOL     OW27754   2.099   4.395   3.555
 8952SOL    HW127755   2.145   4.308   3.535
 8952SOL    HW227756   2.014   4.400   3.503
 8953SOL     OW27757   2.472   4.906   2.397
 8953SOL    HW127758   2.530   4.913   2.316
 8953SOL    HW227759   2.376   4.915   2.371
 8954SOL     OW27760   0.915   5.418   5.167
 8954SOL    HW127761   0.893   5.321   5.157
 8954SOL    HW227762   0.833   5.469   5.192
 8955SOL     OW27763   5.142   2.645   3.687
 8955SOL    HW127764   5.221   2.614   3.635
 8955SOL    HW227765   5.094   2.716   3.636
 8956SOL     OW27766   1.094   5.944   5.963
 8956SOL    HW127767   1.129   5.884   5.891
 8956SOL    HW227768   1.001   5.972   5.942
 8957SOL     OW27769   0.826   5.393   2.045
 8957SOL    HW127770   0.832   5.487   2.011
 8957SOL    HW227771   0.918   5.355   2.050
 8958SOL     OW27772   1.472   3.517   5.452
 8958SOL    HW127773   1.542   3.587   5.466
 8958SOL    HW227774   1.488   3.470   5.365
 8959SOL     OW27775   0.662   3.235   2.437
 8959SOL    HW127776   0.742   3.248   2.496
 8959SOL    HW227777   0.675   3.153   2.382
 8960SOL     OW27778   5.819   3.948   4.196
 8960SOL    HW127779   5.825   3.915   4.102
 8960SOL    HW227780   5.753   3.893   4.247
 8961SOL     OW27781   3.392   6.841   4.882
 8961SOL    HW127782   3.397   6.744   4.906
 8961SOL    HW227783   3.310   6.858   4.828
 8962SOL     OW27784   0.817   5.548   1.521
 8962SOL    HW127785   0.913   5.547   1.547
 8962SOL    HW227786   0.808   5.531   1.423
 8963SOL     OW27787   3.484   6.194   4.354
 8963SOL    HW127788   3.571   6.160   4.318
 8963SOL    HW227789   3.409   6.160   4.297
 8964SOL     OW27790   0.281   3.544   4.345
 8964SOL    HW127791   0.276   3.637   4.380
 8964SOL    HW227792   0.219   3.534   4.267
 8965SOL     OW27793   4.408   5.038   0.210
 8965SOL    HW127794   4.319   5.036   0.257
 8965SOL    HW227795   4.472   5.093   0.263
 8966SOL     OW27796   5.141   5.662   6.016
 8966SOL    HW127797   5.044   5.683   6.010
 8966SOL    HW227798   5.181   5.710   6.094
 8967SOL     OW27799   3.628   0.539   3.152
 8967SOL    HW127800   3.702   0.577   3.096
 8967SOL    HW227801   3.540   0.573   3.119
 8968SOL     OW27802   3.567   5.127   1.873
 8968SOL    HW127803   3.497   5.169   1.931
 8968SOL    HW227804   3.572   5.175   1.786
 8969SOL     OW27805   0.134   1.112   2.855
 8969SOL    HW127806   0.052   1.120   2.911
 8969SOL    HW227807   0.125   1.170   2.774
 8970SOL     OW27808   1.555   1.131   6.498
 8970SOL    HW127809   1.642   1.160   6.538
 8970SOL    HW227810   1.491   1.105   6.570
 8971SOL     OW27811   4.406   5.838   0.412
 8971SOL    HW127812   4.378   5.748   0.445
 8971SOL    HW227813   4.435   5.832   0.317
 8972SOL     OW27814   5.727   4.638   0.649
 8972SOL    HW127815   5.760   4.548   0.678
 8972SOL    HW227816   5.693   4.632   0.555
 8973SOL     OW27817   0.366   2.216   2.101
 8973SOL    HW127818   0.407   2.301   2.067
 8973SOL    HW227819   0.332   2.162   2.024
 8974SOL     OW27820   2.288   4.275   4.525
 8974SOL    HW127821   2.273   4.236   4.434
 8974SOL    HW227822   2.268   4.206   4.594
 8975SOL     OW27823   0.436   0.444   6.471
 8975SOL    HW127824   0.469   0.414   6.381
 8975SOL    HW227825   0.414   0.542   6.466
 8976SOL     OW27826   6.714   6.721   1.457
 8976SOL    HW127827   6.671   6.701   1.369
 8976SOL    HW227828   6.813   6.719   1.447
 8977SOL     OW27829   6.728   5.155   6.177
 8977SOL    HW127830   6.637   5.120   6.199
 8977SOL    HW227831   6.742   5.243   6.222
 8978SOL     OW27832   5.888   5.731   5.671
 8978SOL    HW127833   5.984   5.759   5.666
 8978SOL    HW227834   5.862   5.687   5.586
 8979SOL     OW27835   1.121   5.616   5.992
 8979SOL    HW127836   1.053   5.665   6.048
 8979SOL    HW227837   1.119   5.519   6.016
 8980SOL     OW27838   3.876   0.959   4.824
 8980SOL    HW127839   3.965   0.967   4.781
 8980SOL    HW227840   3.806   1.000   4.765
 8981SOL     OW27841   4.446   2.836   6.519
 8981SOL    HW127842   4.446   2.923   6.469
 8981SOL    HW227843   4.353   2.801   6.526
 8982SOL     OW27844   6.873   1.538   1.347
 8982SOL    HW127845   6.854   1.619   1.401
 8982SOL    HW227846   6.953   1.491   1.384
 8983SOL     OW27847   0.900   6.137   3.082
 8983SOL    HW127848   0.979   6.189   3.115
 8983SOL    HW227849   0.835   6.198   3.039
 8984SOL     OW27850   6.009   0.457   4.142
 8984SOL    HW127851   5.922   0.470   4.190
 8984SOL    HW227852   6.059   0.544   4.139
 8985SOL     OW27853   4.820   2.514   0.802
 8985SOL    HW127854   4.752   2.586   0.817
 8985SOL    HW227855   4.850   2.516   0.707
 8986SOL     OW27856   6.528   4.558   1.535
 8986SOL    HW127857   6.580   4.571   1.619
 8986SOL    HW227858   6.471   4.638   1.518
 8987SOL     OW27859   2.302   6.781   1.293
 8987SOL    HW127860   2.330   6.686   1.307
 8987SOL    HW227861   2.255   6.815   1.375
 8988SOL     OW27862   1.432   5.046   1.392
 8988SOL    HW127863   1.404   5.138   1.366
 8988SOL    HW227864   1.474   5.001   1.313
 8989SOL     OW27865   5.769   1.852   1.769
 8989SOL    HW127866   5.683   1.898   1.792
 8989SOL    HW227867   5.818   1.905   1.700
 8990SOL     OW27868   3.188   0.023   1.653
 8990SOL    HW127869   3.286   0.002   1.658
 8990SOL    HW227870   3.173   0.099   1.590
 8991SOL     OW27871   2.106   2.325   0.813
 8991SOL    HW127872   2.125   2.423   0.819
 8991SOL    HW227873   2.007   2.309   0.813
 8992SOL     OW27874   0.551   3.566   6.666
 8992SOL    HW127875   0.522   3.589   6.759
 8992SOL    HW227876   0.597   3.646   6.626
 8993SOL     OW27877   5.486   2.722   3.260
 8993SOL    HW127878   5.399   2.673   3.254
 8993SOL    HW227879   5.558   2.659   3.290
 8994SOL     OW27880   0.860   4.876   3.872
 8994SOL    HW127881   0.780   4.824   3.903
 8994SOL    HW227882   0.841   4.918   3.784
 8995SOL     OW27883   1.829   3.618   5.048
 8995SOL    HW127884   1.763   3.543   5.053
 8995SOL    HW227885   1.916   3.588   5.087
 8996SOL     OW27886   0.416   3.831   2.666
 8996SOL    HW127887   0.508   3.854   2.634
 8996SOL    HW227888   0.422   3.774   2.748
 8997SOL     OW27889   4.146   1.305   4.941
 8997SOL    HW127890   4.077   1.246   4.984
 8997SOL    HW227891   4.219   1.248   4.903
 8998SOL     OW27892   1.440   2.331   5.952
 8998SOL    HW127893   1.511   2.343   5.882
 8998SOL    HW227894   1.352   2.316   5.907
 8999SOL     OW27895   5.672   1.504   5.356
 8999SOL    HW127896   5.632   1.555   5.279
 8999SOL    HW227897   5.740   1.562   5.401
 9000SOL     OW27898   3.235   4.137   0.479
 9000SOL    HW127899   3.270   4.231   0.470
 9000SOL    HW227900   3.298   4.083   0.535
 9001SOL     OW27901   2.326   4.846   4.054
 9001SOL    HW127902   2.394   4.823   3.985
 9001SOL    HW227903   2.238   4.863   4.009
 9002SOL     OW27904   5.988   4.745   6.281
 9002SOL    HW127905   6.012   4.663   6.229
 9002SOL    HW227906   5.983   4.824   6.220
 9003SOL     OW27907   6.580   2.971   6.921
 9003SOL    HW127908   6.628   3.052   6.889
 9003SOL    HW227909   6.482   2.981   6.906
 9004SOL     OW27910   4.712   6.313   1.280
 9004SOL    HW127911   4.695   6.216   1.301
 9004SOL    HW227912   4.811   6.327   1.267
 9005SOL     OW27913   5.122   2.127   3.476
 9005SOL    HW127914   5.182   2.176   3.413
 9005SOL    HW227915   5.034   2.110   3.433
 9006SOL     OW27916   1.391   5.348   1.323
 9006SOL    HW127917   1.347   5.325   1.410
 9006SOL    HW227918   1.325   5.338   1.249
 9007SOL     OW27919   3.260   5.891   3.858
 9007SOL    HW127920   3.178   5.928   3.813
 9007SOL    HW227921   3.300   5.820   3.801
 9008SOL     OW27922   0.014   4.184   2.139
 9008SOL    HW127923   6.993   4.139   2.060
 9008SOL    HW227924   6.989   4.273   2.153
 9009SOL     OW27925   2.759   6.273   0.513
 9009SOL    HW127926   2.701   6.203   0.554
 9009SOL    HW227927   2.754   6.266   0.413
 9010SOL     OW27928   0.376   6.265   5.131
 9010SOL    HW127929   0.283   6.234   5.113
 9010SOL    HW227930   0.406   6.326   5.057
 9011SOL     OW27931   4.151   1.776   1.072
 9011SOL    HW127932   4.235   1.800   1.024
 9011SOL    HW227933   4.125   1.851   1.133
 9012SOL     OW27934   0.624   5.211   1.802
 9012SOL    HW127935   0.601   5.249   1.892
 9012SOL    HW227936   0.577   5.263   1.731
 9013SOL     OW27937   6.430   6.220   3.233
 9013SOL    HW127938   6.468   6.216   3.326
 9013SOL    HW227939   6.423   6.127   3.197
 9014SOL     OW27940   1.426   0.372   1.182
 9014SOL    HW127941   1.517   0.412   1.176
 9014SOL    HW227942   1.368   0.413   1.111
 9015SOL     OW27943   0.219   1.374   6.339
 9015SOL    HW127944   0.162   1.291   6.336
 9015SOL    HW227945   0.290   1.362   6.409
 9016SOL     OW27946   6.526   6.024   6.195
 9016SOL    HW127947   6.454   6.005   6.128
 9016SOL    HW227948   6.527   6.123   6.215
 9017SOL     OW27949   6.357   2.411   3.734
 9017SOL    HW127950   6.365   2.475   3.810
 9017SOL    HW227951   6.323   2.323   3.768
 9018SOL     OW27952   3.615   2.331   5.396
 9018SOL    HW127953   3.638   2.241   5.360
 9018SOL    HW227954   3.689   2.395   5.374
 9019SOL     OW27955   2.571   6.434   0.143
 9019SOL    HW127956   2.531   6.354   0.099
 9019SOL    HW227957   2.503   6.507   0.146
 9020SOL     OW27958   1.392   4.102   2.708
 9020SOL    HW127959   1.395   4.194   2.669
 9020SOL    HW227960   1.459   4.043   2.662
 9021SOL     OW27961   6.745   5.507   4.547
 9021SOL    HW127962   6.714   5.494   4.641
 9021SOL    HW227963   6.832   5.459   4.534
 9022SOL     OW27964   2.626   0.708   0.452
 9022SOL    HW127965   2.577   0.624   0.430
 9022SOL    HW227966   2.608   0.777   0.381
 9023SOL     OW27967   3.202   2.960   3.953
 9023SOL    HW127968   3.266   2.893   3.915
 9023SOL    HW227969   3.146   2.997   3.880
 9024SOL     OW27970   1.622   6.712   6.106
 9024SOL    HW127971   1.671   6.767   6.175
 9024SOL    HW227972   1.617   6.617   6.137
 9025SOL     OW27973   6.018   4.787   1.928
 9025SOL    HW127974   6.085   4.820   1.861
 9025SOL    HW227975   6.062   4.783   2.018
 9026SOL     OW27976   3.501   2.865   4.916
 9026SOL    HW127977   3.511   2.772   4.883
 9026SOL    HW227978   3.547   2.874   5.005
 9027SOL     OW27979   2.707   2.317   3.291
 9027SOL    HW127980   2.644   2.372   3.346
 9027SOL    HW227981   2.719   2.359   3.202
 9028SOL     OW27982   2.787   4.939   5.130
 9028SOL    HW127983   2.758   4.908   5.039
 9028SOL    HW227984   2.874   4.896   5.153
 9029SOL     OW27985   4.799   6.132   3.191
 9029SOL    HW127986   4.719   6.190   3.174
 9029SOL    HW227987   4.784   6.078   3.274
 9030SOL     OW27988   2.028   0.709   2.756
 9030SOL    HW127989   1.972   0.761   2.692
 9030SOL    HW227990   2.098   0.768   2.796
 9031SOL     OW27991   2.281   6.140   5.753
 9031SOL    HW127992   2.184   6.163   5.747
 9031SOL    HW227993   2.332   6.217   5.790
 9032SOL     OW27994   2.825   2.099   1.370
 9032SOL    HW127995   2.896   2.101   1.441
 9032SOL    HW227996   2.773   2.014   1.377
 9033SOL     OW27997   1.625   3.426   3.631
 9033SOL    HW127998   1.670   3.513   3.655
 9033SOL    HW227999   1.660   3.353   3.690
 9034SOL     OW28000   2.823   6.393   5.633
 9034SOL    HW128001   2.727   6.414   5.648
 9034SOL    HW228002   2.854   6.437   5.549
 9035SOL     OW28003   0.050   1.032   3.972
 9035SOL    HW128004   0.068   0.976   4.053
 9035SOL    HW228005   0.072   0.979   3.890
 9036SOL     OW28006   0.952   2.947   5.720
 9036SOL    HW128007   1.017   3.019   5.695
 9036SOL    HW228008   0.976   2.910   5.810
 9037SOL     OW28009   2.595   4.416   6.539
 9037SOL    HW128010   2.677   4.360   6.526
 9037SOL    HW228011   2.618   4.513   6.527
 9038SOL     OW28012   4.735   6.278   4.948
 9038SOL    HW128013   4.721   6.258   4.851
 9038SOL    HW228014   4.699   6.202   5.002
 9039SOL     OW28015   2.019   5.011   4.715
 9039SOL    HW128016   2.022   4.965   4.626
 9039SOL    HW228017   2.113   5.022   4.749
 9040SOL     OW28018   2.049   1.802   2.646
 9040SOL    HW128019   2.023   1.751   2.563
 9040SOL    HW228020   2.022   1.898   2.636
 9041SOL     OW28021   1.203   2.908   1.132
 9041SOL    HW128022   1.115   2.862   1.119
 9041SOL    HW228023   1.254   2.907   1.046
 9042SOL     OW28024   2.898   5.085   2.971
 9042SOL    HW128025   2.810   5.105   2.927
 9042SOL    HW228026   2.933   4.997   2.939
 9043SOL     OW28027   0.757   2.690   5.846
 9043SOL    HW128028   0.834   2.688   5.783
 9043SOL    HW228029   0.790   2.692   5.941
 9044SOL     OW28030   6.118   0.559   0.768
 9044SOL    HW128031   6.048   0.522   0.829
 9044SOL    HW228032   6.183   0.487   0.744
 9045SOL     OW28033   2.804   0.018   3.332
 9045SOL    HW128034   2.841   0.081   3.401
 9045SOL    HW228035   2.856   6.952   3.334
 9046SOL     OW28036   3.232   4.418   5.597
 9046SOL    HW128037   3.153   4.397   5.655
 9046SOL    HW228038   3.201   4.463   5.513
 9047SOL     OW28039   1.230   4.016   4.235
 9047SOL    HW128040   1.167   4.087   4.267
 9047SOL    HW228041   1.185   3.927   4.242
 9048SOL     OW28042   1.293   3.706   4.691
 9048SOL    HW128043   1.353   3.668   4.761
 9048SOL    HW228044   1.198   3.701   4.722
 9049SOL     OW28045   5.896   6.041   6.147
 9049SOL    HW128046   5.943   5.975   6.089
 9049SOL    HW228047   5.961   6.084   6.209
 9050SOL     OW28048   0.121   4.873   6.897
 9050SOL    HW128049   0.147   4.839   6.987
 9050SOL    HW228050   0.188   4.843   6.829
 9051SOL     OW28051   5.770   5.948   0.236
 9051SOL    HW128052   5.729   6.027   0.281
 9051SOL    HW228053   5.727   5.864   0.270
 9052SOL     OW28054   2.500   4.966   4.233
 9052SOL    HW128055   2.430   4.924   4.174
 9052SOL    HW228056   2.545   4.894   4.287
 9053SOL     OW28057   2.377   2.754   4.138
 9053SOL    HW128058   2.463   2.715   4.170
 9053SOL    HW228059   2.352   2.832   4.196
 9054SOL     OW28060   1.830   0.518   2.101
 9054SOL    HW128061   1.887   0.579   2.156
 9054SOL    HW228062   1.773   0.572   2.039
 9055SOL     OW28063   0.548   2.568   4.004
 9055SOL    HW128064   0.638   2.531   3.980
 9055SOL    HW228065   0.546   2.590   4.101
 9056SOL     OW28066   4.869   0.256   2.854
 9056SOL    HW128067   4.848   0.348   2.823
 9056SOL    HW228068   4.894   0.199   2.776
 9057SOL     OW28069   6.499   5.858   7.006
 9057SOL    HW128070   6.413   5.889   0.028
 9057SOL    HW228071   6.575   5.913   0.021
 9058SOL     OW28072   1.926   2.791   4.745
 9058SOL    HW128073   1.905   2.872   4.691
 9058SOL    HW228074   1.902   2.807   4.841
 9059SOL     OW28075   6.503   1.701   2.993
 9059SOL    HW128076   6.576   1.768   3.004
 9059SOL    HW228077   6.434   1.735   2.929
 9060SOL     OW28078   0.143   3.236   1.882
 9060SOL    HW128079   0.091   3.161   1.923
 9060SOL    HW228080   0.089   3.280   1.810
 9061SOL     OW28081   4.697   5.626   2.438
 9061SOL    HW128082   4.675   5.691   2.510
 9061SOL    HW228083   4.652   5.539   2.458
 9062SOL     OW28084   1.064   4.592   3.759
 9062SOL    HW128085   1.135   4.647   3.801
 9062SOL    HW228086   1.105   4.515   3.711
 9063SOL     OW28087   2.921   0.667   2.461
 9063SOL    HW128088   2.987   0.593   2.457
 9063SOL    HW228089   2.832   0.631   2.491
 9064SOL     OW28090   0.445   4.254   3.512
 9064SOL    HW128091   0.413   4.215   3.426
 9064SOL    HW228092   0.503   4.187   3.559
 9065SOL     OW28093   2.703   6.070   5.005
 9065SOL    HW128094   2.657   6.146   4.960
 9065SOL    HW228095   2.776   6.104   5.064
 9066SOL     OW28096   5.693   5.743   6.162
 9066SOL    HW128097   5.707   5.649   6.195
 9066SOL    HW228098   5.706   5.746   6.063
 9067SOL     OW28099   6.538   0.339   4.413
 9067SOL    HW128100   6.470   0.352   4.484
 9067SOL    HW228101   6.594   0.421   4.403
 9068SOL     OW28102   5.218   0.344   4.921
 9068SOL    HW128103   5.233   0.441   4.899
 9068SOL    HW228104   5.297   0.308   4.969
 9069SOL     OW28105   4.751   2.070   2.366
 9069SOL    HW128106   4.682   2.069   2.294
 9069SOL    HW228107   4.707   2.089   2.454
 9070SOL     OW28108   1.206   2.063   5.815
 9070SOL    HW128109   1.187   1.975   5.770
 9070SOL    HW228110   1.119   2.111   5.829
 9071SOL     OW28111   4.439   1.408   5.630
 9071SOL    HW128112   4.426   1.404   5.729
 9071SOL    HW228113   4.537   1.415   5.610
 9072SOL     OW28114   5.013   0.356   1.741
 9072SOL    HW128115   4.949   0.370   1.665
 9072SOL    HW228116   5.104   0.335   1.706
 9073SOL     OW28117   3.793   0.519   6.860
 9073SOL    HW128118   3.710   0.467   6.880
 9073SOL    HW228119   3.822   0.501   6.766
 9074SOL     OW28120   1.317   6.846   1.100
 9074SOL    HW128121   1.412   6.825   1.125
 9074SOL    HW228122   1.316   6.913   1.026
 9075SOL     OW28123   6.920   0.759   1.367
 9075SOL    HW128124   6.892   0.748   1.462
 9075SOL    HW228125   6.918   0.857   1.343
 9076SOL     OW28126   5.266   0.067   2.577
 9076SOL    HW128127   5.220   0.018   2.650
 9076SOL    HW228128   5.320   0.142   2.615
 9077SOL     OW28129   5.305   1.309   5.667
 9077SOL    HW128130   5.296   1.405   5.695
 9077SOL    HW228131   5.251   1.293   5.584
 9078SOL     OW28132   5.040   5.711   6.995
 9078SOL    HW128133   5.035   5.635   6.930
 9078SOL    HW228134   5.074   5.792   6.949
 9079SOL     OW28135   1.081   0.327   5.686
 9079SOL    HW128136   1.175   0.341   5.654
 9079SOL    HW228137   1.058   0.397   5.753
 9080SOL     OW28138   6.552   3.626   0.782
 9080SOL    HW128139   6.589   3.682   0.708
 9080SOL    HW228140   6.623   3.566   0.817
 9081SOL     OW28141   3.537   1.675   1.652
 9081SOL    HW128142   3.545   1.645   1.747
 9081SOL    HW228143   3.500   1.768   1.650
 9082SOL     OW28144   3.350   5.943   6.230
 9082SOL    HW128145   3.342   5.878   6.305
 9082SOL    HW228146   3.260   5.981   6.208
 9083SOL     OW28147   4.722   5.151   6.164
 9083SOL    HW128148   4.743   5.109   6.075
 9083SOL    HW228149   4.625   5.174   6.168
 9084SOL     OW28150   0.926   2.754   5.531
 9084SOL    HW128151   0.991   2.678   5.542
 9084SOL    HW228152   0.934   2.816   5.609
 9085SOL     OW28153   3.005   5.284   0.053
 9085SOL    HW128154   2.979   5.198   0.009
 9085SOL    HW228155   3.104   5.294   0.050
 9086SOL     OW28156   6.603   4.593   0.748
 9086SOL    HW128157   6.685   4.543   0.777
 9086SOL    HW228158   6.522   4.554   0.791
 9087SOL     OW28159   5.953   2.566   2.176
 9087SOL    HW128160   5.878   2.612   2.130
 9087SOL    HW228161   5.937   2.467   2.176
 9088SOL     OW28162   6.148   0.591   1.708
 9088SOL    HW128163   6.223   0.621   1.649
 9088SOL    HW228164   6.150   0.491   1.716
 9089SOL     OW28165   4.570   5.354   3.704
 9089SOL    HW128166   4.639   5.406   3.654
 9089SOL    HW228167   4.593   5.256   3.700
 9090SOL     OW28168   5.662   6.232   4.530
 9090SOL    HW128169   5.677   6.238   4.432
 9090SOL    HW228170   5.747   6.205   4.576
 9091SOL     OW28171   3.685   2.413   0.519
 9091SOL    HW128172   3.616   2.346   0.546
 9091SOL    HW228173   3.720   2.390   0.429
 9092SOL     OW28174   1.163   6.597   5.668
 9092SOL    HW128175   1.148   6.535   5.591
 9092SOL    HW228176   1.238   6.563   5.724
 9093SOL     OW28177   1.332   5.720   0.371
 9093SOL    HW128178   1.428   5.695   0.382
 9093SOL    HW228179   1.323   5.789   0.300
 9094SOL     OW28180   0.224   5.980   1.817
 9094SOL    HW128181   0.265   5.895   1.783
 9094SOL    HW228182   0.221   6.047   1.742
 9095SOL     OW28183   5.101   3.284   6.440
 9095SOL    HW128184   5.002   3.297   6.435
 9095SOL    HW228185   5.139   3.342   6.512
 9096SOL     OW28186   5.580   3.266   2.960
 9096SOL    HW128187   5.527   3.240   3.041
 9096SOL    HW228188   5.524   3.326   2.902
 9097SOL     OW28189   1.095   3.723   6.836
 9097SOL    HW128190   1.005   3.708   6.797
 9097SOL    HW228191   1.139   3.800   6.790
 9098SOL     OW28192   3.656   3.878   2.055
 9098SOL    HW128193   3.631   3.954   1.996
 9098SOL    HW228194   3.695   3.914   2.140
 9099SOL     OW28195   3.195   3.168   1.015
 9099SOL    HW128196   3.259   3.108   1.062
 9099SOL    HW228197   3.220   3.175   0.919
 9100SOL     OW28198   0.741   3.137   1.593
 9100SOL    HW128199   0.831   3.175   1.614
 9100SOL    HW228200   0.736   3.043   1.624
 9101SOL     OW28201   2.124   3.080   2.907
 9101SOL    HW128202   2.178   3.013   2.855
 9101SOL    HW228203   2.030   3.080   2.872
 9102SOL     OW28204   3.582   5.365   2.490
 9102SOL    HW128205   3.571   5.434   2.419
 9102SOL    HW228206   3.495   5.354   2.539
 9103SOL     OW28207   0.087   3.650   0.787
 9103SOL    HW128208   7.013   3.647   0.751
 9103SOL    HW228209   0.148   3.600   0.726
 9104SOL     OW28210   3.633   6.131   1.727
 9104SOL    HW128211   3.714   6.129   1.786
 9104SOL    HW228212   3.652   6.188   1.647
 9105SOL     OW28213   1.763   0.700   6.650
 9105SOL    HW128214   1.784   0.742   6.562
 9105SOL    HW228215   1.668   0.721   6.675
 9106SOL     OW28216   5.662   4.290   0.390
 9106SOL    HW128217   5.657   4.191   0.405
 9106SOL    HW228218   5.584   4.319   0.335
 9107SOL     OW28219   4.250   6.887   6.750
 9107SOL    HW128220   4.209   6.976   6.770
 9107SOL    HW228221   4.236   6.865   6.654
 9108SOL     OW28222   4.740   4.563   5.234
 9108SOL    HW128223   4.708   4.627   5.303
 9108SOL    HW228224   4.840   4.566   5.229
 9109SOL     OW28225   2.229   1.853   3.011
 9109SOL    HW128226   2.173   1.894   2.939
 9109SOL    HW228227   2.323   1.841   2.978
 9110SOL     OW28228   2.431   4.625   3.776
 9110SOL    HW128229   2.503   4.649   3.710
 9110SOL    HW228230   2.351   4.682   3.758
 9111SOL     OW28231   3.532   3.733   1.304
 9111SOL    HW128232   3.586   3.800   1.253
 9111SOL    HW228233   3.544   3.748   1.402
 9112SOL     OW28234   0.335   3.620   3.500
 9112SOL    HW128235   0.387   3.673   3.433
 9112SOL    HW228236   0.373   3.528   3.506
 9113SOL     OW28237   4.505   0.814   6.855
 9113SOL    HW128238   4.523   0.839   6.951
 9113SOL    HW228239   4.443   0.735   6.853
 9114SOL     OW28240   2.005   4.833   2.558
 9114SOL    HW128241   2.064   4.905   2.523
 9114SOL    HW228242   1.968   4.860   2.647
 9115SOL     OW28243   1.056   5.028   4.600
 9115SOL    HW128244   0.974   5.013   4.654
 9115SOL    HW228245   1.136   5.033   4.660
 9116SOL     OW28246   6.907   1.773   0.070
 9116SOL    HW128247   6.823   1.811   0.031
 9116SOL    HW228248   6.887   1.688   0.118
 9117SOL     OW28249   6.327   3.376   6.611
 9117SOL    HW128250   6.263   3.387   6.687
 9117SOL    HW228251   6.382   3.294   6.625
 9118SOL     OW28252   5.753   6.763   0.855
 9118SOL    HW128253   5.789   6.807   0.937
 9118SOL    HW228254   5.715   6.674   0.879
 9119SOL     OW28255   5.921   1.178   2.399
 9119SOL    HW128256   5.963   1.189   2.309
 9119SOL    HW228257   5.822   1.192   2.392
 9120SOL     OW28258   5.942   2.705   6.046
 9120SOL    HW128259   5.920   2.775   6.113
 9120SOL    HW228260   5.861   2.684   5.991
 9121SOL     OW28261   1.055   3.497   5.212
 9121SOL    HW128262   1.136   3.555   5.212
 9121SOL    HW228263   1.079   3.407   5.176
 9122SOL     OW28264   2.073   2.796   1.611
 9122SOL    HW128265   2.018   2.764   1.534
 9122SOL    HW228266   2.042   2.751   1.695
 9123SOL     OW28267   3.434   6.501   5.169
 9123SOL    HW128268   3.360   6.487   5.234
 9123SOL    HW228269   3.521   6.480   5.212
 9124SOL     OW28270   6.074   5.938   5.368
 9124SOL    HW128271   6.173   5.950   5.373
 9124SOL    HW228272   6.053   5.865   5.304
 9125SOL     OW28273   4.396   4.652   4.018
 9125SOL    HW128274   4.397   4.627   3.922
 9125SOL    HW228275   4.440   4.579   4.072
 9126SOL     OW28276   6.060   1.377   2.535
 9126SOL    HW128277   5.988   1.445   2.551
 9126SOL    HW228278   6.020   1.286   2.531
 9127SOL     OW28279   5.845   0.492   5.225
 9127SOL    HW128280   5.846   0.583   5.185
 9127SOL    HW228281   5.824   0.498   5.323
 9128SOL     OW28282   4.024   1.932   5.323
 9128SOL    HW128283   3.998   1.953   5.417
 9128SOL    HW228284   4.067   1.842   5.320
 9129SOL     OW28285   1.864   3.480   1.010
 9129SOL    HW128286   1.838   3.564   0.962
 9129SOL    HW228287   1.935   3.501   1.077
 9130SOL     OW28288   0.144   4.370   6.909
 9130SOL    HW128289   0.174   4.336   6.998
 9130SOL    HW228290   0.207   4.339   6.838
 9131SOL     OW28291   0.250   4.103   4.843
 9131SOL    HW128292   0.329   4.086   4.902
 9131SOL    HW228293   0.174   4.046   4.872
 9132SOL     OW28294   7.005   4.489   3.809
 9132SOL    HW128295   0.021   4.537   3.728
 9132SOL    HW228296   6.910   4.464   3.793
 9133SOL     OW28297   3.416   5.458   0.876
 9133SOL    HW128298   3.470   5.379   0.848
 9133SOL    HW228299   3.437   5.480   0.971
 9134SOL     OW28300   3.447   0.053   0.610
 9134SOL    HW128301   3.451   0.152   0.625
 9134SOL    HW228302   3.432   0.034   0.513
 9135SOL     OW28303   7.019   6.466   2.068
 9135SOL    HW128304   7.013   6.565   2.056
 9135SOL    HW228305   0.095   6.438   2.066
 9136SOL     OW28306   4.901   5.332   5.348
 9136SOL    HW128307   4.936   5.422   5.323
 9136SOL    HW228308   4.856   5.290   5.269
 9137SOL     OW28309   5.283   1.578   1.012
 9137SOL    HW128310   5.343   1.638   1.065
 9137SOL    HW228311   5.225   1.634   0.952
 9138SOL     OW28312   6.460   5.032   6.194
 9138SOL    HW128313   6.402   4.959   6.230
 9138SOL    HW228314   6.497   5.004   6.105
 9139SOL     OW28315   2.503   1.095   4.609
 9139SOL    HW128316   2.464   1.171   4.660
 9139SOL    HW228317   2.486   1.108   4.512
 9140SOL     OW28318   6.740   2.815   2.746
 9140SOL    HW128319   6.775   2.732   2.791
 9140SOL    HW228320   6.714   2.882   2.816
 9141SOL     OW28321   5.641   0.196   6.495
 9141SOL    HW128322   5.588   0.122   6.453
 9141SOL    HW228323   5.626   0.194   6.594
 9142SOL     OW28324   0.315   2.546   5.946
 9142SOL    HW128325   0.279   2.639   5.935
 9142SOL    HW228326   0.414   2.550   5.961
 9143SOL     OW28327   5.045   4.150   6.863
 9143SOL    HW128328   5.122   4.184   6.917
 9143SOL    HW228329   5.074   4.071   6.810
 9144SOL     OW28330   2.444   5.558   5.967
 9144SOL    HW128331   2.462   5.461   5.979
 9144SOL    HW228332   2.425   5.578   5.871
 9145SOL     OW28333   6.683   5.176   1.367
 9145SOL    HW128334   6.595   5.138   1.339
 9145SOL    HW228335   6.720   5.233   1.294
 9146SOL     OW28336   5.308   2.018   2.084
 9146SOL    HW128337   5.255   2.102   2.095
 9146SOL    HW228338   5.246   1.942   2.062
 9147SOL     OW28339   5.976   7.018   4.280
 9147SOL    HW128340   6.029   0.056   4.218
 9147SOL    HW228341   6.001   6.922   4.267
 9148SOL     OW28342   5.353   0.142   1.077
 9148SOL    HW128343   5.337   0.064   1.015
 9148SOL    HW228344   5.345   0.227   1.025
 9149SOL     OW28345   4.911   2.534   3.849
 9149SOL    HW128346   4.985   2.581   3.801
 9149SOL    HW228347   4.900   2.442   3.811
 9150SOL     OW28348   3.826   5.150   3.468
 9150SOL    HW128349   3.844   5.064   3.421
 9150SOL    HW228350   3.807   5.131   3.565
 9151SOL     OW28351   1.361   4.226   3.090
 9151SOL    HW128352   1.361   4.172   3.174
 9151SOL    HW228353   1.311   4.311   3.106
 9152SOL     OW28354   2.830   5.310   4.431
 9152SOL    HW128355   2.788   5.222   4.407
 9152SOL    HW228356   2.893   5.297   4.508
 9153SOL     OW28357   1.501   3.401   1.245
 9153SOL    HW128358   1.600   3.393   1.260
 9153SOL    HW228359   1.453   3.332   1.299
 9154SOL     OW28360   2.930   5.271   0.335
 9154SOL    HW128361   2.936   5.250   0.238
 9154SOL    HW228362   2.872   5.351   0.348
 9155SOL     OW28363   1.975   3.643   0.432
 9155SOL    HW128364   1.880   3.671   0.419
 9155SOL    HW228365   2.036   3.717   0.403
 9156SOL     OW28366   3.260   2.869   0.934
 9156SOL    HW128367   3.186   2.805   0.951
 9156SOL    HW228368   3.229   2.939   0.869
 9157SOL     OW28369   5.913   5.038   6.248
 9157SOL    HW128370   5.876   5.038   6.341
 9157SOL    HW228371   5.907   5.130   6.210
 9158SOL     OW28372   6.196   3.355   5.087
 9158SOL    HW128373   6.119   3.331   5.145
 9158SOL    HW228374   6.239   3.440   5.120
 9159SOL     OW28375   1.399   6.860   3.669
 9159SOL    HW128376   1.309   6.817   3.670
 9159SOL    HW228377   1.470   6.791   3.683
 9160SOL     OW28378   6.392   0.498   5.250
 9160SOL    HW128379   6.447   0.430   5.202
 9160SOL    HW228380   6.412   0.589   5.213
 9161SOL     OW28381   4.730   4.207   4.503
 9161SOL    HW128382   4.775   4.265   4.435
 9161SOL    HW228383   4.640   4.245   4.525
 9162SOL     OW28384   4.815   1.676   3.583
 9162SOL    HW128385   4.762   1.606   3.630
 9162SOL    HW228386   4.903   1.637   3.554
 9163SOL     OW28387   2.165   3.411   4.035
 9163SOL    HW128388   2.235   3.470   4.075
 9163SOL    HW228389   2.102   3.380   4.107
 9164SOL     OW28390   2.552   0.429   6.907
 9164SOL    HW128391   2.482   0.463   6.845
 9164SOL    HW228392   2.589   0.504   6.962
 9165SOL     OW28393   5.811   1.661   5.534
 9165SOL    HW128394   5.856   1.750   5.538
 9165SOL    HW228395   5.794   1.628   5.626
 9166SOL     OW28396   4.548   6.241   0.926
 9166SOL    HW128397   4.595   6.321   0.965
 9166SOL    HW228398   4.453   6.241   0.956
 9167SOL     OW28399   1.442   2.781   6.740
 9167SOL    HW128400   1.531   2.748   6.772
 9167SOL    HW228401   1.380   2.704   6.729
 9168SOL     OW28402   0.613   0.125   6.048
 9168SOL    HW128403   0.676   0.100   5.975
 9168SOL    HW228404   0.643   0.210   6.091
 9169SOL     OW28405   6.438   1.576   4.947
 9169SOL    HW128406   6.400   1.630   5.023
 9169SOL    HW228407   6.414   1.480   4.959
 9170SOL     OW28408   0.327   4.889   0.768
 9170SOL    HW128409   0.296   4.880   0.673
 9170SOL    HW228410   0.425   4.873   0.773
 9171SOL     OW28411   3.281   5.047   0.647
 9171SOL    HW128412   3.350   5.032   0.576
 9171SOL    HW228413   3.220   5.121   0.619
 9172SOL     OW28414   3.186   0.532   5.161
 9172SOL    HW128415   3.157   0.611   5.216
 9172SOL    HW228416   3.118   0.514   5.090
 9173SOL     OW28417   5.980   3.954   4.793
 9173SOL    HW128418   5.901   3.892   4.801
 9173SOL    HW228419   6.028   3.935   4.708
 9174SOL     OW28420   5.756   4.474   1.251
 9174SOL    HW128421   5.697   4.552   1.231
 9174SOL    HW228422   5.846   4.507   1.278
 9175SOL     OW28423   1.422   6.607   4.884
 9175SOL    HW128424   1.500   6.666   4.867
 9175SOL    HW228425   1.342   6.662   4.906
 9176SOL     OW28426   3.012   0.738   4.948
 9176SOL    HW128427   3.014   0.638   4.937
 9176SOL    HW228428   2.932   0.764   5.002
 9177SOL     OW28429   1.424   4.657   4.915
 9177SOL    HW128430   1.456   4.656   4.821
 9177SOL    HW228431   1.502   4.660   4.977
 9178SOL     OW28432   2.323   5.746   0.175
 9178SOL    HW128433   2.293   5.840   0.192
 9178SOL    HW228434   2.359   5.738   0.082
 9179SOL     OW28435   3.296   5.214   3.788
 9179SOL    HW128436   3.349   5.223   3.872
 9179SOL    HW228437   3.335   5.273   3.717
 9180SOL     OW28438   5.820   2.176   2.968
 9180SOL    HW128439   5.757   2.244   3.006
 9180SOL    HW228440   5.914   2.201   2.991
 9181SOL     OW28441   3.799   1.891   3.712
 9181SOL    HW128442   3.896   1.865   3.713
 9181SOL    HW228443   3.750   1.837   3.779
 9182SOL     OW28444   2.294   6.376   2.229
 9182SOL    HW128445   2.364   6.360   2.299
 9182SOL    HW228446   2.217   6.314   2.244
 9183SOL     OW28447   5.046   6.375   0.400
 9183SOL    HW128448   5.104   6.416   0.330
 9183SOL    HW228449   5.103   6.335   0.472
 9184SOL     OW28450   5.265   2.023   0.225
 9184SOL    HW128451   5.279   1.944   0.165
 9184SOL    HW228452   5.169   2.050   0.221
 9185SOL     OW28453   4.128   6.896   5.182
 9185SOL    HW128454   4.218   6.917   5.219
 9185SOL    HW228455   4.137   6.845   5.097
 9186SOL     OW28456   5.964   0.374   3.748
 9186SOL    HW128457   5.935   0.313   3.674
 9186SOL    HW228458   5.969   0.321   3.833
 9187SOL     OW28459   2.625   1.213   1.132
 9187SOL    HW128460   2.583   1.293   1.173
 9187SOL    HW228461   2.704   1.185   1.186
 9188SOL     OW28462   2.050   6.314   1.829
 9188SOL    HW128463   1.994   6.246   1.781
 9188SOL    HW228464   2.125   6.342   1.770
 9189SOL     OW28465   4.911   5.730   1.094
 9189SOL    HW128466   4.943   5.824   1.110
 9189SOL    HW228467   4.950   5.696   1.009
 9190SOL     OW28468   1.580   4.383   6.987
 9190SOL    HW128469   1.592   4.285   7.002
 9190SOL    HW228470   1.560   4.428   0.055
 9191SOL     OW28471   5.652   0.989   5.983
 9191SOL    HW128472   5.615   1.081   5.983
 9191SOL    HW228473   5.711   0.975   5.904
 9192SOL     OW28474   0.397   4.002   6.126
 9192SOL    HW128475   0.319   3.950   6.161
 9192SOL    HW228476   0.468   3.938   6.094
 9193SOL     OW28477   4.520   4.485   0.488
 9193SOL    HW128478   4.566   4.423   0.423
 9193SOL    HW228479   4.583   4.511   0.560
 9194SOL     OW28480   2.924   0.385   3.193
 9194SOL    HW128481   3.011   0.377   3.145
 9194SOL    HW228482   2.867   0.454   3.148
 9195SOL     OW28483   2.006   2.130   4.488
 9195SOL    HW128484   1.913   2.103   4.512
 9195SOL    HW228485   2.015   2.229   4.499
 9196SOL     OW28486   4.387   0.311   4.014
 9196SOL    HW128487   4.375   0.356   4.103
 9196SOL    HW228488   4.310   0.250   3.997
 9197SOL     OW28489   2.044   4.211   2.036
 9197SOL    HW128490   2.069   4.304   2.065
 9197SOL    HW228491   2.111   4.146   2.072
 9198SOL     OW28492   6.653   4.808   6.465
 9198SOL    HW128493   6.706   4.797   6.381
 9198SOL    HW228494   6.573   4.747   6.463
 9199SOL     OW28495   1.704   3.742   5.778
 9199SOL    HW128496   1.704   3.836   5.742
 9199SOL    HW228497   1.702   3.677   5.702
 9200SOL     OW28498   3.010   0.320   0.579
 9200SOL    HW128499   2.923   0.285   0.544
 9200SOL    HW228500   3.056   0.249   0.632
 9201SOL     OW28501   0.333   2.646   0.426
 9201SOL    HW128502   0.295   2.597   0.504
 9201SOL    HW228503   0.288   2.616   0.342
 9202SOL     OW28504   1.559   6.445   2.820
 9202SOL    HW128505   1.617   6.508   2.768
 9202SOL    HW228506   1.498   6.497   2.880
 9203SOL     OW28507   0.454   5.089   7.015
 9203SOL    HW128508   0.487   5.027   6.944
 9203SOL    HW228509   0.529   5.148   0.026
 9204SOL     OW28510   4.231   2.868   6.248
 9204SOL    HW128511   4.262   2.799   6.313
 9204SOL    HW228512   4.301   2.882   6.178
 9205SOL     OW28513   5.913   4.866   2.611
 9205SOL    HW128514   5.999   4.882   2.563
 9205SOL    HW228515   5.897   4.940   2.676
 9206SOL     OW28516   4.283   5.495   1.882
 9206SOL    HW128517   4.266   5.397   1.880
 9206SOL    HW228518   4.322   5.520   1.971
 9207SOL     OW28519   4.318   5.503   6.680
 9207SOL    HW128520   4.416   5.514   6.699
 9207SOL    HW228521   4.298   5.407   6.663
 9208SOL     OW28522   5.781   3.661   3.993
 9208SOL    HW128523   5.850   3.639   4.062
 9208SOL    HW228524   5.796   3.753   3.958
 9209SOL     OW28525   2.610   0.668   0.070
 9209SOL    HW128526   2.645   0.744   0.125
 9209SOL    HW228527   2.510   0.670   0.068
 9210SOL     OW28528   0.212   0.634   3.275
 9210SOL    HW128529   0.209   0.715   3.334
 9210SOL    HW228530   0.202   0.552   3.330
 9211SOL     OW28531   6.932   2.905   4.759
 9211SOL    HW128532   6.872   2.933   4.834
 9211SOL    HW228533   6.888   2.925   4.671
 9212SOL     OW28534   4.132   5.434   4.674
 9212SOL    HW128535   4.213   5.443   4.616
 9212SOL    HW228536   4.100   5.525   4.702
 9213SOL     OW28537   5.611   3.672   5.697
 9213SOL    HW128538   5.514   3.685   5.716
 9213SOL    HW228539   5.627   3.679   5.599
 9214SOL     OW28540   0.137   4.827   5.898
 9214SOL    HW128541   0.048   4.851   5.935
 9214SOL    HW228542   0.185   4.910   5.869
 9215SOL     OW28543   1.182   2.137   0.141
 9215SOL    HW128544   1.275   2.171   0.129
 9215SOL    HW228545   1.184   2.038   0.154
 9216SOL     OW28546   2.534   0.115   2.665
 9216SOL    HW128547   2.553   0.020   2.692
 9216SOL    HW228548   2.533   0.121   2.565
 9217SOL     OW28549   0.429   1.299   6.478
 9217SOL    HW128550   0.480   1.256   6.404
 9217SOL    HW228551   0.458   1.260   6.566
 9218SOL     OW28552   3.071   6.547   0.958
 9218SOL    HW128553   3.153   6.556   1.016
 9218SOL    HW228554   2.992   6.583   1.007
 9219SOL     OW28555   0.295   2.569   1.367
 9219SOL    HW128556   0.208   2.560   1.320
 9219SOL    HW228557   0.370   2.556   1.302
 9220SOL     OW28558   1.882   6.563   0.687
 9220SOL    HW128559   1.919   6.525   0.603
 9220SOL    HW228560   1.813   6.501   0.724
 9221SOL     OW28561   2.788   1.106   4.630
 9221SOL    HW128562   2.691   1.099   4.609
 9221SOL    HW228563   2.820   1.019   4.669
 9222SOL     OW28564   2.265   0.222   6.349
 9222SOL    HW128565   2.182   0.243   6.401
 9222SOL    HW228566   2.316   0.149   6.396
 9223SOL     OW28567   1.907   1.377   3.960
 9223SOL    HW128568   1.877   1.302   4.019
 9223SOL    HW228569   1.997   1.409   3.992
 9224SOL     OW28570   2.166   5.019   5.048
 9224SOL    HW128571   2.176   4.965   4.965
 9224SOL    HW228572   2.239   4.995   5.112
 9225SOL     OW28573   3.729   6.660   6.178
 9225SOL    HW128574   3.759   6.629   6.088
 9225SOL    HW228575   3.758   6.755   6.192
 9226SOL     OW28576   5.324   6.760   1.934
 9226SOL    HW128577   5.403   6.772   1.994
 9226SOL    HW228578   5.264   6.840   1.941
 9227SOL     OW28579   0.788   5.100   1.179
 9227SOL    HW128580   0.877   5.084   1.219
 9227SOL    HW228581   0.741   5.173   1.228
 9228SOL     OW28582   1.488   0.815   6.170
 9228SOL    HW128583   1.585   0.839   6.156
 9228SOL    HW228584   1.431   0.877   6.116
 9229SOL     OW28585   1.647   5.340   4.809
 9229SOL    HW128586   1.606   5.303   4.726
 9229SOL    HW228587   1.737   5.299   4.823
 9230SOL     OW28588   5.738   0.785   3.766
 9230SOL    HW128589   5.644   0.819   3.762
 9230SOL    HW228590   5.752   0.737   3.852
 9231SOL     OW28591   1.138   4.800   4.938
 9231SOL    HW128592   1.104   4.863   4.868
 9231SOL    HW228593   1.226   4.763   4.908
 9232SOL     OW28594   3.659   5.170   0.377
 9232SOL    HW128595   3.649   5.266   0.403
 9232SOL    HW228596   3.755   5.149   0.362
 9233SOL     OW28597   5.447   4.956   1.836
 9233SOL    HW128598   5.356   4.943   1.876
 9233SOL    HW228599   5.457   5.052   1.808
 9234SOL     OW28600   3.686   5.553   5.177
 9234SOL    HW128601   3.745   5.509   5.244
 9234SOL    HW228602   3.740   5.616   5.122
 9235SOL     OW28603   1.254   2.471   3.713
 9235SOL    HW128604   1.201   2.468   3.799
 9235SOL    HW228605   1.224   2.396   3.653
 9236SOL     OW28606   2.819   4.239   5.487
 9236SOL    HW128607   2.745   4.286   5.441
 9236SOL    HW228608   2.903   4.247   5.433
 9237SOL     OW28609   1.904   4.942   5.031
 9237SOL    HW128610   1.994   4.980   5.051
 9237SOL    HW228611   1.875   4.882   5.106
 9238SOL     OW28612   3.815   1.582   6.263
 9238SOL    HW128613   3.836   1.672   6.224
 9238SOL    HW228614   3.815   1.514   6.191
 9239SOL     OW28615   0.302   3.967   0.518
 9239SOL    HW128616   0.313   3.949   0.616
 9239SOL    HW228617   0.386   3.942   0.470
 9240SOL     OW28618   5.323   1.895   0.625
 9240SOL    HW128619   5.236   1.866   0.585
 9240SOL    HW228620   5.388   1.914   0.552
 9241SOL     OW28621   0.864   5.220   6.321
 9241SOL    HW128622   0.919   5.180   6.395
 9241SOL    HW228623   0.769   5.229   6.352
 9242SOL     OW28624   6.939   5.350   0.837
 9242SOL    HW128625   6.992   5.334   0.754
 9242SOL    HW228626   6.841   5.350   0.815
 9243SOL     OW28627   5.809   6.733   2.509
 9243SOL    HW128628   5.780   6.699   2.419
 9243SOL    HW228629   5.728   6.757   2.563
 9244SOL     OW28630   4.616   5.401   6.300
 9244SOL    HW128631   4.647   5.339   6.372
 9244SOL    HW228632   4.687   5.411   6.231
 9245SOL     OW28633   1.244   5.598   3.504
 9245SOL    HW128634   1.281   5.628   3.416
 9245SOL    HW228635   1.149   5.626   3.512
 9246SOL     OW28636   0.027   4.545   3.123
 9246SOL    HW128637   0.117   4.525   3.162
 9246SOL    HW228638   6.976   4.514   3.187
 9247SOL     OW28639   1.291   0.105   3.320
 9247SOL    HW128640   1.234   0.185   3.301
 9247SOL    HW228641   1.245   0.046   3.387
 9248SOL     OW28642   1.763   2.810   6.186
 9248SOL    HW128643   1.838   2.767   6.136
 9248SOL    HW228644   1.801   2.873   6.254
 9249SOL     OW28645   5.345   3.611   6.087
 9249SOL    HW128646   5.341   3.690   6.026
 9249SOL    HW228647   5.395   3.635   6.170
 9250SOL     OW28648   5.155   3.376   5.043
 9250SOL    HW128649   5.143   3.352   4.946
 9250SOL    HW228650   5.246   3.415   5.056
 9251SOL     OW28651   3.862   2.197   3.034
 9251SOL    HW128652   3.818   2.256   3.102
 9251SOL    HW228653   3.954   2.232   3.015
 9252SOL     OW28654   6.210   0.298   4.359
 9252SOL    HW128655   6.158   0.334   4.282
 9252SOL    HW228656   6.306   0.321   4.348
 9253SOL     OW28657   5.320   6.102   6.376
 9253SOL    HW128658   5.269   6.066   6.455
 9253SOL    HW228659   5.398   6.155   6.408
 9254SOL     OW28660   6.334   4.533   2.262
 9254SOL    HW128661   6.386   4.457   2.224
 9254SOL    HW228662   6.331   4.525   2.362
 9255SOL     OW28663   5.133   3.565   0.470
 9255SOL    HW128664   5.165   3.549   0.376
 9255SOL    HW228665   5.177   3.646   0.508
 9256SOL     OW28666   4.120   5.009   2.945
 9256SOL    HW128667   4.209   4.965   2.952
 9256SOL    HW228668   4.112   5.081   3.014
 9257SOL     OW28669   0.772   3.668   2.356
 9257SOL    HW128670   0.707   3.609   2.307
 9257SOL    HW228671   0.809   3.736   2.293
 9258SOL     OW28672   3.784   3.243   3.807
 9258SOL    HW128673   3.733   3.165   3.844
 9258SOL    HW228674   3.882   3.227   3.819
 9259SOL     OW28675   1.746   1.990   0.973
 9259SOL    HW128676   1.676   1.932   0.932
 9259SOL    HW228677   1.803   1.935   1.035
 9260SOL     OW28678   4.927   1.418   5.033
 9260SOL    HW128679   4.847   1.475   5.012
 9260SOL    HW228680   4.943   1.419   5.131
 9261SOL     OW28681   4.848   0.793   6.249
 9261SOL    HW128682   4.937   0.757   6.218
 9261SOL    HW228683   4.863   0.866   6.315
 9262SOL     OW28684   6.616   3.230   5.522
 9262SOL    HW128685   6.686   3.225   5.451
 9262SOL    HW228686   6.555   3.307   5.503
 9263SOL     OW28687   6.074   4.414   1.315
 9263SOL    HW128688   6.045   4.508   1.296
 9263SOL    HW228689   6.121   4.411   1.403
 9264SOL     OW28690   5.632   4.011   0.407
 9264SOL    HW128691   5.714   3.994   0.352
 9264SOL    HW228692   5.552   3.972   0.362
 9265SOL     OW28693   2.718   1.825   0.313
 9265SOL    HW128694   2.757   1.783   0.231
 9265SOL    HW228695   2.746   1.920   0.319
 9266SOL     OW28696   2.149   6.074   2.251
 9266SOL    HW128697   2.161   6.058   2.153
 9266SOL    HW228698   2.071   6.136   2.266
 9267SOL     OW28699   6.712   4.671   5.832
 9267SOL    HW128700   6.675   4.593   5.782
 9267SOL    HW228701   6.637   4.722   5.874
 9268SOL     OW28702   1.547   5.868   1.088
 9268SOL    HW128703   1.591   5.859   0.999
 9268SOL    HW228704   1.474   5.799   1.096
 9269SOL     OW28705   3.339   2.620   6.259
 9269SOL    HW128706   3.320   2.542   6.318
 9269SOL    HW228707   3.255   2.671   6.242
 9270SOL     OW28708   5.294   0.254   5.508
 9270SOL    HW128709   5.288   0.157   5.488
 9270SOL    HW228710   5.302   0.267   5.607
 9271SOL     OW28711   1.597   5.241   6.331
 9271SOL    HW128712   1.498   5.258   6.330
 9271SOL    HW228713   1.614   5.144   6.349
 9272SOL     OW28714   2.882   5.629   5.831
 9272SOL    HW128715   2.859   5.535   5.856
 9272SOL    HW228716   2.807   5.690   5.859
 9273SOL     OW28717   5.797   6.159   4.268
 9273SOL    HW128718   5.734   6.210   4.208
 9273SOL    HW228719   5.891   6.182   4.244
 9274SOL     OW28720   6.518   2.884   0.197
 9274SOL    HW128721   6.439   2.924   0.245
 9274SOL    HW228722   6.516   2.912   0.101
 9275SOL     OW28723   0.403   2.171   6.847
 9275SOL    HW128724   0.413   2.194   6.750
 9275SOL    HW228725   0.379   2.253   6.899
 9276SOL     OW28726   2.862   4.762   3.994
 9276SOL    HW128727   2.782   4.703   3.981
 9276SOL    HW228728   2.832   4.853   4.022
 9277SOL     OW28729   4.088   3.413   0.477
 9277SOL    HW128730   4.173   3.368   0.450
 9277SOL    HW228731   4.029   3.422   0.397
 9278SOL     OW28732   1.724   1.138   4.376
 9278SOL    HW128733   1.804   1.144   4.436
 9278SOL    HW228734   1.665   1.063   4.406
 9279SOL     OW28735   4.283   0.564   1.889
 9279SOL    HW128736   4.347   0.497   1.853
 9279SOL    HW228737   4.211   0.517   1.941
 9280SOL     OW28738   1.447   0.511   3.193
 9280SOL    HW128739   1.425   0.457   3.274
 9280SOL    HW228740   1.389   0.482   3.117
 9281SOL     OW28741   3.269   4.224   1.737
 9281SOL    HW128742   3.250   4.151   1.671
 9281SOL    HW228743   3.213   4.304   1.714
 9282SOL     OW28744   4.471   1.867   4.450
 9282SOL    HW128745   4.531   1.848   4.527
 9282SOL    HW228746   4.434   1.960   4.458
 9283SOL     OW28747   5.725   0.760   3.331
 9283SOL    HW128748   5.745   0.726   3.239
 9283SOL    HW228749   5.763   0.851   3.342
 9284SOL     OW28750   3.334   5.425   6.445
 9284SOL    HW128751   3.346   5.443   6.543
 9284SOL    HW228752   3.419   5.446   6.396
 9285SOL     OW28753   5.244   3.217   0.307
 9285SOL    HW128754   5.322   3.237   0.366
 9285SOL    HW228755   5.211   3.301   0.264
 9286SOL     OW28756   5.345   0.023   5.882
 9286SOL    HW128757   5.277   6.973   5.905
 9286SOL    HW228758   5.407   0.037   5.960
 9287SOL     OW28759   2.902   5.739   0.596
 9287SOL    HW128760   2.917   5.651   0.553
 9287SOL    HW228761   2.804   5.754   0.609
 9288SOL     OW28762   3.117   1.406   5.189
 9288SOL    HW128763   3.024   1.440   5.198
 9288SOL    HW228764   3.159   1.400   5.280
 9289SOL     OW28765   3.769   1.830   2.291
 9289SOL    HW128766   3.832   1.800   2.363
 9289SOL    HW228767   3.779   1.928   2.276
 9290SOL     OW28768   5.296   1.762   4.084
 9290SOL    HW128769   5.227   1.803   4.025
 9290SOL    HW228770   5.279   1.788   4.179
 9291SOL     OW28771   2.747   0.124   5.368
 9291SOL    HW128772   2.721   0.038   5.325
 9291SOL    HW228773   2.772   0.191   5.298
 9292SOL     OW28774   0.070   3.362   6.244
 9292SOL    HW128775   0.061   3.388   6.340
 9292SOL    HW228776   0.159   3.317   6.230
 9293SOL     OW28777   6.284   3.966   1.010
 9293SOL    HW128778   6.315   3.876   0.979
 9293SOL    HW228779   6.354   4.006   1.070
 9294SOL     OW28780   3.308   6.578   5.605
 9294SOL    HW128781   3.272   6.509   5.542
 9294SOL    HW228782   3.238   6.601   5.673
 9295SOL     OW28783   5.774   2.463   3.868
 9295SOL    HW128784   5.771   2.477   3.769
 9295SOL    HW228785   5.739   2.371   3.889
 9296SOL     OW28786   0.534   6.093   6.485
 9296SOL    HW128787   0.530   6.116   6.388
 9296SOL    HW228788   0.603   6.022   6.500
 9297SOL     OW28789   6.745   0.707   0.911
 9297SOL    HW128790   6.646   0.720   0.906
 9297SOL    HW228791   6.790   0.797   0.914
 9298SOL     OW28792   1.408   0.101   5.271
 9298SOL    HW128793   1.347   0.022   5.287
 9298SOL    HW228794   1.462   0.118   5.353
 9299SOL     OW28795   1.158   2.858   4.215
 9299SOL    HW128796   1.128   2.910   4.295
 9299SOL    HW228797   1.146   2.760   4.232
 9300SOL     OW28798   0.330   4.782   5.045
 9300SOL    HW128799   0.241   4.736   5.041
 9300SOL    HW228800   0.315   4.881   5.042
 9301SOL     OW28801   4.778   4.294   3.451
 9301SOL    HW128802   4.773   4.270   3.548
 9301SOL    HW228803   4.696   4.262   3.404
 9302SOL     OW28804   2.215   3.148   4.461
 9302SOL    HW128805   2.160   3.231   4.472
 9302SOL    HW228806   2.260   3.126   4.548
 9303SOL     OW28807   3.691   6.377   0.774
 9303SOL    HW128808   3.737   6.440   0.712
 9303SOL    HW228809   3.618   6.425   0.822
 9304SOL     OW28810   4.514   4.041   0.850
 9304SOL    HW128811   4.581   4.109   0.879
 9304SOL    HW228812   4.448   4.025   0.923
 9305SOL     OW28813   3.725   1.598   1.941
 9305SOL    HW128814   3.644   1.541   1.926
 9305SOL    HW228815   3.793   1.547   1.993
 9306SOL     OW28816   0.781   4.554   5.055
 9306SOL    HW128817   0.690   4.565   5.096
 9306SOL    HW228818   0.772   4.543   4.956
 9307SOL     OW28819   0.933   3.606   2.051
 9307SOL    HW128820   1.016   3.615   2.106
 9307SOL    HW228821   0.873   3.684   2.069
 9308SOL     OW28822   1.123   3.962   0.913
 9308SOL    HW128823   1.154   4.042   0.863
 9308SOL    HW228824   1.197   3.929   0.972
 9309SOL     OW28825   3.301   5.118   5.408
 9309SOL    HW128826   3.218   5.126   5.352
 9309SOL    HW228827   3.363   5.053   5.366
 9310SOL     OW28828   4.622   5.678   6.501
 9310SOL    HW128829   4.619   5.586   6.540
 9310SOL    HW228830   4.718   5.702   6.482
 9311SOL     OW28831   5.522   4.601   1.892
 9311SOL    HW128832   5.538   4.516   1.942
 9311SOL    HW228833   5.575   4.675   1.935
 9312SOL     OW28834   0.856   3.934   1.749
 9312SOL    HW128835   0.829   3.978   1.834
 9312SOL    HW228836   0.873   4.003   1.679
 9313SOL     OW28837   0.110   0.547   0.943
 9313SOL    HW128838   0.011   0.531   0.949
 9313SOL    HW228839   0.135   0.625   1.001
 9314SOL     OW28840   4.074   5.621   6.080
 9314SOL    HW128841   4.168   5.591   6.066
 9314SOL    HW228842   4.030   5.634   5.991
 9315SOL     OW28843   6.643   0.909   5.075
 9315SOL    HW128844   6.738   0.893   5.102
 9315SOL    HW228845   6.633   1.004   5.045
 9316SOL     OW28846   3.923   5.712   5.547
 9316SOL    HW128847   3.871   5.721   5.632
 9316SOL    HW228848   3.864   5.679   5.474
 9317SOL     OW28849   6.474   5.663   3.461
 9317SOL    HW128850   6.520   5.734   3.408
 9317SOL    HW228851   6.505   5.666   3.556
 9318SOL     OW28852   6.126   0.950   5.018
 9318SOL    HW128853   6.081   1.027   5.063
 9318SOL    HW228854   6.118   0.868   5.075
 9319SOL     OW28855   0.667   2.740   5.571
 9319SOL    HW128856   0.763   2.732   5.542
 9319SOL    HW228857   0.664   2.748   5.671
 9320SOL     OW28858   4.557   1.922   6.390
 9320SOL    HW128859   4.544   1.840   6.447
 9320SOL    HW228860   4.476   1.937   6.334
 9321SOL     OW28861   6.296   0.092   2.378
 9321SOL    HW128862   6.240   0.072   2.459
 9321SOL    HW228863   6.376   0.146   2.405
 9322SOL     OW28864   0.087   5.493   6.656
 9322SOL    HW128865   0.154   5.474   6.585
 9322SOL    HW228866   0.026   5.414   6.666
 9323SOL     OW28867   1.713   0.146   5.209
 9323SOL    HW128868   1.717   0.090   5.291
 9323SOL    HW228869   1.724   0.242   5.234
 9324SOL     OW28870   2.112   5.271   0.638
 9324SOL    HW128871   2.087   5.366   0.620
 9324SOL    HW228872   2.180   5.241   0.571
 9325SOL     OW28873   4.833   1.762   0.010
 9325SOL    HW128874   4.798   1.699   0.079
 9325SOL    HW228875   4.805   1.855   0.033
 9326SOL     OW28876   2.373   0.238   0.685
 9326SOL    HW128877   2.348   0.277   0.596
 9326SOL    HW228878   2.390   0.140   0.674
 9327SOL     OW28879   4.977   6.598   2.588
 9327SOL    HW128880   5.068   6.623   2.554
 9327SOL    HW228881   4.907   6.649   2.537
 9328SOL     OW28882   3.457   0.853   6.285
 9328SOL    HW128883   3.441   0.870   6.188
 9328SOL    HW228884   3.390   0.904   6.339
 9329SOL     OW28885   0.070   3.931   2.266
 9329SOL    HW128886   0.082   3.869   2.188
 9329SOL    HW228887   0.084   4.025   2.236
 9330SOL     OW28888   0.546   6.397   0.031
 9330SOL    HW128889   0.469   6.456   0.008
 9330SOL    HW228890   0.611   6.395   6.974
 9331SOL     OW28891   1.451   1.537   5.946
 9331SOL    HW128892   1.401   1.589   6.016
 9331SOL    HW228893   1.403   1.451   5.928
 9332SOL     OW28894   3.535   4.011   2.880
 9332SOL    HW128895   3.438   4.035   2.877
 9332SOL    HW228896   3.573   4.036   2.969
 9333SOL     OW28897   4.472   3.828   1.240
 9333SOL    HW128898   4.375   3.830   1.217
 9333SOL    HW228899   4.495   3.907   1.297
 9334SOL     OW28900   4.535   6.553   3.984
 9334SOL    HW128901   4.445   6.538   4.025
 9334SOL    HW228902   4.539   6.645   3.945
 9335SOL     OW28903   0.859   1.529   5.791
 9335SOL    HW128904   0.834   1.505   5.697
 9335SOL    HW228905   0.781   1.512   5.851
 9336SOL     OW28906   3.505   5.338   6.101
 9336SOL    HW128907   3.486   5.304   6.009
 9336SOL    HW228908   3.457   5.424   6.115
 9337SOL     OW28909   4.866   1.049   3.846
 9337SOL    HW128910   4.807   1.057   3.926
 9337SOL    HW228911   4.943   0.988   3.867
 9338SOL     OW28912   4.115   0.851   1.898
 9338SOL    HW128913   4.114   0.813   1.991
 9338SOL    HW228914   4.153   0.784   1.835
 9339SOL     OW28915   5.078   6.840   0.813
 9339SOL    HW128916   4.980   6.844   0.831
 9339SOL    HW228917   5.123   6.787   0.885
 9340SOL     OW28918   5.290   3.763   5.007
 9340SOL    HW128919   5.289   3.765   4.907
 9340SOL    HW228920   5.196   3.754   5.041
 9341SOL     OW28921   0.351   5.967   6.664
 9341SOL    HW128922   0.276   6.024   6.699
 9341SOL    HW228923   0.407   6.021   6.600
 9342SOL     OW28924   2.384   0.773   3.709
 9342SOL    HW128925   2.467   0.810   3.670
 9342SOL    HW228926   2.344   0.706   3.645
 9343SOL     OW28927   6.153   4.286   2.798
 9343SOL    HW128928   6.217   4.348   2.842
 9343SOL    HW228929   6.084   4.339   2.749
 9344SOL     OW28930   4.426   6.071   1.754
 9344SOL    HW128931   4.499   6.064   1.823
 9344SOL    HW228932   4.349   6.014   1.781
 9345SOL     OW28933   6.671   3.865   2.028
 9345SOL    HW128934   6.677   3.797   1.954
 9345SOL    HW228935   6.645   3.819   2.113
 9346SOL     OW28936   6.248   0.786   0.815
 9346SOL    HW128937   6.205   0.696   0.810
 9346SOL    HW228938   6.190   0.848   0.867
 9347SOL     OW28939   0.783   5.316   0.863
 9347SOL    HW128940   0.722   5.266   0.924
 9347SOL    HW228941   0.749   5.308   0.769
 9348SOL     OW28942   3.787   5.447   1.669
 9348SOL    HW128943   3.795   5.535   1.622
 9348SOL    HW228944   3.875   5.423   1.711
 9349SOL     OW28945   0.900   6.638   2.286
 9349SOL    HW128946   0.826   6.578   2.313
 9349SOL    HW228947   0.936   6.610   2.197
 9350SOL     OW28948   0.693   3.511   5.520
 9350SOL    HW128949   0.772   3.457   5.490
 9350SOL    HW228950   0.677   3.495   5.617
 9351SOL     OW28951   3.526   1.426   6.178
 9351SOL    HW128952   3.435   1.405   6.142
 9351SOL    HW228953   3.571   1.492   6.117
 9352SOL     OW28954   2.780   2.991   0.094
 9352SOL    HW128955   2.840   2.915   0.073
 9352SOL    HW228956   2.767   2.998   0.192
 9353SOL     OW28957   0.675   5.261   1.371
 9353SOL    HW128958   0.680   5.352   1.330
 9353SOL    HW228959   0.622   5.264   1.455
 9354SOL     OW28960   6.618   2.047   6.798
 9354SOL    HW128961   6.595   2.127   6.743
 9354SOL    HW228962   6.537   2.017   6.848
 9355SOL     OW28963   0.855   2.542   4.869
 9355SOL    HW128964   0.799   2.489   4.932
 9355SOL    HW228965   0.866   2.635   4.904
 9356SOL     OW28966   3.633   0.025   0.886
 9356SOL    HW128967   3.541   0.017   0.925
 9356SOL    HW228968   3.676   6.954   0.882
 9357SOL     OW28969   1.432   3.247   6.226
 9357SOL    HW128970   1.431   3.236   6.126
 9357SOL    HW228971   1.456   3.159   6.268
 9358SOL     OW28972   0.366   4.056   2.368
 9358SOL    HW128973   0.314   3.972   2.352
 9358SOL    HW228974   0.446   4.036   2.424
 9359SOL     OW28975   1.875   4.717   6.518
 9359SOL    HW128976   1.902   4.795   6.573
 9359SOL    HW228977   1.910   4.727   6.425
 9360SOL     OW28978   1.616   6.289   6.390
 9360SOL    HW128979   1.624   6.294   6.290
 9360SOL    HW228980   1.619   6.193   6.418
 9361SOL     OW28981   2.226   5.690   3.304
 9361SOL    HW128982   2.242   5.744   3.387
 9361SOL    HW228983   2.259   5.596   3.318
 9362SOL     OW28984   1.403   1.683   2.249
 9362SOL    HW128985   1.335   1.621   2.290
 9362SOL    HW228986   1.358   1.767   2.220
 9363SOL     OW28987   3.353   5.390   1.590
 9363SOL    HW128988   3.300   5.442   1.657
 9363SOL    HW228989   3.332   5.423   1.498
 9364SOL     OW28990   2.313   1.726   1.509
 9364SOL    HW128991   2.345   1.813   1.545
 9364SOL    HW228992   2.369   1.652   1.546
 9365SOL     OW28993   2.969   2.056   3.837
 9365SOL    HW128994   2.899   2.055   3.908
 9365SOL    HW228995   3.053   2.015   3.873
 9366SOL     OW28996   3.309   6.129   0.016
 9366SOL    HW128997   3.292   6.037   0.052
 9366SOL    HW228998   3.222   6.171   7.010
 9367SOL     OW28999   5.821   0.097   1.406
 9367SOL    HW129000   5.842   0.147   1.322
 9367SOL    HW229001   5.724   0.107   1.427
 9368SOL     OW29002   3.735   6.896   2.326
 9368SOL    HW129003   3.672   6.973   2.335
 9368SOL    HW229004   3.805   6.917   2.258
 9369SOL     OW29005   0.633   6.143   4.859
 9369SOL    HW129006   0.561   6.212   4.868
 9369SOL    HW229007   0.674   6.127   4.949
 9370SOL     OW29008   5.009   0.800   3.629
 9370SOL    HW129009   4.910   0.803   3.633
 9370SOL    HW229010   5.048   0.869   3.690
 9371SOL     OW29011   3.108   5.669   1.165
 9371SOL    HW129012   3.184   5.718   1.122
 9371SOL    HW229013   3.079   5.595   1.104
 9372SOL     OW29014   4.161   6.992   1.726
 9372SOL    HW129015   4.181   6.963   1.820
 9372SOL    HW229016   4.210   6.934   1.662
 9373SOL     OW29017   6.314   2.665   0.506
 9373SOL    HW129018   6.341   2.628   0.418
 9373SOL    HW229019   6.311   2.592   0.574
 9374SOL     OW29020   0.194   3.903   5.778
 9374SOL    HW129021   0.208   3.996   5.809
 9374SOL    HW229022   0.277   3.870   5.732
 9375SOL     OW29023   0.071   1.853   0.526
 9375SOL    HW129024   0.060   1.897   0.615
 9375SOL    HW229025   0.029   1.910   0.455
 9376SOL     OW29026   2.142   3.337   2.252
 9376SOL    HW129027   2.193   3.251   2.259
 9376SOL    HW229028   2.164   3.382   2.165
 9377SOL     OW29029   2.820   5.412   3.075
 9377SOL    HW129030   2.722   5.413   3.094
 9377SOL    HW229031   2.863   5.337   3.127
 9378SOL     OW29032   3.538   1.201   3.778
 9378SOL    HW129033   3.500   1.242   3.695
 9378SOL    HW229034   3.625   1.245   3.800
 9379SOL     OW29035   4.662   0.042   4.775
 9379SOL    HW129036   4.727   0.053   4.699
 9379SOL    HW229037   4.699   0.084   4.857
 9380SOL     OW29038   3.346   5.677   5.732
 9380SOL    HW129039   3.261   5.676   5.784
 9380SOL    HW229040   3.401   5.756   5.759
 9381SOL     OW29041   5.240   2.167   4.038
 9381SOL    HW129042   5.204   2.085   3.993
 9381SOL    HW229043   5.168   2.235   4.048
 9382SOL     OW29044   3.735   0.587   4.008
 9382SOL    HW129045   3.664   0.625   3.948
 9382SOL    HW229046   3.711   0.493   4.031
 9383SOL     OW29047   4.732   4.224   4.072
 9383SOL    HW129048   4.786   4.153   4.026
 9383SOL    HW229049   4.655   4.251   4.014
 9384SOL     OW29050   1.939   7.019   1.666
 9384SOL    HW129051   1.984   6.939   1.628
 9384SOL    HW229052   1.883   6.991   1.745
 9385SOL     OW29053   3.752   1.724   4.184
 9385SOL    HW129054   3.754   1.698   4.280
 9385SOL    HW229055   3.696   1.658   4.132
 9386SOL     OW29056   3.373   6.091   5.526
 9386SOL    HW129057   3.416   6.001   5.519
 9386SOL    HW229058   3.280   6.086   5.489
 9387SOL     OW29059   3.685   1.920   0.052
 9387SOL    HW129060   3.614   1.967   0.105
 9387SOL    HW229061   3.772   1.927   0.100
 9388SOL     OW29062   1.601   6.553   3.969
 9388SOL    HW129063   1.618   6.618   4.043
 9388SOL    HW229064   1.664   6.476   3.976
 9389SOL     OW29065   3.087   5.149   2.599
 9389SOL    HW129066   3.015   5.211   2.568
 9389SOL    HW229067   3.111   5.171   2.694
 9390SOL     OW29068   5.392   4.753   5.572
 9390SOL    HW129069   5.459   4.680   5.577
 9390SOL    HW229070   5.380   4.794   5.663
 9391SOL     OW29071   0.350   6.913   5.163
 9391SOL    HW129072   0.256   6.933   5.134
 9391SOL    HW229073   0.354   6.911   5.263
 9392SOL     OW29074   4.907   4.686   3.573
 9392SOL    HW129075   4.886   4.594   3.540
 9392SOL    HW229076   4.822   4.738   3.583
 9393SOL     OW29077   3.409   6.212   6.270
 9393SOL    HW129078   3.501   6.243   6.296
 9393SOL    HW229079   3.413   6.116   6.244
 9394SOL     OW29080   5.377   0.796   1.433
 9394SOL    HW129081   5.424   0.868   1.382
 9394SOL    HW229082   5.432   0.771   1.514
 9395SOL     OW29083   2.474   1.422   0.849
 9395SOL    HW129084   2.528   1.343   0.821
 9395SOL    HW229085   2.394   1.391   0.900
 9396SOL     OW29086   2.008   6.413   5.956
 9396SOL    HW129087   1.965   6.480   6.015
 9396SOL    HW229088   2.038   6.335   6.010
 9397SOL     OW29089   3.569   6.866   6.351
 9397SOL    HW129090   3.549   6.873   6.448
 9397SOL    HW229091   3.575   6.770   6.325
 9398SOL     OW29092   6.124   1.277   6.391
 9398SOL    HW129093   6.038   1.229   6.372
 9398SOL    HW229094   6.118   1.322   6.481
 9399SOL     OW29095   1.853   2.670   3.969
 9399SOL    HW129096   1.772   2.614   3.952
 9399SOL    HW229097   1.896   2.641   4.055
 9400SOL     OW29098   5.122   1.375   0.153
 9400SOL    HW129099   5.029   1.344   0.134
 9400SOL    HW229100   5.184   1.338   0.084
 9401SOL     OW29101   0.570   2.937   2.558
 9401SOL    HW129102   0.477   2.964   2.535
 9401SOL    HW229103   0.597   2.858   2.503
 9402SOL     OW29104   1.960   5.653   3.600
 9402SOL    HW129105   1.905   5.704   3.666
 9402SOL    HW229106   2.039   5.614   3.647
 9403SOL     OW29107   6.973   1.104   2.127
 9403SOL    HW129108   0.042   1.057   2.133
 9403SOL    HW229109   6.962   1.165   2.205
 9404SOL     OW29110   0.971   2.975   1.429
 9404SOL    HW129111   1.002   2.953   1.337
 9404SOL    HW229112   0.895   2.914   1.454
 9405SOL     OW29113   0.444   4.677   4.819
 9405SOL    HW129114   0.439   4.577   4.818
 9405SOL    HW229115   0.425   4.710   4.912
 9406SOL     OW29116   0.618   3.031   6.381
 9406SOL    HW129117   0.534   3.035   6.436
 9406SOL    HW229118   0.598   2.987   6.294
 9407SOL     OW29119   3.032   5.145   4.609
 9407SOL    HW129120   3.032   5.083   4.688
 9407SOL    HW229121   3.115   5.202   4.612
 9408SOL     OW29122   6.489   3.903   5.706
 9408SOL    HW129123   6.435   3.822   5.728
 9408SOL    HW229124   6.431   3.984   5.713
 9409SOL     OW29125   6.531   5.741   2.243
 9409SOL    HW129126   6.556   5.817   2.303
 9409SOL    HW229127   6.603   5.727   2.175
 9410SOL     OW29128   4.469   0.772   1.902
 9410SOL    HW129129   4.461   0.837   1.977
 9410SOL    HW229130   4.384   0.721   1.893
 9411SOL     OW29131   3.413   2.874   3.808
 9411SOL    HW129132   3.507   2.859   3.839
 9411SOL    HW229133   3.395   2.818   3.727
 9412SOL     OW29134   0.049   0.852   0.777
 9412SOL    HW129135   6.990   0.901   0.816
 9412SOL    HW229136   0.111   0.825   0.851
 9413SOL     OW29137   4.443   4.944   4.409
 9413SOL    HW129138   4.393   4.883   4.347
 9413SOL    HW229139   4.458   4.899   4.497
 9414SOL     OW29140   2.230   2.445   4.741
 9414SOL    HW129141   2.232   2.518   4.810
 9414SOL    HW229142   2.315   2.392   4.746
 9415SOL     OW29143   3.418   0.460   2.549
 9415SOL    HW129144   3.384   0.486   2.458
 9415SOL    HW229145   3.342   0.461   2.614
 9416SOL     OW29146   0.568   6.670   6.165
 9416SOL    HW129147   0.519   6.612   6.101
 9416SOL    HW229148   0.599   6.616   6.243
 9417SOL     OW29149   3.372   6.792   1.367
 9417SOL    HW129150   3.324   6.865   1.317
 9417SOL    HW229151   3.307   6.742   1.424
 9418SOL     OW29152   3.196   1.921   3.897
 9418SOL    HW129153   3.260   1.905   3.822
 9418SOL    HW229154   3.244   1.961   3.975
 9419SOL     OW29155   2.795   2.423   6.572
 9419SOL    HW129156   2.873   2.455   6.519
 9419SOL    HW229157   2.827   2.365   6.646
 9420SOL     OW29158   5.654   3.634   0.672
 9420SOL    HW129159   5.754   3.637   0.675
 9420SOL    HW229160   5.617   3.724   0.694
 9421SOL     OW29161   3.901   6.346   5.132
 9421SOL    HW129162   3.874   6.300   5.217
 9421SOL    HW229163   3.824   6.345   5.069
 9422SOL     OW29164   2.614   5.989   4.518
 9422SOL    HW129165   2.682   6.060   4.499
 9422SOL    HW229166   2.620   5.963   4.615
 9423SOL     OW29167   4.396   6.088   3.147
 9423SOL    HW129168   4.387   6.015   3.215
 9423SOL    HW229169   4.349   6.060   3.063
 9424SOL     OW29170   5.376   1.596   4.424
 9424SOL    HW129171   5.357   1.686   4.385
 9424SOL    HW229172   5.315   1.580   4.502
 9425SOL     OW29173   6.068   4.288   1.608
 9425SOL    HW129174   6.048   4.366   1.668
 9425SOL    HW229175   5.984   4.260   1.561
 9426SOL     OW29176   0.498   2.213   6.169
 9426SOL    HW129177   0.582   2.267   6.159
 9426SOL    HW229178   0.487   2.188   6.265
 9427SOL     OW29179   3.462   5.515   3.042
 9427SOL    HW129180   3.523   5.462   2.985
 9427SOL    HW229181   3.450   5.607   3.003
 9428SOL     OW29182   6.316   6.518   6.876
 9428SOL    HW129183   6.382   6.566   6.818
 9428SOL    HW229184   6.351   6.428   6.900
 9429SOL     OW29185   1.771   2.408   3.821
 9429SOL    HW129186   1.870   2.392   3.825
 9429SOL    HW229187   1.723   2.326   3.849
 9430SOL     OW29188   0.511   1.960   4.348
 9430SOL    HW129189   0.497   1.889   4.279
 9430SOL    HW229190   0.440   1.954   4.417
 9431SOL     OW29191   7.014   4.403   0.669
 9431SOL    HW129192   6.959   4.360   0.597
 9431SOL    HW229193   0.077   4.349   0.685
 9432SOL     OW29194   6.923   1.318   3.590
 9432SOL    HW129195   6.994   1.285   3.527
 9432SOL    HW229196   6.835   1.317   3.544
 9433SOL     OW29197   4.348   6.345   2.808
 9433SOL    HW129198   4.354   6.386   2.717
 9433SOL    HW229199   4.252   6.339   2.835
 9434SOL     OW29200   5.356   5.744   3.947
 9434SOL    HW129201   5.404   5.774   3.864
 9434SOL    HW229202   5.353   5.644   3.949
 9435SOL     OW29203   0.915   2.706   2.653
 9435SOL    HW129204   0.882   2.800   2.661
 9435SOL    HW229205   1.011   2.707   2.622
 9436SOL     OW29206   0.603   1.020   2.543
 9436SOL    HW129207   0.521   1.076   2.533
 9436SOL    HW229208   0.683   1.080   2.550
 9437SOL     OW29209   0.284   5.410   4.014
 9437SOL    HW129210   0.246   5.458   4.092
 9437SOL    HW229211   0.361   5.354   4.044
 9438SOL     OW29212   2.279   6.260   1.687
 9438SOL    HW129213   2.356   6.312   1.649
 9438SOL    HW229214   2.220   6.230   1.612
 9439SOL     OW29215   1.283   2.978   0.394
 9439SOL    HW129216   1.198   2.938   0.360
 9439SOL    HW229217   1.280   3.077   0.382
 9440SOL     OW29218   3.300   4.991   3.439
 9440SOL    HW129219   3.398   4.979   3.459
 9440SOL    HW229220   3.247   4.977   3.523
 9441SOL     OW29221   6.469   5.610   4.484
 9441SOL    HW129222   6.398   5.547   4.452
 9441SOL    HW229223   6.554   5.559   4.498
 9442SOL     OW29224   4.900   3.487   0.893
 9442SOL    HW129225   4.816   3.444   0.927
 9442SOL    HW229226   4.977   3.456   0.948
 9443SOL     OW29227   3.106   5.012   1.884
 9443SOL    HW129228   3.168   4.956   1.829
 9443SOL    HW229229   3.040   4.953   1.931
 9444SOL     OW29230   2.146   3.839   0.348
 9444SOL    HW129231   2.084   3.902   0.302
 9444SOL    HW229232   2.220   3.890   0.391
 9445SOL     OW29233   0.703   1.627   3.639
 9445SOL    HW129234   0.728   1.633   3.543
 9445SOL    HW229235   0.647   1.707   3.664
 9446SOL     OW29236   6.516   4.915   3.375
 9446SOL    HW129237   6.549   4.848   3.442
 9446SOL    HW229238   6.590   4.939   3.313
 9447SOL     OW29239   5.544   5.444   2.481
 9447SOL    HW129240   5.551   5.484   2.389
 9447SOL    HW229241   5.502   5.354   2.475
 9448SOL     OW29242   5.616   0.379   5.868
 9448SOL    HW129243   5.680   0.314   5.908
 9448SOL    HW229244   5.587   0.444   5.938
 9449SOL     OW29245   5.313   6.996   0.835
 9449SOL    HW129246   5.305   0.050   0.768
 9449SOL    HW229247   5.229   6.941   0.834
 9450SOL     OW29248   1.550   5.628   4.454
 9450SOL    HW129249   1.471   5.689   4.463
 9450SOL    HW229250   1.592   5.614   4.543
 9451SOL     OW29251   3.773   5.583   6.145
 9451SOL    HW129252   3.709   5.629   6.084
 9451SOL    HW229253   3.848   5.545   6.091
 9452SOL     OW29254   0.485   4.319   0.923
 9452SOL    HW129255   0.513   4.263   0.845
 9452SOL    HW229256   0.442   4.403   0.890
 9453SOL     OW29257   3.588   5.048   3.095
 9453SOL    HW129258   3.624   4.986   3.165
 9453SOL    HW229259   3.494   5.073   3.118
 9454SOL     OW29260   4.410   4.364   0.809
 9454SOL    HW129261   4.503   4.351   0.844
 9454SOL    HW229262   4.392   4.462   0.798
 9455SOL     OW29263   3.005   2.206   2.256
 9455SOL    HW129264   2.928   2.202   2.320
 9455SOL    HW229265   2.976   2.249   2.171
 9456SOL     OW29266   6.324   3.364   2.303
 9456SOL    HW129267   6.261   3.293   2.272
 9456SOL    HW229268   6.350   3.345   2.398
 9457SOL     OW29269   1.467   4.718   4.090
 9457SOL    HW129270   1.562   4.739   4.068
 9457SOL    HW229271   1.416   4.803   4.103
 9458SOL     OW29272   6.745   4.545   0.354
 9458SOL    HW129273   6.836   4.579   0.331
 9458SOL    HW229274   6.680   4.575   0.284
 9459SOL     OW29275   5.030   4.849   4.623
 9459SOL    HW129276   5.108   4.862   4.562
 9459SOL    HW229277   5.051   4.889   4.712
 9460SOL     OW29278   1.289   3.124   3.535
 9460SOL    HW129279   1.193   3.096   3.532
 9460SOL    HW229280   1.326   3.125   3.442
 9461SOL     OW29281   1.240   2.343   1.093
 9461SOL    HW129282   1.332   2.349   1.054
 9461SOL    HW229283   1.179   2.404   1.043
 9462SOL     OW29284   1.934   1.683   4.185
 9462SOL    HW129285   1.892   1.750   4.124
 9462SOL    HW229286   1.965   1.729   4.268
 9463SOL     OW29287   5.121   6.728   1.486
 9463SOL    HW129288   5.197   6.680   1.530
 9463SOL    HW229289   5.155   6.775   1.405
 9464SOL     OW29290   0.125   0.703   1.559
 9464SOL    HW129291   0.060   0.683   1.485
 9464SOL    HW229292   0.075   0.717   1.644
 9465SOL     OW29293   0.098   4.083   1.351
 9465SOL    HW129294   0.173   4.030   1.392
 9465SOL    HW229295   0.121   4.105   1.256
 9466SOL     OW29296   3.972   5.385   6.306
 9466SOL    HW129297   3.984   5.480   6.277
 9466SOL    HW229298   3.903   5.342   6.248
 9467SOL     OW29299   2.131   3.162   1.237
 9467SOL    HW129300   2.203   3.202   1.179
 9467SOL    HW229301   2.170   3.135   1.325
 9468SOL     OW29302   6.756   3.667   0.152
 9468SOL    HW129303   6.782   3.760   0.180
 9468SOL    HW229304   6.775   3.604   0.228
 9469SOL     OW29305   0.139   6.139   0.896
 9469SOL    HW129306   0.184   6.064   0.945
 9469SOL    HW229307   0.185   6.225   0.919
 9470SOL     OW29308   5.097   3.797   0.106
 9470SOL    HW129309   5.028   3.798   0.179
 9470SOL    HW229310   5.055   3.766   0.021
 9471SOL     OW29311   6.246   1.991   5.207
 9471SOL    HW129312   6.173   2.026   5.148
 9471SOL    HW229313   6.238   2.033   5.297
 9472SOL     OW29314   1.450   4.337   5.814
 9472SOL    HW129315   1.397   4.414   5.850
 9472SOL    HW229316   1.420   4.252   5.858
 9473SOL     OW29317   2.708   4.269   0.446
 9473SOL    HW129318   2.683   4.364   0.463
 9473SOL    HW229319   2.807   4.258   0.460
 9474SOL     OW29320   6.166   3.361   1.709
 9474SOL    HW129321   6.143   3.421   1.786
 9474SOL    HW229322   6.136   3.404   1.624
 9475SOL     OW29323   4.952   3.520   5.558
 9475SOL    HW129324   4.938   3.602   5.613
 9475SOL    HW229325   5.004   3.453   5.611
 9476SOL     OW29326   3.666   4.435   5.724
 9476SOL    HW129327   3.607   4.480   5.657
 9476SOL    HW229328   3.610   4.394   5.796
 9477SOL     OW29329   1.714   3.682   1.921
 9477SOL    HW129330   1.657   3.704   2.001
 9477SOL    HW229331   1.790   3.747   1.915
 9478SOL     OW29332   5.202   2.769   0.366
 9478SOL    HW129333   5.146   2.822   0.429
 9478SOL    HW229334   5.159   2.680   0.350
 9479SOL     OW29335   4.797   1.042   1.547
 9479SOL    HW129336   4.729   1.111   1.573
 9479SOL    HW229337   4.846   1.011   1.629
 9480SOL     OW29338   6.081   5.721   6.658
 9480SOL    HW129339   6.051   5.787   6.726
 9480SOL    HW229340   6.117   5.769   6.578
 9481SOL     OW29341   4.708   1.889   3.468
 9481SOL    HW129342   4.609   1.889   3.480
 9481SOL    HW229343   4.746   1.801   3.496
 9482SOL     OW29344   5.799   1.350   0.688
 9482SOL    HW129345   5.827   1.372   0.781
 9482SOL    HW229346   5.839   1.263   0.660
 9483SOL     OW29347   0.644   0.605   0.032
 9483SOL    HW129348   0.576   0.621   0.103
 9483SOL    HW229349   0.734   0.592   0.074
 9484SOL     OW29350   2.662   6.572   4.753
 9484SOL    HW129351   2.717   6.599   4.674
 9484SOL    HW229352   2.607   6.649   4.784
 9485SOL     OW29353   6.727   1.262   0.441
 9485SOL    HW129354   6.755   1.219   0.527
 9485SOL    HW229355   6.698   1.191   0.376
 9486SOL     OW29356   4.610   5.620   0.153
 9486SOL    HW129357   4.524   5.658   0.118
 9486SOL    HW229358   4.677   5.618   0.079
 9487SOL     OW29359   2.962   3.846   4.300
 9487SOL    HW129360   2.868   3.850   4.334
 9487SOL    HW229361   2.960   3.836   4.201
 9488SOL     OW29362   1.383   1.453   1.106
 9488SOL    HW129363   1.345   1.376   1.054
 9488SOL    HW229364   1.330   1.535   1.088
 9489SOL     OW29365   4.964   4.351   0.960
 9489SOL    HW129366   5.000   4.443   0.945
 9489SOL    HW229367   4.912   4.349   1.046
 9490SOL     OW29368   6.191   4.956   3.669
 9490SOL    HW129369   6.100   4.971   3.631
 9490SOL    HW229370   6.230   5.042   3.700
 9491SOL     OW29371   5.055   6.475   3.559
 9491SOL    HW129372   5.095   6.564   3.536
 9491SOL    HW229373   5.050   6.464   3.658
 9492SOL     OW29374   4.762   2.903   4.766
 9492SOL    HW129375   4.823   2.873   4.693
 9492SOL    HW229376   4.791   2.993   4.799
 9493SOL     OW29377   4.213   6.178   4.180
 9493SOL    HW129378   4.141   6.242   4.208
 9493SOL    HW229379   4.276   6.164   4.256
 9494SOL     OW29380   4.987   2.692   2.284
 9494SOL    HW129381   4.973   2.775   2.230
 9494SOL    HW229382   4.955   2.612   2.232
 9495SOL     OW29383   0.320   0.698   1.881
 9495SOL    HW129384   0.264   0.617   1.866
 9495SOL    HW229385   0.268   0.780   1.855
 9496SOL     OW29386   4.213   1.799   2.492
 9496SOL    HW129387   4.310   1.798   2.516
 9496SOL    HW229388   4.171   1.884   2.524
 9497SOL     OW29389   5.947   5.530   4.883
 9497SOL    HW129390   5.864   5.485   4.916
 9497SOL    HW229391   5.961   5.616   4.932
 9498SOL     OW29392   6.496   5.067   4.696
 9498SOL    HW129393   6.427   5.137   4.713
 9498SOL    HW229394   6.563   5.103   4.631
 9499SOL     OW29395   6.376   5.226   5.105
 9499SOL    HW129396   6.459   5.253   5.154
 9499SOL    HW229397   6.319   5.306   5.088
 9500SOL     OW29398   4.282   0.150   0.929
 9500SOL    HW129399   4.250   0.141   1.024
 9500SOL    HW229400   4.375   0.186   0.929
 9501SOL     OW29401   1.750   1.483   4.423
 9501SOL    HW129402   1.777   1.525   4.336
 9501SOL    HW229403   1.829   1.440   4.465
 9502SOL     OW29404   5.274   4.961   5.108
 9502SOL    HW129405   5.191   4.979   5.056
 9502SOL    HW229406   5.332   5.043   5.108
 9503SOL     OW29407   0.668   2.135   0.109
 9503SOL    HW129408   0.673   2.227   0.070
 9503SOL    HW229409   0.624   2.073   0.043
 9504SOL     OW29410   0.116   4.329   1.570
 9504SOL    HW129411   0.088   4.342   1.475
 9504SOL    HW229412   0.035   4.329   1.629
 9505SOL     OW29413   4.120   4.906   5.613
 9505SOL    HW129414   4.167   4.843   5.550
 9505SOL    HW229415   4.101   4.859   5.699
 9506SOL     OW29416   2.476   2.383   1.115
 9506SOL    HW129417   2.526   2.338   1.189
 9506SOL    HW229418   2.392   2.333   1.097
 9507SOL     OW29419   6.001   0.316   1.500
 9507SOL    HW129420   5.967   0.403   1.465
 9507SOL    HW229421   5.965   0.242   1.445
 9508SOL     OW29422   4.714   1.690   2.354
 9508SOL    HW129423   4.737   1.594   2.338
 9508SOL    HW229424   4.748   1.745   2.277
 9509SOL     OW29425   6.496   0.386   2.876
 9509SOL    HW129426   6.542   0.402   2.788
 9509SOL    HW229427   6.459   0.472   2.909
 9510SOL     OW29428   0.413   3.200   3.511
 9510SOL    HW129429   0.485   3.172   3.575
 9510SOL    HW229430   0.326   3.206   3.560
 9511SOL     OW29431   1.351   0.915   1.135
 9511SOL    HW129432   1.406   0.989   1.096
 9511SOL    HW229433   1.265   0.908   1.084
 9512SOL     OW29434   6.432   3.183   1.034
 9512SOL    HW129435   6.370   3.110   1.005
 9512SOL    HW229436   6.511   3.186   0.972
 9513SOL     OW29437   4.080   4.897   6.393
 9513SOL    HW129438   4.161   4.868   6.343
 9513SOL    HW229439   4.075   4.848   6.480
 9514SOL     OW29440   3.327   2.987   6.936
 9514SOL    HW129441   3.403   2.997   6.872
 9514SOL    HW229442   3.241   2.992   6.886
 9515SOL     OW29443   2.819   5.163   3.843
 9515SOL    HW129444   2.887   5.107   3.796
 9515SOL    HW229445   2.754   5.104   3.890
 9516SOL     OW29446   6.110   4.419   0.322
 9516SOL    HW129447   6.134   4.423   0.225
 9516SOL    HW229448   6.193   4.433   0.377
 9517SOL     OW29449   0.734   4.283   1.437
 9517SOL    HW129450   0.737   4.303   1.339
 9517SOL    HW229451   0.639   4.276   1.467
 9518SOL     OW29452   2.224   1.332   0.700
 9518SOL    HW129453   2.293   1.400   0.675
 9518SOL    HW229454   2.260   1.274   0.773
 9519SOL     OW29455   1.433   2.086   5.324
 9519SOL    HW129456   1.373   2.068   5.402
 9519SOL    HW229457   1.519   2.038   5.336
 9520SOL     OW29458   2.473   6.956   2.933
 9520SOL    HW129459   2.466   7.006   3.019
 9520SOL    HW229460   2.382   6.928   2.904
 9521SOL     OW29461   6.005   6.048   3.842
 9521SOL    HW129462   5.915   6.084   3.817
 9521SOL    HW229463   5.995   5.967   3.899
 9522SOL     OW29464   3.390   6.089   1.088
 9522SOL    HW129465   3.444   6.051   1.013
 9522SOL    HW229466   3.385   6.021   1.162
 9523SOL     OW29467   3.770   5.157   4.108
 9523SOL    HW129468   3.821   5.081   4.148
 9523SOL    HW229469   3.693   5.181   4.167
 9524SOL     OW29470   3.652   2.996   1.213
 9524SOL    HW129471   3.694   2.907   1.232
 9524SOL    HW229472   3.652   3.051   1.297
 9525SOL     OW29473   2.113   1.383   6.358
 9525SOL    HW129474   2.205   1.418   6.346
 9525SOL    HW229475   2.117   1.285   6.380
 9526SOL     OW29476   5.037   6.413   3.004
 9526SOL    HW129477   4.949   6.439   3.044
 9526SOL    HW229478   5.110   6.427   3.071
 9527SOL     OW29479   0.808   0.877   2.355
 9527SOL    HW129480   0.715   0.845   2.376
 9527SOL    HW229481   0.865   0.868   2.436
 9528SOL     OW29482   6.159   6.922   1.146
 9528SOL    HW129483   6.245   6.973   1.154
 9528SOL    HW229484   6.175   6.826   1.169
 9529SOL     OW29485   1.068   3.073   6.499
 9529SOL    HW129486   1.133   2.999   6.513
 9529SOL    HW229487   1.115   3.161   6.512
 9530SOL     OW29488   1.732   2.762   2.619
 9530SOL    HW129489   1.726   2.706   2.537
 9530SOL    HW229490   1.671   2.725   2.689
 9531SOL     OW29491   3.846   6.572   3.257
 9531SOL    HW129492   3.818   6.526   3.173
 9531SOL    HW229493   3.903   6.651   3.235
 9532SOL     OW29494   1.927   6.442   1.005
 9532SOL    HW129495   1.969   6.530   0.980
 9532SOL    HW229496   1.828   6.452   1.010
 9533SOL     OW29497   1.191   1.114   5.323
 9533SOL    HW129498   1.113   1.125   5.261
 9533SOL    HW229499   1.249   1.039   5.292
 9534SOL     OW29500   5.232   1.833   4.628
 9534SOL    HW129501   5.224   1.776   4.710
 9534SOL    HW229502   5.245   1.928   4.655
 9535SOL     OW29503   2.623   1.162   6.079
 9535SOL    HW129504   2.709   1.112   6.087
 9535SOL    HW229505   2.641   1.254   6.045
 9536SOL     OW29506   1.640   5.641   5.584
 9536SOL    HW129507   1.704   5.565   5.595
 9536SOL    HW229508   1.685   5.727   5.610
 9537SOL     OW29509   3.213   0.224   2.085
 9537SOL    HW129510   3.131   0.168   2.078
 9537SOL    HW229511   3.241   0.252   1.993
 9538SOL     OW29512   6.504   2.137   4.208
 9538SOL    HW129513   6.523   2.155   4.112
 9538SOL    HW229514   6.432   2.198   4.241
 9539SOL     OW29515   1.423   5.595   0.069
 9539SOL    HW129516   1.495   5.615   0.003
 9539SOL    HW229517   1.404   5.677   0.124
 9540SOL     OW29518   4.446   4.974   5.050
 9540SOL    HW129519   4.371   4.926   5.004
 9540SOL    HW229520   4.412   5.060   5.088
 9541SOL     OW29521   1.973   2.982   4.268
 9541SOL    HW129522   1.952   3.057   4.329
 9541SOL    HW229523   1.925   2.900   4.297
 9542SOL     OW29524   4.857   3.143   4.910
 9542SOL    HW129525   4.809   3.107   4.990
 9542SOL    HW229526   4.829   3.238   4.894
 9543SOL     OW29527   4.400   0.992   3.784
 9543SOL    HW129528   4.462   1.053   3.835
 9543SOL    HW229529   4.378   0.913   3.840
 9544SOL     OW29530   5.525   0.869   1.807
 9544SOL    HW129531   5.572   0.883   1.895
 9544SOL    HW229532   5.438   0.918   1.808
 9545SOL     OW29533   6.670   0.387   3.105
 9545SOL    HW129534   6.719   0.306   3.140
 9545SOL    HW229535   6.618   0.362   3.024
 9546SOL     OW29536   2.652   5.449   6.591
 9546SOL    HW129537   2.665   5.412   6.499
 9546SOL    HW229538   2.634   5.373   6.654
 9547SOL     OW29539   1.005   6.030   4.443
 9547SOL    HW129540   1.062   6.046   4.362
 9547SOL    HW229541   0.965   6.116   4.473
 9548SOL     OW29542   6.000   5.961   4.467
 9548SOL    HW129543   5.985   6.008   4.380
 9548SOL    HW229544   6.052   5.877   4.450
 9549SOL     OW29545   3.169   5.553   0.447
 9549SOL    HW129546   3.117   5.552   0.532
 9549SOL    HW229547   3.174   5.460   0.410
 9550SOL     OW29548   0.844   1.078   0.438
 9550SOL    HW129549   0.751   1.107   0.416
 9550SOL    HW229550   0.909   1.130   0.383
 9551SOL     OW29551   0.245   0.067   4.894
 9551SOL    HW129552   0.225   0.061   4.797
 9551SOL    HW229553   0.313   0.138   4.911
 9552SOL     OW29554   1.679   6.502   3.464
 9552SOL    HW129555   1.687   6.408   3.431
 9552SOL    HW229556   1.587   6.537   3.443
 9553SOL     OW29557   5.865   5.027   6.525
 9553SOL    HW129558   5.808   5.093   6.572
 9553SOL    HW229559   5.818   4.938   6.521
 9554SOL     OW29560   2.423   1.320   2.155
 9554SOL    HW129561   2.388   1.241   2.205
 9554SOL    HW229562   2.426   1.299   2.058
 9555SOL     OW29563   6.508   2.429   0.783
 9555SOL    HW129564   6.567   2.446   0.863
 9555SOL    HW229565   6.439   2.501   0.777
 9556SOL     OW29566   2.194   0.951   1.097
 9556SOL    HW129567   2.265   0.883   1.114
 9556SOL    HW229568   2.156   0.936   1.005
 9557SOL     OW29569   5.662   0.184   2.134
 9557SOL    HW129570   5.624   0.237   2.059
 9557SOL    HW229571   5.726   0.116   2.098
 9558SOL     OW29572   6.744   5.317   3.288
 9558SOL    HW129573   6.676   5.376   3.331
 9558SOL    HW229574   6.704   5.270   3.209
 9559SOL     OW29575   6.993   3.268   2.222
 9559SOL    HW129576   6.909   3.295   2.269
 9559SOL    HW229577   6.996   3.311   2.132
 9560SOL     OW29578   2.535   1.246   3.070
 9560SOL    HW129579   2.511   1.285   2.982
 9560SOL    HW229580   2.479   1.287   3.142
 9561SOL     OW29581   4.075   6.679   0.886
 9561SOL    HW129582   4.166   6.683   0.926
 9561SOL    HW229583   4.039   6.586   0.891
 9562SOL     OW29584   4.573   5.360   2.408
 9562SOL    HW129585   4.611   5.386   2.319
 9562SOL    HW229586   4.633   5.292   2.450
 9563SOL     OW29587   6.861   5.839   6.293
 9563SOL    HW129588   6.911   5.843   6.206
 9563SOL    HW229589   6.840   5.931   6.324
 9564SOL     OW29590   2.954   6.807   6.661
 9564SOL    HW129591   2.988   6.893   6.698
 9564SOL    HW229592   3.015   6.733   6.687
 9565SOL     OW29593   3.625   6.423   4.400
 9565SOL    HW129594   3.560   6.465   4.464
 9565SOL    HW229595   3.590   6.334   4.371
 9566SOL     OW29596   2.783   4.734   5.745
 9566SOL    HW129597   2.854   4.664   5.733
 9566SOL    HW229598   2.749   4.732   5.839
 9567SOL     OW29599   6.302   5.683   6.251
 9567SOL    HW129600   6.368   5.621   6.295
 9567SOL    HW229601   6.347   5.729   6.174
 9568SOL     OW29602   4.927   3.841   6.340
 9568SOL    HW129603   4.833   3.814   6.318
 9568SOL    HW229604   4.966   3.775   6.405
 9569SOL     OW29605   6.527   0.694   0.295
 9569SOL    HW129606   6.615   0.648   0.289
 9569SOL    HW229607   6.517   0.758   0.219
 9570SOL     OW29608   0.803   1.407   6.974
 9570SOL    HW129609   0.762   1.423   6.884
 9570SOL    HW229610   0.890   1.360   6.964
 9571SOL     OW29611   1.924   3.466   0.067
 9571SOL    HW129612   2.007   3.521   0.075
 9571SOL    HW229613   1.929   3.390   0.133
 9572SOL     OW29614   1.049   4.255   2.100
 9572SOL    HW129615   1.079   4.248   2.005
 9572SOL    HW229616   1.123   4.225   2.160
 9573SOL     OW29617   1.896   1.403   0.088
 9573SOL    HW129618   1.966   1.470   0.113
 9573SOL    HW229619   1.927   1.350   0.009
 9574SOL     OW29620   3.260   3.250   5.857
 9574SOL    HW129621   3.186   3.207   5.909
 9574SOL    HW229622   3.332   3.183   5.839
 9575SOL     OW29623   5.115   0.872   2.172
 9575SOL    HW129624   5.052   0.949   2.172
 9575SOL    HW229625   5.072   0.793   2.215
 9576SOL     OW29626   3.427   1.390   4.481
 9576SOL    HW129627   3.348   1.339   4.448
 9576SOL    HW229628   3.399   1.485   4.498
 9577SOL     OW29629   0.773   6.327   2.909
 9577SOL    HW129630   0.745   6.271   2.831
 9577SOL    HW229631   0.820   6.409   2.875
 9578SOL     OW29632   6.754   2.850   2.243
 9578SOL    HW129633   6.776   2.938   2.284
 9578SOL    HW229634   6.780   2.776   2.305
 9579SOL     OW29635   1.298   6.965   2.417
 9579SOL    HW129636   1.396   6.979   2.402
 9579SOL    HW229637   1.276   6.987   2.513
 9580SOL     OW29638   4.171   3.587   6.864
 9580SOL    HW129639   4.237   3.513   6.874
 9580SOL    HW229640   4.171   3.642   6.947
 9581SOL     OW29641   0.999   4.239   6.313
 9581SOL    HW129642   0.975   4.281   6.401
 9581SOL    HW229643   1.045   4.306   6.255
 9582SOL     OW29644   4.147   4.821   4.377
 9582SOL    HW129645   4.187   4.747   4.432
 9582SOL    HW229646   4.123   4.897   4.437
 9583SOL     OW29647   2.100   3.739   2.121
 9583SOL    HW129648   2.088   3.757   2.219
 9583SOL    HW229649   2.126   3.643   2.108
 9584SOL     OW29650   6.160   5.665   0.187
 9584SOL    HW129651   6.221   5.696   0.260
 9584SOL    HW229652   6.215   5.622   0.115
 9585SOL     OW29653   6.403   0.372   4.123
 9585SOL    HW129654   6.366   0.465   4.130
 9585SOL    HW229655   6.489   0.374   4.071
 9586SOL     OW29656   5.346   3.683   3.543
 9586SOL    HW129657   5.283   3.671   3.619
 9586SOL    HW229658   5.399   3.599   3.530
 9587SOL     OW29659   5.008   0.418   2.497
 9587SOL    HW129660   5.048   0.466   2.576
 9587SOL    HW229661   4.974   0.329   2.526
 9588SOL     OW29662   0.340   0.731   1.259
 9588SOL    HW129663   0.373   0.741   1.353
 9588SOL    HW229664   0.394   0.790   1.198
 9589SOL     OW29665   2.400   0.914   6.331
 9589SOL    HW129666   2.464   0.990   6.343
 9589SOL    HW229667   2.348   0.901   6.416
 9590SOL     OW29668   0.069   4.262   3.377
 9590SOL    HW129669   0.045   4.242   3.282
 9590SOL    HW229670   0.090   4.176   3.425
 9591SOL     OW29671   1.495   5.146   0.762
 9591SOL    HW129672   1.572   5.181   0.709
 9591SOL    HW229673   1.521   5.060   0.807
 9592SOL     OW29674   4.600   5.772   2.021
 9592SOL    HW129675   4.666   5.784   1.946
 9592SOL    HW229676   4.596   5.856   2.075
 9593SOL     OW29677   6.859   2.411   4.482
 9593SOL    HW129678   6.930   2.376   4.421
 9593SOL    HW229679   6.772   2.364   4.464
 9594SOL     OW29680   6.318   6.870   2.196
 9594SOL    HW129681   6.307   6.778   2.234
 9594SOL    HW229682   6.297   6.937   2.268
 9595SOL     OW29683   1.825   5.521   4.107
 9595SOL    HW129684   1.846   5.425   4.092
 9595SOL    HW229685   1.890   5.578   4.057
 9596SOL     OW29686   5.953   6.059   5.081
 9596SOL    HW129687   5.936   6.120   5.159
 9596SOL    HW229688   5.868   6.047   5.029
 9597SOL     OW29689   1.779   4.125   1.443
 9597SOL    HW129690   1.770   4.222   1.421
 9597SOL    HW229691   1.795   4.115   1.541
 9598SOL     OW29692   0.079   5.572   6.160
 9598SOL    HW129693   0.083   5.485   6.110
 9598SOL    HW229694   7.017   5.574   6.217
 9599SOL     OW29695   4.509   1.593   5.383
 9599SOL    HW129696   4.546   1.570   5.473
 9599SOL    HW229697   4.459   1.514   5.346
 9600SOL     OW29698   1.271   0.490   6.732
 9600SOL    HW129699   1.261   0.440   6.818
 9600SOL    HW229700   1.237   0.584   6.744
 9601SOL     OW29701   0.333   5.334   5.878
 9601SOL    HW129702   0.412   5.370   5.928
 9601SOL    HW229703   0.335   5.370   5.784
 9602SOL     OW29704   0.992   5.419   6.666
 9602SOL    HW129705   0.960   5.506   6.629
 9602SOL    HW229706   0.918   5.374   6.715
 9603SOL     OW29707   1.740   6.130   4.431
 9603SOL    HW129708   1.649   6.096   4.407
 9603SOL    HW229709   1.805   6.054   4.428
 9604SOL     OW29710   5.891   1.775   6.869
 9604SOL    HW129711   5.919   1.855   6.817
 9604SOL    HW229712   5.791   1.774   6.878
 9605SOL     OW29713   1.570   6.027   6.506
 9605SOL    HW129714   1.642   5.958   6.513
 9605SOL    HW229715   1.555   6.067   6.597
 9606SOL     OW29716   0.344   6.637   4.179
 9606SOL    HW129717   0.327   6.626   4.081
 9606SOL    HW229718   0.382   6.553   4.216
 9607SOL     OW29719   1.240   1.924   1.865
 9607SOL    HW129720   1.248   1.966   1.774
 9607SOL    HW229721   1.239   1.824   1.855
 9608SOL     OW29722   0.760   0.124   2.174
 9608SOL    HW129723   0.740   0.170   2.087
 9608SOL    HW229724   0.745   0.026   2.163
 9609SOL     OW29725   1.612   4.388   4.582
 9609SOL    HW129726   1.641   4.309   4.528
 9609SOL    HW229727   1.571   4.356   4.668
 9610SOL     OW29728   2.396   2.046   5.658
 9610SOL    HW129729   2.357   2.080   5.572
 9610SOL    HW229730   2.347   2.087   5.735
 9611SOL     OW29731   6.165   0.240   0.792
 9611SOL    HW129732   6.077   0.200   0.819
 9611SOL    HW229733   6.240   0.186   0.831
 9612SOL     OW29734   6.046   2.659   1.777
 9612SOL    HW129735   6.037   2.685   1.681
 9612SOL    HW229736   5.978   2.590   1.801
 9613SOL     OW29737   6.091   6.784   5.218
 9613SOL    HW129738   5.994   6.782   5.242
 9613SOL    HW229739   6.101   6.782   5.119
 9614SOL     OW29740   3.727   3.360   2.590
 9614SOL    HW129741   3.662   3.401   2.526
 9614SOL    HW229742   3.693   3.272   2.621
 9615SOL     OW29743   1.025   5.776   2.499
 9615SOL    HW129744   1.076   5.702   2.453
 9615SOL    HW229745   0.984   5.741   2.583
 9616SOL     OW29746   3.823   2.971   0.954
 9616SOL    HW129747   3.820   3.058   1.003
 9616SOL    HW229748   3.869   2.902   1.010
 9617SOL     OW29749   0.785   2.805   3.763
 9617SOL    HW129750   0.831   2.719   3.742
 9617SOL    HW229751   0.808   2.873   3.694
 9618SOL     OW29752   3.797   6.130   6.583
 9618SOL    HW129753   3.795   6.031   6.598
 9618SOL    HW229754   3.850   6.150   6.500
 9619SOL     OW29755   2.571   6.150   0.690
 9619SOL    HW129756   2.597   6.119   0.781
 9619SOL    HW229757   2.484   6.198   0.695
 9620SOL     OW29758   3.586   1.699   6.458
 9620SOL    HW129759   3.668   1.660   6.417
 9620SOL    HW229760   3.512   1.632   6.456
 9621SOL     OW29761   0.625   0.572   1.178
 9621SOL    HW129762   0.697   0.626   1.221
 9621SOL    HW229763   0.664   0.490   1.137
 9622SOL     OW29764   5.893   0.596   6.207
 9622SOL    HW129765   5.979   0.559   6.171
 9622SOL    HW229766   5.881   0.567   6.302
 9623SOL     OW29767   4.774   5.942   6.275
 9623SOL    HW129768   4.810   6.033   6.297
 9623SOL    HW229769   4.783   5.926   6.177
 9624SOL     OW29770   4.240   5.170   5.124
 9624SOL    HW129771   4.173   5.101   5.099
 9624SOL    HW229772   4.262   5.227   5.044
 9625SOL     OW29773   4.981   4.639   6.163
 9625SOL    HW129774   5.035   4.720   6.186
 9625SOL    HW229775   4.883   4.663   6.165
 9626SOL     OW29776   2.153   4.116   6.230
 9626SOL    HW129777   2.120   4.025   6.204
 9626SOL    HW229778   2.085   4.161   6.289
 9627SOL     OW29779   0.931   4.846   0.169
 9627SOL    HW129780   1.014   4.809   0.210
 9627SOL    HW229781   0.857   4.780   0.178
 9628SOL     OW29782   5.606   3.442   6.913
 9628SOL    HW129783   5.698   3.409   6.934
 9628SOL    HW229784   5.553   3.367   6.874
 9629SOL     OW29785   0.395   5.800   3.465
 9629SOL    HW129786   0.471   5.746   3.428
 9629SOL    HW229787   0.318   5.739   3.485
 9630SOL     OW29788   6.680   5.846   6.027
 9630SOL    HW129789   6.772   5.860   6.064
 9630SOL    HW229790   6.613   5.889   6.086
 9631SOL     OW29791   4.270   1.174   0.555
 9631SOL    HW129792   4.215   1.120   0.620
 9631SOL    HW229793   4.360   1.132   0.545
 9632SOL     OW29794   3.318   6.373   1.152
 9632SOL    HW129795   3.334   6.274   1.161
 9632SOL    HW229796   3.250   6.402   1.218
 9633SOL     OW29797   3.342   2.882   2.920
 9633SOL    HW129798   3.252   2.877   2.963
 9633SOL    HW229799   3.402   2.941   2.975
 9634SOL     OW29800   5.293   4.493   2.224
 9634SOL    HW129801   5.246   4.417   2.268
 9634SOL    HW229802   5.368   4.525   2.283
 9635SOL     OW29803   1.085   3.714   3.216
 9635SOL    HW129804   1.063   3.790   3.154
 9635SOL    HW229805   1.013   3.645   3.211
 9636SOL     OW29806   4.446   2.491   4.513
 9636SOL    HW129807   4.396   2.452   4.591
 9636SOL    HW229808   4.516   2.554   4.547
 9637SOL     OW29809   2.940   3.128   0.917
 9637SOL    HW129810   2.864   3.135   0.982
 9637SOL    HW229811   3.025   3.155   0.961
 9638SOL     OW29812   6.992   4.817   5.655
 9638SOL    HW129813   0.004   4.745   5.717
 9638SOL    HW229814   0.042   4.833   5.585
 9639SOL     OW29815   4.364   1.542   2.162
 9639SOL    HW129816   4.410   1.508   2.244
 9639SOL    HW229817   4.315   1.626   2.183
 9640SOL     OW29818   3.515   0.060   2.456
 9640SOL    HW129819   3.441   0.057   2.390
 9640SOL    HW229820   3.495   7.018   2.532
 9641SOL     OW29821   6.013   4.337   2.416
 9641SOL    HW129822   5.941   4.399   2.446
 9641SOL    HW229823   5.993   4.306   2.323
 9642SOL     OW29824   2.304   0.433   3.344
 9642SOL    HW129825   2.296   0.512   3.282
 9642SOL    HW229826   2.392   0.388   3.329
 9643SOL     OW29827   5.554   4.583   4.119
 9643SOL    HW129828   5.533   4.541   4.031
 9643SOL    HW229829   5.498   4.541   4.191
 9644SOL     OW29830   1.539   5.210   5.026
 9644SOL    HW129831   1.586   5.255   4.950
 9644SOL    HW229832   1.567   5.114   5.031
 9645SOL     OW29833   1.284   5.687   6.823
 9645SOL    HW129834   1.296   5.607   6.764
 9645SOL    HW229835   1.349   5.758   6.796
 9646SOL     OW29836   3.520   6.264   5.656
 9646SOL    HW129837   3.462   6.205   5.599
 9646SOL    HW229838   3.525   6.355   5.615
 9647SOL     OW29839   6.166   6.524   3.499
 9647SOL    HW129840   6.260   6.493   3.486
 9647SOL    HW229841   6.104   6.446   3.492
 9648SOL     OW29842   4.711   2.350   1.050
 9648SOL    HW129843   4.709   2.396   0.961
 9648SOL    HW229844   4.756   2.408   1.117
 9649SOL     OW29845   2.705   3.544   0.507
 9649SOL    HW129846   2.789   3.589   0.478
 9649SOL    HW229847   2.633   3.612   0.521
 9650SOL     OW29848   6.937   4.598   4.714
 9650SOL    HW129849   6.970   4.654   4.637
 9650SOL    HW229850   6.839   4.584   4.705
 9651SOL     OW29851   3.254   1.453   0.202
 9651SOL    HW129852   3.293   1.440   0.293
 9651SOL    HW229853   3.193   1.376   0.181
 9652SOL     OW29854   6.818   3.997   0.693
 9652SOL    HW129855   6.722   3.967   0.687
 9652SOL    HW229856   6.877   3.916   0.695
 9653SOL     OW29857   4.632   4.001   5.849
 9653SOL    HW129858   4.693   3.924   5.827
 9653SOL    HW229859   4.686   4.077   5.885
 9654SOL     OW29860   3.465   3.516   4.319
 9654SOL    HW129861   3.557   3.531   4.281
 9654SOL    HW229862   3.429   3.603   4.352
 9655SOL     OW29863   5.233   0.878   1.906
 9655SOL    HW129864   5.180   0.859   1.989
 9655SOL    HW229865   5.187   0.949   1.853
 9656SOL     OW29866   5.157   4.247   1.528
 9656SOL    HW129867   5.212   4.317   1.574
 9656SOL    HW229868   5.085   4.291   1.475
 9657SOL     OW29869   6.065   3.550   3.307
 9657SOL    HW129870   5.997   3.621   3.284
 9657SOL    HW229871   6.070   3.485   3.231
 9658SOL     OW29872   4.994   1.826   2.288
 9658SOL    HW129873   4.976   1.850   2.384
 9658SOL    HW229874   4.922   1.862   2.230
 9659SOL     OW29875   3.345   2.551   0.920
 9659SOL    HW129876   3.344   2.647   0.950
 9659SOL    HW229877   3.291   2.496   0.984
 9660SOL     OW29878   0.527   5.932   1.159
 9660SOL    HW129879   0.601   5.970   1.102
 9660SOL    HW229880   0.567   5.880   1.234
 9661SOL     OW29881   4.798   4.499   0.639
 9661SOL    HW129882   4.819   4.579   0.696
 9661SOL    HW229883   4.876   4.477   0.581
 9662SOL     OW29884   5.055   4.261   6.376
 9662SOL    HW129885   5.048   4.359   6.395
 9662SOL    HW229886   5.151   4.233   6.380
 9663SOL     OW29887   0.831   4.464   3.719
 9663SOL    HW129888   0.910   4.513   3.757
 9663SOL    HW229889   0.800   4.395   3.785
 9664SOL     OW29890   5.480   4.185   3.134
 9664SOL    HW129891   5.436   4.110   3.184
 9664SOL    HW229892   5.483   4.266   3.192
 9665SOL     OW29893   5.812   6.448   6.734
 9665SOL    HW129894   5.796   6.542   6.764
 9665SOL    HW229895   5.911   6.433   6.723
 9666SOL     OW29896   5.919   4.195   1.230
 9666SOL    HW129897   5.973   4.272   1.264
 9666SOL    HW229898   5.962   4.157   1.148
 9667SOL     OW29899   4.726   5.428   0.754
 9667SOL    HW129900   4.652   5.362   0.755
 9667SOL    HW229901   4.793   5.403   0.683
 9668SOL     OW29902   0.933   6.477   5.811
 9668SOL    HW129903   0.953   6.379   5.807
 9668SOL    HW229904   0.989   6.525   5.743
 9669SOL     OW29905   3.405   6.928   0.381
 9669SOL    HW129906   3.416   6.848   0.441
 9669SOL    HW229907   3.477   6.927   0.311
 9670SOL     OW29908   7.004   0.134   6.125
 9670SOL    HW129909   6.962   0.050   6.089
 9670SOL    HW229910   0.052   0.110   6.195
 9671SOL     OW29911   1.439   4.964   6.386
 9671SOL    HW129912   1.378   5.035   6.353
 9671SOL    HW229913   1.448   4.971   6.485
 9672SOL     OW29914   0.447   4.332   4.278
 9672SOL    HW129915   0.393   4.276   4.342
 9672SOL    HW229916   0.495   4.403   4.329
 9673SOL     OW29917   2.354   4.060   1.488
 9673SOL    HW129918   2.325   4.102   1.402
 9673SOL    HW229919   2.444   4.097   1.514
 9674SOL     OW29920   3.357   5.991   3.186
 9674SOL    HW129921   3.334   5.987   3.089
 9674SOL    HW229922   3.285   5.946   3.240
 9675SOL     OW29923   4.547   4.034   1.399
 9675SOL    HW129924   4.522   4.113   1.456
 9675SOL    HW229925   4.636   3.999   1.429
 9676SOL     OW29926   1.437   2.899   5.822
 9676SOL    HW129927   1.484   2.840   5.756
 9676SOL    HW229928   1.367   2.846   5.870
 9677SOL     OW29929   6.354   5.269   0.669
 9677SOL    HW129930   6.370   5.333   0.594
 9677SOL    HW229931   6.256   5.252   0.679
 9678SOL     OW29932   3.605   3.788   5.085
 9678SOL    HW129933   3.648   3.816   4.999
 9678SOL    HW229934   3.666   3.809   5.161
 9679SOL     OW29935   1.880   1.330   5.230
 9679SOL    HW129936   1.800   1.384   5.205
 9679SOL    HW229937   1.904   1.268   5.155
 9680SOL     OW29938   4.667   6.349   2.669
 9680SOL    HW129939   4.648   6.306   2.757
 9680SOL    HW229940   4.762   6.380   2.667
 9681SOL     OW29941   1.966   0.794   1.569
 9681SOL    HW129942   1.976   0.884   1.611
 9681SOL    HW229943   2.017   0.792   1.483
 9682SOL     OW29944   5.740   5.997   4.896
 9682SOL    HW129945   5.673   6.056   4.851
 9682SOL    HW229946   5.718   5.901   4.878
 9683SOL     OW29947   2.306   0.359   0.934
 9683SOL    HW129948   2.352   0.304   1.005
 9683SOL    HW229949   2.357   0.351   0.848
 9684SOL     OW29950   1.433   4.454   5.294
 9684SOL    HW129951   1.440   4.554   5.294
 9684SOL    HW229952   1.395   4.423   5.381
 9685SOL     OW29953   3.729   4.064   0.959
 9685SOL    HW129954   3.806   4.043   0.899
 9685SOL    HW229955   3.672   4.134   0.917
 9686SOL     OW29956   6.410   2.009   5.798
 9686SOL    HW129957   6.328   2.067   5.798
 9686SOL    HW229958   6.435   1.986   5.704
 9687SOL     OW29959   6.131   0.462   2.362
 9687SOL    HW129960   6.193   0.533   2.329
 9687SOL    HW229961   6.173   0.412   2.437
 9688SOL     OW29962   1.608   4.864   1.588
 9688SOL    HW129963   1.569   4.926   1.521
 9688SOL    HW229964   1.545   4.787   1.602
 9689SOL     OW29965   1.148   6.094   0.292
 9689SOL    HW129966   1.188   6.020   0.238
 9689SOL    HW229967   1.162   6.181   0.246
 9690SOL     OW29968   6.032   5.800   5.126
 9690SOL    HW129969   6.090   5.768   5.051
 9690SOL    HW229970   6.008   5.896   5.111
 9691SOL     OW29971   3.378   3.578   2.237
 9691SOL    HW129972   3.336   3.635   2.167
 9691SOL    HW229973   3.420   3.636   2.306
 9692SOL     OW29974   4.527   4.798   0.231
 9692SOL    HW129975   4.475   4.882   0.223
 9692SOL    HW229976   4.477   4.732   0.286
 9693SOL     OW29977   5.838   3.911   3.922
 9693SOL    HW129978   5.896   3.992   3.932
 9693SOL    HW229979   5.811   3.902   3.826
 9694SOL     OW29980   3.045   6.707   1.874
 9694SOL    HW129981   3.108   6.756   1.933
 9694SOL    HW229982   3.033   6.758   1.788
 9695SOL     OW29983   0.619   3.211   4.401
 9695SOL    HW129984   0.705   3.205   4.452
 9695SOL    HW229985   0.639   3.224   4.304
 9696SOL     OW29986   6.104   2.108   2.856
 9696SOL    HW129987   6.070   2.083   2.765
 9696SOL    HW229988   6.075   2.201   2.877
 9697SOL     OW29989   6.879   6.198   0.363
 9697SOL    HW129990   6.835   6.278   0.406
 9697SOL    HW229991   6.944   6.229   0.294
 9698SOL     OW29992   5.185   3.448   0.170
 9698SOL    HW129993   5.150   3.494   0.088
 9698SOL    HW229994   5.285   3.446   0.167
 9699SOL     OW29995   1.039   4.988   0.493
 9699SOL    HW129996   1.065   5.084   0.502
 9699SOL    HW229997   0.940   4.979   0.503
 9700SOL     OW29998   6.009   6.712   4.175
 9700SOL    HW129999   5.973   6.619   4.163
 9700SOL    HW230000   6.089   6.709   4.234
 9701SOL     OW30001   5.250   3.009   6.398
 9701SOL    HW130002   5.199   3.093   6.379
 9701SOL    HW230003   5.295   3.018   6.487
 9702SOL     OW30004   3.734   2.755   0.755
 9702SOL    HW130005   3.829   2.748   0.786
 9702SOL    HW230006   3.696   2.843   0.781
 9703SOL     OW30007   6.126   3.769   5.056
 9703SOL    HW130008   6.082   3.732   5.138
 9703SOL    HW230009   6.070   3.843   5.018
 9704SOL     OW30010   2.744   4.841   2.867
 9704SOL    HW130011   2.659   4.852   2.920
 9704SOL    HW230012   2.720   4.822   2.771
 9705SOL     OW30013   6.165   4.089   5.170
 9705SOL    HW130014   6.173   4.089   5.070
 9705SOL    HW230015   6.072   4.064   5.196
 9706SOL     OW30016   1.043   1.455   2.004
 9706SOL    HW130017   0.971   1.386   1.998
 9706SOL    HW230018   1.102   1.436   2.082
 9707SOL     OW30019   6.132   4.706   2.228
 9707SOL    HW130020   6.036   4.686   2.245
 9707SOL    HW230021   6.184   4.621   2.227
 9708SOL     OW30022   1.596   0.667   2.447
 9708SOL    HW130023   1.603   0.647   2.545
 9708SOL    HW230024   1.513   0.626   2.410
 9709SOL     OW30025   5.909   3.025   2.296
 9709SOL    HW130026   5.839   2.957   2.275
 9709SOL    HW230027   5.989   3.009   2.239
 9710SOL     OW30028   5.991   6.167   5.467
 9710SOL    HW130029   5.916   6.212   5.419
 9710SOL    HW230030   6.007   6.076   5.429
 9711SOL     OW30031   3.932   6.564   6.737
 9711SOL    HW130032   3.881   6.595   6.657
 9711SOL    HW230033   3.906   6.469   6.758
 9712SOL     OW30034   6.113   2.847   0.461
 9712SOL    HW130035   6.189   2.785   0.481
 9712SOL    HW230036   6.029   2.810   0.502
 9713SOL     OW30037   1.703   6.239   3.387
 9713SOL    HW130038   1.736   6.215   3.296
 9713SOL    HW230039   1.759   6.191   3.456
 9714SOL     OW30040   4.039   5.069   4.495
 9714SOL    HW130041   4.043   5.135   4.419
 9714SOL    HW230042   3.944   5.060   4.525
 9715SOL     OW30043   6.099   4.706   1.029
 9715SOL    HW130044   6.163   4.775   1.061
 9715SOL    HW230045   6.036   4.747   0.963
 9716SOL     OW30046   3.502   4.789   0.033
 9716SOL    HW130047   3.555   4.868   0.001
 9716SOL    HW230048   3.565   4.715   0.058
 9717SOL     OW30049   4.388   0.879   5.756
 9717SOL    HW130050   4.341   0.791   5.764
 9717SOL    HW230051   4.481   0.865   5.724
 9718SOL     OW30052   3.209   2.120   0.093
 9718SOL    HW130053   3.208   2.162   0.002
 9718SOL    HW230054   3.250   2.183   0.159
 9719SOL     OW30055   4.613   6.029   5.017
 9719SOL    HW130056   4.515   6.047   5.020
 9719SOL    HW230057   4.633   5.967   4.941
 9720SOL     OW30058   1.632   4.368   3.204
 9720SOL    HW130059   1.686   4.345   3.123
 9720SOL    HW230060   1.613   4.285   3.257
 9721SOL     OW30061   1.006   1.852   0.042
 9721SOL    HW130062   1.101   1.835   0.070
 9721SOL    HW230063   0.954   1.767   0.050
 9722SOL     OW30064   3.829   2.765   5.451
 9722SOL    HW130065   3.856   2.816   5.533
 9722SOL    HW230066   3.734   2.788   5.428
 9723SOL     OW30067   6.114   4.493   4.634
 9723SOL    HW130068   6.016   4.512   4.633
 9723SOL    HW230069   6.164   4.578   4.615
 9724SOL     OW30070   1.283   5.352   7.019
 9724SOL    HW130071   1.254   5.346   6.923
 9724SOL    HW230072   1.309   5.447   0.020
 9725SOL     OW30073   3.459   5.468   5.060
 9725SOL    HW130074   3.549   5.500   5.090
 9725SOL    HW230075   3.413   5.424   5.137
 9726SOL     OW30076   6.072   0.736   4.074
 9726SOL    HW130077   6.127   0.787   4.140
 9726SOL    HW230078   6.043   0.798   4.001
 9727SOL     OW30079   0.513   2.373   6.657
 9727SOL    HW130080   0.606   2.349   6.681
 9727SOL    HW230081   0.482   2.449   6.714
 9728SOL     OW30082   5.236   0.470   5.977
 9728SOL    HW130083   5.222   0.419   5.893
 9728SOL    HW230084   5.307   0.426   6.031
 9729SOL     OW30085   0.771   4.129   3.400
 9729SOL    HW130086   0.748   4.226   3.393
 9729SOL    HW230087   0.781   4.104   3.496
 9730SOL     OW30088   0.436   4.426   3.051
 9730SOL    HW130089   0.394   4.448   2.963
 9730SOL    HW230090   0.368   4.434   3.123
 9731SOL     OW30091   5.026   3.702   2.917
 9731SOL    HW130092   4.966   3.734   2.843
 9731SOL    HW230093   5.109   3.663   2.878
 9732SOL     OW30094   1.854   2.626   2.419
 9732SOL    HW130095   1.822   2.707   2.370
 9732SOL    HW230096   1.779   2.562   2.431
 9733SOL     OW30097   5.917   5.620   2.900
 9733SOL    HW130098   5.888   5.577   2.814
 9733SOL    HW230099   5.921   5.719   2.887
 9734SOL     OW30100   6.317   6.668   6.441
 9734SOL    HW130101   6.226   6.627   6.435
 9734SOL    HW230102   6.308   6.764   6.469
 9735SOL     OW30103   1.145   1.496   2.466
 9735SOL    HW130104   1.119   1.590   2.485
 9735SOL    HW230105   1.202   1.461   2.541
 9736SOL     OW30106   4.844   2.308   5.042
 9736SOL    HW130107   4.779   2.253   5.094
 9736SOL    HW230108   4.899   2.248   4.983
 9737SOL     OW30109   6.234   1.495   2.326
 9737SOL    HW130110   6.165   1.460   2.390
 9737SOL    HW230111   6.300   1.552   2.375
 9738SOL     OW30112   2.195   5.843   1.157
 9738SOL    HW130113   2.249   5.892   1.089
 9738SOL    HW230114   2.099   5.840   1.128
 9739SOL     OW30115   4.885   0.134   0.285
 9739SOL    HW130116   4.941   0.216   0.294
 9739SOL    HW230117   4.792   0.152   0.317
 9740SOL     OW30118   6.602   0.648   2.346
 9740SOL    HW130119   6.621   0.741   2.315
 9740SOL    HW230120   6.681   0.589   2.325
 9741SOL     OW30121   3.182   1.866   4.704
 9741SOL    HW130122   3.133   1.822   4.779
 9741SOL    HW230123   3.184   1.965   4.720
 9742SOL     OW30124   4.334   1.364   6.515
 9742SOL    HW130125   4.234   1.374   6.511
 9742SOL    HW230126   4.372   1.374   6.423
 9743SOL     OW30127   6.509   2.763   3.580
 9743SOL    HW130128   6.579   2.831   3.559
 9743SOL    HW230129   6.419   2.800   3.556
 9744SOL     OW30130   1.864   6.462   3.691
 9744SOL    HW130131   1.914   6.532   3.641
 9744SOL    HW230132   1.771   6.455   3.655
 9745SOL     OW30133   5.703   1.283   5.811
 9745SOL    HW130134   5.773   1.212   5.811
 9745SOL    HW230135   5.613   1.241   5.818
 9746SOL     OW30136   5.288   6.053   6.661
 9746SOL    HW130137   5.244   6.140   6.639
 9746SOL    HW230138   5.387   6.063   6.652
 9747SOL     OW30139   2.199   2.151   2.094
 9747SOL    HW130140   2.249   2.217   2.151
 9747SOL    HW230141   2.261   2.112   2.026
 9748SOL     OW30142   0.605   0.659   3.004
 9748SOL    HW130143   0.639   0.588   3.067
 9748SOL    HW230144   0.572   0.737   3.058
 9749SOL     OW30145   0.705   1.603   2.296
 9749SOL    HW130146   0.682   1.531   2.230
 9749SOL    HW230147   0.719   1.563   2.386
 9750SOL     OW30148   6.063   4.859   4.194
 9750SOL    HW130149   6.043   4.879   4.098
 9750SOL    HW230150   6.107   4.770   4.201
 9751SOL     OW30151   2.415   0.505   1.882
 9751SOL    HW130152   2.445   0.481   1.974
 9751SOL    HW230153   2.434   0.601   1.864
 9752SOL     OW30154   4.581   2.601   0.505
 9752SOL    HW130155   4.516   2.587   0.580
 9752SOL    HW230156   4.583   2.698   0.481
 9753SOL     OW30157   0.173   6.130   6.363
 9753SOL    HW130158   0.105   6.127   6.291
 9753SOL    HW230159   0.195   6.036   6.392
 9754SOL     OW30160   4.179   0.709   0.398
 9754SOL    HW130161   4.085   0.733   0.376
 9754SOL    HW230162   4.207   0.630   0.343
 9755SOL     OW30163   3.398   4.189   5.554
 9755SOL    HW130164   3.488   4.205   5.513
 9755SOL    HW230165   3.360   4.277   5.584
 9756SOL     OW30166   5.419   1.490   6.047
 9756SOL    HW130167   5.495   1.536   6.002
 9756SOL    HW230168   5.384   1.548   6.120
 9757SOL     OW30169   5.533   4.157   4.350
 9757SOL    HW130170   5.457   4.115   4.399
 9757SOL    HW230171   5.619   4.137   4.396
 9758SOL     OW30172   1.181   0.592   0.714
 9758SOL    HW130173   1.270   0.560   0.683
 9758SOL    HW230174   1.132   0.634   0.638
 9759SOL     OW30175   0.911   1.313   0.594
 9759SOL    HW130176   1.006   1.301   0.564
 9759SOL    HW230177   0.860   1.229   0.578
 9760SOL     OW30178   5.000   2.291   6.851
 9760SOL    HW130179   4.902   2.300   6.830
 9760SOL    HW230180   5.039   2.218   6.794
 9761SOL     OW30181   1.399   0.998   1.759
 9761SOL    HW130182   1.337   0.921   1.775
 9761SOL    HW230183   1.471   0.970   1.695
 9762SOL     OW30184   3.027   1.689   4.842
 9762SOL    HW130185   3.033   1.624   4.766
 9762SOL    HW230186   2.935   1.728   4.846
 9763SOL     OW30187   6.316   1.692   1.691
 9763SOL    HW130188   6.223   1.715   1.719
 9763SOL    HW230189   6.350   1.762   1.627
 9764SOL     OW30190   5.854   2.299   2.251
 9764SOL    HW130191   5.872   2.266   2.344
 9764SOL    HW230192   5.838   2.220   2.191
 9765SOL     OW30193   6.505   1.244   1.911
 9765SOL    HW130194   6.438   1.216   1.979
 9765SOL    HW230195   6.467   1.316   1.854
 9766SOL     OW30196   2.526   0.686   3.399
 9766SOL    HW130197   2.475   0.771   3.388
 9766SOL    HW230198   2.565   0.659   3.311
 9767SOL     OW30199   1.977   3.255   5.749
 9767SOL    HW130200   1.908   3.290   5.686
 9767SOL    HW230201   1.983   3.315   5.828
 9768SOL     OW30202   6.216   2.494   0.701
 9768SOL    HW130203   6.238   2.478   0.797
 9768SOL    HW230204   6.133   2.445   0.677
 9769SOL     OW30205   3.218   1.683   5.351
 9769SOL    HW130206   3.173   1.696   5.263
 9769SOL    HW230207   3.150   1.652   5.418
 9770SOL     OW30208   3.904   2.670   6.341
 9770SOL    HW130209   3.977   2.616   6.298
 9770SOL    HW230210   3.889   2.753   6.288
 9771SOL     OW30211   2.671   6.291   2.427
 9771SOL    HW130212   2.678   6.313   2.329
 9771SOL    HW230213   2.593   6.340   2.466
 9772SOL     OW30214   1.696   6.004   2.128
 9772SOL    HW130215   1.686   6.101   2.108
 9772SOL    HW230216   1.716   5.991   2.225
 9773SOL     OW30217   5.264   6.010   2.431
 9773SOL    HW130218   5.189   6.038   2.371
 9773SOL    HW230219   5.229   5.994   2.523
 9774SOL     OW30220   0.661   5.094   3.724
 9774SOL    HW130221   0.600   5.044   3.786
 9774SOL    HW230222   0.628   5.188   3.713
 9775SOL     OW30223   2.691   0.569   3.567
 9775SOL    HW130224   2.733   0.636   3.629
 9775SOL    HW230225   2.631   0.616   3.503
 9776SOL     OW30226   1.569   4.794   6.004
 9776SOL    HW130227   1.652   4.739   6.004
 9776SOL    HW230228   1.570   4.857   6.082
 9777SOL     OW30229   5.263   6.767   6.488
 9777SOL    HW130230   5.242   6.673   6.515
 9777SOL    HW230231   5.233   6.830   6.559
 9778SOL     OW30232   0.342   1.872   4.562
 9778SOL    HW130233   0.425   1.866   4.618
 9778SOL    HW230234   0.270   1.917   4.614
 9779SOL     OW30235   0.711   2.058   3.087
 9779SOL    HW130236   0.740   2.124   3.157
 9779SOL    HW230237   0.630   2.093   3.040
 9780SOL     OW30238   1.640   1.950   1.402
 9780SOL    HW130239   1.686   1.906   1.479
 9780SOL    HW230240   1.692   1.932   1.318
 9781SOL     OW30241   1.177   3.667   3.610
 9781SOL    HW130242   1.166   3.677   3.709
 9781SOL    HW230243   1.258   3.612   3.591
 9782SOL     OW30244   0.526   2.495   0.302
 9782SOL    HW130245   0.489   2.584   0.331
 9782SOL    HW230246   0.483   2.422   0.355
 9783SOL     OW30247   4.063   1.866   3.268
 9783SOL    HW130248   4.074   1.875   3.367
 9783SOL    HW230249   3.972   1.830   3.248
 9784SOL     OW30250   2.921   1.315   6.856
 9784SOL    HW130251   3.015   1.339   6.830
 9784SOL    HW230252   2.906   1.338   6.952
 9785SOL     OW30253   6.964   2.508   4.716
 9785SOL    HW130254   0.035   2.540   4.687
 9785SOL    HW230255   6.907   2.493   4.635
 9786SOL     OW30256   2.719   4.553   0.735
 9786SOL    HW130257   2.705   4.456   0.757
 9786SOL    HW230258   2.690   4.609   0.812
 9787SOL     OW30259   3.771   3.703   3.657
 9787SOL    HW130260   3.752   3.669   3.749
 9787SOL    HW230261   3.710   3.780   3.637
 9788SOL     OW30262   0.612   5.987   1.879
 9788SOL    HW130263   0.693   6.015   1.930
 9788SOL    HW230264   0.550   5.937   1.940
 9789SOL     OW30265   2.976   0.028   6.350
 9789SOL    HW130266   2.883   0.013   6.385
 9789SOL    HW230267   3.041   6.994   6.404
 9790SOL     OW30268   6.768   4.001   4.734
 9790SOL    HW130269   6.717   4.068   4.788
 9790SOL    HW230270   6.808   4.046   4.654
 9791SOL     OW30271   0.870   6.325   0.457
 9791SOL    HW130272   0.932   6.397   0.427
 9791SOL    HW230273   0.923   6.246   0.489
 9792SOL     OW30274   3.584   5.238   0.805
 9792SOL    HW130275   3.606   5.253   0.901
 9792SOL    HW230276   3.636   5.302   0.748
 9793SOL     OW30277   4.875   1.379   1.797
 9793SOL    HW130278   4.892   1.355   1.702
 9793SOL    HW230279   4.797   1.326   1.832
 9794SOL     OW30280   4.874   4.613   4.641
 9794SOL    HW130281   4.918   4.525   4.624
 9794SOL    HW230282   4.945   4.683   4.650
 9795SOL     OW30283   0.678   3.192   4.118
 9795SOL    HW130284   0.724   3.105   4.109
 9795SOL    HW230285   0.737   3.265   4.083
 9796SOL     OW30286   3.911   3.955   3.480
 9796SOL    HW130287   3.977   3.880   3.478
 9796SOL    HW230288   3.866   3.958   3.570
 9797SOL     OW30289   3.140   6.160   6.420
 9797SOL    HW130290   3.131   6.112   6.333
 9797SOL    HW230291   3.227   6.210   6.422
 9798SOL     OW30292   1.771   2.856   1.051
 9798SOL    HW130293   1.712   2.781   1.079
 9798SOL    HW230294   1.795   2.912   1.131
 9799SOL     OW30295   2.741   5.336   6.330
 9799SOL    HW130296   2.738   5.255   6.388
 9799SOL    HW230297   2.836   5.361   6.312
 9800SOL     OW30298   5.636   3.058   3.791
 9800SOL    HW130299   5.713   3.120   3.805
 9800SOL    HW230300   5.669   2.971   3.755
 9801SOL     OW30301   5.372   5.043   6.825
 9801SOL    HW130302   5.381   4.984   6.905
 9801SOL    HW230303   5.462   5.072   6.794
 9802SOL     OW30304   4.018   5.247   0.718
 9802SOL    HW130305   3.954   5.173   0.697
 9802SOL    HW230306   4.105   5.229   0.673
 9803SOL     OW30307   1.690   3.105   6.489
 9803SOL    HW130308   1.610   3.118   6.548
 9803SOL    HW230309   1.754   3.180   6.502
 9804SOL     OW30310   6.637   5.675   3.102
 9804SOL    HW130311   6.602   5.739   3.170
 9804SOL    HW230312   6.569   5.603   3.086
 9805SOL     OW30313   0.616   6.491   3.633
 9805SOL    HW130314   0.601   6.584   3.667
 9805SOL    HW230315   0.714   6.471   3.633
 9806SOL     OW30316   4.152   2.122   6.135
 9806SOL    HW130317   4.156   2.171   6.048
 9806SOL    HW230318   4.070   2.151   6.185
 9807SOL     OW30319   3.449   2.869   2.375
 9807SOL    HW130320   3.510   2.940   2.408
 9807SOL    HW230321   3.394   2.834   2.452
 9808SOL     OW30322   4.176   5.995   3.975
 9808SOL    HW130323   4.189   6.055   4.053
 9808SOL    HW230324   4.264   5.969   3.937
 9809SOL     OW30325   0.397   2.898   0.526
 9809SOL    HW130326   0.377   2.962   0.452
 9809SOL    HW230327   0.372   2.805   0.498
 9810SOL     OW30328   2.374   1.695   5.346
 9810SOL    HW130329   2.438   1.627   5.310
 9810SOL    HW230330   2.320   1.733   5.271
 9811SOL     OW30331   6.691   3.825   4.371
 9811SOL    HW130332   6.747   3.813   4.288
 9811SOL    HW230333   6.665   3.922   4.379
 9812SOL     OW30334   2.539   6.798   4.904
 9812SOL    HW130335   2.517   6.869   4.836
 9812SOL    HW230336   2.592   6.838   4.978
 9813SOL     OW30337   5.420   2.583   0.541
 9813SOL    HW130338   5.372   2.500   0.568
 9813SOL    HW230339   5.385   2.660   0.594
 9814SOL     OW30340   5.744   1.914   0.325
 9814SOL    HW130341   5.729   2.012   0.313
 9814SOL    HW230342   5.709   1.885   0.414
 9815SOL     OW30343   4.691   2.605   4.583
 9815SOL    HW130344   4.768   2.591   4.522
 9815SOL    HW230345   4.724   2.622   4.676
 9816SOL     OW30346   1.058   6.943   6.551
 9816SOL    HW130347   0.993   6.873   6.520
 9816SOL    HW230348   1.013   0.013   6.552
 9817SOL     OW30349   0.737   6.966   3.179
 9817SOL    HW130350   0.651   7.009   3.205
 9817SOL    HW230351   0.732   6.868   3.195
 9818SOL     OW30352   5.830   1.840   5.218
 9818SOL    HW130353   5.833   1.740   5.219
 9818SOL    HW230354   5.756   1.871   5.158
 9819SOL     OW30355   4.112   2.226   3.304
 9819SOL    HW130356   4.163   2.308   3.280
 9819SOL    HW230357   4.145   2.149   3.249
 9820SOL     OW30358   3.101   4.460   6.417
 9820SOL    HW130359   3.183   4.432   6.366
 9820SOL    HW230360   3.024   4.466   6.354
 9821SOL     OW30361   5.790   6.699   6.928
 9821SOL    HW130362   5.695   6.695   6.958
 9821SOL    HW230363   5.801   6.777   6.866
 9822SOL     OW30364   0.665   6.659   2.885
 9822SOL    HW130365   0.628   6.567   2.868
 9822SOL    HW230366   0.743   6.675   2.823
 9823SOL     OW30367   3.366   0.729   1.655
 9823SOL    HW130368   3.432   0.691   1.721
 9823SOL    HW230369   3.280   0.749   1.703
 9824SOL     OW30370   1.118   4.129   5.930
 9824SOL    HW130371   1.135   4.226   5.947
 9824SOL    HW230372   1.153   4.076   6.007
 9825SOL     OW30373   3.689   5.918   5.676
 9825SOL    HW130374   3.772   5.957   5.636
 9825SOL    HW230375   3.623   5.897   5.604
 9826SOL     OW30376   4.826   6.030   6.022
 9826SOL    HW130377   4.738   6.077   6.012
 9826SOL    HW230378   4.880   6.042   5.938
 9827SOL     OW30379   1.549   4.262   4.817
 9827SOL    HW130380   1.455   4.248   4.787
 9827SOL    HW230381   1.601   4.177   4.803
 9828SOL     OW30382   3.458   2.800   6.440
 9828SOL    HW130383   3.423   2.892   6.459
 9828SOL    HW230384   3.452   2.782   6.341
 9829SOL     OW30385   3.470   6.727   0.554
 9829SOL    HW130386   3.420   6.667   0.617
 9829SOL    HW230387   3.536   6.782   0.606
 9830SOL     OW30388   6.070   1.918   1.312
 9830SOL    HW130389   6.074   1.845   1.243
 9830SOL    HW230390   6.149   1.978   1.301
 9831SOL     OW30391   1.230   5.847   0.949
 9831SOL    HW130392   1.248   5.815   0.856
 9831SOL    HW230393   1.279   5.790   1.014
 9832SOL     OW30394   4.700   4.874   2.508
 9832SOL    HW130395   4.606   4.859   2.477
 9832SOL    HW230396   4.759   4.887   2.428
 9833SOL     OW30397   3.292   3.151   5.144
 9833SOL    HW130398   3.287   3.053   5.125
 9833SOL    HW230399   3.202   3.192   5.129
 9834SOL     OW30400   2.825   3.788   5.846
 9834SOL    HW130401   2.895   3.857   5.864
 9834SOL    HW230402   2.834   3.756   5.751
 9835SOL     OW30403   4.627   1.697   4.616
 9835SOL    HW130404   4.688   1.682   4.693
 9835SOL    HW230405   4.631   1.619   4.554
 9836SOL     OW30406   6.263   3.649   3.472
 9836SOL    HW130407   6.186   3.594   3.442
 9836SOL    HW230408   6.262   3.737   3.425
 9837SOL     OW30409   1.595   6.913   3.424
 9837SOL    HW130410   1.604   6.987   3.490
 9837SOL    HW230411   1.585   6.826   3.472
 9838SOL     OW30412   0.406   6.663   5.665
 9838SOL    HW130413   0.318   6.677   5.710
 9838SOL    HW230414   0.466   6.608   5.724
 9839SOL     OW30415   6.671   1.335   2.569
 9839SOL    HW130416   6.708   1.362   2.658
 9839SOL    HW230417   6.743   1.291   2.515
 9840SOL     OW30418   0.281   0.397   0.699
 9840SOL    HW130419   0.378   0.410   0.682
 9840SOL    HW230420   0.234   0.485   0.697
 9841SOL     OW30421   1.466   4.532   4.339
 9841SOL    HW130422   1.479   4.622   4.295
 9841SOL    HW230423   1.548   4.508   4.390
 9842SOL     OW30424   3.259   3.393   3.551
 9842SOL    HW130425   3.260   3.323   3.622
 9842SOL    HW230426   3.197   3.467   3.577
 9843SOL     OW30427   6.596   1.929   1.388
 9843SOL    HW130428   6.553   1.918   1.298
 9843SOL    HW230429   6.693   1.909   1.381
 9844SOL     OW30430   4.757   6.728   3.095
 9844SOL    HW130431   4.673   6.731   3.149
 9844SOL    HW230432   4.782   6.632   3.079
 9845SOL     OW30433   2.144   1.350   5.337
 9845SOL    HW130434   2.159   1.434   5.389
 9845SOL    HW230435   2.047   1.344   5.313
 9846SOL     OW30436   3.369   4.104   3.152
 9846SOL    HW130437   3.426   4.123   3.232
 9846SOL    HW230438   3.273   4.120   3.174
 9847SOL     OW30439   2.394   2.815   6.092
 9847SOL    HW130440   2.493   2.820   6.098
 9847SOL    HW230441   2.353   2.880   6.156
 9848SOL     OW30442   3.928   2.479   6.597
 9848SOL    HW130443   3.843   2.434   6.570
 9848SOL    HW230444   3.951   2.550   6.530
 9849SOL     OW30445   5.687   0.417   6.723
 9849SOL    HW130446   5.758   0.486   6.708
 9849SOL    HW230447   5.613   0.456   6.779
 9850SOL     OW30448   4.865   5.792   2.275
 9850SOL    HW130449   4.783   5.747   2.310
 9850SOL    HW230450   4.864   5.788   2.175
 9851SOL     OW30451   4.439   1.987   5.041
 9851SOL    HW130452   4.440   1.924   5.119
 9851SOL    HW230453   4.358   2.046   5.047
 9852SOL     OW30454   4.183   2.035   3.115
 9852SOL    HW130455   4.189   1.992   3.025
 9852SOL    HW230456   4.153   1.969   3.183
 9853SOL     OW30457   4.612   4.362   3.102
 9853SOL    HW130458   4.593   4.402   3.013
 9853SOL    HW230459   4.671   4.282   3.091
 9854SOL     OW30460   5.969   4.968   5.162
 9854SOL    HW130461   6.038   4.938   5.228
 9854SOL    HW230462   5.880   4.975   5.207
 9855SOL     OW30463   1.169   4.199   1.576
 9855SOL    HW130464   1.263   4.167   1.581
 9855SOL    HW230465   1.168   4.294   1.543
 9856SOL     OW30466   4.268   3.744   0.041
 9856SOL    HW130467   4.328   3.798   7.002
 9856SOL    HW230468   4.319   3.713   0.121
 9857SOL     OW30469   5.296   2.281   3.327
 9857SOL    HW130470   5.369   2.283   3.259
 9857SOL    HW230471   5.207   2.282   3.281
 9858SOL     OW30472   5.839   0.221   1.190
 9858SOL    HW130473   5.912   0.285   1.166
 9858SOL    HW230474   5.787   0.197   1.108
 9859SOL     OW30475   6.385   6.747   1.060
 9859SOL    HW130476   6.461   6.736   0.996
 9859SOL    HW230477   6.411   6.812   1.132
 9860SOL     OW30478   0.467   1.060   1.563
 9860SOL    HW130479   0.465   1.122   1.642
 9860SOL    HW230480   0.516   1.104   1.488
 9861SOL     OW30481   3.539   6.705   4.251
 9861SOL    HW130482   3.535   6.625   4.191
 9861SOL    HW230483   3.537   6.788   4.195
 9862SOL     OW30484   2.785   3.647   0.942
 9862SOL    HW130485   2.759   3.564   0.893
 9862SOL    HW230486   2.847   3.624   1.017
 9863SOL     OW30487   3.222   6.830   3.143
 9863SOL    HW130488   3.133   6.785   3.136
 9863SOL    HW230489   3.228   6.878   3.231
 9864SOL     OW30490   3.987   5.845   3.576
 9864SOL    HW130491   3.926   5.883   3.507
 9864SOL    HW230492   4.004   5.914   3.647
 9865SOL     OW30493   1.051   0.921   4.136
 9865SOL    HW130494   1.108   0.943   4.215
 9865SOL    HW230495   1.105   0.929   4.052
 9866SOL     OW30496   5.017   4.389   4.557
 9866SOL    HW130497   5.052   4.301   4.589
 9866SOL    HW230498   5.067   4.417   4.475
 9867SOL     OW30499   4.651   0.843   1.449
 9867SOL    HW130500   4.562   0.888   1.450
 9867SOL    HW230501   4.721   0.907   1.481
 9868SOL     OW30502   1.718   4.441   5.774
 9868SOL    HW130503   1.763   4.468   5.688
 9868SOL    HW230504   1.648   4.373   5.754
 9869SOL     OW30505   2.070   3.741   2.668
 9869SOL    HW130506   1.984   3.731   2.718
 9869SOL    HW230507   2.093   3.653   2.624
 9870SOL     OW30508   3.631   5.985   2.477
 9870SOL    HW130509   3.651   6.069   2.528
 9870SOL    HW230510   3.560   6.003   2.409
 9871SOL     OW30511   1.009   6.688   6.036
 9871SOL    HW130512   1.049   6.771   5.998
 9871SOL    HW230513   0.992   6.622   5.963
 9872SOL     OW30514   2.921   5.211   3.244
 9872SOL    HW130515   2.978   5.194   3.324
 9872SOL    HW230516   2.957   5.159   3.166
 9873SOL     OW30517   2.099   2.440   1.261
 9873SOL    HW130518   2.077   2.537   1.268
 9873SOL    HW230519   2.108   2.401   1.352
 9874SOL     OW30520   0.809   2.542   4.241
 9874SOL    HW130521   0.809   2.459   4.185
 9874SOL    HW230522   0.870   2.529   4.320
 9875SOL     OW30523   0.396   6.753   2.127
 9875SOL    HW130524   0.352   6.754   2.037
 9875SOL    HW230525   0.433   6.845   2.146
 9876SOL     OW30526   0.079   0.857   1.851
 9876SOL    HW130527   7.013   0.806   1.861
 9876SOL    HW230528   0.089   0.922   1.927
 9877SOL     OW30529   1.404   5.997   2.815
 9877SOL    HW130530   1.353   6.080   2.840
 9877SOL    HW230531   1.367   5.958   2.731
 9878SOL     OW30532   2.247   5.160   4.786
 9878SOL    HW130533   2.310   5.237   4.777
 9878SOL    HW230534   2.218   5.152   4.882
 9879SOL     OW30535   5.890   5.136   4.948
 9879SOL    HW130536   5.811   5.155   5.006
 9879SOL    HW230537   5.934   5.051   4.977
 9880SOL     OW30538   1.797   2.051   5.572
 9880SOL    HW130539   1.751   2.048   5.661
 9880SOL    HW230540   1.733   2.022   5.500
 9881SOL     OW30541   1.938   1.516   4.915
 9881SOL    HW130542   2.018   1.575   4.932
 9881SOL    HW230543   1.855   1.570   4.926
 9882SOL     OW30544   0.764   2.158   3.751
 9882SOL    HW130545   0.795   2.248   3.721
 9882SOL    HW230546   0.664   2.154   3.747
 9883SOL     OW30547   1.483   5.337   0.271
 9883SOL    HW130548   1.449   5.344   0.364
 9883SOL    HW230549   1.409   5.352   0.206
 9884SOL     OW30550   4.327   1.692   3.257
 9884SOL    HW130551   4.349   1.655   3.347
 9884SOL    HW230552   4.252   1.758   3.266
 9885SOL     OW30553   0.371   3.367   5.431
 9885SOL    HW130554   0.422   3.401   5.352
 9885SOL    HW230555   0.425   3.296   5.477
 9886SOL     OW30556   0.799   4.087   1.994
 9886SOL    HW130557   0.713   4.123   2.030
 9886SOL    HW230558   0.866   4.161   1.989
 9887SOL     OW30559   2.892   1.694   6.523
 9887SOL    HW130560   2.976   1.666   6.569
 9887SOL    HW230561   2.912   1.766   6.457
 9888SOL     OW30562   6.830   4.304   1.547
 9888SOL    HW130563   6.846   4.209   1.519
 9888SOL    HW230564   6.777   4.351   1.477
 9889SOL     OW30565   6.406   4.815   1.468
 9889SOL    HW130566   6.310   4.840   1.478
 9889SOL    HW230567   6.464   4.894   1.487
 9890SOL     OW30568   1.437   2.221   0.152
 9890SOL    HW130569   1.526   2.185   0.179
 9890SOL    HW230570   1.411   2.295   0.215
 9891SOL     OW30571   5.491   3.147   1.293
 9891SOL    HW130572   5.402   3.143   1.338
 9891SOL    HW230573   5.562   3.118   1.357
 9892SOL     OW30574   6.771   5.295   0.462
 9892SOL    HW130575   6.711   5.285   0.541
 9892SOL    HW230576   6.788   5.206   0.422
 9893SOL     OW30577   1.313   0.029   0.891
 9893SOL    HW130578   1.310   0.095   0.966
 9893SOL    HW230579   1.224   7.005   0.880
 9894SOL     OW30580   1.932   2.058   1.653
 9894SOL    HW130581   1.968   1.977   1.607
 9894SOL    HW230582   1.976   2.068   1.743
 9895SOL     OW30583   5.928   3.451   5.477
 9895SOL    HW130584   5.971   3.405   5.399
 9895SOL    HW230585   5.857   3.392   5.515
 9896SOL     OW30586   6.097   0.079   5.956
 9896SOL    HW130587   6.083   0.004   6.020
 9896SOL    HW230588   6.110   0.042   5.864
 9897SOL     OW30589   6.069   5.514   3.892
 9897SOL    HW130590   6.122   5.566   3.824
 9897SOL    HW230591   6.091   5.546   3.983
 9898SOL     OW30592   2.178   6.347   5.401
 9898SOL    HW130593   2.276   6.348   5.420
 9898SOL    HW230594   2.129   6.384   5.480
 9899SOL     OW30595   0.279   5.549   6.839
 9899SOL    HW130596   0.253   5.508   6.927
 9899SOL    HW230597   0.217   5.515   6.768
 9900SOL     OW30598   1.817   3.642   3.415
 9900SOL    HW130599   1.881   3.719   3.410
 9900SOL    HW230600   1.850   3.577   3.484
 9901SOL     OW30601   3.301   1.694   6.302
 9901SOL    HW130602   3.270   1.786   6.327
 9901SOL    HW230603   3.360   1.699   6.222
 9902SOL     OW30604   3.244   4.604   0.353
 9902SOL    HW130605   3.264   4.509   0.377
 9902SOL    HW230606   3.150   4.611   0.319
 9903SOL     OW30607   4.932   1.309   1.548
 9903SOL    HW130608   5.009   1.337   1.490
 9903SOL    HW230609   4.878   1.241   1.499
 9904SOL     OW30610   0.589   3.684   0.190
 9904SOL    HW130611   0.534   3.759   0.227
 9904SOL    HW230612   0.685   3.711   0.189
 9905SOL     OW30613   2.545   0.678   6.752
 9905SOL    HW130614   2.636   0.709   6.782
 9905SOL    HW230615   2.477   0.746   6.780
 9906SOL     OW30616   3.016   2.971   1.873
 9906SOL    HW130617   3.005   3.038   1.800
 9906SOL    HW230618   3.113   2.958   1.892
 9907SOL     OW30619   6.615   0.518   0.587
 9907SOL    HW130620   6.526   0.561   0.568
 9907SOL    HW230621   6.684   0.589   0.599
 9908SOL     OW30622   5.708   1.660   4.081
 9908SOL    HW130623   5.769   1.608   4.142
 9908SOL    HW230624   5.653   1.724   4.135
 9909SOL     OW30625   3.987   0.641   3.921
 9909SOL    HW130626   4.077   0.609   3.950
 9909SOL    HW230627   3.919   0.612   3.988
 9910SOL     OW30628   1.464   3.669   2.854
 9910SOL    HW130629   1.491   3.697   2.946
 9910SOL    HW230630   1.532   3.605   2.817
 9911SOL     OW30631   3.223   6.189   2.029
 9911SOL    HW130632   3.167   6.159   2.106
 9911SOL    HW230633   3.172   6.256   1.975
 9912SOL     OW30634   3.992   1.362   2.126
 9912SOL    HW130635   4.051   1.361   2.045
 9912SOL    HW230636   3.948   1.451   2.135
 9913SOL     OW30637   6.384   4.395   0.889
 9913SOL    HW130638   6.449   4.361   0.957
 9913SOL    HW230639   6.299   4.421   0.934
 9914SOL     OW30640   5.594   2.449   4.778
 9914SOL    HW130641   5.552   2.479   4.864
 9914SOL    HW230642   5.554   2.500   4.702
 9915SOL     OW30643   5.532   0.968   3.861
 9915SOL    HW130644   5.483   0.881   3.868
 9915SOL    HW230645   5.574   0.990   3.949
 9916SOL     OW30646   1.666   2.140   3.207
 9916SOL    HW130647   1.614   2.170   3.287
 9916SOL    HW230648   1.761   2.170   3.217
 9917SOL     OW30649   5.850   3.988   0.255
 9917SOL    HW130650   5.935   4.038   0.274
 9917SOL    HW230651   5.872   3.898   0.220
 9918SOL     OW30652   2.883   1.412   3.347
 9918SOL    HW130653   2.816   1.402   3.274
 9918SOL    HW230654   2.836   1.430   3.433
 9919SOL     OW30655   6.441   5.126   1.242
 9919SOL    HW130656   6.405   5.035   1.224
 9919SOL    HW230657   6.369   5.194   1.227
 9920SOL     OW30658   5.221   1.658   2.336
 9920SOL    HW130659   5.151   1.705   2.282
 9920SOL    HW230660   5.181   1.626   2.422
 9921SOL     OW30661   4.325   0.051   6.015
 9921SOL    HW130662   4.251   0.052   5.948
 9921SOL    HW230663   4.332   6.979   6.056
 9922SOL     OW30664   2.131   4.525   0.748
 9922SOL    HW130665   2.213   4.472   0.726
 9922SOL    HW230666   2.137   4.615   0.705
 9923SOL     OW30667   4.831   4.438   0.082
 9923SOL    HW130668   4.783   4.525   0.068
 9923SOL    HW230669   4.925   4.447   0.049
 9924SOL     OW30670   6.479   2.141   4.787
 9924SOL    HW130671   6.396   2.093   4.814
 9924SOL    HW230672   6.465   2.186   4.699
 9925SOL     OW30673   6.494   3.461   3.884
 9925SOL    HW130674   6.494   3.481   3.786
 9925SOL    HW230675   6.581   3.418   3.908
 9926SOL     OW30676   4.087   2.715   0.829
 9926SOL    HW130677   4.087   2.805   0.785
 9926SOL    HW230678   4.071   2.644   0.760
 9927SOL     OW30679   6.598   6.724   0.917
 9927SOL    HW130680   6.671   6.792   0.932
 9927SOL    HW230681   6.626   6.661   0.844
 9928SOL     OW30682   5.474   5.647   1.882
 9928SOL    HW130683   5.503   5.738   1.853
 9928SOL    HW230684   5.460   5.646   1.981
 9929SOL     OW30685   3.088   5.140   4.977
 9929SOL    HW130686   3.114   5.169   5.069
 9929SOL    HW230687   2.988   5.140   4.969
 9930SOL     OW30688   6.898   7.019   4.485
 9930SOL    HW130689   6.904   6.925   4.452
 9930SOL    HW230690   6.836   0.003   4.564
 9931SOL     OW30691   0.910   4.694   4.473
 9931SOL    HW130692   0.949   4.726   4.559
 9931SOL    HW230693   0.981   4.650   4.418
 9932SOL     OW30694   2.246   5.471   6.947
 9932SOL    HW130695   2.280   5.560   6.916
 9932SOL    HW230696   2.146   5.475   6.954
 9933SOL     OW30697   1.243   5.255   4.068
 9933SOL    HW130698   1.214   5.211   4.153
 9933SOL    HW230699   1.229   5.192   3.991
 9934SOL     OW30700   5.174   1.303   5.375
 9934SOL    HW130701   5.256   1.246   5.368
 9934SOL    HW230702   5.200   1.399   5.362
 9935SOL     OW30703   2.860   6.657   0.357
 9935SOL    HW130704   2.918   6.737   0.343
 9935SOL    HW230705   2.820   6.630   0.270
 9936SOL     OW30706   6.708   5.108   6.534
 9936SOL    HW130707   6.620   5.120   6.488
 9936SOL    HW230708   6.779   5.160   6.486
 9937SOL     OW30709   6.782   1.507   0.175
 9937SOL    HW130710   6.718   1.476   0.104
 9937SOL    HW230711   6.823   1.428   0.220
 9938SOL     OW30712   6.992   5.327   2.336
 9938SOL    HW130713   0.012   5.255   2.392
 9938SOL    HW230714   6.949   5.395   2.394
 9939SOL     OW30715   4.327   2.394   1.069
 9939SOL    HW130716   4.371   2.427   1.152
 9939SOL    HW230717   4.393   2.342   1.015
 9940SOL     OW30718   0.818   0.737   1.273
 9940SOL    HW130719   0.839   0.812   1.210
 9940SOL    HW230720   0.848   0.761   1.365
 9941SOL     OW30721   2.929   4.061   5.699
 9941SOL    HW130722   2.923   3.976   5.645
 9941SOL    HW230723   2.927   4.139   5.637
 9942SOL     OW30724   2.472   5.153   2.232
 9942SOL    HW130725   2.554   5.113   2.193
 9942SOL    HW230726   2.464   5.249   2.204
 9943SOL     OW30727   6.981   5.173   5.389
 9943SOL    HW130728   6.925   5.193   5.309
 9943SOL    HW230729   0.013   5.256   5.415
 9944SOL     OW30730   2.022   4.247   6.444
 9944SOL    HW130731   1.924   4.255   6.462
 9944SOL    HW230732   2.062   4.177   6.503
 9945SOL     OW30733   6.381   5.169   6.508
 9945SOL    HW130734   6.347   5.218   6.589
 9945SOL    HW230735   6.419   5.234   6.443
 9946SOL     OW30736   4.769   1.022   4.103
 9946SOL    HW130737   4.866   1.037   4.120
 9946SOL    HW230738   4.725   0.988   4.186
 9947SOL     OW30739   1.379   3.320   5.011
 9947SOL    HW130740   1.399   3.275   4.924
 9947SOL    HW230741   1.283   3.303   5.036
 9948SOL     OW30742   5.263   4.836   4.454
 9948SOL    HW130743   5.242   4.798   4.364
 9948SOL    HW230744   5.361   4.826   4.473
 9949SOL     OW30745   6.083   4.967   3.930
 9949SOL    HW130746   6.078   4.905   3.852
 9949SOL    HW230747   6.148   5.040   3.910
 9950SOL     OW30748   5.753   6.400   4.997
 9950SOL    HW130749   5.844   6.403   4.955
 9950SOL    HW230750   5.683   6.392   4.927
 9951SOL     OW30751   6.127   1.290   4.929
 9951SOL    HW130752   6.209   1.310   4.982
 9951SOL    HW230753   6.046   1.311   4.984
 9952SOL     OW30754   0.948   3.267   1.304
 9952SOL    HW130755   0.897   3.223   1.378
 9952SOL    HW230756   0.900   3.351   1.276
 9953SOL     OW30757   6.360   2.541   3.993
 9953SOL    HW130758   6.452   2.530   4.030
 9953SOL    HW230759   6.322   2.628   4.024
 9954SOL     OW30760   6.096   0.431   6.109
 9954SOL    HW130761   6.178   0.488   6.117
 9954SOL    HW230762   6.120   0.345   6.063
 9955SOL     OW30763   6.248   3.731   5.569
 9955SOL    HW130764   6.280   3.755   5.478
 9955SOL    HW230765   6.322   3.686   5.620
 9956SOL     OW30766   1.559   7.016   1.662
 9956SOL    HW130767   1.537   6.993   1.757
 9956SOL    HW230768   1.553   6.934   1.606
 9957SOL     OW30769   5.593   5.611   2.837
 9957SOL    HW130770   5.606   5.598   2.936
 9957SOL    HW230771   5.525   5.683   2.822
 9958SOL     OW30772   3.356   5.244   1.262
 9958SOL    HW130773   3.258   5.251   1.239
 9958SOL    HW230774   3.411   5.274   1.184
 9959SOL     OW30775   4.208   3.616   5.414
 9959SOL    HW130776   4.285   3.571   5.460
 9959SOL    HW230777   4.193   3.573   5.325
 9960SOL     OW30778   6.645   6.688   2.378
 9960SOL    HW130779   6.719   6.729   2.431
 9960SOL    HW230780   6.673   6.597   2.348
 9961SOL     OW30781   1.544   5.291   3.661
 9961SOL    HW130782   1.556   5.343   3.746
 9961SOL    HW230783   1.570   5.196   3.677
 9962SOL     OW30784   6.716   0.138   2.795
 9962SOL    HW130785   6.640   0.116   2.858
 9962SOL    HW230786   6.800   0.097   2.830
 9963SOL     OW30787   3.140   2.548   0.011
 9963SOL    HW130788   3.146   2.467   6.972
 9963SOL    HW230789   3.198   2.534   0.092
 9964SOL     OW30790   4.692   5.186   5.213
 9964SOL    HW130791   4.697   5.100   5.263
 9964SOL    HW230792   4.689   5.167   5.115
 9965SOL     OW30793   3.757   6.797   6.995
 9965SOL    HW130794   3.724   6.761   6.908
 9965SOL    HW230795   3.850   6.833   6.983
 9966SOL     OW30796   1.585   5.210   1.646
 9966SOL    HW130797   1.681   5.236   1.633
 9966SOL    HW230798   1.550   5.170   1.561
 9967SOL     OW30799   0.004   6.025   2.181
 9967SOL    HW130800   0.087   6.080   2.191
 9967SOL    HW230801   0.025   5.945   2.125
 9968SOL     OW30802   3.292   3.689   1.197
 9968SOL    HW130803   3.381   3.711   1.236
 9968SOL    HW230804   3.299   3.606   1.142
 9969SOL     OW30805   1.605   2.985   2.088
 9969SOL    HW130806   1.640   3.024   2.003
 9969SOL    HW230807   1.520   2.936   2.070
 9970SOL     OW30808   4.786   4.161   3.003
 9970SOL    HW130809   4.877   4.203   3.004
 9970SOL    HW230810   4.795   4.063   3.024
 9971SOL     OW30811   1.848   5.080   1.231
 9971SOL    HW130812   1.883   5.005   1.175
 9971SOL    HW230813   1.749   5.070   1.243
 9972SOL     OW30814   5.558   5.090   1.255
 9972SOL    HW130815   5.608   5.005   1.270
 9972SOL    HW230816   5.624   5.165   1.246
 9973SOL     OW30817   6.083   1.591   3.679
 9973SOL    HW130818   6.139   1.556   3.754
 9973SOL    HW230819   6.126   1.568   3.592
 9974SOL     OW30820   1.373   2.239   2.822
 9974SOL    HW130821   1.326   2.158   2.788
 9974SOL    HW230822   1.449   2.262   2.762
 9975SOL     OW30823   5.927   3.621   0.607
 9975SOL    HW130824   5.961   3.712   0.584
 9975SOL    HW230825   5.966   3.593   0.695
 9976SOL     OW30826   1.182   6.408   5.465
 9976SOL    HW130827   1.260   6.360   5.506
 9976SOL    HW230828   1.118   6.341   5.427
 9977SOL     OW30829   6.784   5.668   5.478
 9977SOL    HW130830   6.826   5.728   5.410
 9977SOL    HW230831   6.709   5.617   5.437
 9978SOL     OW30832   1.015   2.762   4.594
 9978SOL    HW130833   0.925   2.795   4.621
 9978SOL    HW230834   1.059   2.831   4.535
 9979SOL     OW30835   6.523   4.936   5.711
 9979SOL    HW130836   6.529   4.837   5.710
 9979SOL    HW230837   6.608   4.975   5.675
 9980SOL     OW30838   2.144   0.590   6.671
 9980SOL    HW130839   2.206   0.515   6.648
 9980SOL    HW230840   2.073   0.597   6.601
 9981SOL     OW30841   2.631   1.547   2.961
 9981SOL    HW130842   2.692   1.586   3.030
 9981SOL    HW230843   2.537   1.577   2.979
 9982SOL     OW30844   6.367   6.033   4.250
 9982SOL    HW130845   6.420   6.095   4.309
 9982SOL    HW230846   6.428   5.989   4.185
 9983SOL     OW30847   6.955   2.084   2.665
 9983SOL    HW130848   0.033   2.069   2.677
 9983SOL    HW230849   6.934   2.097   2.568
 9984SOL     OW30850   2.587   1.006   0.000
 9984SOL    HW130851   2.559   1.102   0.002
 9984SOL    HW230852   2.686   1.001   0.010
 9985SOL     OW30853   1.490   0.615   0.795
 9985SOL    HW130854   1.575   0.658   0.764
 9985SOL    HW230855   1.425   0.685   0.824
 9986SOL     OW30856   6.067   4.412   5.752
 9986SOL    HW130857   6.003   4.372   5.687
 9986SOL    HW230858   6.041   4.507   5.771
 9987SOL     OW30859   6.860   3.007   4.459
 9987SOL    HW130860   6.835   3.077   4.526
 9987SOL    HW230861   6.949   3.030   4.418
 9988SOL     OW30862   0.340   5.941   4.338
 9988SOL    HW130863   0.344   6.030   4.292
 9988SOL    HW230864   0.259   5.891   4.306
 9989SOL     OW30865   6.756   3.313   3.905
 9989SOL    HW130866   6.761   3.237   3.840
 9989SOL    HW230867   6.847   3.356   3.913
 9990SOL     OW30868   2.038   5.030   3.336
 9990SOL    HW130869   2.065   5.028   3.239
 9990SOL    HW230870   1.985   4.948   3.357
 9991SOL     OW30871   2.790   2.082   4.059
 9991SOL    HW130872   2.698   2.119   4.074
 9991SOL    HW230873   2.784   1.983   4.048
 9992SOL     OW30874   5.652   4.896   0.260
 9992SOL    HW130875   5.579   4.961   0.240
 9992SOL    HW230876   5.740   4.944   0.266
 9993SOL     OW30877   2.974   0.965   0.815
 9993SOL    HW130878   2.893   0.905   0.813
 9993SOL    HW230879   2.944   1.061   0.811
 9994SOL     OW30880   5.974   4.631   2.989
 9994SOL    HW130881   5.951   4.548   3.038
 9994SOL    HW230882   6.045   4.681   3.039
 9995SOL     OW30883   4.780   1.739   3.208
 9995SOL    HW130884   4.727   1.757   3.290
 9995SOL    HW230885   4.782   1.822   3.151
 9996SOL     OW30886   3.115   3.898   0.042
 9996SOL    HW130887   3.154   3.810   0.070
 9996SOL    HW230888   3.145   3.969   0.106
 9997SOL     OW30889   2.993   1.594   5.793
 9997SOL    HW130890   2.899   1.589   5.825
 9997SOL    HW230891   2.995   1.620   5.696
 9998SOL     OW30892   6.091   5.034   5.827
 9998SOL    HW130893   6.162   5.085   5.777
 9998SOL    HW230894   6.006   5.087   5.826
 9999SOL     OW30895   6.396   2.988   6.076
 9999SOL    HW130896   6.394   3.036   6.164
 9999SOL    HW230897   6.350   3.043   6.007
10000SOL     OW30898   6.691   4.327   6.766
10000SOL    HW130899   6.729   4.277   6.688
10000SOL    HW230900   6.734   4.294   6.850
10001SOL     OW30901   4.509   0.015   2.115
10001SOL    HW130902   4.516   6.958   2.179
10001SOL    HW230903   4.582   0.081   2.134
10002SOL     OW30904   1.553   6.683   1.637
10002SOL    HW130905   1.465   6.720   1.607
10002SOL    HW230906   1.595   6.631   1.563
10003SOL     OW30907   3.470   2.143   3.788
10003SOL    HW130908   3.390   2.190   3.749
10003SOL    HW230909   3.553   2.176   3.743
10004SOL     OW30910   6.926   2.678   4.343
10004SOL    HW130911   6.910   2.588   4.383
10004SOL    HW230912   6.840   2.728   4.336
10005SOL     OW30913   5.788   0.655   4.001
10005SOL    HW130914   5.879   0.664   4.042
10005SOL    HW230915   5.736   0.587   4.052
10006SOL     OW30916   4.956   6.151   4.060
10006SOL    HW130917   4.858   6.161   4.078
10006SOL    HW230918   4.991   6.070   4.108
10007SOL     OW30919   0.383   4.010   5.133
10007SOL    HW130920   0.426   3.963   5.210
10007SOL    HW230921   0.451   4.026   5.062
10008SOL     OW30922   4.006   1.105   5.043
10008SOL    HW130923   4.004   1.086   5.141
10008SOL    HW230924   3.966   1.027   4.993
10009SOL     OW30925   1.854   3.212   2.165
10009SOL    HW130926   1.869   3.256   2.076
10009SOL    HW230927   1.915   3.253   2.233
10010SOL     OW30928   2.328   1.202   6.163
10010SOL    HW130929   2.262   1.170   6.231
10010SOL    HW230930   2.404   1.138   6.159
10011SOL     OW30931   6.710   0.581   5.755
10011SOL    HW130932   6.802   0.601   5.720
10011SOL    HW230933   6.642   0.632   5.702
10012SOL     OW30934   6.156   0.525   2.774
10012SOL    HW130935   6.098   0.602   2.746
10012SOL    HW230936   6.194   0.481   2.692
10013SOL     OW30937   0.553   0.932   3.119
10013SOL    HW130938   0.634   0.974   3.078
10013SOL    HW230939   0.471   0.970   3.077
10014SOL     OW30940   0.536   4.160   6.612
10014SOL    HW130941   0.630   4.158   6.646
10014SOL    HW230942   0.535   4.137   6.515
10015SOL     OW30943   2.413   4.794   0.915
10015SOL    HW130944   2.489   4.813   0.852
10015SOL    HW230945   2.327   4.807   0.867
10016SOL     OW30946   1.018   1.538   6.201
10016SOL    HW130947   0.989   1.443   6.190
10016SOL    HW230948   1.115   1.547   6.178
10017SOL     OW30949   3.206   2.165   3.694
10017SOL    HW130950   3.161   2.202   3.612
10017SOL    HW230951   3.137   2.121   3.752
10018SOL     OW30952   5.076   0.200   6.828
10018SOL    HW130953   5.125   0.193   6.915
10018SOL    HW230954   5.125   0.262   6.767
10019SOL     OW30955   1.147   1.580   3.135
10019SOL    HW130956   1.186   1.616   3.220
10019SOL    HW230957   1.089   1.501   3.156
10020SOL     OW30958   0.922   2.201   1.577
10020SOL    HW130959   0.977   2.191   1.660
10020SOL    HW230960   0.949   2.285   1.529
10021SOL     OW30961   6.896   3.363   1.209
10021SOL    HW130962   6.799   3.346   1.190
10021SOL    HW230963   6.947   3.277   1.199
10022SOL     OW30964   2.690   1.569   5.738
10022SOL    HW130965   2.711   1.659   5.776
10022SOL    HW230966   2.590   1.557   5.736
10023SOL     OW30967   6.701   4.831   0.641
10023SOL    HW130968   6.668   4.845   0.548
10023SOL    HW230969   6.678   4.738   0.672
10024SOL     OW30970   1.441   6.132   3.435
10024SOL    HW130971   1.469   6.052   3.488
10024SOL    HW230972   1.522   6.183   3.407
10025SOL     OW30973   1.737   0.660   1.298
10025SOL    HW130974   1.795   0.624   1.224
10025SOL    HW230975   1.780   0.740   1.338
10026SOL     OW30976   5.493   0.268   3.936
10026SOL    HW130977   5.488   0.313   4.026
10026SOL    HW230978   5.401   0.240   3.908
10027SOL     OW30979   5.529   2.947   4.420
10027SOL    HW130980   5.528   3.035   4.371
10027SOL    HW230981   5.513   2.873   4.355
10028SOL     OW30982   1.066   0.617   0.972
10028SOL    HW130983   1.029   0.709   0.968
10028SOL    HW230984   1.113   0.596   0.886
10029SOL     OW30985   5.716   1.913   3.469
10029SOL    HW130986   5.703   2.009   3.494
10029SOL    HW230987   5.809   1.885   3.491
10030SOL     OW30988   1.996   0.521   3.246
10030SOL    HW130989   1.973   0.608   3.290
10030SOL    HW230990   1.947   0.447   3.291
10031SOL     OW30991   5.716   4.731   3.580
10031SOL    HW130992   5.642   4.717   3.514
10031SOL    HW230993   5.749   4.643   3.612
10032SOL     OW30994   2.822   1.451   5.256
10032SOL    HW130995   2.785   1.544   5.248
10032SOL    HW230996   2.818   1.422   5.352
10033SOL     OW30997   6.374   3.170   4.425
10033SOL    HW130998   6.339   3.207   4.338
10033SOL    HW230999   6.456   3.219   4.452
10034SOL     OW31000   3.496   0.690   4.347
10034SOL    HW131001   3.579   0.636   4.334
10034SOL    HW231002   3.446   0.656   4.427
10035SOL     OW31003   6.420   5.144   2.033
10035SOL    HW131004   6.334   5.196   2.034
10035SOL    HW231005   6.497   5.207   2.022
10036SOL     OW31006   6.438   2.088   0.493
10036SOL    HW131007   6.426   2.019   0.421
10036SOL    HW231008   6.491   2.165   0.458
10037SOL     OW31009   6.518   1.413   6.352
10037SOL    HW131010   6.431   1.408   6.303
10037SOL    HW231011   6.540   1.509   6.370
10038SOL     OW31012   6.557   6.944   0.727
10038SOL    HW131013   6.557   6.878   0.803
10038SOL    HW231014   6.484   6.920   0.663
10039SOL     OW31015   3.058   6.808   3.726
10039SOL    HW131016   2.958   6.809   3.733
10039SOL    HW231017   3.094   6.731   3.780
10040SOL     OW31018   6.056   4.130   0.337
10040SOL    HW131019   6.109   4.083   0.408
10040SOL    HW231020   6.053   4.228   0.357
10041SOL     OW31021   3.459   6.525   0.353
10041SOL    HW131022   3.463   6.600   0.420
10041SOL    HW231023   3.539   6.531   0.293
10042SOL     OW31024   6.831   2.066   3.286
10042SOL    HW131025   6.804   2.135   3.218
10042SOL    HW231026   6.759   2.058   3.356
10043SOL     OW31027   6.665   2.033   5.921
10043SOL    HW131028   6.708   2.102   5.863
10043SOL    HW231029   6.574   2.012   5.885
10044SOL     OW31030   2.747   2.996   5.993
10044SOL    HW131031   2.802   3.056   5.935
10044SOL    HW231032   2.730   2.910   5.944
10045SOL     OW31033   4.480   0.872   0.838
10045SOL    HW131034   4.560   0.830   0.795
10045SOL    HW231035   4.415   0.900   0.767
10046SOL     OW31036   1.246   4.496   1.429
10046SOL    HW131037   1.146   4.492   1.424
10046SOL    HW231038   1.274   4.589   1.453
10047SOL     OW31039   1.117   3.171   6.198
10047SOL    HW131040   1.183   3.205   6.266
10047SOL    HW231041   1.093   3.077   6.220
10048SOL     OW31042   0.013   6.593   2.696
10048SOL    HW131043   0.081   6.524   2.670
10048SOL    HW231044   6.949   6.547   2.727
10049SOL     OW31045   0.184   2.768   5.931
10049SOL    HW131046   0.098   2.775   5.879
10049SOL    HW231047   0.173   2.813   6.019
10050SOL     OW31048   4.934   3.457   5.191
10050SOL    HW131049   4.874   3.523   5.145
10050SOL    HW231050   5.006   3.429   5.128
10051SOL     OW31051   1.040   4.004   4.575
10051SOL    HW131052   1.036   4.095   4.534
10051SOL    HW231053   1.136   3.979   4.593
10052SOL     OW31054   0.971   0.867   3.379
10052SOL    HW131055   1.055   0.863   3.434
10052SOL    HW231056   0.995   0.876   3.283
10053SOL     OW31057   4.851   5.250   4.561
10053SOL    HW131058   4.755   5.245   4.589
10053SOL    HW231059   4.858   5.230   4.463
10054SOL     OW31060   5.514   3.892   4.869
10054SOL    HW131061   5.452   3.831   4.820
10054SOL    HW231062   5.514   3.868   4.966
10055SOL     OW31063   6.578   2.290   6.646
10055SOL    HW131064   6.532   2.323   6.564
10055SOL    HW231065   6.677   2.293   6.631
10056SOL     OW31066   5.383   3.418   3.252
10056SOL    HW131067   5.331   3.361   3.188
10056SOL    HW231068   5.333   3.424   3.339
10057SOL     OW31069   5.267   4.522   6.224
10057SOL    HW131070   5.293   4.557   6.134
10057SOL    HW231071   5.213   4.591   6.272
10058SOL     OW31072   6.200   2.781   5.182
10058SOL    HW131073   6.244   2.810   5.097
10058SOL    HW231074   6.254   2.710   5.226
10059SOL     OW31075   6.815   1.194   0.085
10059SOL    HW131076   6.744   1.144   0.034
10059SOL    HW231077   6.904   1.177   0.043
10060SOL     OW31078   2.363   1.897   2.449
10060SOL    HW131079   2.445   1.939   2.411
10060SOL    HW231080   2.296   1.968   2.470
10061SOL     OW31081   3.620   0.973   3.478
10061SOL    HW131082   3.683   0.902   3.447
10061SOL    HW231083   3.631   0.985   3.577
10062SOL     OW31084   0.816   0.280   3.931
10062SOL    HW131085   0.798   0.376   3.912
10062SOL    HW231086   0.736   0.240   3.978
10063SOL     OW31087   1.607   2.856   5.039
10063SOL    HW131088   1.554   2.931   5.079
10063SOL    HW231089   1.697   2.852   5.081
10064SOL     OW31090   2.976   6.340   0.624
10064SOL    HW131091   3.045   6.336   0.552
10064SOL    HW231092   2.886   6.324   0.584
10065SOL     OW31093   0.901   0.890   2.061
10065SOL    HW131094   0.874   0.923   2.152
10065SOL    HW231095   0.864   0.799   2.046
10066SOL     OW31096   6.669   3.728   4.746
10066SOL    HW131097   6.721   3.813   4.747
10066SOL    HW231098   6.572   3.748   4.737
10067SOL     OW31099   0.397   2.324   5.775
10067SOL    HW131100   0.467   2.346   5.707
10067SOL    HW231101   0.361   2.408   5.815
10068SOL     OW31102   2.315   2.870   2.858
10068SOL    HW131103   2.368   2.903   2.936
10068SOL    HW231104   2.311   2.771   2.860
10069SOL     OW31105   3.599   5.262   1.619
10069SOL    HW131106   3.665   5.335   1.637
10069SOL    HW231107   3.514   5.302   1.584
10070SOL     OW31108   3.131   5.851   4.969
10070SOL    HW131109   3.065   5.860   5.044
10070SOL    HW231110   3.166   5.757   4.968
10071SOL     OW31111   6.826   0.005   3.061
10071SOL    HW131112   6.812   0.076   3.130
10071SOL    HW231113   6.916   6.983   3.073
10072SOL     OW31114   6.716   1.733   2.286
10072SOL    HW131115   6.646   1.707   2.220
10072SOL    HW231116   6.778   1.656   2.302
10073SOL     OW31117   6.027   3.223   4.602
10073SOL    HW131118   6.022   3.153   4.531
10073SOL    HW231119   6.102   3.202   4.665
10074SOL     OW31120   1.794   4.704   0.580
10074SOL    HW131121   1.860   4.650   0.529
10074SOL    HW231122   1.709   4.652   0.592
10075SOL     OW31123   1.614   2.751   2.259
10075SOL    HW131124   1.577   2.796   2.340
10075SOL    HW231125   1.650   2.821   2.196
10076SOL     OW31126   5.343   4.992   3.109
10076SOL    HW131127   5.368   5.054   3.183
10076SOL    HW231128   5.300   5.044   3.035
10077SOL     OW31129   6.625   3.250   6.884
10077SOL    HW131130   6.584   3.248   6.976
10077SOL    HW231131   6.650   3.344   6.861
10078SOL     OW31132   0.115   6.203   5.070
10078SOL    HW131133   0.041   6.257   5.110
10078SOL    HW231134   0.082   6.111   5.048
10079SOL     OW31135   4.990   2.763   2.970
10079SOL    HW131136   5.007   2.852   2.929
10079SOL    HW231137   5.008   2.691   2.903
10080SOL     OW31138   5.613   0.557   6.084
10080SOL    HW131139   5.549   0.542   6.159
10080SOL    HW231140   5.707   0.545   6.117
10081SOL     OW31141   1.775   2.526   0.901
10081SOL    HW131142   1.754   2.566   0.990
10081SOL    HW231143   1.761   2.595   0.829
10082SOL     OW31144   1.156   4.435   2.441
10082SOL    HW131145   1.206   4.418   2.526
10082SOL    HW231146   1.072   4.381   2.440
10083SOL     OW31147   4.173   5.300   3.669
10083SOL    HW131148   4.174   5.364   3.746
10083SOL    HW231149   4.267   5.286   3.637
10084SOL     OW31150   1.035   0.435   5.088
10084SOL    HW131151   0.946   0.455   5.128
10084SOL    HW231152   1.027   0.429   4.989
10085SOL     OW31153   4.149   6.742   0.377
10085SOL    HW131154   4.086   6.756   0.301
10085SOL    HW231155   4.103   6.761   0.464
10086SOL     OW31156   6.895   5.922   1.545
10086SOL    HW131157   6.867   5.996   1.484
10086SOL    HW231158   6.814   5.870   1.574
10087SOL     OW31159   1.632   6.765   4.803
10087SOL    HW131160   1.724   6.726   4.796
10087SOL    HW231161   1.638   6.865   4.799
10088SOL     OW31162   6.836   3.032   0.229
10088SOL    HW131163   6.753   2.977   0.218
10088SOL    HW231164   6.832   3.111   0.169
10089SOL     OW31165   3.914   1.608   2.179
10089SOL    HW131166   3.967   1.687   2.147
10089SOL    HW231167   3.834   1.640   2.230
10090SOL     OW31168   1.538   6.144   1.108
10090SOL    HW131169   1.585   6.189   1.032
10090SOL    HW231170   1.570   6.050   1.117
10091SOL     OW31171   6.520   4.429   6.054
10091SOL    HW131172   6.534   4.457   5.959
10091SOL    HW231173   6.460   4.349   6.056
10092SOL     OW31174   0.291   2.480   5.375
10092SOL    HW131175   0.348   2.549   5.332
10092SOL    HW231176   0.196   2.512   5.378
10093SOL     OW31177   5.564   4.610   5.872
10093SOL    HW131178   5.580   4.552   5.952
10093SOL    HW231179   5.607   4.569   5.792
10094SOL     OW31180   3.125   1.052   1.095
10094SOL    HW131181   3.190   1.096   1.033
10094SOL    HW231182   3.117   0.955   1.071
10095SOL     OW31183   4.848   2.557   5.134
10095SOL    HW131184   4.866   2.469   5.091
10095SOL    HW231185   4.784   2.544   5.210
10096SOL     OW31186   4.879   1.248   3.166
10096SOL    HW131187   4.850   1.337   3.202
10096SOL    HW231188   4.967   1.258   3.120
10097SOL     OW31189   1.304   1.462   6.831
10097SOL    HW131190   1.290   1.558   6.858
10097SOL    HW231191   1.392   1.453   6.784
10098SOL     OW31192   3.777   5.156   3.823
10098SOL    HW131193   3.752   5.161   3.919
10098SOL    HW231194   3.810   5.246   3.792
10099SOL     OW31195   6.862   4.565   1.928
10099SOL    HW131196   6.781   4.581   1.873
10099SOL    HW231197   6.942   4.603   1.882
10100SOL     OW31198   4.732   5.457   4.745
10100SOL    HW131199   4.830   5.438   4.751
10100SOL    HW231200   4.714   5.517   4.666
10101SOL     OW31201   1.144   2.112   1.233
10101SOL    HW131202   1.228   2.073   1.269
10101SOL    HW231203   1.163   2.199   1.188
10102SOL     OW31204   6.363   6.076   1.407
10102SOL    HW131205   6.384   5.980   1.388
10102SOL    HW231206   6.439   6.116   1.459
10103SOL     OW31207   6.969   6.743   6.216
10103SOL    HW131208   7.013   6.724   6.304
10103SOL    HW231209   6.873   6.713   6.220
10104SOL     OW31210   2.162   0.654   5.098
10104SOL    HW131211   2.178   0.588   5.171
10104SOL    HW231212   2.249   0.679   5.055
10105SOL     OW31213   2.221   0.771   6.071
10105SOL    HW131214   2.208   0.813   5.981
10105SOL    HW231215   2.292   0.821   6.120
10106SOL     OW31216   4.489   5.954   1.413
10106SOL    HW131217   4.417   6.005   1.365
10106SOL    HW231218   4.477   5.966   1.512
10107SOL     OW31219   4.887   4.070   6.483
10107SOL    HW131220   4.875   4.001   6.412
10107SOL    HW231221   4.941   4.146   6.446
10108SOL     OW31222   1.802   2.622   0.478
10108SOL    HW131223   1.829   2.529   0.501
10108SOL    HW231224   1.705   2.634   0.498
10109SOL     OW31225   1.207   1.876   0.571
10109SOL    HW131226   1.220   1.898   0.668
10109SOL    HW231227   1.176   1.957   0.523
10110SOL     OW31228   4.988   6.343   2.712
10110SOL    HW131229   5.020   6.356   2.806
10110SOL    HW231230   4.994   6.429   2.662
10111SOL     OW31231   1.371   1.223   1.912
10111SOL    HW131232   1.344   1.311   1.873
10111SOL    HW231233   1.371   1.153   1.841
10112SOL     OW31234   6.431   2.041   3.552
10112SOL    HW131235   6.358   2.068   3.490
10112SOL    HW231236   6.401   1.963   3.607
10113SOL     OW31237   5.592   1.181   6.598
10113SOL    HW131238   5.691   1.169   6.592
10113SOL    HW231239   5.547   1.114   6.539
10114SOL     OW31240   4.492   1.848   2.361
10114SOL    HW131241   4.495   1.922   2.428
10114SOL    HW231242   4.558   1.778   2.386
10115SOL     OW31243   3.204   2.598   5.580
10115SOL    HW131244   3.222   2.530   5.508
10115SOL    HW231245   3.162   2.679   5.540
10116SOL     OW31246   6.327   0.114   4.848
10116SOL    HW131247   6.386   0.174   4.795
10116SOL    HW231248   6.285   0.046   4.787
10117SOL     OW31249   6.346   4.822   4.090
10117SOL    HW131250   6.418   4.851   4.153
10117SOL    HW231251   6.329   4.724   4.103
10118SOL     OW31252   3.574   5.217   4.279
10118SOL    HW131253   3.556   5.305   4.323
10118SOL    HW231254   3.492   5.160   4.283
10119SOL     OW31255   0.253   5.061   5.010
10119SOL    HW131256   0.268   5.084   5.107
10119SOL    HW231257   0.155   5.053   4.993
10120SOL     OW31258   2.276   2.708   2.346
10120SOL    HW131259   2.228   2.621   2.340
10120SOL    HW231260   2.263   2.747   2.437
10121SOL     OW31261   6.027   4.070   0.997
10121SOL    HW131262   6.122   4.056   0.972
10121SOL    HW231263   5.978   3.983   0.993
10122SOL     OW31264   1.467   0.512   3.861
10122SOL    HW131265   1.539   0.442   3.862
10122SOL    HW231266   1.407   0.499   3.782
10123SOL     OW31267   5.691   5.684   0.307
10123SOL    HW131268   5.787   5.660   0.323
10123SOL    HW231269   5.632   5.612   0.346
10124SOL     OW31270   1.467   4.347   2.882
10124SOL    HW131271   1.565   4.366   2.885
10124SOL    HW231272   1.438   4.311   2.971
10125SOL     OW31273   1.243   1.678   6.069
10125SOL    HW131274   1.235   1.775   6.089
10125SOL    HW231275   1.166   1.648   6.012
10126SOL     OW31276   6.578   6.687   6.522
10126SOL    HW131277   6.624   6.768   6.485
10126SOL    HW231278   6.488   6.677   6.479
10127SOL     OW31279   2.105   5.603   6.013
10127SOL    HW131280   2.101   5.613   6.112
10127SOL    HW231281   2.200   5.613   5.983
10128SOL     OW31282   2.757   1.146   6.739
10128SOL    HW131283   2.814   1.223   6.768
10128SOL    HW231284   2.679   1.180   6.686
10129SOL     OW31285   6.158   1.494   3.950
10129SOL    HW131286   6.113   1.580   3.976
10129SOL    HW231287   6.132   1.422   4.015
10130SOL     OW31288   1.568   1.734   2.792
10130SOL    HW131289   1.587   1.681   2.874
10130SOL    HW231290   1.469   1.735   2.775
10131SOL     OW31291   1.995   0.549   4.713
10131SOL    HW131292   1.943   0.497   4.646
10131SOL    HW231293   1.936   0.571   4.791
10132SOL     OW31294   6.806   0.834   1.622
10132SOL    HW131295   6.777   0.740   1.641
10132SOL    HW231296   6.745   0.897   1.669
10133SOL     OW31297   5.326   0.150   0.623
10133SOL    HW131298   5.332   0.067   0.569
10133SOL    HW231299   5.398   0.214   0.595
10134SOL     OW31300   6.406   0.803   2.017
10134SOL    HW131301   6.394   0.831   1.921
10134SOL    HW231302   6.452   0.714   2.019
10135SOL     OW31303   6.494   0.269   2.406
10135SOL    HW131304   6.540   0.293   2.320
10135SOL    HW231305   6.534   0.322   2.481
10136SOL     OW31306   5.483   2.053   2.896
10136SOL    HW131307   5.572   2.032   2.937
10136SOL    HW231308   5.416   1.985   2.927
10137SOL     OW31309   6.509   5.535   5.651
10137SOL    HW131310   6.586   5.596   5.667
10137SOL    HW231311   6.498   5.473   5.729
10138SOL     OW31312   6.804   1.751   0.401
10138SOL    HW131313   6.777   1.665   0.358
10138SOL    HW231314   6.847   1.733   0.489
10139SOL     OW31315   3.295   2.988   6.106
10139SOL    HW131316   3.239   3.072   6.101
10139SOL    HW231317   3.236   2.911   6.129
10140SOL     OW31318   0.185   5.925   5.937
10140SOL    HW131319   0.229   6.011   5.962
10140SOL    HW231320   0.237   5.848   5.974
10141SOL     OW31321   2.351   1.874   4.663
10141SOL    HW131322   2.338   1.973   4.667
10141SOL    HW231323   2.346   1.843   4.568
10142SOL     OW31324   5.377   6.259   4.488
10142SOL    HW131325   5.346   6.342   4.535
10142SOL    HW231326   5.476   6.255   4.489
10143SOL     OW31327   5.256   3.534   6.623
10143SOL    HW131328   5.268   3.633   6.628
10143SOL    HW231329   5.345   3.489   6.627
10144SOL     OW31330   3.714   6.496   5.948
10144SOL    HW131331   3.723   6.420   5.884
10144SOL    HW231332   3.619   6.503   5.980
10145SOL     OW31333   5.978   5.849   6.866
10145SOL    HW131334   6.015   5.813   6.952
10145SOL    HW231335   5.931   5.936   6.884
10146SOL     OW31336   0.268   2.238   4.380
10146SOL    HW131337   0.225   2.159   4.424
10146SOL    HW231338   0.335   2.277   4.443
10147SOL     OW31339   5.203   5.485   5.658
10147SOL    HW131340   5.222   5.403   5.603
10147SOL    HW231341   5.218   5.464   5.755
10148SOL     OW31342   1.228   4.780   0.076
10148SOL    HW131343   1.216   4.878   0.062
10148SOL    HW231344   1.234   4.761   0.174
10149SOL     OW31345   4.140   4.383   6.958
10149SOL    HW131346   4.194   4.398   0.021
10149SOL    HW231347   4.107   4.471   6.923
10150SOL     OW31348   4.136   4.661   6.885
10150SOL    HW131349   4.129   4.689   6.981
10150SOL    HW231350   4.215   4.705   6.844
10151SOL     OW31351   5.578   6.884   5.258
10151SOL    HW131352   5.516   6.834   5.319
10151SOL    HW231353   5.541   6.883   5.165
10152SOL     OW31354   5.253   6.324   2.880
10152SOL    HW131355   5.324   6.323   2.950
10152SOL    HW231356   5.167   6.358   2.920
10153SOL     OW31357   4.770   4.199   3.708
10153SOL    HW131358   4.725   4.258   3.775
10153SOL    HW231359   4.802   4.115   3.752
10154SOL     OW31360   5.570   5.407   5.311
10154SOL    HW131361   5.536   5.484   5.365
10154SOL    HW231362   5.510   5.329   5.322
10155SOL     OW31363   4.024   1.669   4.905
10155SOL    HW131364   4.026   1.598   4.835
10155SOL    HW231365   4.045   1.757   4.864
10156SOL     OW31366   5.123   2.119   6.640
10156SOL    HW131367   5.049   2.054   6.622
10156SOL    HW231368   5.150   2.163   6.554
10157SOL     OW31369   0.517   2.622   0.714
10157SOL    HW131370   0.417   2.630   0.708
10157SOL    HW231371   0.559   2.710   0.693
10158SOL     OW31372   5.845   5.403   1.053
10158SOL    HW131373   5.835   5.323   1.113
10158SOL    HW231374   5.767   5.464   1.066
10159SOL     OW31375   3.847   3.348   2.953
10159SOL    HW131376   3.877   3.298   2.872
10159SOL    HW231377   3.768   3.405   2.930
10160SOL     OW31378   1.221   5.074   3.316
10160SOL    HW131379   1.273   5.028   3.245
10160SOL    HW231380   1.268   5.158   3.343
10161SOL     OW31381   5.254   3.417   5.605
10161SOL    HW131382   5.193   3.390   5.679
10161SOL    HW231383   5.296   3.505   5.627
10162SOL     OW31384   1.183   3.133   2.608
10162SOL    HW131385   1.240   3.057   2.638
10162SOL    HW231386   1.124   3.162   2.684
10163SOL     OW31387   1.392   5.814   5.179
10163SOL    HW131388   1.382   5.736   5.117
10163SOL    HW231389   1.481   5.810   5.223
10164SOL     OW31390   1.045   2.591   3.104
10164SOL    HW131391   1.015   2.503   3.066
10164SOL    HW231392   1.141   2.606   3.080
10165SOL     OW31393   6.787   3.477   4.661
10165SOL    HW131394   6.859   3.507   4.598
10165SOL    HW231395   6.744   3.557   4.703
10166SOL     OW31396   1.600   0.767   1.048
10166SOL    HW131397   1.514   0.796   1.088
10166SOL    HW231398   1.666   0.745   1.120
10167SOL     OW31399   2.131   0.203   6.772
10167SOL    HW131400   2.145   0.233   6.678
10167SOL    HW231401   2.139   0.281   6.834
10168SOL     OW31402   0.253   1.004   0.622
10168SOL    HW131403   0.322   0.938   0.594
10168SOL    HW231404   0.179   0.957   0.670
10169SOL     OW31405   6.278   2.789   3.409
10169SOL    HW131406   6.284   2.772   3.311
10169SOL    HW231407   6.183   2.776   3.439
10170SOL     OW31408   6.053   5.625   6.109
10170SOL    HW131409   6.115   5.645   6.185
10170SOL    HW231410   6.019   5.531   6.118
10171SOL     OW31411   2.362   3.632   6.053
10171SOL    HW131412   2.455   3.635   6.015
10171SOL    HW231413   2.296   3.628   5.978
10172SOL     OW31414   6.375   6.890   2.587
10172SOL    HW131415   6.420   6.801   2.594
10172SOL    HW231416   6.316   6.892   2.506
10173SOL     OW31417   3.177   4.518   5.330
10173SOL    HW131418   3.250   4.582   5.304
10173SOL    HW231419   3.097   4.533   5.271
10174SOL     OW31420   4.495   5.727   2.932
10174SOL    HW131421   4.537   5.802   2.881
10174SOL    HW231422   4.431   5.678   2.873
10175SOL     OW31423   0.427   1.151   3.923
10175SOL    HW131424   0.523   1.176   3.938
10175SOL    HW231425   0.410   1.139   3.825
10176SOL     OW31426   5.791   1.918   5.934
10176SOL    HW131427   5.829   1.957   6.018
10176SOL    HW231428   5.816   1.976   5.856
10177SOL     OW31429   2.325   0.546   2.848
10177SOL    HW131430   2.246   0.522   2.905
10177SOL    HW231431   2.374   0.462   2.822
10178SOL     OW31432   1.908   1.919   0.472
10178SOL    HW131433   2.007   1.911   0.482
10178SOL    HW231434   1.866   1.829   0.482
10179SOL     OW31435   1.063   4.464   1.040
10179SOL    HW131436   1.153   4.463   1.082
10179SOL    HW231437   0.997   4.504   1.104
10180SOL     OW31438   4.367   0.296   6.126
10180SOL    HW131439   4.430   0.273   6.200
10180SOL    HW231440   4.329   0.212   6.087
10181SOL     OW31441   0.022   3.405   1.712
10181SOL    HW131442   6.967   3.414   1.645
10181SOL    HW231443   0.110   3.416   1.665
10182SOL     OW31444   5.822   2.175   6.999
10182SOL    HW131445   5.910   2.135   6.973
10182SOL    HW231446   5.768   2.106   0.027
10183SOL     OW31447   6.178   2.353   6.792
10183SOL    HW131448   6.132   2.407   6.863
10183SOL    HW231449   6.110   2.306   6.737
10184SOL     OW31450   5.698   3.462   6.098
10184SOL    HW131451   5.797   3.450   6.102
10184SOL    HW231452   5.671   3.540   6.155
10185SOL     OW31453   3.735   5.769   2.359
10185SOL    HW131454   3.694   5.852   2.397
10185SOL    HW231455   3.690   5.747   2.272
10186SOL     OW31456   3.821   3.336   5.951
10186SOL    HW131457   3.749   3.305   5.889
10186SOL    HW231458   3.824   3.436   5.951
10187SOL     OW31459   1.603   5.783   6.064
10187SOL    HW131460   1.610   5.875   6.103
10187SOL    HW231461   1.676   5.769   5.998
10188SOL     OW31462   2.909   0.439   6.513
10188SOL    HW131463   2.852   0.391   6.580
10188SOL    HW231464   2.858   0.450   6.428
10189SOL     OW31465   1.190   1.934   6.154
10189SOL    HW131466   1.093   1.940   6.134
10189SOL    HW231467   1.221   2.019   6.198
10190SOL     OW31468   2.938   5.363   1.999
10190SOL    HW131469   2.971   5.451   1.965
10190SOL    HW231470   2.954   5.292   1.930
10191SOL     OW31471   5.964   5.567   7.013
10191SOL    HW131472   6.022   5.588   0.072
10191SOL    HW231473   5.904   5.489   0.017
10192SOL     OW31474   2.019   1.524   4.579
10192SOL    HW131475   2.023   1.614   4.622
10192SOL    HW231476   2.096   1.514   4.516
10193SOL     OW31477   3.432   4.101   3.434
10193SOL    HW131478   3.451   4.090   3.532
10193SOL    HW231479   3.337   4.126   3.421
10194SOL     OW31480   3.581   0.047   3.193
10194SOL    HW131481   3.609   0.136   3.158
10194SOL    HW231482   3.530   7.017   3.122
10195SOL     OW31483   3.812   6.360   1.837
10195SOL    HW131484   3.798   6.378   1.740
10195SOL    HW231485   3.750   6.417   1.891
10196SOL     OW31486   6.281   1.831   3.293
10196SOL    HW131487   6.295   1.744   3.245
10196SOL    HW231488   6.364   1.885   3.289
10197SOL     OW31489   5.463   0.686   2.069
10197SOL    HW131490   5.408   0.746   2.011
10197SOL    HW231491   5.559   0.692   2.041
10198SOL     OW31492   2.738   0.070   0.996
10198SOL    HW131493   2.709   0.059   0.901
10198SOL    HW231494   2.664   0.111   1.049
10199SOL     OW31495   0.657   1.004   0.149
10199SOL    HW131496   0.756   0.986   0.151
10199SOL    HW231497   0.638   1.088   0.200
10200SOL     OW31498   4.997   4.541   5.103
10200SOL    HW131499   5.082   4.490   5.089
10200SOL    HW231500   5.003   4.629   5.057
10201SOL     OW31501   1.206   4.664   2.260
10201SOL    HW131502   1.189   4.592   2.327
10201SOL    HW231503   1.290   4.643   2.209
10202SOL     OW31504   1.383   3.270   2.430
10202SOL    HW131505   1.324   3.335   2.381
10202SOL    HW231506   1.332   3.230   2.506
10203SOL     OW31507   2.228   2.794   2.599
10203SOL    HW131508   2.267   2.851   2.672
10203SOL    HW231509   2.130   2.782   2.616
10204SOL     OW31510   3.084   4.787   5.217
10204SOL    HW131511   3.110   4.789   5.314
10204SOL    HW231512   3.033   4.703   5.198
10205SOL     OW31513   5.064   2.323   3.209
10205SOL    HW131514   4.977   2.323   3.259
10205SOL    HW231515   5.047   2.343   3.112
10206SOL     OW31516   5.169   6.868   6.005
10206SOL    HW131517   5.195   6.793   6.066
10206SOL    HW231518   5.070   6.882   6.011
10207SOL     OW31519   3.795   0.679   2.643
10207SOL    HW131520   3.878   0.734   2.637
10207SOL    HW231521   3.763   0.658   2.550
10208SOL     OW31522   6.194   4.225   5.442
10208SOL    HW131523   6.230   4.313   5.410
10208SOL    HW231524   6.195   4.159   5.367
10209SOL     OW31525   6.236   6.656   6.158
10209SOL    HW131526   6.297   6.685   6.232
10209SOL    HW231527   6.285   6.595   6.096
10210SOL     OW31528   4.995   6.015   2.190
10210SOL    HW131529   4.996   6.067   2.276
10210SOL    HW231530   4.939   5.933   2.202
10211SOL     OW31531   3.742   5.896   4.769
10211SOL    HW131532   3.661   5.837   4.773
10211SOL    HW231533   3.748   5.949   4.854
10212SOL     OW31534   0.049   1.160   5.204
10212SOL    HW131535   0.121   1.225   5.180
10212SOL    HW231536   0.075   1.068   5.173
10213SOL     OW31537   6.510   1.358   3.240
10213SOL    HW131538   6.588   1.380   3.182
10213SOL    HW231539   6.494   1.259   3.238
10214SOL     OW31540   6.645   1.020   1.748
10214SOL    HW131541   6.595   1.080   1.811
10214SOL    HW231542   6.580   0.967   1.693
10215SOL     OW31543   3.863   4.481   6.270
10215SOL    HW131544   3.914   4.402   6.236
10215SOL    HW231545   3.803   4.516   6.197
10216SOL     OW31546   4.961   0.688   1.472
10216SOL    HW131547   4.878   0.633   1.485
10216SOL    HW231548   4.972   0.751   1.549
10217SOL     OW31549   2.439   1.900   4.913
10217SOL    HW131550   2.367   1.871   4.976
10217SOL    HW231551   2.422   1.860   4.823
10218SOL     OW31552   1.896   1.066   0.731
10218SOL    HW131553   1.837   0.988   0.711
10218SOL    HW231554   1.895   1.085   0.829
10219SOL     OW31555   1.092   2.430   1.498
10219SOL    HW131556   1.132   2.479   1.575
10219SOL    HW231557   1.153   2.435   1.419
10220SOL     OW31558   4.403   1.896   1.232
10220SOL    HW131559   4.303   1.889   1.239
10220SOL    HW231560   4.431   1.991   1.241
10221SOL     OW31561   2.852   0.336   5.239
10221SOL    HW131562   2.799   0.376   5.163
10221SOL    HW231563   2.890   0.410   5.295
10222SOL     OW31564   1.961   4.975   5.514
10222SOL    HW131565   1.897   5.048   5.539
10222SOL    HW231566   1.946   4.948   5.419
10223SOL     OW31567   1.317   4.142   0.211
10223SOL    HW131568   1.226   4.142   0.169
10223SOL    HW231569   1.308   4.160   0.309
10224SOL     OW31570   1.396   0.163   4.068
10224SOL    HW131571   1.452   0.239   4.100
10224SOL    HW231572   1.431   0.077   4.106
10225SOL     OW31573   6.622   5.456   4.790
10225SOL    HW131574   6.528   5.422   4.797
10225SOL    HW231575   6.632   5.538   4.846
10226SOL     OW31576   2.048   1.309   6.903
10226SOL    HW131577   2.010   1.234   6.849
10226SOL    HW231578   2.115   1.272   6.968
10227SOL     OW31579   4.957   5.335   6.785
10227SOL    HW131580   4.888   5.328   6.857
10227SOL    HW231581   4.914   5.324   6.696
10228SOL     OW31582   0.922   5.421   3.371
10228SOL    HW131583   0.991   5.482   3.409
10228SOL    HW231584   0.831   5.453   3.397
10229SOL     OW31585   1.112   0.239   3.121
10229SOL    HW131586   1.203   0.243   3.082
10229SOL    HW231587   1.101   0.311   3.189
10230SOL     OW31588   6.802   0.543   3.793
10230SOL    HW131589   6.870   0.615   3.775
10230SOL    HW231590   6.734   0.542   3.720
10231SOL     OW31591   5.740   6.911   4.949
10231SOL    HW131592   5.740   6.963   4.863
10231SOL    HW231593   5.654   6.925   4.997
10232SOL     OW31594   3.406   2.071   5.020
10232SOL    HW131595   3.382   1.983   4.978
10232SOL    HW231596   3.365   2.076   5.112
10233SOL     OW31597   4.642   1.806   5.707
10233SOL    HW131598   4.679   1.737   5.769
10233SOL    HW231599   4.550   1.832   5.737
10234SOL     OW31600   5.437   6.928   1.601
10234SOL    HW131601   5.536   6.917   1.613
10234SOL    HW231602   5.397   6.968   1.684
10235SOL     OW31603   5.357   1.338   6.984
10235SOL    HW131604   5.409   1.305   0.044
10235SOL    HW231605   5.416   1.394   6.927
10236SOL     OW31606   1.812   5.773   2.032
10236SOL    HW131607   1.746   5.710   2.072
10236SOL    HW231608   1.791   5.867   2.059
10237SOL     OW31609   6.312   3.708   2.451
10237SOL    HW131610   6.274   3.646   2.382
10237SOL    HW231611   6.326   3.798   2.410
10238SOL     OW31612   4.421   4.948   4.742
10238SOL    HW131613   4.383   4.894   4.818
10238SOL    HW231614   4.355   5.018   4.715
10239SOL     OW31615   0.142   4.049   4.214
10239SOL    HW131616   0.164   4.122   4.280
10239SOL    HW231617   0.173   4.076   4.123
10240SOL     OW31618   0.906   3.576   3.619
10240SOL    HW131619   0.884   3.509   3.547
10240SOL    HW231620   1.005   3.588   3.624
10241SOL     OW31621   1.051   1.866   2.327
10241SOL    HW131622   1.096   1.861   2.238
10241SOL    HW231623   0.952   1.865   2.314
10242SOL     OW31624   0.064   1.141   6.341
10242SOL    HW131625   0.119   1.089   6.407
10242SOL    HW231626   0.008   1.078   6.288
10243SOL     OW31627   0.449   5.530   1.823
10243SOL    HW131628   0.458   5.507   1.920
10243SOL    HW231629   0.534   5.571   1.790
10244SOL     OW31630   2.017   5.687   6.604
10244SOL    HW131631   2.103   5.714   6.645
10244SOL    HW231632   1.988   5.599   6.641
10245SOL     OW31633   2.058   2.634   6.210
10245SOL    HW131634   2.142   2.591   6.176
10245SOL    HW231635   2.043   2.720   6.161
10246SOL     OW31636   3.196   3.947   5.049
10246SOL    HW131637   3.202   3.849   5.071
10246SOL    HW231638   3.221   4.000   5.130
10247SOL     OW31639   6.926   5.283   5.783
10247SOL    HW131640   6.921   5.183   5.774
10247SOL    HW231641   6.985   5.306   5.860
10248SOL     OW31642   2.864   0.016   1.868
10248SOL    HW131643   2.888   0.020   1.771
10248SOL    HW231644   2.832   6.943   1.890
10249SOL     OW31645   4.685   1.503   5.601
10249SOL    HW131646   4.676   1.534   5.696
10249SOL    HW231647   4.778   1.521   5.569
10250SOL     OW31648   6.123   1.214   0.761
10250SOL    HW131649   6.217   1.220   0.794
10250SOL    HW231650   6.107   1.286   0.693
10251SOL     OW31651   2.546   3.079   6.969
10251SOL    HW131652   2.490   3.010   6.923
10251SOL    HW231653   2.635   3.039   6.992
10252SOL     OW31654   5.748   6.015   1.060
10252SOL    HW131655   5.738   5.917   1.042
10252SOL    HW231656   5.827   6.031   1.119
10253SOL     OW31657   4.793   4.842   6.826
10253SOL    HW131658   4.760   4.761   6.776
10253SOL    HW231659   4.740   4.922   6.798
10254SOL     OW31660   2.778   1.735   5.220
10254SOL    HW131661   2.753   1.810   5.158
10254SOL    HW231662   2.790   1.770   5.312
10255SOL     OW31663   2.412   5.458   2.249
10255SOL    HW131664   2.440   5.498   2.162
10255SOL    HW231665   2.351   5.521   2.296
10256SOL     OW31666   4.952   0.599   0.147
10256SOL    HW131667   4.879   0.647   0.195
10256SOL    HW231668   5.040   0.621   0.189
10257SOL     OW31669   1.338   5.798   5.940
10257SOL    HW131670   1.275   5.729   5.978
10257SOL    HW231671   1.429   5.784   5.978
10258SOL     OW31672   4.590   6.749   3.319
10258SOL    HW131673   4.558   6.671   3.374
10258SOL    HW231674   4.517   6.817   3.313
10259SOL     OW31675   0.051   3.893   3.832
10259SOL    HW131676   0.047   3.993   3.824
10259SOL    HW231677   0.123   3.857   3.774
10260SOL     OW31678   1.148   0.302   2.118
10260SOL    HW131679   1.133   0.369   2.191
10260SOL    HW231680   1.136   0.210   2.154
10261SOL     OW31681   0.988   5.892   1.864
10261SOL    HW131682   0.985   5.990   1.843
10261SOL    HW231683   1.069   5.852   1.822
10262SOL     OW31684   2.981   4.874   4.503
10262SOL    HW131685   2.946   4.843   4.414
10262SOL    HW231686   3.000   4.972   4.499
10263SOL     OW31687   5.083   1.871   5.603
10263SOL    HW131688   5.106   1.924   5.521
10263SOL    HW231689   5.061   1.777   5.577
10264SOL     OW31690   6.323   1.097   6.355
10264SOL    HW131691   6.279   1.008   6.339
10264SOL    HW231692   6.252   1.166   6.372
10265SOL     OW31693   3.764   1.482   3.027
10265SOL    HW131694   3.681   1.474   3.083
10265SOL    HW231695   3.768   1.407   2.962
10266SOL     OW31696   3.509   4.189   6.649
10266SOL    HW131697   3.497   4.211   6.746
10266SOL    HW231698   3.501   4.272   6.595
10267SOL     OW31699   0.177   2.353   6.656
10267SOL    HW131700   0.148   2.382   6.565
10267SOL    HW231701   0.160   2.426   6.722
10268SOL     OW31702   4.992   5.273   1.821
10268SOL    HW131703   4.994   5.231   1.911
10268SOL    HW231704   4.925   5.225   1.764
10269SOL     OW31705   2.295   2.481   6.459
10269SOL    HW131706   2.360   2.478   6.535
10269SOL    HW231707   2.213   2.429   6.484
10270SOL     OW31708   1.933   5.778   0.831
10270SOL    HW131709   1.893   5.704   0.885
10270SOL    HW231710   1.995   5.739   0.762
10271SOL     OW31711   3.989   3.635   1.640
10271SOL    HW131712   3.964   3.602   1.549
10271SOL    HW231713   4.070   3.585   1.671
10272SOL     OW31714   0.371   0.737   4.445
10272SOL    HW131715   0.275   0.730   4.472
10272SOL    HW231716   0.429   0.738   4.527
10273SOL     OW31717   3.810   5.612   4.567
10273SOL    HW131718   3.755   5.657   4.497
10273SOL    HW231719   3.862   5.538   4.526
10274SOL     OW31720   1.073   4.899   5.783
10274SOL    HW131721   1.003   4.897   5.712
10274SOL    HW231722   1.082   4.808   5.823
10275SOL     OW31723   0.697   6.692   3.191
10275SOL    HW131724   0.708   6.647   3.103
10275SOL    HW231725   0.663   6.627   3.259
10276SOL     OW31726   0.244   5.453   5.214
10276SOL    HW131727   0.191   5.535   5.195
10276SOL    HW231728   0.277   5.414   5.128
10277SOL     OW31729   2.783   6.686   4.543
10277SOL    HW131730   2.838   6.609   4.509
10277SOL    HW231731   2.704   6.698   4.484
10278SOL     OW31732   5.849   0.217   6.047
10278SOL    HW131733   5.923   0.160   6.012
10278SOL    HW231734   5.854   0.222   6.147
10279SOL     OW31735   2.945   0.299   4.393
10279SOL    HW131736   3.043   0.311   4.405
10279SOL    HW231737   2.899   0.386   4.410
10280SOL     OW31738   1.674   4.014   0.640
10280SOL    HW131739   1.652   3.958   0.720
10280SOL    HW231740   1.773   4.008   0.622
10281SOL     OW31741   4.582   1.278   3.182
10281SOL    HW131742   4.653   1.214   3.155
10281SOL    HW231743   4.559   1.264   3.278
10282SOL     OW31744   1.016   2.052   3.883
10282SOL    HW131745   1.005   2.016   3.975
10282SOL    HW231746   0.926   2.074   3.845
10283SOL     OW31747   1.431   3.622   0.953
10283SOL    HW131748   1.385   3.640   0.866
10283SOL    HW231749   1.491   3.543   0.943
10284SOL     OW31750   5.565   3.731   5.438
10284SOL    HW131751   5.561   3.807   5.374
10284SOL    HW231752   5.520   3.651   5.398
10285SOL     OW31753   4.906   0.877   0.513
10285SOL    HW131754   4.976   0.860   0.582
10285SOL    HW231755   4.918   0.968   0.474
10286SOL     OW31756   4.143   0.575   3.026
10286SOL    HW131757   4.231   0.612   2.994
10286SOL    HW231758   4.088   0.549   2.946
10287SOL     OW31759   2.229   6.892   1.563
10287SOL    HW131760   2.186   6.812   1.606
10287SOL    HW231761   2.283   6.941   1.631
10288SOL     OW31762   5.804   5.866   3.430
10288SOL    HW131763   5.775   5.849   3.335
10288SOL    HW231764   5.903   5.862   3.436
10289SOL     OW31765   2.934   1.377   1.608
10289SOL    HW131766   2.928   1.290   1.558
10289SOL    HW231767   2.868   1.441   1.571
10290SOL     OW31768   3.762   3.218   3.187
10290SOL    HW131769   3.784   3.278   3.111
10290SOL    HW231770   3.829   3.231   3.260
10291SOL     OW31771   3.547   0.705   4.808
10291SOL    HW131772   3.499   0.679   4.892
10291SOL    HW231773   3.517   0.797   4.780
10292SOL     OW31774   0.674   1.502   4.612
10292SOL    HW131775   0.588   1.501   4.562
10292SOL    HW231776   0.662   1.452   4.699
10293SOL     OW31777   2.456   6.142   3.284
10293SOL    HW131778   2.536   6.105   3.237
10293SOL    HW231779   2.404   6.067   3.325
10294SOL     OW31780   5.294   1.422   3.256
10294SOL    HW131781   5.331   1.404   3.347
10294SOL    HW231782   5.362   1.472   3.202
10295SOL     OW31783   0.268   5.059   5.825
10295SOL    HW131784   0.271   5.156   5.850
10295SOL    HW231785   0.304   5.048   5.733
10296SOL     OW31786   6.653   3.506   6.841
10296SOL    HW131787   6.608   3.508   6.752
10296SOL    HW231788   6.621   3.583   6.896
10297SOL     OW31789   1.023   5.384   4.627
10297SOL    HW131790   0.947   5.334   4.585
10297SOL    HW231791   0.990   5.430   4.710
10298SOL     OW31792   5.502   4.195   3.757
10298SOL    HW131793   5.437   4.119   3.754
10298SOL    HW231794   5.592   4.163   3.727
10299SOL     OW31795   4.452   4.584   3.469
10299SOL    HW131796   4.480   4.551   3.379
10299SOL    HW231797   4.366   4.633   3.462
10300SOL     OW31798   0.641   3.919   2.535
10300SOL    HW131799   0.679   4.004   2.572
10300SOL    HW231800   0.700   3.884   2.463
10301SOL     OW31801   5.892   1.083   2.666
10301SOL    HW131802   5.896   1.110   2.569
10301SOL    HW231803   5.977   1.037   2.691
10302SOL     OW31804   1.486   5.622   2.974
10302SOL    HW131805   1.445   5.545   3.023
10302SOL    HW231806   1.423   5.699   2.972
10303SOL     OW31807   4.175   3.759   1.149
10303SOL    HW131808   4.180   3.662   1.170
10303SOL    HW231809   4.157   3.811   1.233
10304SOL     OW31810   0.096   6.910   2.757
10304SOL    HW131811   0.003   6.876   2.762
10304SOL    HW231812   0.096   7.009   2.770
10305SOL     OW31813   1.485   5.856   6.775
10305SOL    HW131814   1.488   5.942   6.825
10305SOL    HW231815   1.572   5.807   6.786
10306SOL     OW31816   4.208   5.632   0.207
10306SOL    HW131817   4.244   5.559   0.149
10306SOL    HW231818   4.193   5.597   0.300
10307SOL     OW31819   1.811   1.231   6.589
10307SOL    HW131820   1.785   1.194   6.678
10307SOL    HW231821   1.843   1.325   6.600
10308SOL     OW31822   3.222   6.010   3.482
10308SOL    HW131823   3.207   5.915   3.456
10308SOL    HW231824   3.316   6.036   3.462
10309SOL     OW31825   0.294   6.667   2.723
10309SOL    HW131826   0.325   6.718   2.802
10309SOL    HW231827   0.228   6.722   2.671
10310SOL     OW31828   3.489   3.474   2.817
10310SOL    HW131829   3.509   3.384   2.777
10310SOL    HW231830   3.398   3.503   2.790
10311SOL     OW31831   0.678   5.174   0.126
10311SOL    HW131832   0.635   5.224   0.202
10311SOL    HW231833   0.771   5.150   0.151
10312SOL     OW31834   2.750   4.570   0.446
10312SOL    HW131835   2.773   4.589   0.541
10312SOL    HW231836   2.830   4.586   0.388
10313SOL     OW31837   4.722   0.475   2.420
10313SOL    HW131838   4.753   0.520   2.337
10313SOL    HW231839   4.801   0.448   2.475
10314SOL     OW31840   5.976   6.558   0.845
10314SOL    HW131841   5.934   6.472   0.816
10314SOL    HW231842   5.921   6.634   0.812
10315SOL     OW31843   6.280   5.980   4.493
10315SOL    HW131844   6.184   5.982   4.522
10315SOL    HW231845   6.287   6.003   4.396
10316SOL     OW31846   0.388   3.707   3.963
10316SOL    HW131847   0.300   3.753   3.958
10316SOL    HW231848   0.456   3.758   3.910
10317SOL     OW31849   4.101   5.657   6.641
10317SOL    HW131850   4.067   5.654   6.547
10317SOL    HW231851   4.184   5.602   6.649
10318SOL     OW31852   5.925   5.349   1.932
10318SOL    HW131853   5.957   5.441   1.956
10318SOL    HW231854   5.917   5.294   2.015
10319SOL     OW31855   6.704   5.829   3.782
10319SOL    HW131856   6.646   5.899   3.824
10319SOL    HW231857   6.745   5.865   3.698
10320SOL     OW31858   6.889   6.472   1.031
10320SOL    HW131859   6.892   6.503   1.126
10320SOL    HW231860   6.812   6.409   1.019
10321SOL     OW31861   4.662   5.582   4.212
10321SOL    HW131862   4.705   5.662   4.253
10321SOL    HW231863   4.626   5.523   4.283
10322SOL     OW31864   6.214   4.068   0.563
10322SOL    HW131865   6.286   4.129   0.532
10322SOL    HW231866   6.158   4.114   0.632
10323SOL     OW31867   5.342   3.145   5.967
10323SOL    HW131868   5.373   3.233   5.931
10323SOL    HW231869   5.277   3.161   6.042
10324SOL     OW31870   3.357   3.106   3.659
10324SOL    HW131871   3.374   3.077   3.565
10324SOL    HW231872   3.379   3.032   3.722
10325SOL     OW31873   0.714   2.669   2.821
10325SOL    HW131874   0.787   2.701   2.760
10325SOL    HW231875   0.628   2.665   2.772
10326SOL     OW31876   5.514   2.572   0.274
10326SOL    HW131877   5.445   2.560   0.203
10326SOL    HW231878   5.472   2.560   0.364
10327SOL     OW31879   0.379   0.461   2.975
10327SOL    HW131880   0.296   0.516   2.989
10327SOL    HW231881   0.457   0.508   3.016
10328SOL     OW31882   5.824   3.522   2.276
10328SOL    HW131883   5.777   3.588   2.336
10328SOL    HW231884   5.771   3.438   2.272
10329SOL     OW31885   2.956   6.831   3.032
10329SOL    HW131886   2.937   6.926   3.008
10329SOL    HW231887   2.875   6.791   3.077
10330SOL     OW31888   4.325   5.096   2.227
10330SOL    HW131889   4.411   5.140   2.253
10330SOL    HW231890   4.252   5.129   2.287
10331SOL     OW31891   5.230   0.970   3.498
10331SOL    HW131892   5.307   0.941   3.441
10331SOL    HW231893   5.145   0.959   3.447
10332SOL     OW31894   6.867   2.225   6.372
10332SOL    HW131895   6.907   2.172   6.298
10332SOL    HW231896   6.796   2.170   6.416
10333SOL     OW31897   5.878   5.379   4.166
10333SOL    HW131898   5.842   5.421   4.083
10333SOL    HW231899   5.807   5.376   4.236
10334SOL     OW31900   1.935   4.498   4.123
10334SOL    HW131901   1.877   4.526   4.199
10334SOL    HW231902   2.025   4.541   4.131
10335SOL     OW31903   1.806   5.275   1.461
10335SOL    HW131904   1.807   5.215   1.381
10335SOL    HW231905   1.769   5.364   1.435
10336SOL     OW31906   3.885   6.221   2.346
10336SOL    HW131907   3.959   6.221   2.279
10336SOL    HW231908   3.799   6.198   2.301
10337SOL     OW31909   1.011   5.145   4.933
10337SOL    HW131910   1.076   5.165   4.859
10337SOL    HW231911   0.955   5.066   4.907
10338SOL     OW31912   2.778   6.314   2.916
10338SOL    HW131913   2.838   6.379   2.962
10338SOL    HW231914   2.826   6.227   2.904
10339SOL     OW31915   2.525   6.359   1.575
10339SOL    HW131916   2.495   6.450   1.603
10339SOL    HW231917   2.624   6.361   1.557
10340SOL     OW31918   1.765   6.697   0.474
10340SOL    HW131919   1.823   6.693   0.556
10340SOL    HW231920   1.822   6.693   0.392
10341SOL     OW31921   1.983   1.643   2.426
10341SOL    HW131922   1.936   1.651   2.338
10341SOL    HW231923   2.015   1.549   2.439
10342SOL     OW31924   2.258   0.413   5.317
10342SOL    HW131925   2.228   0.367   5.233
10342SOL    HW231926   2.190   0.398   5.389
10343SOL     OW31927   2.838   3.589   6.110
10343SOL    HW131928   2.773   3.626   6.176
10343SOL    HW231929   2.815   3.622   6.018
10344SOL     OW31930   4.100   3.756   4.992
10344SOL    HW131931   4.140   3.824   5.055
10344SOL    HW231932   4.127   3.664   5.021
10345SOL     OW31933   2.568   1.686   6.739
10345SOL    HW131934   2.496   1.733   6.791
10345SOL    HW231935   2.578   1.729   6.650
10346SOL     OW31936   5.049   6.604   0.210
10346SOL    HW131937   5.071   6.694   0.247
10346SOL    HW231938   4.965   6.610   0.157
10347SOL     OW31939   5.694   1.656   1.587
10347SOL    HW131940   5.715   1.705   1.672
10347SOL    HW231941   5.675   1.723   1.515
10348SOL     OW31942   6.744   0.291   5.881
10348SOL    HW131943   6.732   0.383   5.919
10348SOL    HW231944   6.837   0.259   5.902
10349SOL     OW31945   6.724   1.755   1.685
10349SOL    HW131946   6.661   1.833   1.691
10349SOL    HW231947   6.685   1.676   1.732
10350SOL     OW31948   2.629   5.168   4.350
10350SOL    HW131949   2.570   5.100   4.306
10350SOL    HW231950   2.625   5.253   4.299
10351SOL     OW31951   5.709   4.967   5.227
10351SOL    HW131952   5.729   5.063   5.242
10351SOL    HW231953   5.614   4.948   5.251
10352SOL     OW31954   6.092   2.097   0.271
10352SOL    HW131955   6.185   2.132   0.260
10352SOL    HW231956   6.053   2.078   0.181
10353SOL     OW31957   6.960   2.516   3.447
10353SOL    HW131958   0.025   2.484   3.489
10353SOL    HW231959   6.971   2.522   3.348
10354SOL     OW31960   0.533   3.307   0.482
10354SOL    HW131961   0.473   3.228   0.468
10354SOL    HW231962   0.551   3.318   0.580
10355SOL     OW31963   1.042   0.281   1.053
10355SOL    HW131964   0.989   0.300   0.970
10355SOL    HW231965   1.015   0.345   1.125
10356SOL     OW31966   6.792   4.173   6.579
10356SOL    HW131967   6.748   4.228   6.508
10356SOL    HW231968   6.831   4.091   6.538
10357SOL     OW31969   1.139   2.930   5.980
10357SOL    HW131970   1.149   3.028   5.965
10357SOL    HW231971   1.143   2.910   6.078
10358SOL     OW31972   1.176   2.084   2.670
10358SOL    HW131973   1.113   2.162   2.665
10358SOL    HW231974   1.155   2.031   2.752
10359SOL     OW31975   6.076   1.766   2.116
10359SOL    HW131976   6.118   1.847   2.076
10359SOL    HW231977   6.147   1.699   2.137
10360SOL     OW31978   5.850   4.709   2.392
10360SOL    HW131979   5.830   4.619   2.431
10360SOL    HW231980   5.868   4.774   2.466
10361SOL     OW31981   0.662   1.727   1.149
10361SOL    HW131982   0.689   1.631   1.138
10361SOL    HW231983   0.562   1.734   1.150
10362SOL     OW31984   1.222   4.828   2.512
10362SOL    HW131985   1.196   4.768   2.587
10362SOL    HW231986   1.187   4.791   2.426
10363SOL     OW31987   5.152   4.162   0.859
10363SOL    HW131988   5.064   4.198   0.893
10363SOL    HW231989   5.148   4.062   0.857
10364SOL     OW31990   5.955   4.337   2.148
10364SOL    HW131991   5.859   4.325   2.121
10364SOL    HW231992   6.014   4.284   2.087
10365SOL     OW31993   6.305   5.952   0.149
10365SOL    HW131994   6.363   5.943   0.230
10365SOL    HW231995   6.219   5.904   0.164
10366SOL     OW31996   3.192   6.246   2.841
10366SOL    HW131997   3.102   6.240   2.797
10366SOL    HW231998   3.181   6.264   2.938
10367SOL     OW31999   6.411   2.184   0.777
10367SOL    HW132000   6.449   2.275   0.792
10367SOL    HW232001   6.412   2.163   0.679
10368SOL     OW32002   2.021   5.984   1.893
10368SOL    HW132003   1.955   6.032   1.836
10368SOL    HW232004   1.973   5.941   1.970
10369SOL     OW32005   3.244   0.017   6.180
10369SOL    HW132006   3.172   6.984   6.134
10369SOL    HW232007   3.283   6.981   6.253
10370SOL     OW32008   0.730   1.163   4.946
10370SOL    HW132009   0.721   1.260   4.927
10370SOL    HW232010   0.781   1.150   5.031
10371SOL     OW32011   3.262   5.708   3.394
10371SOL    HW132012   3.201   5.633   3.368
10371SOL    HW232013   3.356   5.684   3.372
10372SOL     OW32014   2.708   0.038   1.378
10372SOL    HW132015   2.660   0.072   1.297
10372SOL    HW232016   2.641   0.008   1.446
10373SOL     OW32017   0.071   1.806   5.486
10373SOL    HW132018   0.136   1.879   5.506
10373SOL    HW232019   0.101   1.721   5.528
10374SOL     OW32020   3.192   6.881   4.685
10374SOL    HW132021   3.172   6.797   4.736
10374SOL    HW232022   3.165   6.869   4.589
10375SOL     OW32023   3.484   3.384   0.213
10375SOL    HW132024   3.438   3.455   0.266
10375SOL    HW232025   3.422   3.307   0.199
10376SOL     OW32026   2.245   5.327   2.650
10376SOL    HW132027   2.300   5.386   2.709
10376SOL    HW232028   2.153   5.366   2.641
10377SOL     OW32029   1.117   1.130   2.638
10377SOL    HW132030   1.153   1.068   2.569
10377SOL    HW232031   1.021   1.148   2.620
10378SOL     OW32032   6.741   4.870   5.486
10378SOL    HW132033   6.810   4.865   5.558
10378SOL    HW232034   6.693   4.957   5.492
10379SOL     OW32035   2.283   6.576   4.557
10379SOL    HW132036   2.247   6.669   4.546
10379SOL    HW232037   2.219   6.511   4.516
10380SOL     OW32038   1.631   2.472   4.493
10380SOL    HW132039   1.576   2.413   4.553
10380SOL    HW232040   1.708   2.509   4.544
10381SOL     OW32041   4.347   4.445   1.521
10381SOL    HW132042   4.337   4.535   1.479
10381SOL    HW232043   4.299   4.443   1.608
10382SOL     OW32044   3.143   4.503   1.439
10382SOL    HW132045   3.188   4.580   1.393
10382SOL    HW232046   3.149   4.421   1.382
10383SOL     OW32047   1.943   4.576   0.416
10383SOL    HW132048   2.031   4.612   0.445
10383SOL    HW232049   1.939   4.572   0.316
10384SOL     OW32050   5.611   6.668   1.478
10384SOL    HW132051   5.538   6.630   1.536
10384SOL    HW232052   5.688   6.604   1.475
10385SOL     OW32053   3.603   4.893   6.310
10385SOL    HW132054   3.580   4.950   6.231
10385SOL    HW232055   3.553   4.806   6.304
10386SOL     OW32056   0.086   0.760   6.327
10386SOL    HW132057   0.070   0.685   6.263
10386SOL    HW232058   0.174   0.747   6.372
10387SOL     OW32059   4.810   3.020   2.949
10387SOL    HW132060   4.904   3.052   2.962
10387SOL    HW232061   4.799   2.989   2.855
10388SOL     OW32062   2.906   0.418   5.619
10388SOL    HW132063   2.858   0.333   5.597
10388SOL    HW232064   2.919   0.425   5.718
10389SOL     OW32065   0.478   3.388   0.223
10389SOL    HW132066   0.519   3.453   0.160
10389SOL    HW232067   0.537   3.376   0.303
10390SOL     OW32068   2.544   2.371   0.827
10390SOL    HW132069   2.618   2.305   0.815
10390SOL    HW232070   2.524   2.381   0.925
10391SOL     OW32071   0.649   6.770   3.740
10391SOL    HW132072   0.616   6.824   3.817
10391SOL    HW232073   0.681   6.830   3.667
10392SOL     OW32074   6.753   4.944   4.742
10392SOL    HW132075   6.696   5.026   4.744
10392SOL    HW232076   6.741   4.897   4.654
10393SOL     OW32077   1.883   3.985   3.872
10393SOL    HW132078   1.880   4.083   3.857
10393SOL    HW232079   1.789   3.949   3.879
10394SOL     OW32080   3.448   6.101   3.945
10394SOL    HW132081   3.381   6.169   3.974
10394SOL    HW232082   3.401   6.025   3.901
10395SOL     OW32083   6.385   6.452   1.136
10395SOL    HW132084   6.291   6.452   1.102
10395SOL    HW232085   6.429   6.539   1.114
10396SOL     OW32086   2.905   2.146   4.314
10396SOL    HW132087   3.001   2.171   4.326
10396SOL    HW232088   2.893   2.105   4.223
10397SOL     OW32089   3.246   2.075   2.478
10397SOL    HW132090   3.316   2.110   2.415
10397SOL    HW232091   3.155   2.092   2.440
10398SOL     OW32092   0.251   3.441   1.540
10398SOL    HW132093   0.205   3.485   1.464
10398SOL    HW232094   0.296   3.358   1.509
10399SOL     OW32095   6.348   2.558   2.545
10399SOL    HW132096   6.437   2.553   2.499
10399SOL    HW232097   6.361   2.578   2.642
10400SOL     OW32098   4.361   0.054   0.367
10400SOL    HW132099   4.414   6.992   0.342
10400SOL    HW232100   4.264   0.037   0.348
10401SOL     OW32101   6.975   0.703   3.953
10401SOL    HW132102   6.999   0.719   3.857
10401SOL    HW232103   6.897   0.760   3.977
10402SOL     OW32104   6.293   2.906   4.920
10402SOL    HW132105   6.366   2.905   4.852
10402SOL    HW232106   6.309   2.981   4.984
10403SOL     OW32107   3.328   0.722   3.300
10403SOL    HW132108   3.275   0.721   3.215
10403SOL    HW232109   3.412   0.776   3.286
10404SOL     OW32110   5.932   0.135   5.391
10404SOL    HW132111   5.979   0.160   5.306
10404SOL    HW232112   5.960   0.197   5.464
10405SOL     OW32113   1.154   1.839   5.672
10405SOL    HW132114   1.171   1.863   5.576
10405SOL    HW232115   1.202   1.754   5.694
10406SOL     OW32116   2.944   4.842   2.034
10406SOL    HW132117   3.011   4.828   2.107
10406SOL    HW232118   2.909   4.753   2.004
10407SOL     OW32119   3.477   5.840   5.520
10407SOL    HW132120   3.462   5.794   5.433
10407SOL    HW232121   3.443   5.782   5.594
10408SOL     OW32122   4.586   1.645   0.639
10408SOL    HW132123   4.679   1.661   0.606
10408SOL    HW232124   4.534   1.595   0.569
10409SOL     OW32125   0.101   4.688   0.788
10409SOL    HW132126   0.030   4.618   0.794
10409SOL    HW232127   0.064   4.776   0.818
10410SOL     OW32128   5.568   1.584   0.007
10410SOL    HW132129   5.616   1.496   0.008
10410SOL    HW232130   5.496   1.583   0.077
10411SOL     OW32131   3.434   6.130   2.747
10411SOL    HW132132   3.340   6.158   2.766
10411SOL    HW232133   3.473   6.086   2.828
10412SOL     OW32134   6.363   0.635   0.596
10412SOL    HW132135   6.338   0.539   0.608
10412SOL    HW232136   6.321   0.690   0.668
10413SOL     OW32137   6.828   1.823   1.284
10413SOL    HW132138   6.844   1.799   1.188
10413SOL    HW232139   6.912   1.862   1.322
10414SOL     OW32140   4.352   4.307   5.534
10414SOL    HW132141   4.338   4.392   5.586
10414SOL    HW232142   4.413   4.247   5.585
10415SOL     OW32143   0.298   4.657   5.760
10415SOL    HW132144   0.229   4.713   5.805
10415SOL    HW232145   0.291   4.669   5.661
10416SOL     OW32146   6.880   1.321   3.204
10416SOL    HW132147   6.896   1.274   3.117
10416SOL    HW232148   6.849   1.414   3.186
10417SOL     OW32149   3.953   5.401   4.450
10417SOL    HW132150   3.950   5.346   4.367
10417SOL    HW232151   4.032   5.374   4.505
10418SOL     OW32152   6.869   4.406   5.508
10418SOL    HW132153   6.796   4.474   5.505
10418SOL    HW232154   6.957   4.452   5.513
10419SOL     OW32155   1.232   0.337   6.956
10419SOL    HW132156   1.231   0.413   0.002
10419SOL    HW232157   1.138   0.313   6.931
10420SOL     OW32158   6.794   3.075   2.430
10420SOL    HW132159   6.736   3.015   2.485
10420SOL    HW232160   6.747   3.162   2.416
10421SOL     OW32161   0.555   1.864   3.366
10421SOL    HW132162   0.461   1.840   3.390
10421SOL    HW232163   0.556   1.955   3.325
10422SOL     OW32164   6.421   2.442   5.849
10422SOL    HW132165   6.330   2.474   5.877
10422SOL    HW232166   6.480   2.437   5.929
10423SOL     OW32167   4.884   5.078   4.765
10423SOL    HW132168   4.874   4.998   4.707
10423SOL    HW232169   4.875   5.161   4.710
10424SOL     OW32170   5.536   2.897   0.635
10424SOL    HW132171   5.513   2.840   0.714
10424SOL    HW232172   5.631   2.928   0.643
10425SOL     OW32173   2.070   6.623   2.184
10425SOL    HW132174   2.021   6.629   2.097
10425SOL    HW232175   2.146   6.558   2.175
10426SOL     OW32176   6.541   3.966   0.381
10426SOL    HW132177   6.458   4.010   0.349
10426SOL    HW232178   6.608   4.035   0.409
10427SOL     OW32179   4.308   1.440   0.203
10427SOL    HW132180   4.388   1.382   0.188
10427SOL    HW232181   4.291   1.496   0.122
10428SOL     OW32182   3.149   1.780   5.105
10428SOL    HW132183   3.165   1.874   5.077
10428SOL    HW232184   3.061   1.749   5.069
10429SOL     OW32185   7.007   5.270   1.238
10429SOL    HW132186   7.017   5.212   1.158
10429SOL    HW232187   6.964   5.357   1.211
10430SOL     OW32188   4.315   6.923   3.717
10430SOL    HW132189   4.246   6.906   3.787
10430SOL    HW232190   4.289   6.876   3.633
10431SOL     OW32191   3.269   6.879   5.221
10431SOL    HW132192   3.365   6.885   5.197
10431SOL    HW232193   3.259   6.867   5.320
10432SOL     OW32194   6.715   0.806   4.025
10432SOL    HW132195   6.705   0.756   4.111
10432SOL    HW232196   6.642   0.780   3.962
10433SOL     OW32197   1.352   5.897   1.495
10433SOL    HW132198   1.343   5.960   1.419
10433SOL    HW232199   1.286   5.822   1.485
10434SOL     OW32200   3.375   6.438   2.927
10434SOL    HW132201   3.310   6.406   2.858
10434SOL    HW232202   3.418   6.523   2.896
10435SOL     OW32203   6.716   0.397   4.744
10435SOL    HW132204   6.729   0.474   4.806
10435SOL    HW232205   6.804   0.373   4.702
10436SOL     OW32206   0.975   5.015   5.195
10436SOL    HW132207   0.974   5.087   5.125
10436SOL    HW232208   0.955   4.927   5.153
10437SOL     OW32209   6.311   4.956   5.114
10437SOL    HW132210   6.265   4.955   5.203
10437SOL    HW232211   6.357   5.044   5.101
10438SOL     OW32212   5.362   6.537   0.250
10438SOL    HW132213   5.375   6.605   0.321
10438SOL    HW232214   5.274   6.553   0.204
10439SOL     OW32215   3.765   1.375   6.044
10439SOL    HW132216   3.713   1.318   6.108
10439SOL    HW232217   3.762   1.334   5.953
10440SOL     OW32218   0.797   5.883   0.550
10440SOL    HW132219   0.750   5.879   0.461
10440SOL    HW232220   0.747   5.945   0.611
10441SOL     OW32221   5.245   1.919   6.791
10441SOL    HW132222   5.184   1.849   6.827
10441SOL    HW232223   5.191   1.996   6.756
10442SOL     OW32224   2.903   5.543   5.573
10442SOL    HW132225   2.983   5.485   5.581
10442SOL    HW232226   2.885   5.587   5.661
10443SOL     OW32227   5.124   3.405   4.602
10443SOL    HW132228   5.075   3.334   4.550
10443SOL    HW232229   5.214   3.370   4.627
10444SOL     OW32230   4.348   5.584   4.908
10444SOL    HW132231   4.270   5.570   4.968
10444SOL    HW232232   4.352   5.510   4.841
10445SOL     OW32233   0.788   4.906   4.357
10445SOL    HW132234   0.731   4.960   4.420
10445SOL    HW232235   0.833   4.833   4.408
10446SOL     OW32236   1.377   3.853   5.980
10446SOL    HW132237   1.338   3.834   5.889
10446SOL    HW232238   1.308   3.834   6.050
10447SOL     OW32239   0.269   1.448   1.832
10447SOL    HW132240   0.246   1.504   1.752
10447SOL    HW232241   0.215   1.477   1.911
10448SOL     OW32242   4.387   2.893   1.211
10448SOL    HW132243   4.319   2.877   1.140
10448SOL    HW232244   4.347   2.946   1.286
10449SOL     OW32245   2.681   5.536   4.540
10449SOL    HW132246   2.728   5.452   4.511
10449SOL    HW232247   2.582   5.523   4.534
10450SOL     OW32248   0.669   2.631   6.789
10450SOL    HW132249   0.577   2.668   6.772
10450SOL    HW232250   0.727   2.702   6.828
10451SOL     OW32251   2.718   5.182   2.567
10451SOL    HW132252   2.752   5.100   2.612
10451SOL    HW232253   2.618   5.183   2.569
10452SOL     OW32254   6.719   3.119   3.717
10452SOL    HW132255   6.687   3.035   3.761
10452SOL    HW232256   6.667   3.135   3.633
10453SOL     OW32257   5.688   5.986   1.866
10453SOL    HW132258   5.670   5.999   1.769
10453SOL    HW232259   5.609   6.018   1.919
10454SOL     OW32260   5.392   2.789   2.056
10454SOL    HW132261   5.388   2.695   2.089
10454SOL    HW232262   5.417   2.850   2.131
10455SOL     OW32263   0.585   5.127   3.338
10455SOL    HW132264   0.650   5.163   3.406
10455SOL    HW232265   0.635   5.089   3.261
10456SOL     OW32266   3.089   6.209   1.454
10456SOL    HW132267   3.124   6.181   1.543
10456SOL    HW232268   3.126   6.299   1.431
10457SOL     OW32269   3.751   3.263   4.278
10457SOL    HW132270   3.759   3.311   4.365
10457SOL    HW232271   3.696   3.180   4.290
10458SOL     OW32272   6.902   6.812   0.243
10458SOL    HW132273   6.943   6.897   0.274
10458SOL    HW232274   6.951   6.734   0.282
10459SOL     OW32275   5.412   5.442   2.716
10459SOL    HW132276   5.467   5.489   2.785
10459SOL    HW232277   5.454   5.456   2.626
10460SOL     OW32278   1.651   5.723   1.295
10460SOL    HW132279   1.586   5.707   1.369
10460SOL    HW232280   1.615   5.793   1.233
10461SOL     OW32281   1.392   6.322   5.628
10461SOL    HW132282   1.357   6.229   5.637
10461SOL    HW232283   1.488   6.319   5.601
10462SOL     OW32284   5.878   0.993   1.691
10462SOL    HW132285   5.806   1.047   1.649
10462SOL    HW232286   5.896   1.025   1.784
10463SOL     OW32287   3.216   4.001   5.678
10463SOL    HW132288   3.277   4.075   5.650
10463SOL    HW232289   3.126   4.038   5.698
10464SOL     OW32290   4.535   0.215   1.036
10464SOL    HW132291   4.567   0.309   1.024
10464SOL    HW232292   4.508   0.201   1.132
10465SOL     OW32293   6.980   0.347   6.308
10465SOL    HW132294   7.003   0.272   6.246
10465SOL    HW232295   0.000   0.432   6.273
10466SOL     OW32296   5.061   5.777   5.113
10466SOL    HW132297   4.965   5.783   5.085
10466SOL    HW232298   5.119   5.820   5.043
10467SOL     OW32299   1.836   1.707   5.258
10467SOL    HW132300   1.899   1.690   5.334
10467SOL    HW232301   1.777   1.627   5.245
10468SOL     OW32302   4.015   6.348   4.241
10468SOL    HW132303   3.982   6.408   4.314
10468SOL    HW232304   3.938   6.322   4.182
10469SOL     OW32305   2.468   3.877   1.208
10469SOL    HW132306   2.543   3.892   1.271
10469SOL    HW232307   2.497   3.815   1.135
10470SOL     OW32308   2.388   1.908   3.808
10470SOL    HW132309   2.331   1.868   3.736
10470SOL    HW232310   2.339   1.985   3.849
10471SOL     OW32311   2.259   3.818   1.475
10471SOL    HW132312   2.306   3.904   1.458
10471SOL    HW232313   2.311   3.764   1.541
10472SOL     OW32314   3.927   0.156   1.666
10472SOL    HW132315   3.886   0.083   1.613
10472SOL    HW232316   4.015   0.126   1.703
10473SOL     OW32317   5.477   6.790   1.027
10473SOL    HW132318   5.528   6.866   0.988
10473SOL    HW232319   5.470   6.802   1.126
10474SOL     OW32320   4.644   0.688   4.414
10474SOL    HW132321   4.736   0.651   4.428
10474SOL    HW232322   4.598   0.697   4.502
10475SOL     OW32323   4.253   5.791   1.243
10475SOL    HW132324   4.266   5.757   1.150
10475SOL    HW232325   4.265   5.890   1.244
10476SOL     OW32326   6.635   5.578   0.186
10476SOL    HW132327   6.549   5.597   0.140
10476SOL    HW232328   6.710   5.580   0.119
10477SOL     OW32329   5.608   3.417   5.144
10477SOL    HW132330   5.636   3.362   5.066
10477SOL    HW232331   5.597   3.357   5.224
10478SOL     OW32332   1.236   6.538   6.816
10478SOL    HW132333   1.245   6.634   6.789
10478SOL    HW232334   1.252   6.479   6.736
10479SOL     OW32335   1.493   2.502   2.211
10479SOL    HW132336   1.513   2.457   2.124
10479SOL    HW232337   1.560   2.575   2.227
10480SOL     OW32338   5.056   6.383   1.643
10480SOL    HW132339   5.126   6.389   1.572
10480SOL    HW232340   5.101   6.382   1.733
10481SOL     OW32341   2.359   1.065   4.923
10481SOL    HW132342   2.398   1.055   5.014
10481SOL    HW232343   2.386   1.153   4.883
10482SOL     OW32344   0.967   6.453   4.847
10482SOL    HW132345   0.973   6.360   4.810
10482SOL    HW232346   0.909   6.453   4.928
10483SOL     OW32347   6.277   5.764   0.769
10483SOL    HW132348   6.290   5.859   0.796
10483SOL    HW232349   6.364   5.725   0.739
10484SOL     OW32350   6.963   1.051   1.321
10484SOL    HW132351   0.041   1.027   1.322
10484SOL    HW232352   6.951   1.137   1.272
10485SOL     OW32353   3.002   3.966   2.775
10485SOL    HW132354   2.908   3.977   2.808
10485SOL    HW232355   3.019   3.869   2.755
10486SOL     OW32356   0.003   0.242   5.880
10486SOL    HW132357   0.084   0.299   5.865
10486SOL    HW232358   7.015   0.220   5.977
10487SOL     OW32359   4.838   1.666   1.914
10487SOL    HW132360   4.872   1.581   1.875
10487SOL    HW232361   4.826   1.734   1.842
10488SOL     OW32362   0.759   2.588   5.248
10488SOL    HW132363   0.777   2.673   5.296
10488SOL    HW232364   0.794   2.511   5.302
10489SOL     OW32365   6.378   5.347   4.091
10489SOL    HW132366   6.428   5.261   4.087
10489SOL    HW232367   6.428   5.417   4.041
10490SOL     OW32368   5.923   0.151   0.831
10490SOL    HW132369   5.859   0.223   0.858
10490SOL    HW232370   5.877   0.088   0.768
10491SOL     OW32371   1.468   3.203   6.625
10491SOL    HW132372   1.374   3.169   6.621
10491SOL    HW232373   1.467   3.301   6.646
10492SOL     OW32374   4.851   0.061   0.677
10492SOL    HW132375   4.842   0.003   0.758
10492SOL    HW232376   4.930   0.120   0.687
10493SOL     OW32377   4.148   5.256   1.163
10493SOL    HW132378   4.079   5.243   1.092
10493SOL    HW232379   4.194   5.344   1.149
10494SOL     OW32380   1.023   4.561   6.310
10494SOL    HW132381   0.994   4.562   6.214
10494SOL    HW232382   0.972   4.630   6.361
10495SOL     OW32383   6.927   6.415   6.278
10495SOL    HW132384   6.860   6.341   6.279
10495SOL    HW232385   6.880   6.502   6.268
10496SOL     OW32386   0.116   3.620   5.444
10496SOL    HW132387   0.201   3.623   5.498
10496SOL    HW232388   0.040   3.595   5.504
10497SOL     OW32389   2.531   0.126   1.962
10497SOL    HW132390   2.602   0.085   2.018
10497SOL    HW232391   2.444   0.080   1.978
10498SOL     OW32392   4.932   5.518   0.366
10498SOL    HW132393   4.896   5.609   0.389
10498SOL    HW232394   5.009   5.497   0.427
10499SOL     OW32395   6.209   5.657   1.774
10499SOL    HW132396   6.241   5.752   1.770
10499SOL    HW232397   6.286   5.595   1.757
10500SOL     OW32398   5.339   4.728   4.953
10500SOL    HW132399   5.255   4.718   4.899
10500SOL    HW232400   5.338   4.815   5.001
10501SOL     OW32401   2.077   5.697   2.005
10501SOL    HW132402   1.979   5.714   2.020
10501SOL    HW232403   2.130   5.739   2.079
10502SOL     OW32404   3.259   3.439   2.514
10502SOL    HW132405   3.255   3.466   2.418
10502SOL    HW232406   3.337   3.377   2.528
10503SOL     OW32407   6.842   3.801   6.222
10503SOL    HW132408   6.813   3.837   6.133
10503SOL    HW232409   6.847   3.701   6.217
10504SOL     OW32410   2.218   3.311   6.232
10504SOL    HW132411   2.168   3.324   6.317
10504SOL    HW232412   2.165   3.253   6.170
10505SOL     OW32413   5.732   6.304   1.956
10505SOL    HW132414   5.725   6.219   1.904
10505SOL    HW232415   5.750   6.380   1.893
10506SOL     OW32416   0.466   3.271   6.862
10506SOL    HW132417   0.381   3.304   6.822
10506SOL    HW232418   0.502   3.340   6.926
10507SOL     OW32419   2.400   4.884   0.046
10507SOL    HW132420   2.407   4.795   0.001
10507SOL    HW232421   2.426   4.874   0.142
10508SOL     OW32422   1.097   5.576   5.351
10508SOL    HW132423   1.043   5.532   5.280
10508SOL    HW232424   1.195   5.562   5.334
10509SOL     OW32425   4.902   3.449   4.284
10509SOL    HW132426   4.831   3.517   4.303
10509SOL    HW232427   4.988   3.496   4.262
10510SOL     OW32428   4.920   6.063   5.066
10510SOL    HW132429   4.968   6.140   5.024
10510SOL    HW232430   4.843   6.037   5.008
10511SOL     OW32431   2.785   1.388   2.033
10511SOL    HW132432   2.872   1.409   1.989
10511SOL    HW232433   2.785   1.426   2.126
10512SOL     OW32434   4.310   0.349   5.786
10512SOL    HW132435   4.234   0.289   5.761
10512SOL    HW232436   4.376   0.297   5.840
10513SOL     OW32437   5.371   2.901   2.335
10513SOL    HW132438   5.321   2.889   2.421
10513SOL    HW232439   5.340   2.985   2.290
10514SOL     OW32440   1.216   2.599   1.701
10514SOL    HW132441   1.143   2.662   1.727
10514SOL    HW232442   1.218   2.522   1.765
10515SOL     OW32443   2.045   3.087   4.765
10515SOL    HW132444   2.086   3.179   4.761
10515SOL    HW232445   1.969   3.087   4.830
10516SOL     OW32446   3.429   2.726   0.304
10516SOL    HW132447   3.459   2.804   0.251
10516SOL    HW232448   3.486   2.716   0.385
10517SOL     OW32449   1.310   2.780   3.472
10517SOL    HW132450   1.249   2.786   3.551
10517SOL    HW232451   1.379   2.851   3.478
10518SOL     OW32452   0.642   5.024   2.079
10518SOL    HW132453   0.585   5.106   2.078
10518SOL    HW232454   0.706   5.027   2.002
10519SOL     OW32455   2.146   6.183   1.441
10519SOL    HW132456   2.160   6.234   1.356
10519SOL    HW232457   2.099   6.097   1.420
10520SOL     OW32458   6.276   1.456   6.230
10520SOL    HW132459   6.203   1.396   6.262
10520SOL    HW232460   6.293   1.437   6.133
10521SOL     OW32461   5.952   3.196   1.710
10521SOL    HW132462   5.873   3.257   1.720
10521SOL    HW232463   6.036   3.250   1.722
10522SOL     OW32464   5.872   2.439   3.207
10522SOL    HW132465   5.879   2.496   3.289
10522SOL    HW232466   5.822   2.489   3.136
10523SOL     OW32467   0.625   4.089   3.661
10523SOL    HW132468   0.690   4.124   3.729
10523SOL    HW232469   0.657   4.000   3.627
10524SOL     OW32470   0.060   5.605   3.859
10524SOL    HW132471   0.117   5.641   3.932
10524SOL    HW232472   0.087   5.510   3.838
10525SOL     OW32473   4.225   1.189   4.255
10525SOL    HW132474   4.298   1.122   4.240
10525SOL    HW232475   4.262   1.269   4.302
10526SOL     OW32476   0.446   5.452   0.193
10526SOL    HW132477   0.518   5.521   0.208
10526SOL    HW232478   0.457   5.378   0.260
10527SOL     OW32479   0.694   1.506   5.156
10527SOL    HW132480   0.672   1.592   5.201
10527SOL    HW232481   0.770   1.521   5.092
10528SOL     OW32482   0.678   4.961   6.542
10528SOL    HW132483   0.632   4.948   6.630
10528SOL    HW232484   0.624   5.023   6.485
10529SOL     OW32485   1.934   6.656   6.083
10529SOL    HW132486   1.853   6.690   6.130
10529SOL    HW232487   2.015   6.702   6.119
10530SOL     OW32488   0.862   6.772   6.451
10530SOL    HW132489   0.845   6.674   6.449
10530SOL    HW232490   0.832   6.812   6.364
10531SOL     OW32491   2.980   2.614   5.344
10531SOL    HW132492   3.062   2.570   5.307
10531SOL    HW232493   2.905   2.547   5.346
10532SOL     OW32494   5.724   6.558   6.285
10532SOL    HW132495   5.745   6.474   6.335
10532SOL    HW232496   5.665   6.616   6.342
10533SOL     OW32497   3.477   5.555   3.932
10533SOL    HW132498   3.474   5.608   4.016
10533SOL    HW232499   3.438   5.464   3.948
10534SOL     OW32500   0.591   5.861   2.954
10534SOL    HW132501   0.567   5.957   2.948
10534SOL    HW232502   0.659   5.848   3.026
10535SOL     OW32503   2.685   1.392   2.504
10535SOL    HW132504   2.701   1.491   2.494
10535SOL    HW232505   2.760   1.351   2.555
10536SOL     OW32506   5.042   1.047   4.147
10536SOL    HW132507   5.120   1.092   4.103
10536SOL    HW232508   5.038   0.952   4.117
10537SOL     OW32509   4.967   6.902   2.988
10537SOL    HW132510   4.936   6.854   2.906
10537SOL    HW232511   4.923   6.861   3.068
10538SOL     OW32512   6.477   3.170   2.507
10538SOL    HW132513   6.398   3.118   2.477
10538SOL    HW232514   6.556   3.109   2.517
10539SOL     OW32515   5.940   6.174   2.668
10539SOL    HW132516   5.973   6.215   2.583
10539SOL    HW232517   5.853   6.128   2.651
10540SOL     OW32518   2.615   4.062   6.551
10540SOL    HW132519   2.690   4.116   6.512
10540SOL    HW232520   2.566   4.016   6.478
10541SOL     OW32521   3.030   3.179   5.078
10541SOL    HW132522   3.055   3.139   4.990
10541SOL    HW232523   2.939   3.147   5.104
10542SOL     OW32524   6.293   7.017   4.430
10542SOL    HW132525   6.300   6.965   4.345
10542SOL    HW232526   6.259   0.090   4.410
10543SOL     OW32527   6.981   2.766   5.799
10543SOL    HW132528   6.939   2.711   5.727
10543SOL    HW232529   6.936   2.747   5.887
10544SOL     OW32530   0.802   1.054   4.072
10544SOL    HW132531   0.757   1.047   4.161
10544SOL    HW232532   0.884   0.997   4.072
10545SOL     OW32533   1.690   2.475   2.992
10545SOL    HW132534   1.771   2.457   3.048
10545SOL    HW232535   1.614   2.419   3.025
10546SOL     OW32536   3.096   6.467   1.316
10546SOL    HW132537   2.999   6.478   1.293
10546SOL    HW232538   3.121   6.532   1.388
10547SOL     OW32539   4.432   0.073   5.008
10547SOL    HW132540   4.397   0.108   5.095
10547SOL    HW232541   4.434   6.992   5.011
10548SOL     OW32542   0.876   4.911   4.802
10548SOL    HW132543   0.777   4.906   4.817
10548SOL    HW232544   0.912   4.820   4.784
10549SOL     OW32545   0.457   1.482   0.643
10549SOL    HW132546   0.463   1.532   0.557
10549SOL    HW232547   0.523   1.408   0.643
10550SOL     OW32548   3.896   6.008   3.078
10550SOL    HW132549   3.863   6.014   2.984
10550SOL    HW232550   3.975   6.069   3.089
10551SOL     OW32551   2.902   1.936   5.836
10551SOL    HW132552   2.838   1.952   5.761
10551SOL    HW232553   2.995   1.927   5.799
10552SOL     OW32554   3.442   0.960   4.765
10552SOL    HW132555   3.367   0.950   4.830
10552SOL    HW232556   3.486   1.049   4.779
10553SOL     OW32557   0.360   5.186   0.819
10553SOL    HW132558   0.344   5.089   0.803
10553SOL    HW232559   0.449   5.199   0.861
10554SOL     OW32560   6.326   5.229   2.687
10554SOL    HW132561   6.301   5.238   2.783
10554SOL    HW232562   6.243   5.223   2.631
10555SOL     OW32563   3.498   2.193   0.630
10555SOL    HW132564   3.441   2.111   0.636
10555SOL    HW232565   3.497   2.241   0.718
10556SOL     OW32566   1.920   1.134   3.099
10556SOL    HW132567   1.991   1.145   3.029
10556SOL    HW232568   1.876   1.045   3.088
10557SOL     OW32569   2.048   3.869   4.060
10557SOL    HW132570   2.046   3.773   4.033
10557SOL    HW232571   1.990   3.923   3.998
10558SOL     OW32572   3.003   5.475   5.036
10558SOL    HW132573   2.931   5.532   4.995
10558SOL    HW232574   2.964   5.389   5.068
10559SOL     OW32575   3.421   0.390   7.003
10559SOL    HW132576   3.399   0.311   0.040
10559SOL    HW232577   3.497   0.367   6.942
10560SOL     OW32578   4.444   6.411   1.306
10560SOL    HW132579   4.416   6.354   1.383
10560SOL    HW232580   4.534   6.382   1.274
10561SOL     OW32581   5.355   4.334   1.251
10561SOL    HW132582   5.346   4.317   1.349
10561SOL    HW232583   5.437   4.287   1.217
10562SOL     OW32584   2.863   0.220   1.540
10562SOL    HW132585   2.812   0.158   1.480
10562SOL    HW232586   2.896   0.298   1.487
10563SOL     OW32587   0.481   0.061   0.642
10563SOL    HW132588   0.501   0.055   0.545
10563SOL    HW232589   0.500   6.993   0.686
10564SOL     OW32590   6.520   5.745   4.205
10564SOL    HW132591   6.594   5.811   4.189
10564SOL    HW232592   6.532   5.704   4.296
10565SOL     OW32593   6.465   6.698   5.352
10565SOL    HW132594   6.434   6.736   5.265
10565SOL    HW232595   6.552   6.742   5.377
10566SOL     OW32596   2.725   2.642   0.183
10566SOL    HW132597   2.817   2.679   0.194
10566SOL    HW232598   2.658   2.712   0.210
10567SOL     OW32599   1.870   2.495   6.080
10567SOL    HW132600   1.925   2.457   6.006
10567SOL    HW232601   1.930   2.538   6.148
10568SOL     OW32602   5.351   2.778   6.090
10568SOL    HW132603   5.262   2.821   6.107
10568SOL    HW232604   5.418   2.849   6.068
10569SOL     OW32605   5.274   0.327   2.042
10569SOL    HW132606   5.219   0.383   2.103
10569SOL    HW232607   5.249   0.345   1.947
10570SOL     OW32608   0.292   5.250   4.587
10570SOL    HW132609   0.330   5.334   4.624
10570SOL    HW232610   0.318   5.241   4.491
10571SOL     OW32611   6.645   4.659   6.184
10571SOL    HW132612   6.585   4.728   6.143
10571SOL    HW232613   6.606   4.568   6.170
10572SOL     OW32614   6.581   4.358   1.345
10572SOL    HW132615   6.544   4.435   1.397
10572SOL    HW232616   6.558   4.272   1.392
10573SOL     OW32617   5.750   0.338   3.393
10573SOL    HW132618   5.734   0.425   3.440
10573SOL    HW232619   5.779   0.269   3.459
10574SOL     OW32620   0.171   0.922   3.214
10574SOL    HW132621   0.216   0.915   3.125
10574SOL    HW232622   0.086   0.868   3.213
10575SOL     OW32623   6.196   1.065   2.315
10575SOL    HW132624   6.129   1.069   2.388
10575SOL    HW232625   6.183   0.982   2.261
10576SOL     OW32626   2.467   4.834   3.281
10576SOL    HW132627   2.390   4.771   3.273
10576SOL    HW232628   2.433   4.925   3.305
10577SOL     OW32629   4.139   5.872   0.650
10577SOL    HW132630   4.111   5.916   0.565
10577SOL    HW232631   4.065   5.877   0.717
10578SOL     OW32632   6.306   1.851   3.709
10578SOL    HW132633   6.329   1.781   3.642
10578SOL    HW232634   6.359   1.837   3.792
10579SOL     OW32635   2.709   3.176   1.057
10579SOL    HW132636   2.654   3.100   1.092
10579SOL    HW232637   2.700   3.255   1.118
10580SOL     OW32638   6.545   6.770   6.160
10580SOL    HW132639   6.543   6.699   6.089
10580SOL    HW232640   6.551   6.860   6.118
10581SOL     OW32641   5.650   6.964   3.454
10581SOL    HW132642   5.595   0.007   3.509
10581SOL    HW232643   5.705   7.017   3.389
10582SOL     OW32644   5.429   4.769   6.644
10582SOL    HW132645   5.429   4.680   6.690
10582SOL    HW232646   5.444   4.842   6.711
10583SOL     OW32647   2.843   6.826   3.917
10583SOL    HW132648   2.923   6.790   3.966
10583SOL    HW232649   2.821   6.917   3.951
10584SOL     OW32650   6.746   0.482   5.460
10584SOL    HW132651   6.785   0.465   5.369
10584SOL    HW232652   6.728   0.395   5.505
10585SOL     OW32653   0.609   1.814   5.970
10585SOL    HW132654   0.512   1.794   5.988
10585SOL    HW232655   0.666   1.748   6.018
10586SOL     OW32656   4.731   4.634   5.491
10586SOL    HW132657   4.745   4.703   5.561
10586SOL    HW232658   4.669   4.563   5.525
10587SOL     OW32659   0.916   5.818   5.599
10587SOL    HW132660   0.845   5.802   5.669
10587SOL    HW232661   1.005   5.828   5.644
10588SOL     OW32662   1.057   3.455   3.918
10588SOL    HW132663   1.085   3.377   3.862
10588SOL    HW232664   1.093   3.445   4.011
10589SOL     OW32665   5.214   6.368   4.026
10589SOL    HW132666   5.273   6.435   4.072
10589SOL    HW232667   5.194   6.293   4.090
10590SOL     OW32668   0.584   6.234   1.736
10590SOL    HW132669   0.574   6.157   1.799
10590SOL    HW232670   0.681   6.255   1.724
10591SOL     OW32671   1.113   1.448   1.346
10591SOL    HW132672   1.043   1.516   1.364
10591SOL    HW232673   1.200   1.478   1.384
10592SOL     OW32674   5.775   2.373   5.015
10592SOL    HW132675   5.857   2.425   5.037
10592SOL    HW232676   5.736   2.406   4.929
10593SOL     OW32677   2.488   6.803   0.930
10593SOL    HW132678   2.520   6.721   0.977
10593SOL    HW232679   2.465   6.873   0.998
10594SOL     OW32680   3.930   0.688   3.184
10594SOL    HW132681   4.021   0.676   3.144
10594SOL    HW232682   3.863   0.697   3.111
10595SOL     OW32683   5.934   0.801   0.961
10595SOL    HW132684   5.870   0.823   0.888
10595SOL    HW232685   6.012   0.863   0.956
10596SOL     OW32686   4.596   1.583   6.675
10596SOL    HW132687   4.591   1.564   6.773
10596SOL    HW232688   4.622   1.499   6.627
10597SOL     OW32689   2.171   0.505   6.089
10597SOL    HW132690   2.180   0.604   6.089
10597SOL    HW232691   2.164   0.472   6.184
10598SOL     OW32692   2.785   1.727   5.950
10598SOL    HW132693   2.808   1.715   6.047
10598SOL    HW232694   2.823   1.814   5.918
10599SOL     OW32695   6.642   4.192   5.866
10599SOL    HW132696   6.648   4.103   5.821
10599SOL    HW232697   6.688   4.188   5.954
10600SOL     OW32698   2.592   1.848   1.947
10600SOL    HW132699   2.561   1.767   1.996
10600SOL    HW232700   2.690   1.860   1.963
10601SOL     OW32701   0.229   6.778   6.754
10601SOL    HW132702   0.176   6.696   6.732
10601SOL    HW232703   0.323   6.765   6.722
10602SOL     OW32704   7.010   0.009   6.973
10602SOL    HW132705   6.943   0.045   6.908
10602SOL    HW232706   0.057   0.081   6.995
10603SOL     OW32707   3.990   6.635   1.796
10603SOL    HW132708   3.964   6.539   1.782
10603SOL    HW232709   4.019   6.648   1.891
10604SOL     OW32710   0.155   6.672   4.917
10604SOL    HW132711   0.120   6.601   4.856
10604SOL    HW232712   0.111   6.663   5.007
10605SOL     OW32713   2.569   0.912   0.754
10605SOL    HW132714   2.521   0.903   0.667
10605SOL    HW232715   2.629   0.833   0.767
10606SOL     OW32716   6.081   0.996   1.482
10606SOL    HW132717   6.035   0.907   1.479
10606SOL    HW232718   6.069   1.037   1.573
10607SOL     OW32719   4.346   4.778   6.355
10607SOL    HW132720   4.368   4.759   6.259
10607SOL    HW232721   4.355   4.694   6.409
10608SOL     OW32722   6.365   2.920   3.071
10608SOL    HW132723   6.445   2.860   3.076
10608SOL    HW232724   6.289   2.871   3.030
10609SOL     OW32725   3.379   0.658   0.080
10609SOL    HW132726   3.386   0.564   0.047
10609SOL    HW232727   3.470   0.700   0.078
10610SOL     OW32728   0.284   1.368   4.829
10610SOL    HW132729   0.286   1.456   4.781
10610SOL    HW232730   0.200   1.320   4.808
10611SOL     OW32731   2.790   5.631   4.970
10611SOL    HW132732   2.724   5.689   5.018
10611SOL    HW232733   2.784   5.647   4.872
10612SOL     OW32734   5.484   1.338   3.743
10612SOL    HW132735   5.480   1.396   3.824
10612SOL    HW232736   5.428   1.257   3.758
10613SOL     OW32737   6.667   6.004   4.221
10613SOL    HW132738   6.634   6.087   4.265
10613SOL    HW232739   6.763   5.989   4.246
10614SOL     OW32740   5.245   0.375   6.422
10614SOL    HW132741   5.221   0.301   6.360
10614SOL    HW232742   5.342   0.398   6.411
10615SOL     OW32743   2.669   2.354   6.336
10615SOL    HW132744   2.578   2.314   6.346
10615SOL    HW232745   2.697   2.397   6.422
10616SOL     OW32746   3.139   6.013   6.685
10616SOL    HW132747   3.229   6.028   6.726
10616SOL    HW232748   3.115   6.092   6.629
10617SOL     OW32749   2.754   3.381   1.787
10617SOL    HW132750   2.813   3.389   1.707
10617SOL    HW232751   2.810   3.375   1.869
10618SOL     OW32752   0.506   5.498   5.351
10618SOL    HW132753   0.579   5.485   5.418
10618SOL    HW232754   0.504   5.420   5.288
10619SOL     OW32755   0.775   1.798   3.013
10619SOL    HW132756   0.703   1.776   2.947
10619SOL    HW232757   0.763   1.892   3.045
10620SOL     OW32758   2.383   6.955   5.683
10620SOL    HW132759   2.419   7.006   5.605
10620SOL    HW232760   2.426   6.987   5.767
10621SOL     OW32761   1.194   3.558   2.876
10621SOL    HW132762   1.187   3.545   2.975
10621SOL    HW232763   1.290   3.568   2.850
10622SOL     OW32764   4.521   3.157   0.769
10622SOL    HW132765   4.567   3.072   0.793
10622SOL    HW232766   4.478   3.195   0.851
10623SOL     OW32767   6.162   6.042   5.868
10623SOL    HW132768   6.207   6.005   5.787
10623SOL    HW232769   6.112   5.969   5.914
10624SOL     OW32770   0.862   2.782   4.991
10624SOL    HW132771   0.822   2.727   5.065
10624SOL    HW232772   0.941   2.832   5.026
10625SOL     OW32773   6.863   3.901   6.933
10625SOL    HW132774   6.920   3.820   6.943
10625SOL    HW232775   6.810   3.915   7.017
10626SOL     OW32776   3.841   2.987   1.921
10626SOL    HW132777   3.912   2.968   1.853
10626SOL    HW232778   3.768   2.919   1.913
10627SOL     OW32779   5.671   6.647   5.867
10627SOL    HW132780   5.624   6.586   5.930
10627SOL    HW232781   5.763   6.613   5.850
10628SOL     OW32782   4.371   0.579   0.228
10628SOL    HW132783   4.397   0.483   0.220
10628SOL    HW232784   4.418   0.621   0.306
10629SOL     OW32785   3.816   5.408   5.355
10629SOL    HW132786   3.865   5.331   5.315
10629SOL    HW232787   3.728   5.378   5.391
10630SOL     OW32788   4.540   0.531   2.848
10630SOL    HW132789   4.639   0.531   2.864
10630SOL    HW232790   4.494   0.568   2.929
10631SOL     OW32791   4.790   5.643   6.816
10631SOL    HW132792   4.879   5.620   6.778
10631SOL    HW232793   4.766   5.737   6.791
10632SOL     OW32794   4.897   6.104   2.910
10632SOL    HW132795   4.853   6.099   3.000
10632SOL    HW232796   4.897   6.199   2.878
10633SOL     OW32797   2.206   2.955   2.250
10633SOL    HW132798   2.158   2.960   2.162
10633SOL    HW232799   2.251   2.866   2.258
10634SOL     OW32800   1.549   4.976   0.077
10634SOL    HW132801   1.626   5.000   0.018
10634SOL    HW232802   1.542   4.877   0.084
10635SOL     OW32803   2.310   3.498   0.518
10635SOL    HW132804   2.277   3.433   0.449
10635SOL    HW232805   2.403   3.526   0.496
10636SOL     OW32806   6.697   2.714   6.870
10636SOL    HW132807   6.788   2.703   6.909
10636SOL    HW232808   6.675   2.811   6.862
10637SOL     OW32809   2.746   6.358   6.326
10637SOL    HW132810   2.762   6.378   6.230
10637SOL    HW232811   2.790   6.272   6.350
10638SOL     OW32812   6.656   5.602   1.937
10638SOL    HW132813   6.744   5.637   1.968
10638SOL    HW232814   6.600   5.677   1.901
10639SOL     OW32815   2.378   3.657   1.682
10639SOL    HW132816   2.306   3.605   1.727
10639SOL    HW232817   2.463   3.649   1.733
10640SOL     OW32818   3.755   0.206   3.423
10640SOL    HW132819   3.796   0.115   3.435
10640SOL    HW232820   3.808   0.257   3.354
10641SOL     OW32821   1.380   0.397   3.421
10641SOL    HW132822   1.339   0.310   3.392
10641SOL    HW232823   1.346   0.421   3.512
10642SOL     OW32824   6.420   2.551   0.022
10642SOL    HW132825   6.418   2.452   0.005
10642SOL    HW232826   6.465   2.597   6.965
10643SOL     OW32827   2.011   5.510   5.197
10643SOL    HW132828   2.091   5.498   5.255
10643SOL    HW232829   2.021   5.455   5.114
10644SOL     OW32830   6.494   2.618   1.940
10644SOL    HW132831   6.486   2.635   2.038
10644SOL    HW232832   6.413   2.568   1.908
10645SOL     OW32833   1.935   3.059   3.315
10645SOL    HW132834   1.960   2.977   3.365
10645SOL    HW232835   1.905   3.130   3.379
10646SOL     OW32836   5.218   1.358   4.493
10646SOL    HW132837   5.168   1.292   4.549
10646SOL    HW232838   5.156   1.398   4.425
10647SOL     OW32839   4.348   5.081   5.401
10647SOL    HW132840   4.330   5.109   5.306
10647SOL    HW232841   4.302   5.143   5.464
10648SOL     OW32842   6.329   5.144   5.702
10648SOL    HW132843   6.293   5.172   5.613
10648SOL    HW232844   6.393   5.068   5.690
10649SOL     OW32845   0.315   3.393   3.918
10649SOL    HW132846   0.378   3.468   3.898
10649SOL    HW232847   0.232   3.430   3.960
10650SOL     OW32848   6.967   0.138   4.034
10650SOL    HW132849   0.009   0.138   4.113
10650SOL    HW232850   6.879   0.098   4.060
10651SOL     OW32851   5.462   6.696   6.135
10651SOL    HW132852   5.368   6.702   6.168
10651SOL    HW232853   5.477   6.607   6.091
10652SOL     OW32854   1.613   6.409   6.139
10652SOL    HW132855   1.662   6.398   6.052
10652SOL    HW232856   1.514   6.401   6.123
10653SOL     OW32857   3.831   6.271   4.716
10653SOL    HW132858   3.805   6.197   4.778
10653SOL    HW232859   3.839   6.237   4.623
10654SOL     OW32860   5.496   1.375   4.271
10654SOL    HW132861   5.589   1.366   4.305
10654SOL    HW232862   5.448   1.446   4.324
10655SOL     OW32863   1.842   4.772   1.463
10655SOL    HW132864   1.764   4.825   1.498
10655SOL    HW232865   1.857   4.693   1.522
10656SOL     OW32866   6.272   1.121   2.053
10656SOL    HW132867   6.268   1.062   1.973
10656SOL    HW232868   6.226   1.078   2.130
10657SOL     OW32869   6.007   0.807   4.395
10657SOL    HW132870   6.102   0.827   4.371
10657SOL    HW232871   5.994   0.708   4.397
10658SOL     OW32872   5.542   3.867   5.131
10658SOL    HW132873   5.449   3.831   5.143
10658SOL    HW232874   5.608   3.792   5.140
10659SOL     OW32875   0.794   4.948   0.887
10659SOL    HW132876   0.828   4.969   0.979
10659SOL    HW232877   0.871   4.939   0.824
10660SOL     OW32878   6.034   3.623   5.675
10660SOL    HW132879   5.977   3.571   5.612
10660SOL    HW232880   6.118   3.652   5.630
10661SOL     OW32881   1.454   4.648   0.401
10661SOL    HW132882   1.407   4.714   0.459
10661SOL    HW232883   1.525   4.601   0.454
10662SOL     OW32884   2.862   1.094   2.501
10662SOL    HW132885   2.938   1.032   2.479
10662SOL    HW232886   2.896   1.172   2.553
10663SOL     OW32887   0.979   1.333   3.686
10663SOL    HW132888   0.940   1.289   3.606
10663SOL    HW232889   0.966   1.432   3.680
10664SOL     OW32890   0.581   5.383   4.679
10664SOL    HW132891   0.583   5.354   4.774
10664SOL    HW232892   0.669   5.363   4.636
10665SOL     OW32893   2.263   3.154   6.697
10665SOL    HW132894   2.345   3.205   6.672
10665SOL    HW232895   2.291   3.068   6.741
10666SOL     OW32896   4.143   3.282   2.424
10666SOL    HW132897   4.155   3.183   2.417
10666SOL    HW232898   4.232   3.327   2.411
10667SOL     OW32899   4.952   1.538   3.257
10667SOL    HW132900   4.992   1.545   3.348
10667SOL    HW232901   4.907   1.624   3.233
10668SOL     OW32902   3.443   1.932   5.371
10668SOL    HW132903   3.373   1.992   5.332
10668SOL    HW232904   3.490   1.882   5.297
10669SOL     OW32905   5.780   0.881   0.716
10669SOL    HW132906   5.787   0.834   0.628
10669SOL    HW232907   5.690   0.924   0.724
10670SOL     OW32908   5.326   4.045   4.496
10670SOL    HW132909   5.363   4.069   4.586
10670SOL    HW232910   5.226   4.049   4.499
10671SOL     OW32911   0.915   1.581   4.531
10671SOL    HW132912   0.934   1.573   4.433
10671SOL    HW232913   0.823   1.545   4.550
10672SOL     OW32914   6.324   4.229   1.625
10672SOL    HW132915   6.331   4.250   1.722
10672SOL    HW232916   6.228   4.215   1.600
10673SOL     OW32917   2.095   0.156   0.830
10673SOL    HW132918   2.147   0.229   0.785
10673SOL    HW232919   1.998   0.181   0.834
10674SOL     OW32920   4.096   3.506   4.658
10674SOL    HW132921   4.174   3.515   4.720
10674SOL    HW232922   4.014   3.483   4.711
10675SOL     OW32923   3.324   1.108   6.424
10675SOL    HW132924   3.337   1.038   6.494
10675SOL    HW232925   3.405   1.166   6.418
10676SOL     OW32926   0.457   5.672   5.123
10676SOL    HW132927   0.415   5.760   5.147
10676SOL    HW232928   0.423   5.601   5.185
10677SOL     OW32929   1.594   1.140   1.079
10677SOL    HW132930   1.558   1.120   0.988
10677SOL    HW232931   1.601   1.239   1.091
10678SOL     OW32932   4.178   4.776   3.847
10678SOL    HW132933   4.174   4.806   3.942
10678SOL    HW232934   4.087   4.781   3.806
10679SOL     OW32935   3.869   4.887   0.060
10679SOL    HW132936   3.794   4.827   0.085
10679SOL    HW232937   3.954   4.833   0.054
10680SOL     OW32938   3.393   1.584   4.235
10680SOL    HW132939   3.404   1.485   4.235
10680SOL    HW232940   3.308   1.608   4.282
10681SOL     OW32941   0.092   3.491   0.137
10681SOL    HW132942   0.011   3.520   0.086
10681SOL    HW232943   0.113   3.396   0.115
10682SOL     OW32944   0.053   3.226   4.799
10682SOL    HW132945   6.995   3.286   4.821
10682SOL    HW232946   0.129   3.247   4.860
10683SOL     OW32947   4.106   0.493   3.414
10683SOL    HW132948   4.195   0.453   3.389
10683SOL    HW232949   4.098   0.585   3.374
10684SOL     OW32950   4.296   5.243   1.553
10684SOL    HW132951   4.360   5.313   1.521
10684SOL    HW232952   4.203   5.279   1.550
10685SOL     OW32953   0.018   5.760   1.035
10685SOL    HW132954   6.977   5.828   1.075
10685SOL    HW232955   0.099   5.804   0.997
10686SOL     OW32956   2.648   4.282   6.180
10686SOL    HW132957   2.629   4.185   6.167
10686SOL    HW232958   2.589   4.318   6.253
10687SOL     OW32959   6.228   4.893   3.292
10687SOL    HW132960   6.183   4.981   3.309
10687SOL    HW232961   6.327   4.906   3.293
10688SOL     OW32962   5.903   1.577   2.622
10688SOL    HW132963   5.867   1.635   2.550
10688SOL    HW232964   5.852   1.593   2.707
10689SOL     OW32965   6.991   6.960   1.207
10689SOL    HW132966   0.022   6.877   1.234
10689SOL    HW232967   6.957   7.006   1.289
10690SOL     OW32968   0.142   4.951   3.323
10690SOL    HW132969   0.167   5.047   3.313
10690SOL    HW232970   0.225   4.895   3.322
10691SOL     OW32971   1.850   1.455   1.750
10691SOL    HW132972   1.820   1.549   1.768
10691SOL    HW232973   1.946   1.456   1.720
10692SOL     OW32974   2.845   0.608   4.613
10692SOL    HW132975   2.944   0.601   4.602
10692SOL    HW232976   2.801   0.603   4.523
10693SOL     OW32977   0.817   6.396   1.495
10693SOL    HW132978   0.821   6.308   1.541
10693SOL    HW232979   0.865   6.390   1.407
10694SOL     OW32980   4.970   6.681   6.705
10694SOL    HW132981   5.029   6.758   6.681
10694SOL    HW232982   4.902   6.711   6.772
10695SOL     OW32983   1.265   2.698   1.355
10695SOL    HW132984   1.232   2.745   1.273
10695SOL    HW232985   1.299   2.608   1.329
10696SOL     OW32986   6.385   3.554   5.122
10696SOL    HW132987   6.479   3.587   5.121
10696SOL    HW232988   6.324   3.626   5.155
10697SOL     OW32989   6.901   6.849   5.709
10697SOL    HW132990   6.851   6.905   5.644
10697SOL    HW232991   6.863   6.756   5.711
10698SOL     OW32992   4.813   4.149   0.012
10698SOL    HW132993   4.787   4.242   0.039
10698SOL    HW232994   4.900   4.151   6.984
10699SOL     OW32995   3.752   4.543   0.903
10699SOL    HW132996   3.709   4.521   0.990
10699SOL    HW232997   3.698   4.613   0.855
10700SOL     OW32998   5.557   0.001   0.904
10700SOL    HW132999   5.464   7.008   0.870
10700SOL    HW233000   5.622   6.999   0.831
10701SOL     OW33001   3.196   0.404   6.142
10701SOL    HW133002   3.131   0.375   6.212
10701SOL    HW233003   3.237   0.324   6.098
10702SOL     OW33004   4.885   3.639   2.683
10702SOL    HW133005   4.926   3.602   2.600
10702SOL    HW233006   4.865   3.736   2.669
10703SOL     OW33007   1.984   2.943   5.228
10703SOL    HW133008   2.058   2.889   5.267
10703SOL    HW233009   1.897   2.912   5.266
10704SOL     OW33010   6.680   4.896   3.011
10704SOL    HW133011   6.765   4.862   3.052
10704SOL    HW233012   6.689   4.994   2.993
10705SOL     OW33013   5.824   5.350   1.513
10705SOL    HW133014   5.809   5.285   1.588
10705SOL    HW233015   5.754   5.421   1.517
10706SOL     OW33016   3.979   0.054   1.337
10706SOL    HW133017   3.959   0.152   1.332
10706SOL    HW233018   3.932   0.015   1.416
10707SOL     OW33019   0.749   6.968   4.236
10707SOL    HW133020   0.679   6.940   4.302
10707SOL    HW233021   0.825   6.903   4.238
10708SOL     OW33022   4.618   1.219   1.615
10708SOL    HW133023   4.547   1.169   1.665
10708SOL    HW233024   4.588   1.313   1.599
10709SOL     OW33025   5.591   4.679   4.849
10709SOL    HW133026   5.502   4.703   4.886
10709SOL    HW233027   5.663   4.714   4.910
10710SOL     OW33028   6.192   1.274   3.749
10710SOL    HW133029   6.185   1.341   3.823
10710SOL    HW233030   6.225   1.187   3.786
10711SOL     OW33031   2.452   6.477   3.965
10711SOL    HW133032   2.522   6.543   3.937
10711SOL    HW233033   2.445   6.477   4.065
10712SOL     OW33034   2.939   0.106   2.769
10712SOL    HW133035   3.013   0.158   2.811
10712SOL    HW233036   2.885   0.060   2.840
10713SOL     OW33037   1.058   2.790   0.727
10713SOL    HW133038   1.009   2.707   0.699
10713SOL    HW233039   1.006   2.871   0.697
10714SOL     OW33040   4.418   3.232   5.510
10714SOL    HW133041   4.410   3.155   5.446
10714SOL    HW233042   4.471   3.305   5.467
10715SOL     OW33043   4.269   0.138   2.072
10715SOL    HW133044   4.346   0.075   2.075
10715SOL    HW233045   4.288   0.217   2.129
10716SOL     OW33046   5.870   2.806   3.030
10716SOL    HW133047   5.788   2.862   3.018
10716SOL    HW233048   5.869   2.765   3.121
10717SOL     OW33049   2.026   2.833   0.906
10717SOL    HW133050   1.939   2.842   0.955
10717SOL    HW233051   2.009   2.833   0.808
10718SOL     OW33052   1.192   3.720   0.098
10718SOL    HW133053   1.155   3.701   0.008
10718SOL    HW233054   1.276   3.773   0.090
10719SOL     OW33055   6.828   5.777   3.520
10719SOL    HW133056   6.908   5.761   3.463
10719SOL    HW233057   6.802   5.692   3.567
10720SOL     OW33058   6.268   5.214   4.669
10720SOL    HW133059   6.254   5.118   4.647
10720SOL    HW233060   6.199   5.244   4.735
10721SOL     OW33061   5.199   3.765   5.357
10721SOL    HW133062   5.263   3.805   5.424
10721SOL    HW233063   5.249   3.704   5.296
10722SOL     OW33064   0.526   4.716   1.014
10722SOL    HW133065   0.577   4.761   0.940
10722SOL    HW233066   0.575   4.729   1.100
10723SOL     OW33067   0.226   2.234   6.210
10723SOL    HW133068   0.321   2.254   6.185
10723SOL    HW233069   0.222   2.151   6.265
10724SOL     OW33070   5.870   6.859   5.940
10724SOL    HW133071   5.803   6.796   5.901
10724SOL    HW233072   5.896   6.927   5.872
10725SOL     OW33073   1.982   5.885   5.077
10725SOL    HW133074   1.912   5.868   5.146
10725SOL    HW233075   1.949   5.953   5.011
10726SOL     OW33076   5.990   0.895   3.851
10726SOL    HW133077   5.920   0.901   3.780
10726SOL    HW233078   5.953   0.931   3.937
10727SOL     OW33079   0.705   5.276   5.849
10727SOL    HW133080   0.769   5.284   5.773
10727SOL    HW233081   0.754   5.281   5.935
10728SOL     OW33082   1.625   4.693   6.691
10728SOL    HW133083   1.584   4.609   6.657
10728SOL    HW233084   1.713   4.708   6.647
10729SOL     OW33085   5.778   1.209   2.878
10729SOL    HW133086   5.822   1.159   2.802
10729SOL    HW233087   5.846   1.268   2.922
10730SOL     OW33088   2.202   0.649   1.190
10730SOL    HW133089   2.270   0.686   1.253
10730SOL    HW233090   2.150   0.577   1.235
10731SOL     OW33091   3.258   1.528   0.747
10731SOL    HW133092   3.191   1.454   0.749
10731SOL    HW233093   3.218   1.610   0.788
10732SOL     OW33094   0.516   4.630   5.144
10732SOL    HW133095   0.515   4.654   5.241
10732SOL    HW233096   0.457   4.692   5.094
10733SOL     OW33097   6.923   1.899   6.516
10733SOL    HW133098   6.954   1.955   6.439
10733SOL    HW233099   6.968   1.930   6.600
10734SOL     OW33100   1.098   0.747   0.482
10734SOL    HW133101   1.066   0.689   0.406
10734SOL    HW233102   1.024   0.809   0.509
10735SOL     OW33103   0.183   3.047   2.174
10735SOL    HW133104   0.187   3.146   2.186
10735SOL    HW233105   0.269   3.015   2.134
10736SOL     OW33106   1.289   0.476   3.664
10736SOL    HW133107   1.213   0.539   3.656
10736SOL    HW233108   1.258   0.392   3.710
10737SOL     OW33109   1.167   1.508   0.304
10737SOL    HW133110   1.201   1.599   0.326
10737SOL    HW233111   1.077   1.495   0.347
10738SOL     OW33112   2.447   6.486   2.974
10738SOL    HW133113   2.360   6.501   3.020
10738SOL    HW233114   2.492   6.574   2.956
10739SOL     OW33115   1.877   0.913   1.307
10739SOL    HW133116   1.917   0.868   1.227
10739SOL    HW233117   1.808   0.978   1.278
10740SOL     OW33118   0.571   5.204   5.219
10740SOL    HW133119   0.623   5.118   5.228
10740SOL    HW233120   0.479   5.191   5.255
10741SOL     OW33121   4.427   1.020   1.491
10741SOL    HW133122   4.405   1.109   1.529
10741SOL    HW233123   4.383   0.949   1.546
10742SOL     OW33124   5.183   6.901   1.277
10742SOL    HW133125   5.280   6.878   1.287
10742SOL    HW233126   5.170   6.999   1.291
10743SOL     OW33127   1.711   2.443   5.322
10743SOL    HW133128   1.630   2.501   5.336
10743SOL    HW233129   1.734   2.397   5.407
10744SOL     OW33130   2.958   1.377   1.052
10744SOL    HW133131   3.052   1.407   1.067
10744SOL    HW233132   2.906   1.450   1.007
10745SOL     OW33133   6.688   5.690   5.794
10745SOL    HW133134   6.765   5.725   5.740
10745SOL    HW233135   6.680   5.743   5.879
10746SOL     OW33136   2.418   4.914   1.172
10746SOL    HW133137   2.511   4.921   1.208
10746SOL    HW233138   2.420   4.875   1.080
10747SOL     OW33139   3.881   1.199   4.636
10747SOL    HW133140   3.943   1.270   4.667
10747SOL    HW233141   3.788   1.235   4.632
10748SOL     OW33142   5.406   1.352   0.416
10748SOL    HW133143   5.310   1.378   0.410
10748SOL    HW233144   5.447   1.395   0.497
10749SOL     OW33145   0.188   5.375   3.756
10749SOL    HW133146   0.191   5.275   3.744
10749SOL    HW233147   0.241   5.400   3.837
10750SOL     OW33148   4.745   6.276   4.631
10750SOL    HW133149   4.753   6.373   4.608
10750SOL    HW233150   4.741   6.221   4.547
10751SOL     OW33151   1.806   4.577   4.342
10751SOL    HW133152   1.825   4.568   4.440
10751SOL    HW233153   1.759   4.664   4.325
10752SOL     OW33154   5.924   4.930   5.571
10752SOL    HW133155   5.999   4.875   5.533
10752SOL    HW233156   5.847   4.870   5.592
10753SOL     OW33157   5.872   4.631   4.545
10753SOL    HW133158   5.861   4.709   4.483
10753SOL    HW233159   5.887   4.665   4.638
10754SOL     OW33160   0.572   0.110   3.643
10754SOL    HW133161   0.539   0.189   3.695
10754SOL    HW233162   0.669   0.123   3.620
10755SOL     OW33163   0.210   0.218   0.950
10755SOL    HW133164   0.304   0.223   0.983
10755SOL    HW233165   0.199   0.276   0.870
10756SOL     OW33166   6.454   4.918   6.632
10756SOL    HW133167   6.415   4.835   6.593
10756SOL    HW233168   6.424   4.997   6.578
10757SOL     OW33169   1.904   2.753   0.256
10757SOL    HW133170   1.858   2.704   0.182
10757SOL    HW233171   1.861   2.728   0.343
10758SOL     OW33172   0.943   5.653   4.598
10758SOL    HW133173   0.962   5.746   4.630
10758SOL    HW233174   0.973   5.587   4.667
10759SOL     OW33175   1.444   3.784   1.877
10759SOL    HW133176   1.536   3.748   1.889
10759SOL    HW233177   1.443   3.847   1.799
10760SOL     OW33178   5.181   0.491   2.741
10760SOL    HW133179   5.269   0.523   2.708
10760SOL    HW233180   5.195   0.417   2.807
10761SOL     OW33181   0.509   5.977   6.088
10761SOL    HW133182   0.476   5.886   6.114
10761SOL    HW233183   0.503   5.987   5.989
10762SOL     OW33184   3.078   1.888   4.438
10762SOL    HW133185   3.124   1.959   4.385
10762SOL    HW233186   3.121   1.881   4.528
10763SOL     OW33187   4.160   6.426   2.458
10763SOL    HW133188   4.259   6.416   2.467
10763SOL    HW233189   4.114   6.371   2.528
10764SOL     OW33190   5.562   2.208   5.814
10764SOL    HW133191   5.533   2.190   5.720
10764SOL    HW233192   5.499   2.272   5.858
10765SOL     OW33193   5.045   2.817   0.615
10765SOL    HW133194   5.014   2.724   0.635
10765SOL    HW233195   4.970   2.869   0.574
10766SOL     OW33196   4.295   5.138   0.552
10766SOL    HW133197   4.364   5.108   0.487
10766SOL    HW233198   4.269   5.061   0.611
10767SOL     OW33199   2.078   0.467   1.323
10767SOL    HW133200   2.057   0.372   1.298
10767SOL    HW233201   2.019   0.496   1.398
10768SOL     OW33202   5.134   5.155   1.058
10768SOL    HW133203   5.100   5.123   1.147
10768SOL    HW233204   5.059   5.153   0.992
10769SOL     OW33205   2.331   4.101   5.367
10769SOL    HW133206   2.357   4.047   5.287
10769SOL    HW233207   2.373   4.062   5.449
10770SOL     OW33208   5.112   6.787   3.991
10770SOL    HW133209   5.068   6.702   3.962
10770SOL    HW233210   5.125   6.785   4.091
10771SOL     OW33211   5.245   0.193   3.852
10771SOL    HW133212   5.152   0.214   3.884
10771SOL    HW233213   5.258   0.233   3.761
10772SOL     OW33214   6.541   0.132   4.222
10772SOL    HW133215   6.484   0.204   4.182
10772SOL    HW233216   6.558   0.153   4.319
10773SOL     OW33217   5.944   5.497   6.490
10773SOL    HW133218   5.973   5.406   6.516
10773SOL    HW233219   5.944   5.557   6.570
10774SOL     OW33220   2.291   1.528   5.995
10774SOL    HW133221   2.207   1.473   5.997
10774SOL    HW233222   2.326   1.539   6.088
10775SOL     OW33223   0.264   4.455   2.840
10775SOL    HW133224   0.202   4.507   2.781
10775SOL    HW233225   0.221   4.369   2.866
10776SOL     OW33226   0.670   0.626   6.133
10776SOL    HW133227   0.663   0.526   6.145
10776SOL    HW233228   0.586   0.660   6.089
10777SOL     OW33229   3.944   5.405   1.901
10777SOL    HW133230   3.865   5.413   1.962
10777SOL    HW233231   3.974   5.310   1.898
10778SOL     OW33232   4.635   0.224   3.922
10778SOL    HW133233   4.539   0.243   3.940
10778SOL    HW233234   4.650   0.215   3.824
10779SOL     OW33235   5.777   3.002   3.359
10779SOL    HW133236   5.739   2.913   3.334
10779SOL    HW233237   5.716   3.047   3.425
10780SOL     OW33238   1.723   0.535   4.331
10780SOL    HW133239   1.694   0.608   4.269
10780SOL    HW233240   1.650   0.516   4.397
10781SOL     OW33241   4.500   1.327   4.130
10781SOL    HW133242   4.589   1.373   4.126
10781SOL    HW233243   4.464   1.334   4.223
10782SOL     OW33244   6.988   0.471   2.929
10782SOL    HW133245   6.925   0.527   2.983
10782SOL    HW233246   0.050   0.524   2.907
10783SOL     OW33247   0.804   2.035   2.600
10783SOL    HW133248   0.799   1.987   2.513
10783SOL    HW233249   0.862   2.116   2.590
10784SOL     OW33250   3.987   0.524   4.277
10784SOL    HW133251   4.079   0.513   4.313
10784SOL    HW233252   3.954   0.617   4.297
10785SOL     OW33253   0.287   4.310   0.127
10785SOL    HW133254   0.233   4.248   0.183
10785SOL    HW233255   0.300   4.396   0.176
10786SOL     OW33256   6.789   5.010   3.374
10786SOL    HW133257   6.810   5.103   3.402
10786SOL    HW233258   6.854   4.947   3.416
10787SOL     OW33259   1.559   1.263   6.236
10787SOL    HW133260   1.566   1.203   6.316
10787SOL    HW233261   1.535   1.355   6.265
10788SOL     OW33262   0.911   4.196   0.277
10788SOL    HW133263   0.811   4.190   0.276
10788SOL    HW233264   0.947   4.137   0.349
10789SOL     OW33265   6.536   3.568   6.614
10789SOL    HW133266   6.452   3.618   6.593
10789SOL    HW233267   6.533   3.478   6.570
10790SOL     OW33268   1.167   0.002   2.192
10790SOL    HW133269   1.223   7.008   2.273
10790SOL    HW233270   1.082   6.969   2.200
10791SOL     OW33271   0.390   5.874   1.456
10791SOL    HW133272   0.372   5.854   1.552
10791SOL    HW233273   0.453   5.953   1.450
10792SOL     OW33274   3.100   3.115   4.836
10792SOL    HW133275   3.056   3.125   4.747
10792SOL    HW233276   3.178   3.052   4.827
10793SOL     OW33277   5.982   3.507   6.144
10793SOL    HW133278   6.030   3.435   6.095
10793SOL    HW233279   6.031   3.528   6.229
10794SOL     OW33280   3.991   3.884   4.158
10794SOL    HW133281   3.936   3.808   4.193
10794SOL    HW233282   4.026   3.860   4.067
10795SOL     OW33283   0.219   4.920   2.693
10795SOL    HW133284   0.131   4.875   2.684
10795SOL    HW233285   0.215   4.988   2.766
10796SOL     OW33286   6.503   7.003   5.424
10796SOL    HW133287   6.425   6.956   5.382
10796SOL    HW233288   6.481   0.008   5.518
10797SOL     OW33289   2.837   2.424   1.138
10797SOL    HW133290   2.812   2.492   1.069
10797SOL    HW233291   2.758   2.365   1.156
10798SOL     OW33292   2.869   0.813   0.535
10798SOL    HW133293   2.947   0.802   0.474
10798SOL    HW233294   2.785   0.795   0.486
10799SOL     OW33295   4.415   1.094   2.542
10799SOL    HW133296   4.440   1.190   2.554
10799SOL    HW233297   4.342   1.087   2.473
10800SOL     OW33298   1.040   6.205   5.351
10800SOL    HW133299   1.002   6.124   5.395
10800SOL    HW233300   1.032   6.196   5.252
10801SOL     OW33301   0.984   6.993   6.919
10801SOL    HW133302   0.948   6.938   6.995
10801SOL    HW233303   0.956   6.952   6.832
10802SOL     OW33304   0.525   0.364   2.126
10802SOL    HW133305   0.458   0.303   2.170
10802SOL    HW233306   0.541   0.333   2.033
10803SOL     OW33307   1.400   5.557   5.398
10803SOL    HW133308   1.479   5.584   5.453
10803SOL    HW233309   1.424   5.477   5.342
10804SOL     OW33310   6.168   3.253   2.635
10804SOL    HW133311   6.134   3.162   2.612
10804SOL    HW233312   6.134   3.319   2.568
10805SOL     OW33313   4.872   0.559   4.878
10805SOL    HW133314   4.825   0.638   4.839
10805SOL    HW233315   4.943   0.591   4.941
10806SOL     OW33316   3.496   4.287   5.889
10806SOL    HW133317   3.417   4.333   5.931
10806SOL    HW233318   3.536   4.223   5.954
10807SOL     OW33319   1.398   6.553   3.375
10807SOL    HW133320   1.390   6.613   3.454
10807SOL    HW233321   1.355   6.596   3.296
10808SOL     OW33322   0.363   2.772   5.709
10808SOL    HW133323   0.279   2.771   5.762
10808SOL    HW233324   0.348   2.821   5.624
10809SOL     OW33325   2.438   4.352   3.768
10809SOL    HW133326   2.451   4.451   3.773
10809SOL    HW233327   2.435   4.314   3.860
10810SOL     OW33328   0.212   0.363   4.318
10810SOL    HW133329   0.179   0.268   4.317
10810SOL    HW233330   0.247   0.385   4.408
10811SOL     OW33331   4.429   4.717   5.585
10811SOL    HW133332   4.440   4.798   5.643
10811SOL    HW233333   4.452   4.740   5.490
10812SOL     OW33334   0.109   3.948   0.101
10812SOL    HW133335   0.073   4.030   0.145
10812SOL    HW233336   0.094   3.955   0.002
10813SOL     OW33337   0.765   3.245   6.149
10813SOL    HW133338   0.808   3.183   6.215
10813SOL    HW233339   0.834   3.311   6.117
10814SOL     OW33340   2.159   6.965   6.876
10814SOL    HW133341   2.137   0.025   6.820
10814SOL    HW233342   2.113   6.884   6.839
10815SOL     OW33343   5.112   3.059   3.297
10815SOL    HW133344   5.060   3.141   3.277
10815SOL    HW233345   5.057   2.978   3.276
10816SOL     OW33346   3.140   3.366   2.763
10816SOL    HW133347   3.198   3.286   2.780
10816SOL    HW233348   3.166   3.408   2.676
10817SOL     OW33349   3.577   0.314   3.764
10817SOL    HW133350   3.480   0.312   3.790
10817SOL    HW233351   3.618   0.399   3.797
10818SOL     OW33352   4.690   4.332   5.689
10818SOL    HW133353   4.609   4.319   5.746
10818SOL    HW233354   4.699   4.254   5.627
10819SOL     OW33355   6.265   5.584   6.787
10819SOL    HW133356   6.195   5.631   6.733
10819SOL    HW233357   6.256   5.610   6.883
10820SOL     OW33358   6.960   5.063   4.417
10820SOL    HW133359   0.023   5.025   4.375
10820SOL    HW233360   6.980   5.091   4.511
10821SOL     OW33361   4.318   0.139   2.728
10821SOL    HW133362   4.367   0.178   2.806
10821SOL    HW233363   4.382   0.087   2.671
10822SOL     OW33364   6.547   1.632   2.070
10822SOL    HW133365   6.495   1.699   2.017
10822SOL    HW233366   6.597   1.572   2.008
10823SOL     OW33367   0.563   0.153   2.612
10823SOL    HW133368   0.511   0.077   2.652
10823SOL    HW233369   0.512   0.238   2.626
10824SOL     OW33370   0.338   0.965   2.340
10824SOL    HW133371   0.265   0.899   2.359
10824SOL    HW233372   0.387   0.937   2.258
10825SOL     OW33373   1.702   2.104   0.554
10825SOL    HW133374   1.779   2.041   0.537
10825SOL    HW233375   1.709   2.182   0.492
10826SOL     OW33376   0.970   1.090   2.295
10826SOL    HW133377   1.056   1.050   2.326
10826SOL    HW233378   0.896   1.023   2.305
10827SOL     OW33379   0.180   3.395   4.632
10827SOL    HW133380   0.134   3.320   4.680
10827SOL    HW233381   0.229   3.359   4.553
10828SOL     OW33382   1.107   4.396   0.745
10828SOL    HW133383   1.024   4.361   0.789
10828SOL    HW233384   1.126   4.488   0.779
10829SOL     OW33385   4.684   3.000   0.162
10829SOL    HW133386   4.780   2.980   0.143
10829SOL    HW233387   4.640   3.035   0.079
10830SOL     OW33388   4.494   1.923   3.186
10830SOL    HW133389   4.477   1.839   3.236
10830SOL    HW233390   4.414   1.982   3.191
10831SOL     OW33391   2.765   6.262   2.101
10831SOL    HW133392   2.754   6.316   2.017
10831SOL    HW233393   2.705   6.183   2.098
10832SOL     OW33394   6.476   3.953   6.608
10832SOL    HW133395   6.420   3.929   6.688
10832SOL    HW233396   6.560   3.899   6.610
10833SOL     OW33397   0.862   2.035   0.252
10833SOL    HW133398   0.915   1.980   0.188
10833SOL    HW233399   0.782   2.073   0.206
10834SOL     OW33400   6.597   1.722   0.052
10834SOL    HW133401   6.619   1.633   0.092
10834SOL    HW233402   6.516   1.713   7.012
10835SOL     OW33403   5.407   3.713   0.168
10835SOL    HW133404   5.315   3.702   0.129
10835SOL    HW233405   5.459   3.628   0.155
10836SOL     OW33406   0.369   1.327   2.881
10836SOL    HW133407   0.289   1.276   2.911
10836SOL    HW233408   0.374   1.413   2.932
10837SOL     OW33409   6.793   4.971   2.284
10837SOL    HW133410   6.821   5.049   2.228
10837SOL    HW233411   6.873   4.915   2.305
10838SOL     OW33412   6.058   6.508   3.858
10838SOL    HW133413   6.117   6.443   3.906
10838SOL    HW233414   6.088   6.601   3.876
10839SOL     OW33415   4.656   3.212   0.526
10839SOL    HW133416   4.594   3.227   0.603
10839SOL    HW233417   4.750   3.226   0.556
10840SOL     OW33418   3.591   6.716   2.171
10840SOL    HW133419   3.528   6.646   2.203
10840SOL    HW233420   3.638   6.757   2.249
10841SOL     OW33421   6.544   4.817   5.163
10841SOL    HW133422   6.612   4.819   5.090
10841SOL    HW233423   6.456   4.847   5.127
10842SOL     OW33424   5.078   2.289   1.487
10842SOL    HW133425   5.078   2.193   1.460
10842SOL    HW233426   5.165   2.332   1.461
10843SOL     OW33427   1.594   1.029   1.355
10843SOL    HW133428   1.504   1.053   1.391
10843SOL    HW233429   1.606   1.068   1.264
10844SOL     OW33430   6.636   4.726   3.531
10844SOL    HW133431   6.583   4.651   3.491
10844SOL    HW233432   6.731   4.719   3.500
10845SOL     OW33433   4.356   6.089   5.405
10845SOL    HW133434   4.402   6.013   5.360
10845SOL    HW233435   4.415   6.170   5.403
10846SOL     OW33436   5.381   0.488   0.066
10846SOL    HW133437   5.315   0.507   7.012
10846SOL    HW233438   5.472   0.474   0.026
10847SOL     OW33439   2.821   2.429   0.016
10847SOL    HW133440   2.773   2.508   0.055
10847SOL    HW233441   2.915   2.428   0.050
10848SOL     OW33442   0.227   3.735   1.005
10848SOL    HW133443   0.166   3.805   1.043
10848SOL    HW233444   0.194   3.708   0.915
10849SOL     OW33445   2.608   4.601   4.047
10849SOL    HW133446   2.580   4.631   3.956
10849SOL    HW233447   2.589   4.504   4.057
10850SOL     OW33448   3.538   6.228   6.662
10850SOL    HW133449   3.560   6.286   6.740
10850SOL    HW233450   3.620   6.179   6.632
10851SOL     OW33451   3.091   3.895   1.107
10851SOL    HW133452   3.140   3.835   1.171
10851SOL    HW233453   3.144   3.906   1.024
10852SOL     OW33454   1.653   1.142   6.860
10852SOL    HW133455   1.716   1.078   6.906
10852SOL    HW233456   1.582   1.090   6.812
10853SOL     OW33457   2.478   3.338   5.937
10853SOL    HW133458   2.403   3.395   5.903
10853SOL    HW233459   2.441   3.255   5.978
10854SOL     OW33460   4.332   5.443   5.382
10854SOL    HW133461   4.400   5.444   5.308
10854SOL    HW233462   4.248   5.401   5.350
10855SOL     OW33463   3.757   1.074   0.332
10855SOL    HW133464   3.828   1.125   0.284
10855SOL    HW233465   3.780   1.067   0.429
10856SOL     OW33466   6.501   1.357   0.199
10856SOL    HW133467   6.591   1.315   0.208
10856SOL    HW233468   6.434   1.306   0.253
10857SOL     OW33469   0.458   2.684   2.708
10857SOL    HW133470   0.425   2.778   2.720
10857SOL    HW233471   0.396   2.634   2.649
10858SOL     OW33472   0.960   0.244   0.388
10858SOL    HW133473   0.975   0.285   0.478
10858SOL    HW233474   0.938   0.147   0.399
10859SOL     OW33475   0.400   4.676   4.429
10859SOL    HW133476   0.484   4.622   4.437
10859SOL    HW233477   0.342   4.661   4.509
10860SOL     OW33478   0.486   2.939   4.357
10860SOL    HW133479   0.534   3.006   4.414
10860SOL    HW233480   0.438   2.985   4.283
10861SOL     OW33481   3.346   3.299   3.299
10861SOL    HW133482   3.308   3.326   3.387
10861SOL    HW233483   3.362   3.381   3.243
10862SOL     OW33484   1.394   1.061   5.593
10862SOL    HW133485   1.477   1.116   5.609
10862SOL    HW233486   1.328   1.116   5.541
10863SOL     OW33487   2.450   0.330   4.712
10863SOL    HW133488   2.544   0.364   4.711
10863SOL    HW233489   2.404   0.365   4.794
10864SOL     OW33490   3.409   6.282   0.475
10864SOL    HW133491   3.438   6.357   0.415
10864SOL    HW233492   3.339   6.227   0.428
10865SOL     OW33493   6.804   1.216   0.705
10865SOL    HW133494   6.889   1.177   0.741
10865SOL    HW233495   6.785   1.303   0.750
10866SOL     OW33496   5.300   4.810   0.920
10866SOL    HW133497   5.324   4.907   0.923
10866SOL    HW233498   5.381   4.757   0.896
10867SOL     OW33499   3.097   4.185   0.975
10867SOL    HW133500   3.122   4.109   0.915
10867SOL    HW233501   3.005   4.171   1.011
10868SOL     OW33502   4.898   1.844   3.823
10868SOL    HW133503   4.808   1.881   3.846
10868SOL    HW233504   4.891   1.788   3.741
10869NA      NA33505   6.590   2.998   5.540
10870NA      NA33506   4.562   4.551   5.092
10871NA      NA33507   1.265   2.924   1.815
10872NA      NA33508   4.979   3.870   5.295
10873NA      NA33509   4.214   2.299   5.234
10874NA      NA33510   3.573   4.907   1.816
10875NA      NA33511   6.704   4.912   6.674
10876NA      NA33512   3.192   3.598   4.898
10877NA      NA33513   4.389   6.220   6.854
10878NA      NA33514   4.139   6.404   5.137
10879NA      NA33515   6.532   5.167   2.643
10880NA      NA33516   2.140   0.087   3.615
10881NA      NA33517   4.083   5.600   1.819
10882NA      NA33518   3.948   3.437   2.471
   7.01945   7.01945   7.01945
