Generated by trjconv : CNT in water t= 543.00000
33518
    1C        C    1   2.847   2.772   4.748
    1C        C    2   2.898   2.717   4.868
    1C        C    3   2.845   2.772   4.985
    1C        C    4   2.853   2.779   4.261
    1C        C    5   2.901   2.728   4.384
    1C        C    6   2.845   2.773   4.505
    1C        C    7   3.015   2.643   4.624
    1C        C    8   2.897   2.721   4.626
    1C        C    9   3.080   2.608   4.744
    1C        C   10   3.008   2.629   4.864
    1C        C   11   3.182   2.493   4.976
    1C        C   12   3.058   2.559   4.975
    1C        C   13   2.854   2.778   3.770
    1C        C   14   2.902   2.728   3.894
    1C        C   15   2.850   2.776   4.017
    1C        C   16   3.021   2.651   4.137
    1C        C   17   2.903   2.729   4.139
    1C        C   18   3.081   2.617   4.260
    1C        C   19   3.015   2.645   4.382
    1C        C   20   3.210   2.560   4.504
    1C        C   21   3.077   2.606   4.503
    1C        C   22   3.279   2.536   4.625
    1C        C   23   3.211   2.554   4.748
    1C        C   24   3.415   2.488   4.866
    1C        C   25   3.274   2.511   4.868
    1C        C   26   3.490   2.472   4.983
    1C        C   27   2.852   2.771   3.284
    1C        C   28   2.906   2.726   3.407
    1C        C   29   2.850   2.771   3.529
    1C        C   30   3.020   2.641   3.650
    1C        C   31   2.908   2.727   3.650
    1C        C   32   3.081   2.611   3.773
    1C        C   33   3.017   2.647   3.894
    1C        C   34   3.213   2.561   4.016
    1C        C   35   3.081   2.612   4.015
    1C        C   36   3.280   2.543   4.139
    1C        C   37   3.212   2.564   4.261
    1C        C   38   3.419   2.512   4.383
    1C        C   39   3.280   2.538   4.383
    1C        C   40   3.489   2.505   4.506
    1C        C   41   3.416   2.503   4.627
    1C        C   42   3.632   2.487   4.745
    1C        C   43   3.490   2.482   4.745
    1C        C   44   3.707   2.483   4.865
    1C        C   45   3.629   2.484   4.980
    1C        C   46   2.836   2.753   2.794
    1C        C   47   2.893   2.710   2.916
    1C        C   48   2.845   2.764   3.037
    1C        C   49   3.017   2.643   3.160
    1C        C   50   2.899   2.721   3.161
    1C        C   51   3.082   2.612   3.281
    1C        C   52   3.021   2.644   3.405
    1C        C   53   3.211   2.552   3.528
    1C        C   54   3.079   2.604   3.527
    1C        C   55   3.279   2.532   3.650
    1C        C   56   3.211   2.556   3.771
    1C        C   57   3.419   2.514   3.895
    1C        C   58   3.279   2.537   3.893
    1C        C   59   3.489   2.510   4.018
    1C        C   60   3.417   2.509   4.139
    1C        C   61   3.630   2.503   4.262
    1C        C   62   3.488   2.504   4.261
    1C        C   63   3.702   2.506   4.383
    1C        C   64   3.630   2.498   4.504
    1C        C   65   3.841   2.533   4.621
    1C        C   66   3.703   2.501   4.624
    1C        C   67   3.906   2.559   4.743
    1C        C   68   3.841   2.530   4.865
    1C        C   69   4.050   2.591   4.983
    1C        C   70   3.923   2.530   4.978
    1C        C   71   2.827   2.737   2.310
    1C        C   72   2.882   2.693   2.432
    1C        C   73   2.831   2.747   2.552
    1C        C   74   3.006   2.626   2.675
    1C        C   75   2.887   2.702   2.673
    1C        C   76   3.075   2.598   2.795
    1C        C   77   3.014   2.637   2.916
    1C        C   78   3.206   2.547   3.038
    1C        C   79   3.076   2.602   3.038
    1C        C   80   3.275   2.532   3.160
    1C        C   81   3.211   2.555   3.284
    1C        C   82   3.418   2.507   3.402
    1C        C   83   3.279   2.533   3.406
    1C        C   84   3.487   2.498   3.525
    1C        C   85   3.418   2.502   3.648
    1C        C   86   3.627   2.503   3.770
    1C        C   87   3.486   2.501   3.772
    1C        C   88   3.698   2.513   3.892
    1C        C   89   3.630   2.513   4.016
    1C        C   90   3.836   2.546   4.137
    1C        C   91   3.699   2.513   4.139
    1C        C   92   3.907   2.564   4.258
    1C        C   93   3.838   2.547   4.380
    1C        C   94   4.031   2.636   4.500
    1C        C   95   3.906   2.570   4.501
    1C        C   96   4.090   2.671   4.623
    1C        C   97   4.031   2.628   4.744
    1C        C   98   4.194   2.763   4.863
    1C        C   99   4.101   2.654   4.865
    1C        C  100   4.218   2.840   4.977
    1C        C  101   2.821   2.730   2.071
    1C        C  102   2.989   2.593   2.191
    1C        C  103   2.872   2.675   2.189
    1C        C  104   3.064   2.579   2.311
    1C        C  105   3.005   2.623   2.431
    1C        C  106   3.201   2.541   2.549
    1C        C  107   3.071   2.596   2.553
    1C        C  108   3.271   2.522   2.671
    1C        C  109   3.205   2.543   2.794
    1C        C  110   3.411   2.496   2.915
    1C        C  111   3.272   2.518   2.916
    1C        C  112   3.483   2.497   3.036
    1C        C  113   3.414   2.507   3.160
    1C        C  114   3.629   2.507   3.279
    1C        C  115   3.488   2.496   3.279
    1C        C  116   3.697   2.517   3.403
    1C        C  117   3.628   2.506   3.525
    1C        C  118   3.837   2.537   3.646
    1C        C  119   3.699   2.507   3.648
    1C        C  120   3.901   2.568   3.769
    1C        C  121   3.835   2.546   3.892
    1C        C  122   4.028   2.633   4.013
    1C        C  123   3.902   2.569   4.014
    1C        C  124   4.091   2.667   4.135
    1C        C  125   4.034   2.626   4.257
    1C        C  126   4.200   2.762   4.379
    1C        C  127   4.094   2.670   4.378
    1C        C  128   4.247   2.818   4.500
    1C        C  129   4.191   2.770   4.620
    1C        C  130   4.325   2.935   4.743
    1C        C  131   4.242   2.820   4.742
    1C        C  132   4.354   3.001   4.864
    1C        C  133   4.284   2.962   4.979
    1C        C  134   3.168   2.468   2.084
    1C        C  135   3.036   2.515   2.080
    1C        C  136   3.261   2.482   2.188
    1C        C  137   3.197   2.527   2.306
    1C        C  138   3.405   2.486   2.429
    1C        C  139   3.267   2.512   2.427
    1C        C  140   3.481   2.482   2.548
    1C        C  141   3.410   2.498   2.669
    1C        C  142   3.622   2.501   2.789
    1C        C  143   3.481   2.496   2.792
    1C        C  144   3.692   2.509   2.911
    1C        C  145   3.624   2.503   3.035
    1C        C  146   3.837   2.533   3.154
    1C        C  147   3.698   2.507   3.155
    1C        C  148   3.902   2.555   3.277
    1C        C  149   3.837   2.536   3.401
    1C        C  150   4.029   2.621   3.522
    1C        C  151   3.904   2.554   3.523
    1C        C  152   4.087   2.661   3.644
    1C        C  153   4.027   2.632   3.768
    1C        C  154   4.199   2.757   3.890
    1C        C  155   4.086   2.672   3.890
    1C        C  156   4.249   2.808   4.012
    1C        C  157   4.200   2.757   4.135
    1C        C  158   4.332   2.925   4.253
    1C        C  159   4.252   2.808   4.256
    1C        C  160   4.370   2.986   4.375
    1C        C  161   4.332   2.931   4.499
    1C        C  162   4.437   3.116   4.618
    1C        C  163   4.370   2.992   4.621
    1C        C  164   4.457   3.186   4.739
    1C        C  165   4.426   3.122   4.861
    1C        C  166   4.517   3.320   4.974
    1C        C  167   4.473   3.189   4.976
    1C        C  168   3.475   2.437   2.072
    1C        C  169   3.401   2.461   2.188
    1C        C  170   3.618   2.467   2.305
    1C        C  171   3.475   2.468   2.308
    1C        C  172   3.692   2.485   2.423
    1C        C  173   3.623   2.486   2.546
    1C        C  174   3.829   2.542   2.668
    1C        C  175   3.692   2.507   2.667
    1C        C  176   3.897   2.563   2.790
    1C        C  177   3.830   2.543   2.912
    1C        C  178   4.029   2.623   3.033
    1C        C  179   3.903   2.558   3.032
    1C        C  180   4.091   2.658   3.155
    1C        C  181   4.029   2.617   3.276
    1C        C  182   4.198   2.744   3.399
    1C        C  183   4.088   2.655   3.399
    1C        C  184   4.244   2.800   3.520
    1C        C  185   4.195   2.753   3.644
    1C        C  186   4.332   2.915   3.764
    1C        C  187   4.247   2.802   3.765
    1C        C  188   4.369   2.979   3.885
    1C        C  189   4.335   2.920   4.009
    1C        C  190   4.443   3.104   4.129
    1C        C  191   4.373   2.981   4.131
    1C        C  192   4.467   3.172   4.250
    1C        C  193   4.437   3.111   4.374
    1C        C  194   4.504   3.314   4.492
    1C        C  195   4.468   3.177   4.495
    1C        C  196   4.515   3.386   4.613
    1C        C  197   4.502   3.321   4.737
    1C        C  198   4.556   3.535   4.848
    1C        C  199   4.528   3.395   4.856
    1C        C  200   4.582   3.618   4.962
    1C        C  201   3.614   2.419   2.072
    1C        C  202   3.827   2.513   2.184
    1C        C  203   3.693   2.463   2.184
    1C        C  204   3.897   2.546   2.303
    1C        C  205   3.830   2.519   2.424
    1C        C  206   4.024   2.615   2.543
    1C        C  207   3.895   2.558   2.543
    1C        C  208   4.089   2.650   2.664
    1C        C  209   4.027   2.620   2.787
    1C        C  210   4.197   2.746   2.907
    1C        C  211   4.085   2.661   2.909
    1C        C  212   4.253   2.790   3.029
    1C        C  213   4.202   2.745   3.153
    1C        C  214   4.335   2.907   3.273
    1C        C  215   4.247   2.796   3.277
    1C        C  216   4.368   2.971   3.395
    1C        C  217   4.328   2.914   3.518
    1C        C  218   4.432   3.098   3.641
    1C        C  219   4.371   2.971   3.640
    1C        C  220   4.458   3.167   3.761
    1C        C  221   4.433   3.104   3.885
    1C        C  222   4.496   3.308   4.004
    1C        C  223   4.461   3.171   4.006
    1C        C  224   4.509   3.381   4.124
    1C        C  225   4.496   3.310   4.246
    1C        C  226   4.518   3.522   4.368
    1C        C  227   4.512   3.381   4.368
    1C        C  228   4.519   3.597   4.487
    1C        C  229   4.533   3.526   4.609
    1C        C  230   4.500   3.742   4.726
    1C        C  231   4.536   3.605   4.726
    1C        C  232   4.498   3.821   4.844
    1C        C  233   4.548   3.754   4.956
    1C        C  234   4.017   2.612   2.063
    1C        C  235   3.895   2.545   2.066
    1C        C  236   4.088   2.646   2.179
    1C        C  237   4.026   2.606   2.299
    1C        C  238   4.201   2.730   2.420
    1C        C  239   4.087   2.645   2.421
    1C        C  240   4.252   2.786   2.540
    1C        C  241   4.197   2.741   2.662
    1C        C  242   4.339   2.900   2.784
    1C        C  243   4.248   2.792   2.783
    1C        C  244   4.375   2.960   2.907
    1C        C  245   4.340   2.901   3.030
    1C        C  246   4.430   3.095   3.150
    1C        C  247   4.374   2.966   3.151
    1C        C  248   4.453   3.162   3.272
    1C        C  249   4.423   3.101   3.396
    1C        C  250   4.485   3.303   3.514
    1C        C  251   4.450   3.166   3.518
    1C        C  252   4.497   3.374   3.635
    1C        C  253   4.491   3.305   3.758
    1C        C  254   4.515   3.516   3.879
    1C        C  255   4.507   3.375   3.880
    1C        C  256   4.515   3.590   4.000
    1C        C  257   4.516   3.522   4.124
    1C        C  258   4.485   3.732   4.242
    1C        C  259   4.512   3.593   4.246
    1C        C  260   4.474   3.805   4.363
    1C        C  261   4.489   3.735   4.485
    1C        C  262   4.427   3.942   4.606
    1C        C  263   4.472   3.808   4.605
    1C        C  264   4.398   4.009   4.726
    1C        C  265   4.434   3.946   4.847
    1C        C  266   4.313   4.128   4.960
    1C        C  267   4.392   4.014   4.963
    1C        C  268   4.268   2.772   2.061
    1C        C  269   4.201   2.731   2.177
    1C        C  270   4.347   2.886   2.297
    1C        C  271   4.257   2.776   2.299
    1C        C  272   4.383   2.953   2.416
    1C        C  273   4.342   2.895   2.539
    1C        C  274   4.441   3.083   2.662
    1C        C  275   4.379   2.956   2.660
    1C        C  276   4.463   3.153   2.783
    1C        C  277   4.436   3.087   2.905
    1C        C  278   4.496   3.293   3.026
    1C        C  279   4.459   3.157   3.026
    1C        C  280   4.511   3.366   3.146
    1C        C  281   4.493   3.298   3.268
    1C        C  282   4.511   3.511   3.388
    1C        C  283   4.501   3.370   3.390
    1C        C  284   4.508   3.580   3.511
    1C        C  285   4.511   3.515   3.636
    1C        C  286   4.489   3.726   3.751
    1C        C  287   4.515   3.587   3.757
    1C        C  288   4.470   3.796   3.872
    1C        C  289   4.487   3.728   3.995
    1C        C  290   4.427   3.931   4.120
    1C        C  291   4.471   3.796   4.117
    1C        C  292   4.403   4.002   4.240
    1C        C  293   4.432   3.940   4.363
    1C        C  294   4.335   4.132   4.478
    1C        C  295   4.401   4.008   4.483
    1C        C  296   4.288   4.190   4.598
    1C        C  297   4.326   4.132   4.722
    1C        C  298   4.203   4.313   4.836
    1C        C  299   4.287   4.198   4.841
    1C        C  300   4.174   4.399   4.947
    1C        C  301   4.353   2.881   2.059
    1C        C  302   4.467   3.068   2.178
    1C        C  303   4.397   2.943   2.177
    1C        C  304   4.476   3.144   2.299
    1C        C  305   4.444   3.080   2.421
    1C        C  306   4.504   3.286   2.540
    1C        C  307   4.474   3.148   2.541
    1C        C  308   4.514   3.359   2.660
    1C        C  309   4.499   3.290   2.782
    1C        C  310   4.526   3.502   2.899
    1C        C  311   4.514   3.361   2.903
    1C        C  312   4.521   3.575   3.020
    1C        C  313   4.519   3.507   3.144
    1C        C  314   4.486   3.719   3.263
    1C        C  315   4.508   3.579   3.265
    1C        C  316   4.469   3.788   3.385
    1C        C  317   4.483   3.719   3.507
    1C        C  318   4.430   3.928   3.628
    1C        C  319   4.469   3.792   3.627
    1C        C  320   4.404   3.993   3.750
    1C        C  321   4.427   3.930   3.875
    1C        C  322   4.322   4.114   3.992
    1C        C  323   4.397   3.995   3.998
    1C        C  324   4.282   4.174   4.114
    1C        C  325   4.327   4.120   4.237
    1C        C  326   4.189   4.286   4.354
    1C        C  327   4.288   4.186   4.356
    1C        C  328   4.138   4.339   4.475
    1C        C  329   4.190   4.291   4.597
    1C        C  330   4.026   4.436   4.716
    1C        C  331   4.143   4.356   4.714
    1C        C  332   3.970   4.484   4.837
    1C        C  333   4.057   4.477   4.946
    1C        C  334   4.548   3.270   2.063
    1C        C  335   4.531   3.131   2.067
    1C        C  336   4.531   3.351   2.176
    1C        C  337   4.509   3.282   2.297
    1C        C  338   4.525   3.497   2.412
    1C        C  339   4.518   3.356   2.418
    1C        C  340   4.519   3.570   2.533
    1C        C  341   4.519   3.500   2.656
    1C        C  342   4.498   3.712   2.771
    1C        C  343   4.521   3.573   2.777
    1C        C  344   4.480   3.782   2.893
    1C        C  345   4.497   3.714   3.015
    1C        C  346   4.428   3.916   3.138
    1C        C  347   4.475   3.783   3.137
    1C        C  348   4.399   3.985   3.258
    1C        C  349   4.430   3.924   3.381
    1C        C  350   4.326   4.108   3.503
    1C        C  351   4.400   3.988   3.503
    1C        C  352   4.281   4.166   3.624
    1C        C  353   4.329   4.112   3.746
    1C        C  354   4.184   4.268   3.866
    1C        C  355   4.284   4.168   3.868
    1C        C  356   4.127   4.315   3.987
    1C        C  357   4.183   4.274   4.111
    1C        C  358   4.013   4.402   4.232
    1C        C  359   4.133   4.328   4.232
    1C        C  360   3.956   4.448   4.353
    1C        C  361   4.021   4.419   4.475
    1C        C  362   3.829   4.513   4.595
    1C        C  363   3.963   4.467   4.594
    1C        C  364   3.763   4.543   4.716
    1C        C  365   3.839   4.536   4.835
    1C        C  366   3.630   4.595   4.952
    1C        C  367   3.768   4.574   4.949
    1C        C  368   4.510   3.565   2.055
    1C        C  369   4.523   3.492   2.174
    1C        C  370   4.501   3.710   2.287
    1C        C  371   4.518   3.569   2.292
    1C        C  372   4.485   3.781   2.408
    1C        C  373   4.499   3.710   2.530
    1C        C  374   4.428   3.913   2.647
    1C        C  375   4.480   3.781   2.650
    1C        C  376   4.400   3.976   2.770
    1C        C  377   4.435   3.916   2.893
    1C        C  378   4.326   4.099   3.013
    1C        C  379   4.400   3.979   3.015
    1C        C  380   4.279   4.158   3.133
    1C        C  381   4.320   4.103   3.256
    1C        C  382   4.184   4.261   3.379
    1C        C  383   4.283   4.161   3.379
    1C        C  384   4.129   4.313   3.499
    1C        C  385   4.186   4.270   3.622
    1C        C  386   4.010   4.388   3.746
    1C        C  387   4.131   4.315   3.744
    1C        C  388   3.948   4.427   3.867
    1C        C  389   4.011   4.395   3.989
    1C        C  390   3.819   4.489   4.110
    1C        C  391   3.949   4.433   4.110
    1C        C  392   3.755   4.516   4.234
    1C        C  393   3.825   4.502   4.355
    1C        C  394   3.617   4.551   4.475
    1C        C  395   3.756   4.530   4.475
    1C        C  396   3.547   4.561   4.598
    1C        C  397   3.623   4.564   4.717
    1C        C  398   3.413   4.547   4.838
    1C        C  399   3.551   4.578   4.838
    1C        C  400   3.344   4.516   4.956
    1C        C  401   4.505   3.704   2.054
    1C        C  402   4.455   3.920   2.167
    1C        C  403   4.492   3.784   2.168
    1C        C  404   4.421   3.985   2.287
    1C        C  405   4.445   3.916   2.408
    1C        C  406   4.331   4.103   2.525
    1C        C  407   4.408   3.984   2.527
    1C        C  408   4.281   4.151   2.648
    1C        C  409   4.324   4.095   2.770
    1C        C  410   4.178   4.250   2.888
    1C        C  411   4.283   4.156   2.891
    1C        C  412   4.125   4.299   3.010
    1C        C  413   4.178   4.256   3.134
    1C        C  414   4.005   4.375   3.256
    1C        C  415   4.127   4.303   3.257
    1C        C  416   3.941   4.411   3.376
    1C        C  417   4.007   4.384   3.498
    1C        C  418   3.817   4.470   3.621
    1C        C  419   3.948   4.417   3.622
    1C        C  420   3.751   4.499   3.742
    1C        C  421   3.816   4.477   3.866
    1C        C  422   3.612   4.530   3.990
    1C        C  423   3.751   4.505   3.988
    1C        C  424   3.543   4.539   4.113
    1C        C  425   3.616   4.539   4.233
    1C        C  426   3.403   4.536   4.357
    1C        C  427   3.544   4.546   4.355
    1C        C  428   3.331   4.536   4.479
    1C        C  429   3.406   4.550   4.598
    1C        C  430   3.195   4.521   4.723
    1C        C  431   3.336   4.539   4.720
    1C        C  432   3.125   4.494   4.844
    1C        C  433   3.207   4.491   4.958
    1C        C  434   4.385   4.124   2.052
    1C        C  435   4.452   4.001   2.053
    1C        C  436   4.302   4.163   2.162
    1C        C  437   4.340   4.102   2.284
    1C        C  438   4.182   4.251   2.404
    1C        C  439   4.290   4.160   2.403
    1C        C  440   4.127   4.299   2.524
    1C        C  441   4.178   4.249   2.646
    1C        C  442   4.005   4.375   2.768
    1C        C  443   4.122   4.295   2.767
    1C        C  444   3.944   4.409   2.891
    1C        C  445   4.007   4.376   3.013
    1C        C  446   3.814   4.467   3.131
    1C        C  447   3.941   4.407   3.134
    1C        C  448   3.747   4.491   3.253
    1C        C  449   3.812   4.468   3.377
    1C        C  450   3.609   4.522   3.499
    1C        C  451   3.747   4.491   3.500
    1C        C  452   3.542   4.539   3.622
    1C        C  453   3.614   4.531   3.744
    1C        C  454   3.402   4.536   3.867
    1C        C  455   3.543   4.534   3.866
    1C        C  456   3.335   4.518   3.990
    1C        C  457   3.402   4.529   4.115
    1C        C  458   3.192   4.498   4.238
    1C        C  459   3.331   4.524   4.237
    1C        C  460   3.121   4.486   4.360
    1C        C  461   3.193   4.509   4.479
    1C        C  462   2.998   4.434   4.606
    1C        C  463   3.126   4.494   4.603
    1C        C  464   2.929   4.402   4.725
    1C        C  465   2.990   4.447   4.846
    1C        C  466   2.802   4.341   4.962
    1C        C  467   2.908   4.432   4.962
    1C        C  468   4.124   4.285   2.041
    1C        C  469   4.186   4.247   2.160
    1C        C  470   4.007   4.369   2.280
    1C        C  471   4.128   4.295   2.281
    1C        C  472   3.940   4.399   2.401
    1C        C  473   4.006   4.371   2.523
    1C        C  474   3.811   4.455   2.644
    1C        C  475   3.942   4.403   2.645
    1C        C  476   3.746   4.483   2.766
    1C        C  477   3.815   4.466   2.888
    1C        C  478   3.607   4.517   3.011
    1C        C  479   3.746   4.492   3.009
    1C        C  480   3.535   4.526   3.133
    1C        C  481   3.609   4.518   3.253
    1C        C  482   3.399   4.530   3.379
    1C        C  483   3.540   4.531   3.376
    1C        C  484   3.331   4.525   3.503
    1C        C  485   3.401   4.538   3.625
    1C        C  486   3.192   4.498   3.746
    1C        C  487   3.329   4.531   3.747
    1C        C  488   3.128   4.473   3.869
    1C        C  489   3.197   4.489   3.992
    1C        C  490   3.000   4.419   4.116
    1C        C  491   3.127   4.479   4.114
    1C        C  492   2.938   4.386   4.239
    1C        C  493   2.991   4.429   4.363
    1C        C  494   2.821   4.310   4.484
    1C        C  495   2.932   4.396   4.487
    1C        C  496   2.768   4.262   4.606
    1C        C  497   2.819   4.312   4.729
    1C        C  498   2.662   4.169   4.847
    1C        C  499   2.752   4.277   4.848
    1C        C  500   2.595   4.117   4.959
    1C        C  501   4.005   4.358   2.040
    1C        C  502   3.817   4.464   2.155
    1C        C  503   3.944   4.402   2.157
    1C        C  504   3.746   4.475   2.276
    1C        C  505   3.807   4.446   2.400
    1C        C  506   3.605   4.505   2.524
    1C        C  507   3.742   4.473   2.522
    1C        C  508   3.534   4.522   2.645
    1C        C  509   3.608   4.514   2.765
    1C        C  510   3.397   4.520   2.890
    1C        C  511   3.539   4.519   2.888
    1C        C  512   3.324   4.519   3.010
    1C        C  513   3.394   4.528   3.132
    1C        C  514   3.189   4.497   3.257
    1C        C  515   3.328   4.526   3.257
    1C        C  516   3.124   4.475   3.380
    1C        C  517   3.192   4.500   3.502
    1C        C  518   2.998   4.413   3.625
    1C        C  519   3.124   4.478   3.623
    1C        C  520   2.937   4.377   3.747
    1C        C  521   3.001   4.411   3.869
    1C        C  522   2.838   4.283   3.995
    1C        C  523   2.945   4.375   3.993
    1C        C  524   2.788   4.236   4.118
    1C        C  525   2.834   4.290   4.240
    1C        C  526   2.696   4.134   4.366
    1C        C  527   2.783   4.245   4.364
    1C        C  528   2.654   4.078   4.489
    1C        C  529   2.685   4.148   4.608
    1C        C  530   2.587   3.961   4.734
    1C        C  531   2.645   4.091   4.730
    1C        C  532   2.541   3.900   4.853
    1C        C  533   2.527   3.995   4.959
    1C        C  534   3.622   4.562   2.045
    1C        C  535   3.753   4.512   2.040
    1C        C  536   3.539   4.530   2.158
    1C        C  537   3.606   4.504   2.281
    1C        C  538   3.393   4.520   2.401
    1C        C  539   3.534   4.515   2.401
    1C        C  540   3.323   4.511   2.523
    1C        C  541   3.393   4.516   2.646
    1C        C  542   3.187   4.479   2.769
    1C        C  543   3.325   4.511   2.769
    1C        C  544   3.120   4.464   2.892
    1C        C  545   3.185   4.492   3.014
    1C        C  546   2.993   4.408   3.137
    1C        C  547   3.118   4.473   3.137
    1C        C  548   2.938   4.367   3.261
    1C        C  549   3.000   4.407   3.381
    1C        C  550   2.830   4.282   3.505
    1C        C  551   2.938   4.373   3.504
    1C        C  552   2.780   4.233   3.628
    1C        C  553   2.830   4.285   3.750
    1C        C  554   2.698   4.122   3.877
    1C        C  555   2.784   4.235   3.874
    1C        C  556   2.661   4.064   3.999
    1C        C  557   2.704   4.122   4.120
    1C        C  558   2.603   3.942   4.249
    1C        C  559   2.663   4.070   4.245
    1C        C  560   2.577   3.878   4.372
    1C        C  561   2.594   3.950   4.492
    1C        C  562   2.535   3.749   4.618
    1C        C  563   2.568   3.887   4.615
    1C        C  564   2.523   3.681   4.741
    1C        C  565   2.522   3.758   4.861
    1C        C  566   2.533   3.547   4.978
    1C        C  567   2.521   3.686   4.981
    1C        C  568   3.324   4.474   2.046
    1C        C  569   3.398   4.513   2.159
    1C        C  570   3.185   4.478   2.281
    1C        C  571   3.323   4.512   2.279
    1C        C  572   3.119   4.456   2.405
    1C        C  573   3.184   4.483   2.527
    1C        C  574   2.986   4.405   2.649
    1C        C  575   3.115   4.462   2.648
    1C        C  576   2.931   4.362   2.772
    1C        C  577   2.995   4.398   2.893
    1C        C  578   2.825   4.275   3.015
    1C        C  579   2.934   4.366   3.016
    1C        C  580   2.778   4.226   3.138
    1C        C  581   2.832   4.274   3.260
    1C        C  582   2.696   4.116   3.385
    1C        C  583   2.782   4.228   3.384
    1C        C  584   2.658   4.058   3.508
    1C        C  585   2.698   4.118   3.629
    1C        C  586   2.597   3.937   3.757
    1C        C  587   2.664   4.061   3.754
    1C        C  588   2.573   3.873   3.880
    1C        C  589   2.598   3.937   4.003
    1C        C  590   2.539   3.738   4.128
    1C        C  591   2.574   3.875   4.128
    1C        C  592   2.525   3.674   4.253
    1C        C  593   2.534   3.743   4.376
    1C        C  594   2.503   3.535   4.498
    1C        C  595   2.519   3.676   4.499
    1C        C  596   2.510   3.465   4.621
    1C        C  597   2.514   3.539   4.741
    1C        C  598   2.531   3.327   4.863
    1C        C  599   2.523   3.468   4.863
    1C        C  600   2.536   3.251   4.981
    1C        C  601   3.190   4.442   2.043
    1C        C  602   2.980   4.399   2.163
    1C        C  603   3.117   4.440   2.162
    1C        C  604   2.920   4.366   2.288
    1C        C  605   2.990   4.399   2.406
    1C        C  606   2.821   4.271   2.528
    1C        C  607   2.927   4.364   2.528
    1C        C  608   2.768   4.224   2.651
    1C        C  609   2.822   4.273   2.772
    1C        C  610   2.686   4.112   2.897
    1C        C  611   2.772   4.224   2.895
    1C        C  612   2.655   4.050   3.020
    1C        C  613   2.693   4.114   3.140
    1C        C  614   2.591   3.931   3.267
    1C        C  615   2.651   4.059   3.264
    1C        C  616   2.567   3.868   3.391
    1C        C  617   2.593   3.933   3.513
    1C        C  618   2.529   3.732   3.638
    1C        C  619   2.568   3.868   3.636
    1C        C  620   2.519   3.665   3.762
    1C        C  621   2.534   3.737   3.882
    1C        C  622   2.513   3.528   4.010
    1C        C  623   2.524   3.669   4.006
    1C        C  624   2.519   3.459   4.133
    1C        C  625   2.515   3.533   4.253
    1C        C  626   2.532   3.325   4.382
    1C        C  627   2.508   3.464   4.376
    1C        C  628   2.557   3.257   4.503
    1C        C  629   2.538   3.327   4.625
    1C        C  630   2.599   3.120   4.747
    1C        C  631   2.552   3.254   4.745
    1C        C  632   2.619   3.049   4.869
    1C        C  633   2.570   3.115   4.986
    1C        C  634   2.784   4.305   2.056
    1C        C  635   2.894   4.391   2.049
    1C        C  636   2.747   4.232   2.169
    1C        C  637   2.808   4.277   2.288
    1C        C  638   2.674   4.112   2.413
    1C        C  639   2.760   4.224   2.410
    1C        C  640   2.640   4.050   2.535
    1C        C  641   2.686   4.109   2.655
    1C        C  642   2.584   3.922   2.778
    1C        C  643   2.646   4.049   2.777
    1C        C  644   2.559   3.859   2.902
    1C        C  645   2.589   3.925   3.023
    1C        C  646   2.529   3.724   3.149
    1C        C  647   2.568   3.860   3.147
    1C        C  648   2.515   3.657   3.273
    1C        C  649   2.532   3.731   3.392
    1C        C  650   2.506   3.522   3.517
    1C        C  651   2.517   3.663   3.515
    1C        C  652   2.516   3.456   3.641
    1C        C  653   2.516   3.524   3.765
    1C        C  654   2.532   3.316   3.891
    1C        C  655   2.513   3.456   3.888
    1C        C  656   2.552   3.251   4.015
    1C        C  657   2.536   3.318   4.138
    1C        C  658   2.602   3.121   4.260
    1C        C  659   2.548   3.252   4.262
    1C        C  660   2.635   3.060   4.383
    1C        C  661   2.609   3.126   4.505
    1C        C  662   2.709   2.936   4.626
    1C        C  663   2.633   3.055   4.625
    1C        C  664   2.754   2.879   4.747
    1C        C  665   2.699   2.930   4.868
    1C        C  666   2.746   2.870   4.986
    1C        C  667   2.686   4.024   2.057
    1C        C  668   2.682   4.107   2.170
    1C        C  669   2.595   3.913   2.293
    1C        C  670   2.643   4.047   2.292
    1C        C  671   2.562   3.849   2.414
    1C        C  672   2.582   3.921   2.534
    1C        C  673   2.523   3.719   2.661
    1C        C  674   2.557   3.856   2.657
    1C        C  675   2.515   3.649   2.784
    1C        C  676   2.527   3.722   2.904
    1C        C  677   2.502   3.513   3.031
    1C        C  678   2.513   3.653   3.027
    1C        C  679   2.507   3.441   3.153
    1C        C  680   2.507   3.516   3.273
    1C        C  681   2.530   3.308   3.402
    1C        C  682   2.508   3.448   3.397
    1C        C  683   2.548   3.244   3.526
    1C        C  684   2.533   3.315   3.647
    1C        C  685   2.604   3.116   3.773
    1C        C  686   2.550   3.247   3.769
    1C        C  687   2.636   3.053   3.895
    1C        C  688   2.605   3.120   4.015
    1C        C  689   2.710   2.938   4.142
    1C        C  690   2.640   3.061   4.138
    1C        C  691   2.758   2.884   4.264
    1C        C  692   2.715   2.943   4.384
    1C        C  693   2.750   2.877   4.504
    1C        C  694   2.628   3.896   2.059
    1C        C  695   2.527   3.706   2.178
    1C        C  696   2.575   3.839   2.175
    1C        C  697   2.510   3.637   2.300
    1C        C  698   2.522   3.713   2.418
    1C        C  699   2.498   3.505   2.543
    1C        C  700   2.509   3.646   2.541
    1C        C  701   2.502   3.435   2.666
    1C        C  702   2.505   3.508   2.787
    1C        C  703   2.535   3.301   2.911
    1C        C  704   2.507   3.440   2.911
    1C        C  705   2.549   3.234   3.035
    1C        C  706   2.529   3.302   3.157
    1C        C  707   2.598   3.106   3.283
    1C        C  708   2.543   3.236   3.281
    1C        C  709   2.637   3.049   3.406
    1C        C  710   2.608   3.116   3.527
    1C        C  711   2.715   2.935   3.651
    1C        C  712   2.637   3.053   3.651
    1C        C  713   2.758   2.881   3.774
    1C        C  714   2.717   2.937   3.897
    1C        C  715   2.755   2.880   4.021
    1C        C  716   2.454   3.501   2.065
    1C        C  717   2.491   3.636   2.063
    1C        C  718   2.463   3.421   2.183
    1C        C  719   2.486   3.497   2.302
    1C        C  720   2.514   3.289   2.423
    1C        C  721   2.488   3.428   2.425
    1C        C  722   2.535   3.222   2.546
    1C        C  723   2.521   3.295   2.666
    1C        C  724   2.595   3.099   2.790
    1C        C  725   2.542   3.230   2.789
    1C        C  726   2.623   3.037   2.913
    1C        C  727   2.597   3.101   3.037
    1C        C  728   2.705   2.923   3.160
    1C        C  729   2.628   3.041   3.161
    1C        C  730   2.755   2.874   3.282
    1C        C  731   2.715   2.931   3.405
    1C        C  732   2.756   2.876   3.529
    1C        C  733   2.487   3.195   2.073
    1C        C  734   2.482   3.280   2.184
    1C        C  735   2.581   3.084   2.305
    1C        C  736   2.523   3.214   2.304
    1C        C  737   2.612   3.019   2.426
    1C        C  738   2.583   3.089   2.546
    1C        C  739   2.696   2.912   2.671
    1C        C  740   2.624   3.033   2.669
    1C        C  741   2.740   2.858   2.794
    1C        C  742   2.704   2.921   2.915
    1C        C  743   2.747   2.865   3.038
    1C        C  744   2.543   3.068   2.072
    1C        C  745   2.684   2.896   2.186
    1C        C  746   2.603   3.011   2.186
    1C        C  747   2.729   2.839   2.307
    1C        C  748   2.685   2.898   2.427
    1C        C  749   2.732   2.848   2.551
    1C        C  750   2.729   2.834   2.069
    1C        C  751   3.666   2.323   1.972
    1C        O  752   3.742   2.230   2.009
    1C        O  753   3.665   2.354   1.835
    1C        C  754   4.620   3.069   1.967
    1C        O  755   4.607   3.087   1.843
    1C        O  756   4.750   3.021   1.991
    1C        C  757   4.429   4.213   1.942
    1C        O  758   4.554   4.225   1.926
    1C        O  759   4.367   4.205   1.817
    1C        C  760   3.603   4.692   1.977
    1C        O  761   3.682   4.790   1.980
    1C        O  762   3.549   4.685   1.848
    1C        C  763   2.866   4.504   1.958
    1C        O  764   2.893   4.489   1.835
    1C        O  765   2.900   4.634   1.997
    1C        C  766   2.355   3.465   1.961
    1C        O  767   2.389   3.495   1.844
    1C        O  768   2.216   3.478   1.966
    1C        C  769   4.705   3.599   5.043
    1C        O  770   4.696   3.568   5.165
    1C        O  771   4.820   3.668   5.003
    1C        C  772   4.269   4.431   5.056
    1C        O  773   4.229   4.405   5.172
    1C        O  774   4.353   4.543   5.042
    1C        C  775   4.134   2.513   5.076
    1C        O  776   4.247   2.460   5.053
    1C        O  777   4.107   2.504   5.213
    1C        C  778   2.885   4.547   5.053
    1C        O  779   2.797   4.632   5.021
    1C        O  780   2.934   4.556   5.184
    1C        C  781   2.506   3.051   5.103
    1C        O  782   2.381   3.031   5.096
    1C        O  783   2.556   3.040   5.232
    1C        C  784   2.399   4.000   5.033
    1C        O  785   2.291   4.015   4.970
    1C        O  786   2.396   3.932   5.155
    1C        C  787   2.942   2.423   2.012
    1C        O  788   2.907   2.435   1.891
    1C        O  789   2.899   2.305   2.071
    1C        C  790   3.179   2.367   5.054
    1C        O  791   3.173   2.250   5.008
    1C        O  792   3.153   2.372   5.191
    1C        H  793   4.245   3.034   5.049
    1C        H  794   4.243   2.775   5.059
    1C        H  795   4.523   3.126   5.046
    1C        H  796   4.544   3.367   5.066
    1C        H  797   4.548   3.808   5.048
    1C        H  798   4.414   3.976   5.061
    1C        H  799   4.269   4.159   5.053
    1C        H  800   4.031   4.529   5.036
    1C        H  801   3.816   4.559   5.044
    1C        H  802   3.584   4.645   5.034
    1C        H  803   3.399   4.493   5.045
    1C        H  804   3.170   4.437   5.042
    1C        H  805   3.886   2.475   5.061
    1C        H  806   3.670   2.530   5.068
    1C        H  807   2.984   2.542   5.050
    1C        H  808   3.443   2.427   5.068
    1C        H  809   2.842   2.716   5.076
    1C        H  810   2.707   2.901   5.081
    1C        H  811   2.513   3.302   5.072
    1C        H  812   2.594   3.513   5.058
    1C        H  813   2.469   3.723   5.067
    1C        H  814   2.586   4.179   5.046
    1C        H  815   2.723   4.367   5.030
    1C        H  816   2.680   2.855   1.976
    1C        H  817   2.822   2.666   1.985
    1C        H  818   3.203   2.403   2.007
    1C        H  819   3.424   2.382   1.996
    1C        H  820   3.866   2.508   1.970
    1C        H  821   4.023   2.681   1.982
    1C        H  822   4.270   2.704   1.978
    1C        H  823   4.395   2.909   1.964
    1C        H  824   4.580   3.319   1.973
    1C        H  825   4.525   3.518   1.960
    1C        H  826   4.559   3.753   1.975
    1C        H  827   3.814   4.543   1.958
    1C        H  828   3.995   4.421   1.954
    1C        H  829   4.163   4.254   1.946
    1C        H  830   4.527   3.982   1.979
    1C        H  831   2.679   3.828   1.993
    1C        H  832   2.776   4.028   2.000
    1C        H  833   2.707   4.328   1.985
    1C        H  834   3.363   4.513   1.954
    1C        H  835   3.146   4.433   1.946
    1C        H  836   2.566   3.037   1.972
    1C        H  837   2.497   3.253   1.983
    1C        H  838   2.474   3.692   1.973
    2V3OU   H29  839   2.804   3.551   5.928
    2V3OU   C27  840   2.779   3.506   6.028
    2V3OU   H27  841   2.712   3.568   6.093
    2V3OU   H28  842   2.733   3.406   6.005
    2V3OU   O11  843   2.903   3.482   6.095
    2V3OU   C15  844   2.921   3.396   6.201
    2V3OU   C13  845   3.051   3.378   6.253
    2V3OU   C14  846   3.075   3.272   6.342
    2V3OU   C16  847   2.969   3.193   6.386
    2V3OU    H6  848   2.989   3.105   6.448
    2V3OU   C12  849   3.214   3.232   6.373
    2V3OU    O2  850   3.236   3.123   6.430
    2V3OU   C10  851   3.328   3.310   6.322
    2V3OU    C8  852   3.460   3.269   6.329
    2V3OU   O10  853   3.488   3.157   6.401
    2V3OU   H26  854   3.405   3.114   6.426
    2V3OU    C6  855   3.569   3.344   6.275
    2V3OU    C5  856   3.539   3.465   6.211
    2V3OU    C4  857   3.709   3.295   6.265
    2V3OU    H4  858   3.730   3.225   6.351
    2V3OU    H5  859   3.717   3.228   6.175
    2V3OU    C2  860   3.821   3.399   6.267
    2V3OU    O6  861   3.814   3.475   6.388
    2V3OU   H21  862   3.764   3.555   6.367
    2V3OU    C3  863   3.782   3.497   6.157
    2V3OU    H2  864   3.864   3.571   6.137
    2V3OU    H3  865   3.777   3.434   6.064
    2V3OU   C25  866   3.954   3.326   6.249
    2V3OU    O7  867   4.008   3.302   6.141
    2V3OU   C26  868   4.033   3.291   6.374
    2V3OU   H22  869   4.069   3.389   6.413
    2V3OU   H23  870   4.120   3.226   6.348
    2V3OU    O8  871   3.962   3.212   6.468
    2V3OU   H24  872   3.935   3.267   6.543
    2V3OU    C1  873   3.645   3.562   6.168
    2V3OU    H1  874   3.622   3.614   6.070
    2V3OU    O3  875   3.659   3.651   6.279
    2V3OU   C19  876   3.618   3.787   6.257
    2V3OU    H9  877   3.527   3.807   6.193
    2V3OU    O4  878   3.713   3.847   6.172
    2V3OU   C20  879   3.842   3.873   6.227
    2V3OU   H10  880   3.893   3.775   6.250
    2V3OU   C24  881   3.609   3.857   6.393
    2V3OU   H16  882   3.539   3.792   6.452
    2V3OU   H17  883   3.572   3.962   6.382
    2V3OU   C23  884   3.747   3.874   6.455
    2V3OU   H15  885   3.792   3.771   6.472
    2V3OU    N1  886   3.740   3.953   6.577
    2V3OU   H19  887   3.815   3.929   6.638
    2V3OU   H20  888   3.647   3.937   6.609
    2V3OU   C21  889   3.844   3.950   6.359
    2V3OU   H11  890   3.949   3.932   6.399
    2V3OU    O5  891   3.827   4.090   6.358
    2V3OU   H18  892   3.784   4.105   6.444
    2V3OU   C22  893   3.914   3.951   6.118
    2V3OU   H12  894   3.861   4.049   6.102
    2V3OU   H13  895   3.899   3.897   6.021
    2V3OU   H14  896   4.024   3.952   6.140
    2V3OU   C11  897   3.162   3.468   6.218
    2V3OU    O1  898   3.134   3.585   6.186
    2V3OU    C9  899   3.301   3.426   6.245
    2V3OU    C7  900   3.403   3.504   6.190
    2V3OU    O9  901   3.383   3.618   6.115
    2V3OU   H25  902   3.287   3.632   6.112
    2V3OU   C17  903   2.816   3.318   6.254
    2V3OU    H7  904   2.715   3.335   6.217
    2V3OU   C18  905   2.838   3.216   6.346
    2V3OU    H8  906   2.760   3.143   6.373
    3SOL     OW  907   3.351   2.934   4.309
    3SOL    HW1  908   3.353   3.033   4.296
    3SOL    HW2  909   3.305   2.891   4.231
    4SOL     OW  910   0.290   6.444   0.877
    4SOL    HW1  911   0.340   6.435   0.790
    4SOL    HW2  912   0.231   6.364   0.889
    5SOL     OW  913   4.290   2.427   0.732
    5SOL    HW1  914   4.324   2.432   0.825
    5SOL    HW2  915   4.316   2.339   0.691
    6SOL     OW  916   3.911   1.728   2.222
    6SOL    HW1  917   3.937   1.731   2.318
    6SOL    HW2  918   3.866   1.814   2.197
    7SOL     OW  919   2.364   2.704   4.413
    7SOL    HW1  920   2.334   2.692   4.319
    7SOL    HW2  921   2.432   2.777   4.419
    8SOL     OW  922   1.169   2.314   5.517
    8SOL    HW1  923   1.246   2.260   5.550
    8SOL    HW2  924   1.192   2.352   5.427
    9SOL     OW  925   1.446   2.243   6.452
    9SOL    HW1  926   1.353   2.280   6.456
    9SOL    HW2  927   1.441   2.146   6.428
   10SOL     OW  928   5.312   5.189   1.378
   10SOL    HW1  929   5.259   5.247   1.441
   10SOL    HW2  930   5.392   5.153   1.425
   11SOL     OW  931   3.135   2.122   0.350
   11SOL    HW1  932   3.080   2.041   0.370
   11SOL    HW2  933   3.142   2.134   0.251
   12SOL     OW  934   5.140   5.549   2.054
   12SOL    HW1  935   5.138   5.616   1.980
   12SOL    HW2  936   5.070   5.480   2.037
   13SOL     OW  937   5.618   6.129   2.397
   13SOL    HW1  938   5.573   6.064   2.457
   13SOL    HW2  939   5.632   6.088   2.307
   14SOL     OW  940   4.240   6.448   0.602
   14SOL    HW1  941   4.185   6.413   0.526
   14SOL    HW2  942   4.333   6.467   0.570
   15SOL     OW  943   0.504   6.102   6.642
   15SOL    HW1  944   0.538   6.025   6.697
   15SOL    HW2  945   0.466   6.172   6.702
   16SOL     OW  946   2.155   5.598   4.683
   16SOL    HW1  947   2.217   5.612   4.605
   16SOL    HW2  948   2.060   5.607   4.652
   17SOL     OW  949   6.932   1.653   4.165
   17SOL    HW1  950   6.976   1.571   4.201
   17SOL    HW2  951   7.002   1.723   4.147
   18SOL     OW  952   2.888   0.914   5.374
   18SOL    HW1  953   2.818   0.984   5.386
   18SOL    HW2  954   2.953   0.943   5.303
   19SOL     OW  955   2.753   6.279   2.966
   19SOL    HW1  956   2.744   6.306   2.870
   19SOL    HW2  957   2.662   6.263   3.004
   20SOL     OW  958   6.906   1.948   5.584
   20SOL    HW1  959   6.983   2.010   5.568
   20SOL    HW2  960   6.864   1.923   5.496
   21SOL     OW  961   2.030   3.844   1.843
   21SOL    HW1  962   1.975   3.911   1.794
   21SOL    HW2  963   2.124   3.877   1.851
   22SOL     OW  964   0.696   1.171   7.022
   22SOL    HW1  965   0.775   1.142   0.052
   22SOL    HW2  966   0.622   1.105   0.009
   23SOL     OW  967   6.789   5.317   0.148
   23SOL    HW1  968   6.703   5.340   0.103
   23SOL    HW2  969   6.790   5.220   0.171
   24SOL     OW  970   5.220   1.476   0.100
   24SOL    HW1  971   5.231   1.436   0.191
   24SOL    HW2  972   5.147   1.428   0.052
   25SOL     OW  973   1.019   1.242   4.445
   25SOL    HW1  974   0.976   1.174   4.504
   25SOL    HW2  975   1.064   1.196   4.369
   26SOL     OW  976   1.976   0.301   6.538
   26SOL    HW1  977   1.899   0.320   6.478
   26SOL    HW2  978   1.967   0.354   6.622
   27SOL     OW  979   0.204   0.000   2.413
   27SOL    HW1  980   0.254   0.039   2.491
   27SOL    HW2  981   0.122   0.054   2.396
   28SOL     OW  982   1.756   0.787   5.608
   28SOL    HW1  983   1.814   0.801   5.689
   28SOL    HW2  984   1.811   0.749   5.534
   29SOL     OW  985   5.560   1.171   1.481
   29SOL    HW1  986   5.606   1.083   1.494
   29SOL    HW2  987   5.468   1.166   1.520
   30SOL     OW  988   5.049   0.476   5.020
   30SOL    HW1  989   5.033   0.390   4.971
   30SOL    HW2  990   4.969   0.535   5.010
   31SOL     OW  991   6.451   4.588   4.421
   31SOL    HW1  992   6.435   4.612   4.516
   31SOL    HW2  993   6.384   4.520   4.391
   32SOL     OW  994   2.852   1.250   1.059
   32SOL    HW1  995   2.904   1.332   1.082
   32SOL    HW2  996   2.865   1.181   1.131
   33SOL     OW  997   1.786   5.063   5.619
   33SOL    HW1  998   1.870   5.083   5.570
   33SOL    HW2  999   1.806   5.006   5.699
   34SOL     OW 1000   1.827   6.149   5.509
   34SOL    HW1 1001   1.819   6.241   5.471
   34SOL    HW2 1002   1.755   6.134   5.576
   35SOL     OW 1003   1.372   3.056   4.674
   35SOL    HW1 1004   1.334   3.108   4.597
   35SOL    HW2 1005   1.456   3.100   4.705
   36SOL     OW 1006   5.737   1.252   3.912
   36SOL    HW1 1007   5.730   1.297   3.823
   36SOL    HW2 1008   5.832   1.223   3.926
   37SOL     OW 1009   1.430   6.546   4.287
   37SOL    HW1 1010   1.501   6.481   4.315
   37SOL    HW2 1011   1.395   6.520   4.197
   38SOL     OW 1012   0.884   3.758   1.981
   38SOL    HW1 1013   0.862   3.663   1.956
   38SOL    HW2 1014   0.980   3.777   1.961
   39SOL     OW 1015   6.216   4.864   1.272
   39SOL    HW1 1016   6.316   4.872   1.264
   39SOL    HW2 1017   6.186   4.903   1.359
   40SOL     OW 1018   3.771   0.869   6.540
   40SOL    HW1 1019   3.711   0.793   6.516
   40SOL    HW2 1020   3.852   0.866   6.482
   41SOL     OW 1021   5.227   4.040   1.731
   41SOL    HW1 1022   5.257   3.964   1.674
   41SOL    HW2 1023   5.150   4.086   1.687
   42SOL     OW 1024   2.886   3.989   6.564
   42SOL    HW1 1025   2.962   4.048   6.593
   42SOL    HW2 1026   2.922   3.903   6.528
   43SOL     OW 1027   5.313   6.868   4.974
   43SOL    HW1 1028   5.282   6.957   4.941
   43SOL    HW2 1029   5.402   6.879   5.019
   44SOL     OW 1030   6.246   0.860   6.248
   44SOL    HW1 1031   6.235   0.855   6.347
   44SOL    HW2 1032   6.184   0.929   6.211
   45SOL     OW 1033   2.856   4.389   5.848
   45SOL    HW1 1034   2.838   4.292   5.866
   45SOL    HW2 1035   2.780   4.428   5.796
   46SOL     OW 1036   0.732   4.715   4.320
   46SOL    HW1 1037   0.765   4.696   4.413
   46SOL    HW2 1038   0.786   4.661   4.255
   47SOL     OW 1039   6.285   4.222   6.978
   47SOL    HW1 1040   6.278   4.172   6.892
   47SOL    HW2 1041   6.193   4.252   7.007
   48SOL     OW 1042   0.214   4.474   0.109
   48SOL    HW1 1043   0.212   4.384   0.065
   48SOL    HW2 1044   0.307   4.509   0.109
   49SOL     OW 1045   3.138   2.537   6.704
   49SOL    HW1 1046   3.198   2.566   6.630
   49SOL    HW2 1047   3.043   2.558   6.679
   50SOL     OW 1048   5.155   2.153   0.365
   50SOL    HW1 1049   5.159   2.170   0.266
   50SOL    HW2 1050   5.170   2.238   0.414
   51SOL     OW 1051   0.923   6.356   2.338
   51SOL    HW1 1052   0.899   6.419   2.264
   51SOL    HW2 1053   1.009   6.384   2.379
   52SOL     OW 1054   5.604   1.757   2.269
   52SOL    HW1 1055   5.529   1.697   2.242
   52SOL    HW2 1056   5.589   1.788   2.363
   53SOL     OW 1057   4.638   0.606   0.783
   53SOL    HW1 1058   4.630   0.570   0.876
   53SOL    HW2 1059   4.609   0.702   0.782
   54SOL     OW 1060   6.222   0.104   6.727
   54SOL    HW1 1061   6.261   0.156   6.803
   54SOL    HW2 1062   6.132   0.069   6.755
   55SOL     OW 1063   1.708   3.706   5.632
   55SOL    HW1 1064   1.708   3.792   5.582
   55SOL    HW2 1065   1.797   3.692   5.675
   56SOL     OW 1066   0.404   2.382   6.640
   56SOL    HW1 1067   0.385   2.452   6.709
   56SOL    HW2 1068   0.420   2.295   6.686
   57SOL     OW 1069   3.898   5.935   1.522
   57SOL    HW1 1070   3.989   5.925   1.561
   57SOL    HW2 1071   3.829   5.930   1.595
   58SOL     OW 1072   1.001   0.675   6.729
   58SOL    HW1 1073   0.945   0.747   6.686
   58SOL    HW2 1074   0.943   0.619   6.788
   59SOL     OW 1075   4.068   3.024   6.800
   59SOL    HW1 1076   4.005   3.102   6.800
   59SOL    HW2 1077   4.160   3.055   6.777
   60SOL     OW 1078   6.784   3.152   2.432
   60SOL    HW1 1079   6.772   3.184   2.338
   60SOL    HW2 1080   6.840   3.218   2.483
   61SOL     OW 1081   1.621   5.810   3.008
   61SOL    HW1 1082   1.665   5.732   3.053
   61SOL    HW2 1083   1.609   5.789   2.910
   62SOL     OW 1084   5.323   2.700   2.999
   62SOL    HW1 1085   5.382   2.701   2.918
   62SOL    HW2 1086   5.354   2.630   3.062
   63SOL     OW 1087   3.863   0.339   6.488
   63SOL    HW1 1088   3.804   0.377   6.559
   63SOL    HW2 1089   3.940   0.401   6.471
   64SOL     OW 1090   1.661   2.242   6.649
   64SOL    HW1 1091   1.585   2.238   6.584
   64SOL    HW2 1092   1.731   2.175   6.623
   65SOL     OW 1093   0.987   5.096   5.408
   65SOL    HW1 1094   0.961   5.170   5.470
   65SOL    HW2 1095   1.037   5.134   5.330
   66SOL     OW 1096   4.755   1.154   1.407
   66SOL    HW1 1097   4.705   1.098   1.341
   66SOL    HW2 1098   4.813   1.220   1.359
   67SOL     OW 1099   0.303   3.540   0.950
   67SOL    HW1 1100   0.296   3.609   0.878
   67SOL    HW2 1101   0.380   3.480   0.931
   68SOL     OW 1102   0.562   1.092   6.125
   68SOL    HW1 1103   0.520   1.176   6.159
   68SOL    HW2 1104   0.603   1.041   6.201
   69SOL     OW 1105   1.293   6.939   6.533
   69SOL    HW1 1106   1.370   6.995   6.565
   69SOL    HW2 1107   1.272   6.962   6.438
   70SOL     OW 1108   4.969   4.547   3.016
   70SOL    HW1 1109   5.005   4.571   2.926
   70SOL    HW2 1110   4.955   4.448   3.020
   71SOL     OW 1111   4.572   1.984   5.247
   71SOL    HW1 1112   4.567   1.885   5.231
   71SOL    HW2 1113   4.627   2.027   5.176
   72SOL     OW 1114   7.016   1.285   2.233
   72SOL    HW1 1115   6.964   1.203   2.211
   72SOL    HW2 1116   7.016   1.299   2.333
   73SOL     OW 1117   2.573   1.000   1.289
   73SOL    HW1 1118   2.537   1.094   1.290
   73SOL    HW2 1119   2.670   1.002   1.267
   74SOL     OW 1120   2.539   1.138   0.040
   74SOL    HW1 1121   2.536   1.103   6.971
   74SOL    HW2 1122   2.490   1.225   0.044
   75SOL     OW 1123   2.811   2.972   1.389
   75SOL    HW1 1124   2.868   2.940   1.314
   75SOL    HW2 1125   2.746   3.040   1.355
   76SOL     OW 1126   3.624   5.226   6.171
   76SOL    HW1 1127   3.686   5.238   6.248
   76SOL    HW2 1128   3.675   5.195   6.091
   77SOL     OW 1129   6.835   5.208   4.479
   77SOL    HW1 1130   6.929   5.212   4.444
   77SOL    HW2 1131   6.833   5.240   4.574
   78SOL     OW 1132   5.410   1.515   1.299
   78SOL    HW1 1133   5.398   1.542   1.395
   78SOL    HW2 1134   5.507   1.506   1.279
   79SOL     OW 1135   1.280   4.115   4.323
   79SOL    HW1 1136   1.186   4.109   4.358
   79SOL    HW2 1137   1.341   4.150   4.394
   80SOL     OW 1138   3.810   2.321   5.394
   80SOL    HW1 1139   3.732   2.324   5.331
   80SOL    HW2 1140   3.881   2.262   5.356
   81SOL     OW 1141   3.441   4.941   2.934
   81SOL    HW1 1142   3.435   5.040   2.925
   81SOL    HW2 1143   3.535   4.915   2.954
   82SOL     OW 1144   3.269   0.438   2.000
   82SOL    HW1 1145   3.301   0.492   2.078
   82SOL    HW2 1146   3.172   0.455   1.985
   83SOL     OW 1147   5.402   1.448   4.006
   83SOL    HW1 1148   5.360   1.443   3.915
   83SOL    HW2 1149   5.330   1.445   4.075
   84SOL     OW 1150   6.002   2.526   2.935
   84SOL    HW1 1151   5.938   2.597   2.905
   84SOL    HW2 1152   5.964   2.436   2.913
   85SOL     OW 1153   2.261   5.729   3.722
   85SOL    HW1 1154   2.307   5.651   3.764
   85SOL    HW2 1155   2.222   5.787   3.793
   86SOL     OW 1156   4.860   0.585   0.346
   86SOL    HW1 1157   4.898   0.506   0.395
   86SOL    HW2 1158   4.929   0.657   0.340
   87SOL     OW 1159   2.893   3.044   6.923
   87SOL    HW1 1160   2.865   3.132   6.961
   87SOL    HW2 1161   2.945   3.060   6.839
   88SOL     OW 1162   1.710   2.428   1.440
   88SOL    HW1 1163   1.770   2.456   1.516
   88SOL    HW2 1164   1.724   2.490   1.363
   89SOL     OW 1165   3.112   4.040   4.945
   89SOL    HW1 1166   3.086   4.019   4.851
   89SOL    HW2 1167   3.187   3.979   4.973
   90SOL     OW 1168   6.597   4.297   2.066
   90SOL    HW1 1169   6.607   4.216   2.124
   90SOL    HW2 1170   6.654   4.287   1.985
   91SOL     OW 1171   4.638   5.981   1.071
   91SOL    HW1 1172   4.640   5.896   1.124
   91SOL    HW2 1173   4.545   6.001   1.041
   92SOL     OW 1174   5.628   5.059   0.146
   92SOL    HW1 1175   5.600   4.989   0.080
   92SOL    HW2 1176   5.603   5.030   0.238
   93SOL     OW 1177   3.011   3.918   1.928
   93SOL    HW1 1178   3.046   3.826   1.942
   93SOL    HW2 1179   3.063   3.982   1.984
   94SOL     OW 1180   2.999   1.650   4.495
   94SOL    HW1 1181   2.972   1.595   4.574
   94SOL    HW2 1182   2.970   1.745   4.510
   95SOL     OW 1183   0.921   6.327   3.776
   95SOL    HW1 1184   0.958   6.237   3.796
   95SOL    HW2 1185   0.827   6.333   3.809
   96SOL     OW 1186   0.001   6.009   0.103
   96SOL    HW1 1187   0.038   6.101   0.094
   96SOL    HW2 1188   6.986   5.981   0.015
   97SOL     OW 1189   3.797   4.675   5.336
   97SOL    HW1 1190   3.697   4.668   5.336
   97SOL    HW2 1191   3.824   4.763   5.297
   98SOL     OW 1192   0.992   3.066   4.676
   98SOL    HW1 1193   1.033   3.148   4.715
   98SOL    HW2 1194   1.055   3.026   4.609
   99SOL     OW 1195   4.443   4.780   4.938
   99SOL    HW1 1196   4.412   4.690   4.970
   99SOL    HW2 1197   4.373   4.820   4.879
  100SOL     OW 1198   1.564   1.118   5.115
  100SOL    HW1 1199   1.615   1.162   5.041
  100SOL    HW2 1200   1.606   1.029   5.135
  101SOL     OW 1201   5.361   2.987   2.696
  101SOL    HW1 1202   5.328   3.034   2.778
  101SOL    HW2 1203   5.456   3.014   2.678
  102SOL     OW 1204   3.680   0.088   0.056
  102SOL    HW1 1205   3.618   0.155   0.015
  102SOL    HW2 1206   3.767   0.132   0.078
  103SOL     OW 1207   1.314   2.126   1.388
  103SOL    HW1 1208   1.407   2.116   1.425
  103SOL    HW2 1209   1.269   2.203   1.433
  104SOL     OW 1210   0.341   4.694   1.312
  104SOL    HW1 1211   0.325   4.597   1.295
  104SOL    HW2 1212   0.335   4.745   1.227
  105SOL     OW 1213   6.749   1.026   5.078
  105SOL    HW1 1214   6.790   1.028   4.987
  105SOL    HW2 1215   6.820   1.020   5.147
  106SOL     OW 1216   4.409   3.180   1.675
  106SOL    HW1 1217   4.385   3.277   1.687
  106SOL    HW2 1218   4.471   3.152   1.748
  107SOL     OW 1219   4.380   6.746   2.293
  107SOL    HW1 1220   4.471   6.720   2.259
  107SOL    HW2 1221   4.381   6.747   2.393
  108SOL     OW 1222   3.680   1.439   4.808
  108SOL    HW1 1223   3.693   1.410   4.713
  108SOL    HW2 1224   3.657   1.537   4.810
  109SOL     OW 1225   2.008   1.414   5.185
  109SOL    HW1 1226   1.997   1.448   5.278
  109SOL    HW2 1227   2.105   1.401   5.165
  110SOL     OW 1228   4.047   4.597   5.606
  110SOL    HW1 1229   4.087   4.608   5.515
  110SOL    HW2 1230   3.970   4.659   5.617
  111SOL     OW 1231   5.883   3.122   1.432
  111SOL    HW1 1232   5.796   3.152   1.470
  111SOL    HW2 1233   5.915   3.187   1.364
  112SOL     OW 1234   4.700   6.777   4.938
  112SOL    HW1 1235   4.615   6.797   4.988
  112SOL    HW2 1236   4.746   6.699   4.981
  113SOL     OW 1237   0.781   5.024   2.433
  113SOL    HW1 1238   0.844   4.946   2.440
  113SOL    HW2 1239   0.832   5.104   2.403
  114SOL     OW 1240   6.998   1.731   2.465
  114SOL    HW1 1241   6.941   1.720   2.547
  114SOL    HW2 1242   0.069   1.714   2.488
  115SOL     OW 1243   4.115   1.105   2.919
  115SOL    HW1 1244   4.171   1.188   2.926
  115SOL    HW2 1245   4.094   1.088   2.823
  116SOL     OW 1246   6.211   5.641   1.001
  116SOL    HW1 1247   6.132   5.584   1.020
  116SOL    HW2 1248   6.193   5.697   0.920
  117SOL     OW 1249   2.585   1.853   0.397
  117SOL    HW1 1250   2.609   1.944   0.432
  117SOL    HW2 1251   2.552   1.796   0.473
  118SOL     OW 1252   0.086   2.392   2.162
  118SOL    HW1 1253   0.026   2.464   2.197
  118SOL    HW2 1254   0.103   2.408   2.065
  119SOL     OW 1255   6.087   6.119   4.993
  119SOL    HW1 1256   6.148   6.190   4.958
  119SOL    HW2 1257   6.023   6.160   5.057
  120SOL     OW 1258   4.305   1.713   4.742
  120SOL    HW1 1259   4.212   1.681   4.724
  120SOL    HW2 1260   4.336   1.677   4.829
  121SOL     OW 1261   0.134   5.596   6.173
  121SOL    HW1 1262   0.129   5.561   6.080
  121SOL    HW2 1263   0.182   5.684   6.173
  122SOL     OW 1264   0.075   5.000   5.933
  122SOL    HW1 1265   0.052   4.944   5.854
  122SOL    HW2 1266   0.015   4.977   6.010
  123SOL     OW 1267   1.094   2.801   0.877
  123SOL    HW1 1268   1.176   2.859   0.876
  123SOL    HW2 1269   1.056   2.797   0.784
  124SOL     OW 1270   2.235   3.794   6.669
  124SOL    HW1 1271   2.286   3.874   6.698
  124SOL    HW2 1272   2.292   3.712   6.682
  125SOL     OW 1273   4.270   2.327   0.372
  125SOL    HW1 1274   4.337   2.259   0.402
  125SOL    HW2 1275   4.295   2.417   0.408
  126SOL     OW 1276   3.900   3.608   4.834
  126SOL    HW1 1277   3.839   3.539   4.795
  126SOL    HW2 1278   3.994   3.574   4.833
  127SOL     OW 1279   6.956   5.203   6.244
  127SOL    HW1 1280   6.891   5.255   6.189
  127SOL    HW2 1281   6.913   5.117   6.273
  128SOL     OW 1282   4.594   4.236   6.044
  128SOL    HW1 1283   4.692   4.243   6.065
  128SOL    HW2 1284   4.548   4.187   6.117
  129SOL     OW 1285   0.956   4.542   1.338
  129SOL    HW1 1286   0.972   4.452   1.299
  129SOL    HW2 1287   0.876   4.584   1.293
  130SOL     OW 1288   6.242   3.679   4.706
  130SOL    HW1 1289   6.232   3.685   4.805
  130SOL    HW2 1290   6.153   3.659   4.665
  131SOL     OW 1291   1.291   3.596   2.894
  131SOL    HW1 1292   1.379   3.562   2.863
  131SOL    HW2 1293   1.240   3.523   2.939
  132SOL     OW 1294   4.142   2.710   1.423
  132SOL    HW1 1295   4.061   2.696   1.479
  132SOL    HW2 1296   4.176   2.621   1.390
  133SOL     OW 1297   4.183   4.659   6.378
  133SOL    HW1 1298   4.267   4.606   6.366
  133SOL    HW2 1299   4.128   4.619   6.450
  134SOL     OW 1300   6.711   1.971   6.733
  134SOL    HW1 1301   6.628   1.944   6.684
  134SOL    HW2 1302   6.693   1.970   6.831
  135SOL     OW 1303   4.579   4.341   3.613
  135SOL    HW1 1304   4.589   4.302   3.705
  135SOL    HW2 1305   4.511   4.415   3.615
  136SOL     OW 1306   3.957   6.792   6.234
  136SOL    HW1 1307   3.944   6.784   6.333
  136SOL    HW2 1308   3.916   6.714   6.188
  137SOL     OW 1309   2.090   4.466   6.861
  137SOL    HW1 1310   2.123   4.395   6.924
  137SOL    HW2 1311   2.140   4.460   6.775
  138SOL     OW 1312   0.938   5.814   0.363
  138SOL    HW1 1313   0.854   5.771   0.395
  138SOL    HW2 1314   0.933   5.912   0.379
  139SOL     OW 1315   0.466   1.054   0.919
  139SOL    HW1 1316   0.464   1.147   0.956
  139SOL    HW2 1317   0.559   1.030   0.892
  140SOL     OW 1318   3.784   0.159   1.825
  140SOL    HW1 1319   3.752   0.064   1.829
  140SOL    HW2 1320   3.845   0.177   1.902
  141SOL     OW 1321   1.154   1.511   6.815
  141SOL    HW1 1322   1.081   1.579   6.815
  141SOL    HW2 1323   1.115   1.419   6.816
  142SOL     OW 1324   2.033   3.805   6.880
  142SOL    HW1 1325   2.028   3.796   6.780
  142SOL    HW2 1326   1.968   3.875   6.910
  143SOL     OW 1327   5.387   5.765   1.761
  143SOL    HW1 1328   5.372   5.864   1.760
  143SOL    HW2 1329   5.448   5.741   1.836
  144SOL     OW 1330   2.954   5.444   3.128
  144SOL    HW1 1331   2.975   5.374   3.196
  144SOL    HW2 1332   2.981   5.534   3.164
  145SOL     OW 1333   0.118   5.431   3.352
  145SOL    HW1 1334   0.142   5.438   3.449
  145SOL    HW2 1335   0.178   5.491   3.298
  146SOL     OW 1336   0.386   1.034   5.894
  146SOL    HW1 1337   0.464   1.040   5.956
  146SOL    HW2 1338   0.391   0.948   5.842
  147SOL     OW 1339   5.899   0.826   4.793
  147SOL    HW1 1340   5.905   0.923   4.769
  147SOL    HW2 1341   5.813   0.809   4.842
  148SOL     OW 1342   2.044   6.636   1.915
  148SOL    HW1 1343   2.138   6.618   1.941
  148SOL    HW2 1344   2.021   6.582   1.834
  149SOL     OW 1345   1.819   2.898   4.811
  149SOL    HW1 1346   1.749   2.829   4.830
  149SOL    HW2 1347   1.829   2.959   4.890
  150SOL     OW 1348   4.967   2.895   5.616
  150SOL    HW1 1349   4.980   2.964   5.545
  150SOL    HW2 1350   4.954   2.940   5.704
  151SOL     OW 1351   6.479   2.948   1.594
  151SOL    HW1 1352   6.387   2.913   1.606
  151SOL    HW2 1353   6.513   2.925   1.503
  152SOL     OW 1354   0.084   2.837   0.122
  152SOL    HW1 1355   0.147   2.905   0.158
  152SOL    HW2 1356   0.036   2.874   0.042
  153SOL     OW 1357   1.541   1.813   3.795
  153SOL    HW1 1358   1.610   1.885   3.801
  153SOL    HW2 1359   1.573   1.741   3.733
  154SOL     OW 1360   0.113   1.478   3.790
  154SOL    HW1 1361   0.033   1.524   3.830
  154SOL    HW2 1362   0.192   1.539   3.793
  155SOL     OW 1363   5.532   4.519   3.330
  155SOL    HW1 1364   5.584   4.464   3.265
  155SOL    HW2 1365   5.580   4.522   3.418
  156SOL     OW 1366   4.336   0.400   1.675
  156SOL    HW1 1367   4.417   0.355   1.713
  156SOL    HW2 1368   4.323   0.488   1.720
  157SOL     OW 1369   5.126   0.033   1.329
  157SOL    HW1 1370   5.105   0.099   1.257
  157SOL    HW2 1371   5.047   6.998   1.345
  158SOL     OW 1372   0.961   3.423   4.106
  158SOL    HW1 1373   1.036   3.439   4.042
  158SOL    HW2 1374   0.888   3.372   4.060
  159SOL     OW 1375   6.710   5.101   6.796
  159SOL    HW1 1376   6.738   5.086   6.701
  159SOL    HW2 1377   6.788   5.086   6.856
  160SOL     OW 1378   4.144   0.485   1.100
  160SOL    HW1 1379   4.089   0.479   1.017
  160SOL    HW2 1380   4.210   0.410   1.102
  161SOL     OW 1381   0.177   0.192   0.413
  161SOL    HW1 1382   0.088   0.156   0.443
  161SOL    HW2 1383   0.186   0.287   0.443
  162SOL     OW 1384   4.493   6.974   5.516
  162SOL    HW1 1385   4.558   6.943   5.447
  162SOL    HW2 1386   4.471   6.898   5.577
  163SOL     OW 1387   0.927   3.823   2.510
  163SOL    HW1 1388   1.008   3.837   2.566
  163SOL    HW2 1389   0.882   3.911   2.493
  164SOL     OW 1390   2.109   2.022   2.406
  164SOL    HW1 1391   2.012   2.045   2.416
  164SOL    HW2 1392   2.156   2.043   2.492
  165SOL     OW 1393   0.105   6.333   4.173
  165SOL    HW1 1394   0.015   6.369   4.201
  165SOL    HW2 1395   0.092   6.251   4.117
  166SOL     OW 1396   0.446   4.697   3.661
  166SOL    HW1 1397   0.351   4.713   3.632
  166SOL    HW2 1398   0.456   4.723   3.756
  167SOL     OW 1399   1.121   1.201   3.108
  167SOL    HW1 1400   1.109   1.184   3.206
  167SOL    HW2 1401   1.208   1.247   3.093
  168SOL     OW 1402   3.237   3.410   3.433
  168SOL    HW1 1403   3.180   3.492   3.437
  168SOL    HW2 1404   3.328   3.434   3.400
  169SOL     OW 1405   5.580   2.317   6.939
  169SOL    HW1 1406   5.522   2.293   7.017
  169SOL    HW2 1407   5.523   2.351   6.864
  170SOL     OW 1408   6.895   5.295   2.057
  170SOL    HW1 1409   6.808   5.265   2.098
  170SOL    HW2 1410   6.886   5.300   1.958
  171SOL     OW 1411   3.037   2.206   0.754
  171SOL    HW1 1412   3.028   2.264   0.835
  171SOL    HW2 1413   3.125   2.157   0.757
  172SOL     OW 1414   1.608   1.237   0.126
  172SOL    HW1 1415   1.596   1.169   0.199
  172SOL    HW2 1416   1.698   1.280   0.136
  173SOL     OW 1417   5.733   0.399   5.009
  173SOL    HW1 1418   5.667   0.432   5.076
  173SOL    HW2 1419   5.784   0.476   4.970
  174SOL     OW 1420   6.362   4.005   5.355
  174SOL    HW1 1421   6.388   4.090   5.402
  174SOL    HW2 1422   6.439   3.942   5.356
  175SOL     OW 1423   0.743   6.236   2.812
  175SOL    HW1 1424   0.671   6.176   2.775
  175SOL    HW2 1425   0.736   6.326   2.769
  176SOL     OW 1426   6.711   3.876   0.673
  176SOL    HW1 1427   6.780   3.838   0.611
  176SOL    HW2 1428   6.727   3.974   0.685
  177SOL     OW 1429   6.743   2.584   3.549
  177SOL    HW1 1430   6.721   2.601   3.453
  177SOL    HW2 1431   6.659   2.567   3.600
  178SOL     OW 1432   2.060   5.939   4.827
  178SOL    HW1 1433   2.110   5.873   4.882
  178SOL    HW2 1434   2.125   6.005   4.788
  179SOL     OW 1435   3.639   4.177   2.078
  179SOL    HW1 1436   3.677   4.269   2.083
  179SOL    HW2 1437   3.659   4.127   2.163
  180SOL     OW 1438   4.947   1.322   6.694
  180SOL    HW1 1439   4.915   1.349   6.603
  180SOL    HW2 1440   5.003   1.395   6.733
  181SOL     OW 1441   3.821   0.367   5.424
  181SOL    HW1 1442   3.756   0.414   5.484
  181SOL    HW2 1443   3.786   0.275   5.402
  182SOL     OW 1444   2.979   3.158   5.583
  182SOL    HW1 1445   2.886   3.184   5.559
  182SOL    HW2 1446   3.033   3.144   5.500
  183SOL     OW 1447   3.010   1.309   3.571
  183SOL    HW1 1448   3.091   1.305   3.512
  183SOL    HW2 1449   2.974   1.217   3.585
  184SOL     OW 1450   4.639   5.655   3.414
  184SOL    HW1 1451   4.628   5.687   3.508
  184SOL    HW2 1452   4.727   5.609   3.405
  185SOL     OW 1453   0.216   6.701   4.799
  185SOL    HW1 1454   0.142   6.699   4.866
  185SOL    HW2 1455   0.186   6.657   4.714
  186SOL     OW 1456   2.449   6.011   5.826
  186SOL    HW1 1457   2.515   6.003   5.900
  186SOL    HW2 1458   2.364   6.050   5.860
  187SOL     OW 1459   3.747   5.595   0.749
  187SOL    HW1 1460   3.665   5.573   0.697
  187SOL    HW2 1461   3.741   5.689   0.784
  188SOL     OW 1462   1.491   3.900   3.453
  188SOL    HW1 1463   1.582   3.906   3.413
  188SOL    HW2 1464   1.478   3.809   3.493
  189SOL     OW 1465   5.523   4.755   5.896
  189SOL    HW1 1466   5.430   4.783   5.921
  189SOL    HW2 1467   5.578   4.745   5.978
  190SOL     OW 1468   5.794   6.756   0.730
  190SOL    HW1 1469   5.785   6.662   0.764
  190SOL    HW2 1470   5.856   6.807   0.790
  191SOL     OW 1471   2.254   2.681   5.510
  191SOL    HW1 1472   2.166   2.633   5.516
  191SOL    HW2 1473   2.243   2.764   5.456
  192SOL     OW 1474   7.004   6.584   1.371
  192SOL    HW1 1475   7.001   6.632   1.459
  192SOL    HW2 1476   0.028   6.497   1.382
  193SOL     OW 1477   3.252   0.554   1.590
  193SOL    HW1 1478   3.229   0.578   1.496
  193SOL    HW2 1479   3.171   0.566   1.648
  194SOL     OW 1480   4.094   6.013   3.196
  194SOL    HW1 1481   4.150   6.029   3.115
  194SOL    HW2 1482   4.054   6.099   3.226
  195SOL     OW 1483   2.982   0.915   0.935
  195SOL    HW1 1484   2.992   0.972   0.853
  195SOL    HW2 1485   2.947   0.825   0.909
  196SOL     OW 1486   4.185   2.743   1.730
  196SOL    HW1 1487   4.181   2.648   1.698
  196SOL    HW2 1488   4.264   2.788   1.688
  197SOL     OW 1489   1.545   6.019   0.912
  197SOL    HW1 1490   1.526   6.038   0.815
  197SOL    HW2 1491   1.472   5.962   0.950
  198SOL     OW 1492   5.500   6.522   6.380
  198SOL    HW1 1493   5.478   6.619   6.372
  198SOL    HW2 1494   5.513   6.484   6.288
  199SOL     OW 1495   2.237   0.710   3.260
  199SOL    HW1 1496   2.234   0.644   3.184
  199SOL    HW2 1497   2.316   0.771   3.248
  200SOL     OW 1498   1.280   3.495   4.184
  200SOL    HW1 1499   1.349   3.564   4.160
  200SOL    HW2 1500   1.252   3.445   4.102
  201SOL     OW 1501   4.812   1.516   6.922
  201SOL    HW1 1502   4.812   1.419   6.898
  201SOL    HW2 1503   4.824   1.525   7.021
  202SOL     OW 1504   4.177   0.330   3.119
  202SOL    HW1 1505   4.207   0.403   3.181
  202SOL    HW2 1506   4.257   0.288   3.076
  203SOL     OW 1507   5.877   2.631   0.406
  203SOL    HW1 1508   5.937   2.582   0.343
  203SOL    HW2 1509   5.791   2.653   0.360
  204SOL     OW 1510   1.866   6.062   1.296
  204SOL    HW1 1511   1.779   6.026   1.261
  204SOL    HW2 1512   1.915   5.990   1.345
  205SOL     OW 1513   5.019   0.631   1.344
  205SOL    HW1 1514   5.108   0.585   1.344
  205SOL    HW2 1515   5.031   0.726   1.314
  206SOL     OW 1516   6.903   6.381   1.138
  206SOL    HW1 1517   6.838   6.433   1.192
  206SOL    HW2 1518   6.996   6.405   1.167
  207SOL     OW 1519   6.374   2.156   5.817
  207SOL    HW1 1520   6.436   2.160   5.739
  207SOL    HW2 1521   6.299   2.094   5.797
  208SOL     OW 1522   4.189   4.280   6.904
  208SOL    HW1 1523   4.182   4.272   6.804
  208SOL    HW2 1524   4.138   4.206   6.947
  209SOL     OW 1525   0.080   6.084   4.030
  209SOL    HW1 1526   0.149   6.013   4.042
  209SOL    HW2 1527   0.074   6.110   3.934
  210SOL     OW 1528   3.975   2.251   0.765
  210SOL    HW1 1529   4.058   2.252   0.710
  210SOL    HW2 1530   3.924   2.167   0.746
  211SOL     OW 1531   1.239   2.989   2.053
  211SOL    HW1 1532   1.335   3.014   2.057
  211SOL    HW2 1533   1.185   3.067   2.023
  212SOL     OW 1534   1.170   5.318   5.188
  212SOL    HW1 1535   1.186   5.220   5.176
  212SOL    HW2 1536   1.222   5.351   5.267
  213SOL     OW 1537   3.875   2.272   0.396
  213SOL    HW1 1538   3.811   2.267   0.472
  213SOL    HW2 1539   3.913   2.364   0.389
  214SOL     OW 1540   1.587   6.103   3.156
  214SOL    HW1 1541   1.512   6.101   3.089
  214SOL    HW2 1542   1.674   6.087   3.109
  215SOL     OW 1543   3.072   3.907   2.986
  215SOL    HW1 1544   3.058   3.937   2.891
  215SOL    HW2 1545   3.085   3.808   2.988
  216SOL     OW 1546   2.974   0.535   5.667
  216SOL    HW1 1547   3.011   0.622   5.634
  216SOL    HW2 1548   2.956   0.475   5.589
  217SOL     OW 1549   6.906   2.081   5.269
  217SOL    HW1 1550   6.904   2.180   5.256
  217SOL    HW2 1551   6.976   2.041   5.210
  218SOL     OW 1552   2.626   3.984   5.607
  218SOL    HW1 1553   2.655   4.054   5.671
  218SOL    HW2 1554   2.601   4.027   5.520
  219SOL     OW 1555   2.762   5.406   6.929
  219SOL    HW1 1556   2.727   5.495   6.900
  219SOL    HW2 1557   2.697   5.364   6.993
  220SOL     OW 1558   1.649   4.884   0.084
  220SOL    HW1 1559   1.689   4.804   0.038
  220SOL    HW2 1560   1.553   4.894   0.058
  221SOL     OW 1561   5.822   2.397   4.708
  221SOL    HW1 1562   5.869   2.401   4.620
  221SOL    HW2 1563   5.796   2.489   4.736
  222SOL     OW 1564   2.128   6.657   4.818
  222SOL    HW1 1565   2.194   6.731   4.807
  222SOL    HW2 1566   2.092   6.658   4.911
  223SOL     OW 1567   5.385   4.629   2.556
  223SOL    HW1 1568   5.342   4.719   2.546
  223SOL    HW2 1569   5.408   4.592   2.466
  224SOL     OW 1570   4.817   2.334   2.387
  224SOL    HW1 1571   4.869   2.363   2.467
  224SOL    HW2 1572   4.879   2.293   2.320
  225SOL     OW 1573   5.145   6.383   1.021
  225SOL    HW1 1574   5.137   6.481   1.039
  225SOL    HW2 1575   5.073   6.354   0.959
  226SOL     OW 1576   0.611   5.683   2.374
  226SOL    HW1 1577   0.557   5.747   2.319
  226SOL    HW2 1578   0.558   5.657   2.455
  227SOL     OW 1579   1.142   3.550   3.315
  227SOL    HW1 1580   1.214   3.508   3.260
  227SOL    HW2 1581   1.066   3.486   3.327
  228SOL     OW 1582   4.068   6.597   2.784
  228SOL    HW1 1583   3.972   6.608   2.808
  228SOL    HW2 1584   4.100   6.677   2.733
  229SOL     OW 1585   6.588   5.173   3.044
  229SOL    HW1 1586   6.490   5.195   3.043
  229SOL    HW2 1587   6.632   5.221   3.119
  230SOL     OW 1588   0.894   4.653   6.102
  230SOL    HW1 1589   0.827   4.693   6.039
  230SOL    HW2 1590   0.883   4.554   6.103
  231SOL     OW 1591   0.383   2.381   6.182
  231SOL    HW1 1592   0.423   2.428   6.261
  231SOL    HW2 1593   0.327   2.446   6.130
  232SOL     OW 1594   1.401   4.172   6.298
  232SOL    HW1 1595   1.416   4.180   6.200
  232SOL    HW2 1596   1.383   4.262   6.337
  233SOL     OW 1597   3.448   0.368   6.779
  233SOL    HW1 1598   3.499   0.326   6.704
  233SOL    HW2 1599   3.350   0.352   6.766
  234SOL     OW 1600   2.256   4.648   6.478
  234SOL    HW1 1601   2.335   4.671   6.534
  234SOL    HW2 1602   2.233   4.551   6.490
  235SOL     OW 1603   3.672   3.138   5.883
  235SOL    HW1 1604   3.718   3.054   5.912
  235SOL    HW2 1605   3.591   3.115   5.828
  236SOL     OW 1606   6.986   1.813   5.793
  236SOL    HW1 1607   6.974   1.845   5.700
  236SOL    HW2 1608   0.051   1.768   5.802
  237SOL     OW 1609   6.702   6.558   1.989
  237SOL    HW1 1610   6.784   6.526   1.941
  237SOL    HW2 1611   6.645   6.611   1.926
  238SOL     OW 1612   0.189   1.909   2.736
  238SOL    HW1 1613   0.209   1.974   2.662
  238SOL    HW2 1614   0.238   1.937   2.819
  239SOL     OW 1615   6.492   5.062   0.433
  239SOL    HW1 1616   6.453   5.153   0.420
  239SOL    HW2 1617   6.481   5.008   0.350
  240SOL     OW 1618   6.978   2.378   5.254
  240SOL    HW1 1619   0.053   2.384   5.251
  240SOL    HW2 1620   6.946   2.418   5.340
  241SOL     OW 1621   5.263   2.099   4.888
  241SOL    HW1 1622   5.205   2.065   4.814
  241SOL    HW2 1623   5.355   2.115   4.853
  242SOL     OW 1624   2.813   2.324   4.088
  242SOL    HW1 1625   2.876   2.397   4.062
  242SOL    HW2 1626   2.722   2.344   4.053
  243SOL     OW 1627   5.044   1.012   6.862
  243SOL    HW1 1628   4.955   0.975   6.835
  243SOL    HW2 1629   5.105   1.012   6.783
  244SOL     OW 1630   0.521   1.829   5.714
  244SOL    HW1 1631   0.543   1.847   5.618
  244SOL    HW2 1632   0.595   1.865   5.772
  245SOL     OW 1633   4.698   2.719   3.559
  245SOL    HW1 1634   4.736   2.724   3.651
  245SOL    HW2 1635   4.709   2.807   3.513
  246SOL     OW 1636   4.957   3.001   4.187
  246SOL    HW1 1637   4.926   3.082   4.137
  246SOL    HW2 1638   5.036   3.025   4.243
  247SOL     OW 1639   2.979   0.639   2.871
  247SOL    HW1 1640   3.062   0.600   2.832
  247SOL    HW2 1641   2.999   0.677   2.961
  248SOL     OW 1642   0.200   2.184   2.616
  248SOL    HW1 1643   0.200   2.278   2.651
  248SOL    HW2 1644   0.144   2.178   2.534
  249SOL     OW 1645   2.119   5.649   5.177
  249SOL    HW1 1646   2.121   5.745   5.149
  249SOL    HW2 1647   2.212   5.617   5.196
  250SOL     OW 1648   5.234   2.400   0.448
  250SOL    HW1 1649   5.271   2.493   0.449
  250SOL    HW2 1650   5.284   2.344   0.514
  251SOL     OW 1651   1.912   1.121   0.826
  251SOL    HW1 1652   1.927   1.102   0.728
  251SOL    HW2 1653   1.955   1.208   0.850
  252SOL     OW 1654   0.383   1.924   6.981
  252SOL    HW1 1655   0.354   1.861   0.027
  252SOL    HW2 1656   0.419   1.873   6.903
  253SOL     OW 1657   1.874   4.213   6.295
  253SOL    HW1 1658   1.900   4.267   6.215
  253SOL    HW2 1659   1.793   4.159   6.274
  254SOL     OW 1660   4.987   3.937   6.384
  254SOL    HW1 1661   4.994   4.036   6.393
  254SOL    HW2 1662   5.075   3.895   6.406
  255SOL     OW 1663   4.271   2.189   2.151
  255SOL    HW1 1664   4.302   2.213   2.058
  255SOL    HW2 1665   4.172   2.200   2.157
  256SOL     OW 1666   6.578   5.789   1.157
  256SOL    HW1 1667   6.631   5.717   1.111
  256SOL    HW2 1668   6.635   5.871   1.164
  257SOL     OW 1669   2.720   5.715   5.585
  257SOL    HW1 1670   2.647   5.705   5.651
  257SOL    HW2 1671   2.743   5.626   5.546
  258SOL     OW 1672   4.448   5.116   3.916
  258SOL    HW1 1673   4.480   5.026   3.888
  258SOL    HW2 1674   4.348   5.120   3.906
  259SOL     OW 1675   0.766   1.782   3.002
  259SOL    HW1 1676   0.764   1.689   3.038
  259SOL    HW2 1677   0.761   1.779   2.902
  260SOL     OW 1678   6.272   6.709   5.318
  260SOL    HW1 1679   6.304   6.764   5.241
  260SOL    HW2 1680   6.202   6.760   5.368
  261SOL     OW 1681   0.471   0.740   4.002
  261SOL    HW1 1682   0.470   0.691   4.089
  261SOL    HW2 1683   0.399   0.809   4.003
  262SOL     OW 1684   1.066   5.073   1.661
  262SOL    HW1 1685   1.086   5.118   1.574
  262SOL    HW2 1686   0.969   5.047   1.664
  263SOL     OW 1687   0.615   4.409   3.955
  263SOL    HW1 1688   0.636   4.320   3.996
  263SOL    HW2 1689   0.516   4.426   3.962
  264SOL     OW 1690   3.165   4.197   0.491
  264SOL    HW1 1691   3.236   4.263   0.514
  264SOL    HW2 1692   3.112   4.175   0.573
  265SOL     OW 1693   3.987   5.525   3.654
  265SOL    HW1 1694   4.072   5.479   3.628
  265SOL    HW2 1695   4.008   5.616   3.688
  266SOL     OW 1696   4.738   3.685   6.899
  266SOL    HW1 1697   4.781   3.751   6.960
  266SOL    HW2 1698   4.798   3.668   6.821
  267SOL     OW 1699   2.407   2.555   6.083
  267SOL    HW1 1700   2.382   2.507   5.999
  267SOL    HW2 1701   2.418   2.653   6.064
  268SOL     OW 1702   2.193   4.472   3.619
  268SOL    HW1 1703   2.273   4.413   3.630
  268SOL    HW2 1704   2.115   4.432   3.668
  269SOL     OW 1705   2.893   2.088   5.746
  269SOL    HW1 1706   2.938   2.112   5.831
  269SOL    HW2 1707   2.808   2.141   5.737
  270SOL     OW 1708   4.961   6.131   4.763
  270SOL    HW1 1709   4.945   6.228   4.745
  270SOL    HW2 1710   5.059   6.112   4.754
  271SOL     OW 1711   2.146   1.920   0.306
  271SOL    HW1 1712   2.211   1.971   0.249
  271SOL    HW2 1713   2.101   1.982   0.369
  272SOL     OW 1714   4.148   5.481   0.042
  272SOL    HW1 1715   4.124   5.477   6.970
  272SOL    HW2 1716   4.119   5.397   0.087
  273SOL     OW 1717   1.938   5.943   4.104
  273SOL    HW1 1718   1.858   6.002   4.094
  273SOL    HW2 1719   1.983   5.932   4.016
  274SOL     OW 1720   6.016   2.351   2.221
  274SOL    HW1 1721   5.933   2.295   2.219
  274SOL    HW2 1722   6.066   2.339   2.135
  275SOL     OW 1723   6.105   5.675   5.739
  275SOL    HW1 1724   6.160   5.758   5.738
  275SOL    HW2 1725   6.137   5.612   5.668
  276SOL     OW 1726   0.715   0.086   4.201
  276SOL    HW1 1727   0.797   0.065   4.149
  276SOL    HW2 1728   0.684   0.004   4.249
  277SOL     OW 1729   4.035   3.131   5.195
  277SOL    HW1 1730   3.948   3.156   5.153
  277SOL    HW2 1731   4.023   3.046   5.247
  278SOL     OW 1732   5.642   3.886   2.893
  278SOL    HW1 1733   5.569   3.828   2.928
  278SOL    HW2 1734   5.615   3.926   2.806
  279SOL     OW 1735   6.790   3.933   3.501
  279SOL    HW1 1736   6.854   4.004   3.530
  279SOL    HW2 1737   6.834   3.873   3.433
  280SOL     OW 1738   4.144   2.257   3.715
  280SOL    HW1 1739   4.147   2.205   3.630
  280SOL    HW2 1740   4.081   2.213   3.779
  281SOL     OW 1741   5.115   5.733   5.163
  281SOL    HW1 1742   5.167   5.650   5.138
  281SOL    HW2 1743   5.019   5.710   5.175
  282SOL     OW 1744   0.873   2.445   0.188
  282SOL    HW1 1745   0.823   2.526   0.220
  282SOL    HW2 1746   0.809   2.381   0.144
  283SOL     OW 1747   6.119   3.707   3.413
  283SOL    HW1 1748   6.062   3.626   3.421
  283SOL    HW2 1749   6.072   3.785   3.454
  284SOL     OW 1750   5.385   6.417   3.004
  284SOL    HW1 1751   5.335   6.431   2.919
  284SOL    HW2 1752   5.337   6.350   3.061
  285SOL     OW 1753   4.066   6.113   6.309
  285SOL    HW1 1754   4.103   6.103   6.401
  285SOL    HW2 1755   4.083   6.206   6.276
  286SOL     OW 1756   2.392   5.132   5.459
  286SOL    HW1 1757   2.430   5.219   5.428
  286SOL    HW2 1758   2.419   5.060   5.396
  287SOL     OW 1759   3.191   5.512   0.570
  287SOL    HW1 1760   3.106   5.542   0.528
  287SOL    HW2 1761   3.189   5.413   0.584
  288SOL     OW 1762   4.508   1.533   0.050
  288SOL    HW1 1763   4.567   1.501   7.001
  288SOL    HW2 1764   4.564   1.556   0.130
  289SOL     OW 1765   5.383   5.048   4.708
  289SOL    HW1 1766   5.400   4.951   4.687
  289SOL    HW2 1767   5.317   5.055   4.782
  290SOL     OW 1768   3.915   0.576   5.264
  290SOL    HW1 1769   3.851   0.507   5.300
  290SOL    HW2 1770   3.863   0.650   5.221
  291SOL     OW 1771   5.660   0.817   4.953
  291SOL    HW1 1772   5.596   0.893   4.964
  291SOL    HW2 1773   5.722   0.814   5.031
  292SOL     OW 1774   3.517   0.581   3.611
  292SOL    HW1 1775   3.444   0.528   3.654
  292SOL    HW2 1776   3.504   0.678   3.630
  293SOL     OW 1777   5.377   0.647   2.574
  293SOL    HW1 1778   5.424   0.735   2.580
  293SOL    HW2 1779   5.420   0.591   2.503
  294SOL     OW 1780   6.804   1.961   5.915
  294SOL    HW1 1781   6.817   2.005   6.004
  294SOL    HW2 1782   6.874   1.892   5.901
  295SOL     OW 1783   0.404   0.547   4.700
  295SOL    HW1 1784   0.308   0.521   4.710
  295SOL    HW2 1785   0.445   0.496   4.624
  296SOL     OW 1786   1.213   1.839   1.681
  296SOL    HW1 1787   1.286   1.815   1.617
  296SOL    HW2 1788   1.233   1.800   1.771
  297SOL     OW 1789   5.275   3.067   3.425
  297SOL    HW1 1790   5.267   3.167   3.418
  297SOL    HW2 1791   5.306   3.030   3.337
  298SOL     OW 1792   4.547   1.006   5.757
  298SOL    HW1 1793   4.553   1.099   5.721
  298SOL    HW2 1794   4.559   0.941   5.682
  299SOL     OW 1795   0.730   1.445   5.752
  299SOL    HW1 1796   0.811   1.500   5.771
  299SOL    HW2 1797   0.736   1.359   5.803
  300SOL     OW 1798   4.677   6.178   4.117
  300SOL    HW1 1799   4.720   6.259   4.076
  300SOL    HW2 1800   4.748   6.110   4.138
  301SOL     OW 1801   0.278   6.326   5.552
  301SOL    HW1 1802   0.270   6.247   5.490
  301SOL    HW2 1803   0.187   6.358   5.577
  302SOL     OW 1804   6.829   6.762   2.112
  302SOL    HW1 1805   6.893   6.796   2.043
  302SOL    HW2 1806   6.773   6.689   2.072
  303SOL     OW 1807   5.726   5.726   2.574
  303SOL    HW1 1808   5.673   5.811   2.584
  303SOL    HW2 1809   5.672   5.649   2.607
  304SOL     OW 1810   2.241   6.787   4.031
  304SOL    HW1 1811   2.190   6.797   3.946
  304SOL    HW2 1812   2.181   6.751   4.102
  305SOL     OW 1813   1.619   1.874   1.207
  305SOL    HW1 1814   1.669   1.901   1.289
  305SOL    HW2 1815   1.615   1.774   1.202
  306SOL     OW 1816   6.996   0.073   2.315
  306SOL    HW1 1817   6.944   0.075   2.229
  306SOL    HW2 1818   6.934   0.058   2.391
  307SOL     OW 1819   3.525   3.353   4.053
  307SOL    HW1 1820   3.523   3.401   3.965
  307SOL    HW2 1821   3.610   3.377   4.101
  308SOL     OW 1822   6.185   1.383   2.156
  308SOL    HW1 1823   6.284   1.381   2.172
  308SOL    HW2 1824   6.139   1.410   2.241
  309SOL     OW 1825   1.838   4.876   0.307
  309SOL    HW1 1826   1.776   4.865   0.229
  309SOL    HW2 1827   1.857   4.973   0.321
  310SOL     OW 1828   4.958   6.625   5.035
  310SOL    HW1 1829   4.997   6.533   5.025
  310SOL    HW2 1830   5.011   6.690   4.981
  311SOL     OW 1831   1.493   6.701   2.129
  311SOL    HW1 1832   1.548   6.773   2.171
  311SOL    HW2 1833   1.455   6.642   2.200
  312SOL     OW 1834   3.766   0.511   4.403
  312SOL    HW1 1835   3.857   0.473   4.420
  312SOL    HW2 1836   3.721   0.529   4.490
  313SOL     OW 1837   3.246   3.071   2.871
  313SOL    HW1 1838   3.311   3.147   2.865
  313SOL    HW2 1839   3.202   3.071   2.960
  314SOL     OW 1840   2.910   5.239   6.337
  314SOL    HW1 1841   2.813   5.250   6.362
  314SOL    HW2 1842   2.921   5.153   6.286
  315SOL     OW 1843   6.131   0.524   4.208
  315SOL    HW1 1844   6.071   0.584   4.155
  315SOL    HW2 1845   6.196   0.580   4.260
  316SOL     OW 1846   3.551   1.318   5.954
  316SOL    HW1 1847   3.560   1.410   5.915
  316SOL    HW2 1848   3.640   1.287   5.988
  317SOL     OW 1849   0.680   2.103   1.165
  317SOL    HW1 1850   0.687   2.078   1.261
  317SOL    HW2 1851   0.699   2.023   1.108
  318SOL     OW 1852   0.879   0.637   3.070
  318SOL    HW1 1853   0.888   0.539   3.054
  318SOL    HW2 1854   0.783   0.664   3.058
  319SOL     OW 1855   0.694   0.589   2.349
  319SOL    HW1 1856   0.656   0.524   2.416
  319SOL    HW2 1857   0.772   0.548   2.303
  320SOL     OW 1858   4.987   1.690   0.185
  320SOL    HW1 1859   5.058   1.625   0.160
  320SOL    HW2 1860   4.999   1.719   0.280
  321SOL     OW 1861   4.440   3.181   0.921
  321SOL    HW1 1862   4.398   3.253   0.976
  321SOL    HW2 1863   4.530   3.159   0.959
  322SOL     OW 1864   3.209   2.753   0.084
  322SOL    HW1 1865   3.185   2.656   0.087
  322SOL    HW2 1866   3.293   2.767   0.136
  323SOL     OW 1867   1.438   3.391   2.248
  323SOL    HW1 1868   1.397   3.318   2.192
  323SOL    HW2 1869   1.537   3.378   2.252
  324SOL     OW 1870   0.037   0.501   3.253
  324SOL    HW1 1871   0.075   0.409   3.253
  324SOL    HW2 1872   6.986   0.506   3.319
  325SOL     OW 1873   6.164   3.477   0.858
  325SOL    HW1 1874   6.173   3.513   0.951
  325SOL    HW2 1875   6.152   3.553   0.794
  326SOL     OW 1876   0.086   5.662   0.076
  326SOL    HW1 1877   0.038   5.597   0.135
  326SOL    HW2 1878   0.042   5.752   0.084
  327SOL     OW 1879   3.849   6.335   6.391
  327SOL    HW1 1880   3.927   6.381   6.348
  327SOL    HW2 1881   3.878   6.293   6.477
  328SOL     OW 1882   1.153   5.139   3.545
  328SOL    HW1 1883   1.234   5.190   3.516
  328SOL    HW2 1884   1.118   5.176   3.631
  329SOL     OW 1885   3.700   3.005   2.106
  329SOL    HW1 1886   3.601   3.008   2.091
  329SOL    HW2 1887   3.747   3.002   2.018
  330SOL     OW 1888   2.624   3.191   6.720
  330SOL    HW1 1889   2.707   3.245   6.732
  330SOL    HW2 1890   2.647   3.103   6.678
  331SOL     OW 1891   5.142   4.845   4.560
  331SOL    HW1 1892   5.152   4.943   4.576
  331SOL    HW2 1893   5.060   4.828   4.506
  332SOL     OW 1894   5.623   1.905   3.025
  332SOL    HW1 1895   5.563   1.970   2.979
  332SOL    HW2 1896   5.602   1.903   3.123
  333SOL     OW 1897   4.132   6.530   3.767
  333SOL    HW1 1898   4.176   6.612   3.732
  333SOL    HW2 1899   4.037   6.526   3.734
  334SOL     OW 1900   3.517   3.521   4.400
  334SOL    HW1 1901   3.530   3.538   4.497
  334SOL    HW2 1902   3.425   3.484   4.385
  335SOL     OW 1903   3.753   0.930   0.919
  335SOL    HW1 1904   3.704   0.940   1.005
  335SOL    HW2 1905   3.699   0.872   0.857
  336SOL     OW 1906   4.150   1.942   4.887
  336SOL    HW1 1907   4.165   1.857   4.938
  336SOL    HW2 1908   4.178   2.020   4.942
  337SOL     OW 1909   0.131   0.842   5.450
  337SOL    HW1 1910   0.111   0.803   5.540
  337SOL    HW2 1911   0.152   0.939   5.460
  338SOL     OW 1912   4.705   1.109   1.788
  338SOL    HW1 1913   4.785   1.154   1.749
  338SOL    HW2 1914   4.725   1.012   1.803
  339SOL     OW 1915   4.235   5.315   5.987
  339SOL    HW1 1916   4.290   5.387   5.944
  339SOL    HW2 1917   4.272   5.225   5.962
  340SOL     OW 1918   4.878   3.179   5.089
  340SOL    HW1 1919   4.860   3.144   4.997
  340SOL    HW2 1920   4.974   3.165   5.113
  341SOL     OW 1921   6.653   0.067   1.906
  341SOL    HW1 1922   6.562   0.075   1.948
  341SOL    HW2 1923   6.649   0.004   1.829
  342SOL     OW 1924   4.497   1.509   2.080
  342SOL    HW1 1925   4.474   1.480   1.987
  342SOL    HW2 1926   4.595   1.531   2.084
  343SOL     OW 1927   5.349   0.282   0.993
  343SOL    HW1 1928   5.372   0.282   0.895
  343SOL    HW2 1929   5.249   0.285   1.003
  344SOL     OW 1930   6.590   3.139   1.301
  344SOL    HW1 1931   6.648   3.150   1.220
  344SOL    HW2 1932   6.602   3.217   1.361
  345SOL     OW 1933   0.012   2.099   4.117
  345SOL    HW1 1934   0.007   2.151   4.202
  345SOL    HW2 1935   0.090   2.131   4.063
  346SOL     OW 1936   2.270   5.769   2.943
  346SOL    HW1 1937   2.209   5.840   2.907
  346SOL    HW2 1938   2.220   5.715   3.011
  347SOL     OW 1939   2.605   4.830   1.087
  347SOL    HW1 1940   2.512   4.796   1.093
  347SOL    HW2 1941   2.658   4.797   1.166
  348SOL     OW 1942   4.872   4.858   1.712
  348SOL    HW1 1943   4.889   4.950   1.676
  348SOL    HW2 1944   4.789   4.821   1.671
  349SOL     OW 1945   5.710   4.769   0.805
  349SOL    HW1 1946   5.632   4.756   0.743
  349SOL    HW2 1947   5.682   4.747   0.898
  350SOL     OW 1948   2.350   2.030   0.552
  350SOL    HW1 1949   2.333   1.975   0.471
  350SOL    HW2 1950   2.281   2.103   0.558
  351SOL     OW 1951   3.711   4.263   1.211
  351SOL    HW1 1952   3.765   4.341   1.177
  351SOL    HW2 1953   3.636   4.298   1.267
  352SOL     OW 1954   4.101   6.392   2.573
  352SOL    HW1 1955   4.067   6.424   2.485
  352SOL    HW2 1956   4.078   6.459   2.644
  353SOL     OW 1957   2.075   7.014   0.590
  353SOL    HW1 1958   2.151   6.981   0.646
  353SOL    HW2 1959   2.008   6.941   0.578
  354SOL     OW 1960   1.834   2.359   0.842
  354SOL    HW1 1961   1.832   2.433   0.775
  354SOL    HW2 1962   1.752   2.362   0.898
  355SOL     OW 1963   0.444   2.745   3.338
  355SOL    HW1 1964   0.426   2.684   3.416
  355SOL    HW2 1965   0.541   2.740   3.314
  356SOL     OW 1966   2.744   0.648   5.336
  356SOL    HW1 1967   2.772   0.744   5.347
  356SOL    HW2 1968   2.753   0.622   5.240
  357SOL     OW 1969   5.866   6.208   4.123
  357SOL    HW1 1970   5.768   6.186   4.121
  357SOL    HW2 1971   5.907   6.167   4.204
  358SOL     OW 1972   3.156   5.842   6.787
  358SOL    HW1 1973   3.199   5.890   6.710
  358SOL    HW2 1974   3.112   5.908   6.847
  359SOL     OW 1975   1.436   2.048   1.995
  359SOL    HW1 1976   1.393   1.981   2.056
  359SOL    HW2 1977   1.369   2.118   1.969
  360SOL     OW 1978   2.002   3.663   3.494
  360SOL    HW1 1979   1.913   3.707   3.481
  360SOL    HW2 1980   2.061   3.721   3.550
  361SOL     OW 1981   6.926   1.883   2.131
  361SOL    HW1 1982   6.921   1.934   2.216
  361SOL    HW2 1983   6.965   1.940   2.059
  362SOL     OW 1984   3.767   3.985   2.633
  362SOL    HW1 1985   3.804   3.979   2.726
  362SOL    HW2 1986   3.672   4.017   2.638
  363SOL     OW 1987   4.464   5.624   0.721
  363SOL    HW1 1988   4.399   5.647   0.649
  363SOL    HW2 1989   4.535   5.694   0.725
  364SOL     OW 1990   1.116   0.277   0.075
  364SOL    HW1 1991   1.202   0.239   0.109
  364SOL    HW2 1992   1.092   0.232   7.014
  365SOL     OW 1993   6.250   0.738   3.980
  365SOL    HW1 1994   6.154   0.711   3.992
  365SOL    HW2 1995   6.299   0.725   4.066
  366SOL     OW 1996   5.213   1.767   6.907
  366SOL    HW1 1997   5.181   1.856   6.872
  366SOL    HW2 1998   5.290   1.736   6.852
  367SOL     OW 1999   5.538   0.883   0.071
  367SOL    HW1 2000   5.512   0.826   7.018
  367SOL    HW2 2001   5.565   0.974   0.038
  368SOL     OW 2002   2.435   1.733   5.932
  368SOL    HW1 2003   2.529   1.758   5.910
  368SOL    HW2 2004   2.372   1.785   5.874
  369SOL     OW 2005   5.853   4.518   0.153
  369SOL    HW1 2006   5.866   4.592   0.219
  369SOL    HW2 2007   5.783   4.544   0.086
  370SOL     OW 2008   2.345   2.603   3.195
  370SOL    HW1 2009   2.356   2.702   3.194
  370SOL    HW2 2010   2.248   2.581   3.205
  371SOL     OW 2011   2.202   5.659   0.383
  371SOL    HW1 2012   2.140   5.721   0.431
  371SOL    HW2 2013   2.148   5.590   0.335
  372SOL     OW 2014   2.248   5.721   5.851
  372SOL    HW1 2015   2.237   5.622   5.842
  372SOL    HW2 2016   2.264   5.761   5.760
  373SOL     OW 2017   6.530   4.425   2.862
  373SOL    HW1 2018   6.593   4.462   2.794
  373SOL    HW2 2019   6.523   4.488   2.939
  374SOL     OW 2020   2.888   2.074   2.201
  374SOL    HW1 2021   2.848   2.016   2.131
  374SOL    HW2 2022   2.913   2.163   2.161
  375SOL     OW 2023   0.932   6.233   4.436
  375SOL    HW1 2024   0.869   6.311   4.430
  375SOL    HW2 2025   0.971   6.229   4.528
  376SOL     OW 2026   4.296   0.505   3.315
  376SOL    HW1 2027   4.228   0.553   3.371
  376SOL    HW2 2028   4.384   0.502   3.364
  377SOL     OW 2029   2.667   2.534   6.705
  377SOL    HW1 2030   2.686   2.525   6.607
  377SOL    HW2 2031   2.742   2.585   6.749
  378SOL     OW 2032   3.885   1.286   2.154
  378SOL    HW1 2033   3.840   1.324   2.074
  378SOL    HW2 2034   3.935   1.203   2.128
  379SOL     OW 2035   4.021   2.779   6.641
  379SOL    HW1 2036   3.982   2.861   6.683
  379SOL    HW2 2037   4.111   2.799   6.604
  380SOL     OW 2038   4.532   2.248   0.811
  380SOL    HW1 2039   4.575   2.338   0.814
  380SOL    HW2 2040   4.562   2.194   0.890
  381SOL     OW 2041   1.997   4.412   2.922
  381SOL    HW1 2042   2.013   4.390   2.826
  381SOL    HW2 2043   1.944   4.339   2.965
  382SOL     OW 2044   6.207   6.893   0.109
  382SOL    HW1 2045   6.176   6.984   0.137
  382SOL    HW2 2046   6.304   6.897   0.083
  383SOL     OW 2047   4.250   3.753   0.222
  383SOL    HW1 2048   4.260   3.709   0.133
  383SOL    HW2 2049   4.195   3.695   0.282
  384SOL     OW 2050   0.341   3.324   5.163
  384SOL    HW1 2051   0.368   3.317   5.067
  384SOL    HW2 2052   0.395   3.261   5.218
  385SOL     OW 2053   4.721   2.413   0.375
  385SOL    HW1 2054   4.820   2.416   0.361
  385SOL    HW2 2055   4.696   2.473   0.450
  386SOL     OW 2056   4.214   6.319   4.977
  386SOL    HW1 2057   4.286   6.375   4.937
  386SOL    HW2 2058   4.189   6.356   5.067
  387SOL     OW 2059   3.170   6.015   4.656
  387SOL    HW1 2060   3.229   5.947   4.699
  387SOL    HW2 2061   3.208   6.042   4.568
  388SOL     OW 2062   1.166   5.018   5.952
  388SOL    HW1 2063   1.253   4.982   5.985
  388SOL    HW2 2064   1.147   5.105   5.997
  389SOL     OW 2065   3.082   3.549   1.372
  389SOL    HW1 2066   3.037   3.460   1.378
  389SOL    HW2 2067   3.107   3.567   1.277
  390SOL     OW 2068   2.933   0.827   4.658
  390SOL    HW1 2069   2.853   0.770   4.681
  390SOL    HW2 2070   2.929   0.852   4.562
  391SOL     OW 2071   1.418   2.256   6.820
  391SOL    HW1 2072   1.508   2.262   6.775
  391SOL    HW2 2073   1.398   2.344   6.864
  392SOL     OW 2074   3.344   5.568   4.962
  392SOL    HW1 2075   3.419   5.537   5.020
  392SOL    HW2 2076   3.276   5.615   5.018
  393SOL     OW 2077   5.819   4.317   5.564
  393SOL    HW1 2078   5.891   4.333   5.631
  393SOL    HW2 2079   5.731   4.342   5.603
  394SOL     OW 2080   2.084   1.036   6.254
  394SOL    HW1 2081   1.999   1.016   6.302
  394SOL    HW2 2082   2.130   0.949   6.232
  395SOL     OW 2083   0.057   3.144   0.815
  395SOL    HW1 2084   0.071   3.145   0.914
  395SOL    HW2 2085   7.022   3.068   0.789
  396SOL     OW 2086   3.607   3.107   5.238
  396SOL    HW1 2087   3.532   3.162   5.274
  396SOL    HW2 2088   3.680   3.102   5.306
  397SOL     OW 2089   4.386   1.632   6.845
  397SOL    HW1 2090   4.298   1.593   6.819
  397SOL    HW2 2091   4.410   1.603   6.937
  398SOL     OW 2092   0.740   4.596   2.373
  398SOL    HW1 2093   0.729   4.498   2.388
  398SOL    HW2 2094   0.685   4.647   2.439
  399SOL     OW 2095   4.944   4.770   2.177
  399SOL    HW1 2096   4.922   4.673   2.167
  399SOL    HW2 2097   4.946   4.795   2.274
  400SOL     OW 2098   2.361   4.849   4.403
  400SOL    HW1 2099   2.437   4.786   4.390
  400SOL    HW2 2100   2.297   4.811   4.470
  401SOL     OW 2101   5.956   1.349   0.482
  401SOL    HW1 2102   6.022   1.307   0.420
  401SOL    HW2 2103   5.999   1.366   0.571
  402SOL     OW 2104   6.691   4.416   0.849
  402SOL    HW1 2105   6.739   4.495   0.809
  402SOL    HW2 2106   6.621   4.385   0.785
  403SOL     OW 2107   4.593   4.671   0.840
  403SOL    HW1 2108   4.666   4.645   0.777
  403SOL    HW2 2109   4.626   4.664   0.934
  404SOL     OW 2110   0.440   6.256   4.595
  404SOL    HW1 2111   0.416   6.230   4.688
  404SOL    HW2 2112   0.537   6.235   4.578
  405SOL     OW 2113   0.805   2.592   1.149
  405SOL    HW1 2114   0.758   2.600   1.237
  405SOL    HW2 2115   0.785   2.504   1.108
  406SOL     OW 2116   1.114   2.241   3.425
  406SOL    HW1 2117   1.178   2.175   3.386
  406SOL    HW2 2118   1.137   2.333   3.392
  407SOL     OW 2119   3.236   1.917   4.179
  407SOL    HW1 2120   3.273   1.825   4.189
  407SOL    HW2 2121   3.298   1.972   4.122
  408SOL     OW 2122   2.625   0.543   3.989
  408SOL    HW1 2123   2.707   0.599   3.988
  408SOL    HW2 2124   2.587   0.541   4.081
  409SOL     OW 2125   6.735   3.314   4.075
  409SOL    HW1 2126   6.793   3.392   4.095
  409SOL    HW2 2127   6.682   3.290   4.156
  410SOL     OW 2128   3.015   6.791   6.380
  410SOL    HW1 2129   3.090   6.810   6.444
  410SOL    HW2 2130   2.944   6.861   6.390
  411SOL     OW 2131   0.582   3.266   4.904
  411SOL    HW1 2132   0.635   3.299   4.982
  411SOL    HW2 2133   0.617   3.176   4.876
  412SOL     OW 2134   4.428   0.091   2.311
  412SOL    HW1 2135   4.366   0.119   2.238
  412SOL    HW2 2136   4.412   0.148   2.392
  413SOL     OW 2137   2.318   0.300   2.682
  413SOL    HW1 2138   2.266   0.264   2.759
  413SOL    HW2 2139   2.416   0.285   2.698
  414SOL     OW 2140   4.519   4.394   0.918
  414SOL    HW1 2141   4.580   4.457   0.966
  414SOL    HW2 2142   4.424   4.426   0.926
  415SOL     OW 2143   3.861   6.877   2.565
  415SOL    HW1 2144   3.939   6.821   2.539
  415SOL    HW2 2145   3.815   6.911   2.483
  416SOL     OW 2146   3.190   5.303   0.342
  416SOL    HW1 2147   3.250   5.282   0.419
  416SOL    HW2 2148   3.199   5.400   0.318
  417SOL     OW 2149   5.130   5.264   1.597
  417SOL    HW1 2150   5.075   5.180   1.595
  417SOL    HW2 2151   5.181   5.269   1.683
  418SOL     OW 2152   6.449   5.222   6.839
  418SOL    HW1 2153   6.527   5.178   6.795
  418SOL    HW2 2154   6.370   5.161   6.835
  419SOL     OW 2155   5.330   5.781   0.719
  419SOL    HW1 2156   5.388   5.744   0.792
  419SOL    HW2 2157   5.346   5.879   0.712
  420SOL     OW 2158   5.099   4.342   6.940
  420SOL    HW1 2159   5.142   4.253   6.924
  420SOL    HW2 2160   5.171   4.410   6.957
  421SOL     OW 2161   1.314   6.568   6.792
  421SOL    HW1 2162   1.269   6.648   6.752
  421SOL    HW2 2163   1.267   6.485   6.762
  422SOL     OW 2164   5.382   4.675   6.489
  422SOL    HW1 2165   5.417   4.764   6.458
  422SOL    HW2 2166   5.409   4.661   6.584
  423SOL     OW 2167   1.381   3.112   5.854
  423SOL    HW1 2168   1.316   3.186   5.874
  423SOL    HW2 2169   1.389   3.102   5.755
  424SOL     OW 2170   2.244   3.904   0.023
  424SOL    HW1 2171   2.189   3.892   6.965
  424SOL    HW2 2172   2.249   4.002   0.045
  425SOL     OW 2173   3.081   6.828   0.097
  425SOL    HW1 2174   3.169   6.830   0.145
  425SOL    HW2 2175   3.037   6.740   0.111
  426SOL     OW 2176   6.591   4.050   5.883
  426SOL    HW1 2177   6.608   4.044   5.785
  426SOL    HW2 2178   6.493   4.068   5.899
  427SOL     OW 2179   4.524   3.188   0.641
  427SOL    HW1 2180   4.494   3.192   0.737
  427SOL    HW2 2181   4.531   3.281   0.605
  428SOL     OW 2182   3.432   1.942   5.862
  428SOL    HW1 2183   3.472   1.975   5.776
  428SOL    HW2 2184   3.441   1.843   5.867
  429SOL     OW 2185   3.280   5.776   0.367
  429SOL    HW1 2186   3.369   5.807   0.399
  429SOL    HW2 2187   3.210   5.841   0.393
  430SOL     OW 2188   2.757   0.005   4.188
  430SOL    HW1 2189   2.767   0.086   4.246
  430SOL    HW2 2190   2.805   6.953   4.230
  431SOL     OW 2191   3.308   1.474   6.552
  431SOL    HW1 2192   3.382   1.504   6.492
  431SOL    HW2 2193   3.303   1.374   6.553
  432SOL     OW 2194   6.884   1.600   1.117
  432SOL    HW1 2195   6.918   1.592   1.210
  432SOL    HW2 2196   6.806   1.539   1.104
  433SOL     OW 2197   2.922   5.990   4.819
  433SOL    HW1 2198   2.991   6.039   4.766
  433SOL    HW2 2199   2.927   5.892   4.797
  434SOL     OW 2200   6.442   3.418   1.125
  434SOL    HW1 2201   6.394   3.375   1.202
  434SOL    HW2 2202   6.527   3.369   1.108
  435SOL     OW 2203   3.832   3.166   0.951
  435SOL    HW1 2204   3.787   3.248   0.985
  435SOL    HW2 2205   3.808   3.088   1.008
  436SOL     OW 2206   2.674   0.399   0.429
  436SOL    HW1 2207   2.756   0.425   0.378
  436SOL    HW2 2208   2.634   0.317   0.388
  437SOL     OW 2209   6.325   0.397   5.395
  437SOL    HW1 2210   6.420   0.426   5.405
  437SOL    HW2 2211   6.266   0.478   5.392
  438SOL     OW 2212   1.825   3.256   1.307
  438SOL    HW1 2213   1.913   3.267   1.261
  438SOL    HW2 2214   1.785   3.168   1.282
  439SOL     OW 2215   6.337   4.269   2.188
  439SOL    HW1 2216   6.300   4.176   2.196
  439SOL    HW2 2217   6.404   4.272   2.113
  440SOL     OW 2218   1.589   3.230   3.141
  440SOL    HW1 2219   1.590   3.327   3.116
  440SOL    HW2 2220   1.666   3.210   3.202
  441SOL     OW 2221   0.755   0.941   3.104
  441SOL    HW1 2222   0.846   0.947   3.062
  441SOL    HW2 2223   0.764   0.918   3.201
  442SOL     OW 2224   6.968   4.749   6.605
  442SOL    HW1 2225   6.870   4.747   6.587
  442SOL    HW2 2226   6.993   4.839   6.641
  443SOL     OW 2227   0.858   4.353   5.175
  443SOL    HW1 2228   0.888   4.270   5.221
  443SOL    HW2 2229   0.927   4.424   5.186
  444SOL     OW 2230   5.109   3.347   6.674
  444SOL    HW1 2231   5.026   3.365   6.621
  444SOL    HW2 2232   5.133   3.427   6.728
  445SOL     OW 2233   1.757   4.549   3.248
  445SOL    HW1 2234   1.852   4.549   3.216
  445SOL    HW2 2235   1.723   4.642   3.252
  446SOL     OW 2236   3.351   4.950   3.793
  446SOL    HW1 2237   3.386   5.033   3.751
  446SOL    HW2 2238   3.424   4.905   3.845
  447SOL     OW 2239   0.506   5.855   0.295
  447SOL    HW1 2240   0.514   5.904   0.208
  447SOL    HW2 2241   0.430   5.790   0.289
  448SOL     OW 2242   4.635   0.822   6.228
  448SOL    HW1 2243   4.627   0.912   6.185
  448SOL    HW2 2244   4.695   0.763   6.173
  449SOL     OW 2245   5.520   6.960   4.354
  449SOL    HW1 2246   5.467   0.001   4.300
  449SOL    HW2 2247   5.459   6.914   4.419
  450SOL     OW 2248   6.837   5.903   3.517
  450SOL    HW1 2249   6.888   5.827   3.479
  450SOL    HW2 2250   6.740   5.879   3.524
  451SOL     OW 2251   5.925   2.532   4.057
  451SOL    HW1 2252   5.984   2.478   4.117
  451SOL    HW2 2253   5.835   2.487   4.050
  452SOL     OW 2254   6.567   5.183   6.442
  452SOL    HW1 2255   6.538   5.121   6.369
  452SOL    HW2 2256   6.595   5.270   6.403
  453SOL     OW 2257   2.825   1.062   5.670
  453SOL    HW1 2258   2.890   0.993   5.638
  453SOL    HW2 2259   2.869   1.152   5.669
  454SOL     OW 2260   1.014   6.295   0.461
  454SOL    HW1 2261   0.967   6.374   0.502
  454SOL    HW2 2262   0.960   6.213   0.475
  455SOL     OW 2263   4.809   0.589   5.043
  455SOL    HW1 2264   4.808   0.637   5.131
  455SOL    HW2 2265   4.721   0.601   4.997
  456SOL     OW 2266   4.577   5.477   6.857
  456SOL    HW1 2267   4.527   5.426   6.787
  456SOL    HW2 2268   4.669   5.497   6.824
  457SOL     OW 2269   0.684   4.421   1.931
  457SOL    HW1 2270   0.646   4.487   1.867
  457SOL    HW2 2271   0.697   4.333   1.884
  458SOL     OW 2272   6.809   6.485   5.934
  458SOL    HW1 2273   6.762   6.430   5.865
  458SOL    HW2 2274   6.743   6.548   5.976
  459SOL     OW 2275   1.686   0.514   3.847
  459SOL    HW1 2276   1.634   0.551   3.770
  459SOL    HW2 2277   1.710   0.589   3.909
  460SOL     OW 2278   6.643   1.582   3.921
  460SOL    HW1 2279   6.601   1.638   3.850
  460SOL    HW2 2280   6.572   1.527   3.966
  461SOL     OW 2281   4.978   5.983   5.338
  461SOL    HW1 2282   5.073   5.970   5.366
  461SOL    HW2 2283   4.975   6.040   5.255
  462SOL     OW 2284   3.167   2.474   0.089
  462SOL    HW1 2285   3.202   2.395   0.038
  462SOL    HW2 2286   3.074   2.456   0.120
  463SOL     OW 2287   0.141   6.021   1.744
  463SOL    HW1 2288   0.082   5.978   1.812
  463SOL    HW2 2289   0.086   6.081   1.685
  464SOL     OW 2290   1.965   1.524   5.703
  464SOL    HW1 2291   2.054   1.547   5.742
  464SOL    HW2 2292   1.919   1.458   5.763
  465SOL     OW 2293   0.012   3.065   5.277
  465SOL    HW1 2294   0.030   3.162   5.287
  465SOL    HW2 2295   0.046   3.033   5.189
  466SOL     OW 2296   2.713   0.605   3.146
  466SOL    HW1 2297   2.718   0.540   3.222
  466SOL    HW2 2298   2.629   0.589   3.094
  467SOL     OW 2299   1.759   1.733   5.164
  467SOL    HW1 2300   1.735   1.695   5.253
  467SOL    HW2 2301   1.715   1.679   5.092
  468SOL     OW 2302   3.402   4.027   1.974
  468SOL    HW1 2303   3.476   4.094   1.980
  468SOL    HW2 2304   3.325   4.057   2.029
  469SOL     OW 2305   2.943   5.091   0.164
  469SOL    HW1 2306   2.931   5.175   0.216
  469SOL    HW2 2307   2.939   5.110   0.067
  470SOL     OW 2308   3.918   0.332   2.768
  470SOL    HW1 2309   3.909   0.310   2.865
  470SOL    HW2 2310   4.008   0.300   2.735
  471SOL     OW 2311   3.039   1.919   4.743
  471SOL    HW1 2312   2.997   1.902   4.654
  471SOL    HW2 2313   3.050   2.017   4.756
  472SOL     OW 2314   4.234   4.328   5.419
  472SOL    HW1 2315   4.291   4.395   5.465
  472SOL    HW2 2316   4.236   4.345   5.320
  473SOL     OW 2317   1.159   3.848   4.022
  473SOL    HW1 2318   1.136   3.816   4.113
  473SOL    HW2 2319   1.229   3.919   4.028
  474SOL     OW 2320   4.642   4.685   4.683
  474SOL    HW1 2321   4.542   4.693   4.683
  474SOL    HW2 2322   4.677   4.716   4.771
  475SOL     OW 2323   0.749   0.012   6.727
  475SOL    HW1 2324   0.796   6.965   6.778
  475SOL    HW2 2325   0.815   0.060   6.669
  476SOL     OW 2326   0.433   5.409   2.080
  476SOL    HW1 2327   0.347   5.422   2.031
  476SOL    HW2 2328   0.420   5.341   2.152
  477SOL     OW 2329   1.701   5.351   3.891
  477SOL    HW1 2330   1.764   5.277   3.914
  477SOL    HW2 2331   1.753   5.436   3.879
  478SOL     OW 2332   1.611   5.187   2.956
  478SOL    HW1 2333   1.708   5.165   2.961
  478SOL    HW2 2334   1.557   5.109   2.989
  479SOL     OW 2335   3.354   1.194   1.428
  479SOL    HW1 2336   3.302   1.153   1.503
  479SOL    HW2 2337   3.352   1.132   1.349
  480SOL     OW 2338   1.664   6.326   2.538
  480SOL    HW1 2339   1.599   6.377   2.596
  480SOL    HW2 2340   1.678   6.235   2.577
  481SOL     OW 2341   2.678   6.819   1.644
  481SOL    HW1 2342   2.629   6.824   1.557
  481SOL    HW2 2343   2.775   6.800   1.626
  482SOL     OW 2344   5.547   5.124   1.188
  482SOL    HW1 2345   5.617   5.129   1.117
  482SOL    HW2 2346   5.493   5.208   1.188
  483SOL     OW 2347   5.623   1.740   1.109
  483SOL    HW1 2348   5.644   1.751   1.206
  483SOL    HW2 2349   5.707   1.720   1.059
  484SOL     OW 2350   6.710   2.814   4.920
  484SOL    HW1 2351   6.774   2.891   4.911
  484SOL    HW2 2352   6.750   2.733   4.878
  485SOL     OW 2353   3.875   5.710   2.282
  485SOL    HW1 2354   3.901   5.616   2.263
  485SOL    HW2 2355   3.838   5.717   2.374
  486SOL     OW 2356   0.494   0.187   6.296
  486SOL    HW1 2357   0.494   0.087   6.285
  486SOL    HW2 2358   0.482   0.209   6.392
  487SOL     OW 2359   6.394   3.158   6.585
  487SOL    HW1 2360   6.405   3.194   6.678
  487SOL    HW2 2361   6.317   3.205   6.541
  488SOL     OW 2362   0.545   3.214   2.337
  488SOL    HW1 2363   0.548   3.198   2.238
  488SOL    HW2 2364   0.597   3.297   2.359
  489SOL     OW 2365   3.329   6.194   6.071
  489SOL    HW1 2366   3.270   6.254   6.017
  489SOL    HW2 2367   3.344   6.109   6.022
  490SOL     OW 2368   5.596   6.162   4.090
  490SOL    HW1 2369   5.610   6.076   4.041
  490SOL    HW2 2370   5.553   6.228   4.029
  491SOL     OW 2371   0.004   2.050   3.280
  491SOL    HW1 2372   0.081   2.045   3.217
  491SOL    HW2 2373   6.945   2.024   3.232
  492SOL     OW 2374   2.092   1.197   4.913
  492SOL    HW1 2375   2.170   1.251   4.945
  492SOL    HW2 2376   2.007   1.247   4.930
  493SOL     OW 2377   5.926   4.154   3.989
  493SOL    HW1 2378   5.897   4.114   4.076
  493SOL    HW2 2379   5.852   4.210   3.952
  494SOL     OW 2380   6.297   1.962   0.165
  494SOL    HW1 2381   6.240   1.932   0.089
  494SOL    HW2 2382   6.338   1.883   0.210
  495SOL     OW 2383   4.408   4.640   1.147
  495SOL    HW1 2384   4.427   4.737   1.160
  495SOL    HW2 2385   4.330   4.630   1.085
  496SOL     OW 2386   6.198   2.682   3.067
  496SOL    HW1 2387   6.179   2.777   3.045
  496SOL    HW2 2388   6.147   2.622   3.005
  497SOL     OW 2389   4.174   0.286   4.313
  497SOL    HW1 2390   4.169   0.187   4.323
  497SOL    HW2 2391   4.243   0.310   4.245
  498SOL     OW 2392   1.057   3.396   2.518
  498SOL    HW1 2393   0.987   3.464   2.541
  498SOL    HW2 2394   1.142   3.444   2.493
  499SOL     OW 2395   3.585   1.424   5.439
  499SOL    HW1 2396   3.551   1.343   5.487
  499SOL    HW2 2397   3.517   1.497   5.444
  500SOL     OW 2398   1.519   4.058   2.418
  500SOL    HW1 2399   1.560   4.148   2.432
  500SOL    HW2 2400   1.483   4.051   2.325
  501SOL     OW 2401   1.144   5.239   6.836
  501SOL    HW1 2402   1.197   5.290   6.904
  501SOL    HW2 2403   1.178   5.145   6.832
  502SOL     OW 2404   3.160   5.291   6.417
  502SOL    HW1 2405   3.072   5.271   6.374
  502SOL    HW2 2406   3.234   5.268   6.354
  503SOL     OW 2407   5.863   5.941   5.195
  503SOL    HW1 2408   5.784   5.879   5.201
  503SOL    HW2 2409   5.945   5.888   5.172
  504SOL     OW 2410   2.079   5.313   4.342
  504SOL    HW1 2411   2.053   5.315   4.245
  504SOL    HW2 2412   1.998   5.295   4.398
  505SOL     OW 2413   4.509   6.836   5.135
  505SOL    HW1 2414   4.581   6.844   5.203
  505SOL    HW2 2415   4.486   6.739   5.122
  506SOL     OW 2416   2.460   3.752   6.957
  506SOL    HW1 2417   2.436   3.697   6.877
  506SOL    HW2 2418   2.386   3.817   6.977
  507SOL     OW 2419   3.795   1.731   3.695
  507SOL    HW1 2420   3.823   1.646   3.739
  507SOL    HW2 2421   3.843   1.808   3.737
  508SOL     OW 2422   6.181   4.252   3.855
  508SOL    HW1 2423   6.094   4.226   3.896
  508SOL    HW2 2424   6.237   4.171   3.838
  509SOL     OW 2425   4.673   2.497   1.667
  509SOL    HW1 2426   4.764   2.497   1.709
  509SOL    HW2 2427   4.604   2.478   1.737
  510SOL     OW 2428   0.405   3.365   4.465
  510SOL    HW1 2429   0.491   3.361   4.515
  510SOL    HW2 2430   0.333   3.323   4.520
  511SOL     OW 2431   0.493   6.548   1.351
  511SOL    HW1 2432   0.528   6.506   1.267
  511SOL    HW2 2433   0.493   6.481   1.425
  512SOL     OW 2434   0.723   3.599   6.438
  512SOL    HW1 2435   0.762   3.509   6.455
  512SOL    HW2 2436   0.778   3.669   6.484
  513SOL     OW 2437   0.215   5.343   4.507
  513SOL    HW1 2438   0.289   5.276   4.495
  513SOL    HW2 2439   0.136   5.316   4.452
  514SOL     OW 2440   6.109   1.417   3.242
  514SOL    HW1 2441   6.193   1.468   3.224
  514SOL    HW2 2442   6.094   1.350   3.169
  515SOL     OW 2443   2.137   5.877   0.084
  515SOL    HW1 2444   2.163   5.861   7.013
  515SOL    HW2 2445   2.219   5.891   0.139
  516SOL     OW 2446   1.084   5.354   2.454
  516SOL    HW1 2447   1.034   5.394   2.531
  516SOL    HW2 2448   1.169   5.313   2.487
  517SOL     OW 2449   4.725   0.294   6.793
  517SOL    HW1 2450   4.791   0.309   6.719
  517SOL    HW2 2451   4.761   0.334   6.877
  518SOL     OW 2452   2.813   2.030   0.724
  518SOL    HW1 2453   2.864   1.947   0.703
  518SOL    HW2 2454   2.875   2.108   0.726
  519SOL     OW 2455   0.627   6.833   0.953
  519SOL    HW1 2456   0.636   6.890   1.035
  519SOL    HW2 2457   0.715   6.832   0.905
  520SOL     OW 2458   6.642   4.386   4.817
  520SOL    HW1 2459   6.566   4.427   4.767
  520SOL    HW2 2460   6.634   4.286   4.815
  521SOL     OW 2461   6.338   0.464   1.403
  521SOL    HW1 2462   6.428   0.499   1.378
  521SOL    HW2 2463   6.271   0.495   1.336
  522SOL     OW 2464   3.289   3.833   5.531
  522SOL    HW1 2465   3.379   3.846   5.573
  522SOL    HW2 2466   3.301   3.813   5.433
  523SOL     OW 2467   6.647   6.851   5.187
  523SOL    HW1 2468   6.580   6.800   5.134
  523SOL    HW2 2469   6.739   6.833   5.152
  524SOL     OW 2470   4.294   1.868   6.207
  524SOL    HW1 2471   4.297   1.802   6.282
  524SOL    HW2 2472   4.386   1.902   6.189
  525SOL     OW 2473   2.752   2.876   6.779
  525SOL    HW1 2474   2.781   2.937   6.853
  525SOL    HW2 2475   2.671   2.824   6.808
  526SOL     OW 2476   4.368   5.618   4.754
  526SOL    HW1 2477   4.315   5.688   4.802
  526SOL    HW2 2478   4.410   5.658   4.673
  527SOL     OW 2479   1.136   1.816   7.010
  527SOL    HW1 2480   1.222   1.765   7.014
  527SOL    HW2 2481   1.150   1.899   6.956
  528SOL     OW 2482   2.248   0.296   5.536
  528SOL    HW1 2483   2.181   0.267   5.604
  528SOL    HW2 2484   2.328   0.236   5.539
  529SOL     OW 2485   6.818   4.191   4.406
  529SOL    HW1 2486   6.750   4.257   4.372
  529SOL    HW2 2487   6.885   4.239   4.463
  530SOL     OW 2488   1.246   2.233   5.244
  530SOL    HW1 2489   1.319   2.240   5.313
  530SOL    HW2 2490   1.282   2.260   5.155
  531SOL     OW 2491   0.045   0.795   0.138
  531SOL    HW1 2492   0.082   0.773   0.048
  531SOL    HW2 2493   6.981   0.750   0.149
  532SOL     OW 2494   1.682   0.187   5.824
  532SOL    HW1 2495   1.644   0.277   5.844
  532SOL    HW2 2496   1.761   0.171   5.882
  533SOL     OW 2497   5.489   0.243   4.540
  533SOL    HW1 2498   5.558   0.284   4.600
  533SOL    HW2 2499   5.520   0.249   4.445
  534SOL     OW 2500   3.653   5.484   2.601
  534SOL    HW1 2501   3.583   5.415   2.582
  534SOL    HW2 2502   3.629   5.534   2.685
  535SOL     OW 2503   6.270   4.235   2.847
  535SOL    HW1 2504   6.369   4.239   2.860
  535SOL    HW2 2505   6.241   4.311   2.789
  536SOL     OW 2506   0.976   6.141   0.870
  536SOL    HW1 2507   0.886   6.143   0.827
  536SOL    HW2 2508   1.042   6.101   0.808
  537SOL     OW 2509   2.012   0.595   3.384
  537SOL    HW1 2510   2.033   0.498   3.398
  537SOL    HW2 2511   2.085   0.638   3.331
  538SOL     OW 2512   1.015   4.632   3.895
  538SOL    HW1 2513   0.990   4.721   3.857
  538SOL    HW2 2514   1.112   4.615   3.878
  539SOL     OW 2515   1.172   5.416   1.257
  539SOL    HW1 2516   1.181   5.413   1.157
  539SOL    HW2 2517   1.084   5.457   1.281
  540SOL     OW 2518   1.339   2.860   1.425
  540SOL    HW1 2519   1.374   2.850   1.332
  540SOL    HW2 2520   1.277   2.784   1.446
  541SOL     OW 2521   3.838   4.902   5.178
  541SOL    HW1 2522   3.799   4.994   5.183
  541SOL    HW2 2523   3.880   4.888   5.088
  542SOL     OW 2524   5.728   6.276   6.805
  542SOL    HW1 2525   5.740   6.216   6.726
  542SOL    HW2 2526   5.668   6.352   6.780
  543SOL     OW 2527   6.780   6.013   0.186
  543SOL    HW1 2528   6.874   6.011   0.151
  543SOL    HW2 2529   6.779   6.057   0.276
  544SOL     OW 2530   0.983   6.052   0.047
  544SOL    HW1 2531   1.004   6.136   0.097
  544SOL    HW2 2532   1.007   6.063   6.975
  545SOL     OW 2533   3.422   1.699   3.682
  545SOL    HW1 2534   3.353   1.745   3.627
  545SOL    HW2 2535   3.511   1.708   3.638
  546SOL     OW 2536   1.534   3.319   0.036
  546SOL    HW1 2537   1.444   3.327   7.018
  546SOL    HW2 2538   1.605   3.348   6.996
  547SOL     OW 2539   2.489   2.536   6.981
  547SOL    HW1 2540   2.543   2.465   6.936
  547SOL    HW2 2541   2.474   2.510   0.052
  548SOL     OW 2542   3.318   3.314   5.220
  548SOL    HW1 2543   3.327   3.350   5.313
  548SOL    HW2 2544   3.274   3.224   5.224
  549SOL     OW 2545   0.903   3.881   1.420
  549SOL    HW1 2546   0.843   3.818   1.371
  549SOL    HW2 2547   0.971   3.918   1.357
  550SOL     OW 2548   6.813   3.682   1.204
  550SOL    HW1 2549   6.806   3.609   1.136
  550SOL    HW2 2550   6.889   3.662   1.266
  551SOL     OW 2551   0.007   1.828   6.272
  551SOL    HW1 2552   0.036   1.785   6.357
  551SOL    HW2 2553   6.947   1.785   6.241
  552SOL     OW 2554   4.678   5.104   0.328
  552SOL    HW1 2555   4.688   5.081   0.424
  552SOL    HW2 2556   4.581   5.121   0.308
  553SOL     OW 2557   1.380   2.203   1.089
  553SOL    HW1 2558   1.355   2.218   1.185
  553SOL    HW2 2559   1.374   2.106   1.068
  554SOL     OW 2560   4.871   5.241   4.584
  554SOL    HW1 2561   4.899   5.262   4.490
  554SOL    HW2 2562   4.868   5.325   4.638
  555SOL     OW 2563   1.845   4.136   4.727
  555SOL    HW1 2564   1.887   4.198   4.793
  555SOL    HW2 2565   1.788   4.070   4.776
  556SOL     OW 2566   6.085   3.335   2.575
  556SOL    HW1 2567   5.990   3.336   2.543
  556SOL    HW2 2568   6.106   3.246   2.616
  557SOL     OW 2569   0.221   5.578   6.682
  557SOL    HW1 2570   0.248   5.604   6.589
  557SOL    HW2 2571   0.180   5.488   6.681
  558SOL     OW 2572   4.446   3.556   5.791
  558SOL    HW1 2573   4.349   3.552   5.767
  558SOL    HW2 2574   4.489   3.469   5.765
  559SOL     OW 2575   6.344   5.591   6.177
  559SOL    HW1 2576   6.272   5.618   6.114
  559SOL    HW2 2577   6.390   5.509   6.142
  560SOL     OW 2578   3.978   6.805   6.853
  560SOL    HW1 2579   3.924   6.822   6.935
  560SOL    HW2 2580   4.063   6.760   6.878
  561SOL     OW 2581   5.394   6.692   1.694
  561SOL    HW1 2582   5.340   6.684   1.610
  561SOL    HW2 2583   5.375   6.780   1.738
  562SOL     OW 2584   6.849   0.543   6.911
  562SOL    HW1 2585   6.794   0.460   6.908
  562SOL    HW2 2586   6.935   0.529   6.863
  563SOL     OW 2587   3.278   0.420   4.815
  563SOL    HW1 2588   3.255   0.425   4.718
  563SOL    HW2 2589   3.217   0.479   4.867
  564SOL     OW 2590   0.436   1.972   6.079
  564SOL    HW1 2591   0.407   1.945   6.171
  564SOL    HW2 2592   0.497   1.902   6.042
  565SOL     OW 2593   4.509   4.250   5.232
  565SOL    HW1 2594   4.530   4.207   5.144
  565SOL    HW2 2595   4.465   4.184   5.293
  566SOL     OW 2596   5.723   5.092   2.153
  566SOL    HW1 2597   5.774   5.046   2.080
  566SOL    HW2 2598   5.737   5.042   2.239
  567SOL     OW 2599   3.709   4.032   4.325
  567SOL    HW1 2600   3.707   3.935   4.300
  567SOL    HW2 2601   3.750   4.041   4.416
  568SOL     OW 2602   1.957   1.039   5.999
  568SOL    HW1 2603   2.006   1.089   6.070
  568SOL    HW2 2604   1.941   0.945   6.029
  569SOL     OW 2605   2.416   3.608   6.701
  569SOL    HW1 2606   2.383   3.517   6.728
  569SOL    HW2 2607   2.492   3.598   6.636
  570SOL     OW 2608   0.325   6.280   1.161
  570SOL    HW1 2609   0.276   6.268   1.075
  570SOL    HW2 2610   0.348   6.377   1.173
  571SOL     OW 2611   4.018   5.340   3.099
  571SOL    HW1 2612   4.062   5.383   3.019
  571SOL    HW2 2613   3.926   5.379   3.111
  572SOL     OW 2614   2.198   4.069   4.599
  572SOL    HW1 2615   2.237   4.010   4.669
  572SOL    HW2 2616   2.125   4.020   4.551
  573SOL     OW 2617   3.626   2.315   6.924
  573SOL    HW1 2618   3.626   2.396   6.865
  573SOL    HW2 2619   3.634   2.344   7.020
  574SOL     OW 2620   2.578   1.487   4.405
  574SOL    HW1 2621   2.596   1.583   4.385
  574SOL    HW2 2622   2.591   1.470   4.503
  575SOL     OW 2623   5.746   2.445   6.574
  575SOL    HW1 2624   5.773   2.365   6.628
  575SOL    HW2 2625   5.786   2.437   6.482
  576SOL     OW 2626   1.007   2.512   2.556
  576SOL    HW1 2627   1.092   2.503   2.609
  576SOL    HW2 2628   1.027   2.498   2.459
  577SOL     OW 2629   3.478   2.126   4.350
  577SOL    HW1 2630   3.519   2.113   4.440
  577SOL    HW2 2631   3.378   2.123   4.359
  578SOL     OW 2632   0.210   3.623   4.560
  578SOL    HW1 2633   0.175   3.531   4.541
  578SOL    HW2 2634   0.304   3.630   4.527
  579SOL     OW 2635   3.668   3.540   0.609
  579SOL    HW1 2636   3.721   3.524   0.692
  579SOL    HW2 2637   3.678   3.636   0.581
  580SOL     OW 2638   0.739   6.116   6.832
  580SOL    HW1 2639   0.693   6.030   6.808
  580SOL    HW2 2640   0.836   6.098   6.849
  581SOL     OW 2641   4.109   3.520   2.581
  581SOL    HW1 2642   4.084   3.612   2.611
  581SOL    HW2 2643   4.133   3.523   2.483
  582SOL     OW 2644   6.571   4.484   1.651
  582SOL    HW1 2645   6.523   4.439   1.726
  582SOL    HW2 2646   6.654   4.432   1.628
  583SOL     OW 2647   2.462   5.907   6.776
  583SOL    HW1 2648   2.441   5.933   6.870
  583SOL    HW2 2649   2.560   5.888   6.767
  584SOL     OW 2650   0.924   5.452   5.198
  584SOL    HW1 2651   0.878   5.411   5.277
  584SOL    HW2 2652   0.985   5.384   5.157
  585SOL     OW 2653   6.382   0.939   5.644
  585SOL    HW1 2654   6.293   0.919   5.604
  585SOL    HW2 2655   6.380   0.919   5.742
  586SOL     OW 2656   2.484   5.833   1.566
  586SOL    HW1 2657   2.466   5.737   1.589
  586SOL    HW2 2658   2.578   5.841   1.531
  587SOL     OW 2659   1.169   3.762   5.886
  587SOL    HW1 2660   1.182   3.663   5.875
  587SOL    HW2 2661   1.074   3.781   5.910
  588SOL     OW 2662   2.182   0.198   1.706
  588SOL    HW1 2663   2.196   0.191   1.608
  588SOL    HW2 2664   2.084   0.196   1.726
  589SOL     OW 2665   4.605   5.318   2.586
  589SOL    HW1 2666   4.677   5.319   2.655
  589SOL    HW2 2667   4.551   5.402   2.592
  590SOL     OW 2668   6.523   2.266   1.787
  590SOL    HW1 2669   6.514   2.365   1.778
  590SOL    HW2 2670   6.619   2.241   1.778
  591SOL     OW 2671   2.952   6.707   3.205
  591SOL    HW1 2672   3.026   6.748   3.153
  591SOL    HW2 2673   2.939   6.612   3.175
  592SOL     OW 2674   5.624   0.052   0.043
  592SOL    HW1 2675   5.688   0.022   6.997
  592SOL    HW2 2676   5.674   0.071   0.128
  593SOL     OW 2677   6.119   1.416   4.674
  593SOL    HW1 2678   6.169   1.381   4.753
  593SOL    HW2 2679   6.182   1.463   4.613
  594SOL     OW 2680   5.235   2.757   1.421
  594SOL    HW1 2681   5.183   2.683   1.463
  594SOL    HW2 2682   5.173   2.813   1.365
  595SOL     OW 2683   4.827   6.754   3.812
  595SOL    HW1 2684   4.742   6.743   3.864
  595SOL    HW2 2685   4.905   6.730   3.870
  596SOL     OW 2686   0.781   3.877   2.202
  596SOL    HW1 2687   0.833   3.820   2.139
  596SOL    HW2 2688   0.844   3.941   2.247
  597SOL     OW 2689   4.333   2.620   6.042
  597SOL    HW1 2690   4.275   2.572   5.977
  597SOL    HW2 2691   4.409   2.562   6.069
  598SOL     OW 2692   3.130   4.133   1.343
  598SOL    HW1 2693   3.094   4.043   1.370
  598SOL    HW2 2694   3.081   4.204   1.393
  599SOL     OW 2695   6.826   6.480   3.661
  599SOL    HW1 2696   6.885   6.539   3.715
  599SOL    HW2 2697   6.877   6.399   3.631
  600SOL     OW 2698   2.598   1.567   1.271
  600SOL    HW1 2699   2.638   1.523   1.191
  600SOL    HW2 2700   2.624   1.663   1.273
  601SOL     OW 2701   2.394   4.985   3.278
  601SOL    HW1 2702   2.476   4.963   3.331
  601SOL    HW2 2703   2.421   5.026   3.191
  602SOL     OW 2704   6.682   0.485   1.923
  602SOL    HW1 2705   6.632   0.511   2.005
  602SOL    HW2 2706   6.780   0.477   1.944
  603SOL     OW 2707   3.535   1.786   3.206
  603SOL    HW1 2708   3.583   1.781   3.294
  603SOL    HW2 2709   3.602   1.790   3.132
  604SOL     OW 2710   0.718   3.860   5.708
  604SOL    HW1 2711   0.667   3.940   5.741
  604SOL    HW2 2712   0.728   3.866   5.608
  605SOL     OW 2713   6.111   0.011   4.801
  605SOL    HW1 2714   6.024   0.055   4.821
  605SOL    HW2 2715   6.113   6.945   4.841
  606SOL     OW 2716   3.525   0.395   2.566
  606SOL    HW1 2717   3.606   0.336   2.559
  606SOL    HW2 2718   3.491   0.393   2.660
  607SOL     OW 2719   4.290   0.763   4.114
  607SOL    HW1 2720   4.283   0.791   4.210
  607SOL    HW2 2721   4.220   0.810   4.060
  608SOL     OW 2722   5.330   2.583   1.808
  608SOL    HW1 2723   5.239   2.543   1.796
  608SOL    HW2 2724   5.322   2.673   1.848
  609SOL     OW 2725   2.955   3.793   4.640
  609SOL    HW1 2726   2.990   3.700   4.643
  609SOL    HW2 2727   2.871   3.799   4.694
  610SOL     OW 2728   5.762   1.503   4.466
  610SOL    HW1 2729   5.677   1.525   4.418
  610SOL    HW2 2730   5.837   1.557   4.427
  611SOL     OW 2731   6.133   6.475   0.370
  611SOL    HW1 2732   6.175   6.422   0.442
  611SOL    HW2 2733   6.067   6.540   0.410
  612SOL     OW 2734   2.144   5.397   5.805
  612SOL    HW1 2735   2.108   5.436   5.720
  612SOL    HW2 2736   2.149   5.298   5.798
  613SOL     OW 2737   3.887   1.624   6.924
  613SOL    HW1 2738   3.799   1.631   6.972
  613SOL    HW2 2739   3.871   1.594   6.830
  614SOL     OW 2740   5.376   3.032   1.199
  614SOL    HW1 2741   5.286   2.995   1.225
  614SOL    HW2 2742   5.430   2.960   1.155
  615SOL     OW 2743   5.060   6.596   0.396
  615SOL    HW1 2744   4.968   6.599   0.357
  615SOL    HW2 2745   5.102   6.687   0.389
  616SOL     OW 2746   5.271   0.404   4.699
  616SOL    HW1 2747   5.339   0.412   4.626
  616SOL    HW2 2748   5.294   0.467   4.773
  617SOL     OW 2749   0.242   6.136   5.365
  617SOL    HW1 2750   0.183   6.056   5.365
  617SOL    HW2 2751   0.278   6.152   5.273
  618SOL     OW 2752   5.626   4.814   0.373
  618SOL    HW1 2753   5.690   4.753   0.420
  618SOL    HW2 2754   5.559   4.759   0.323
  619SOL     OW 2755   2.288   6.612   6.058
  619SOL    HW1 2756   2.382   6.645   6.061
  619SOL    HW2 2757   2.242   6.631   6.144
  620SOL     OW 2758   4.344   1.827   2.133
  620SOL    HW1 2759   4.316   1.775   2.052
  620SOL    HW2 2760   4.431   1.872   2.116
  621SOL     OW 2761   3.064   0.392   6.792
  621SOL    HW1 2762   3.111   0.311   6.756
  621SOL    HW2 2763   3.086   0.403   6.889
  622SOL     OW 2764   0.113   3.372   5.784
  622SOL    HW1 2765   0.022   3.365   5.743
  622SOL    HW2 2766   0.112   3.330   5.875
  623SOL     OW 2767   6.901   0.336   3.025
  623SOL    HW1 2768   6.864   0.407   2.965
  623SOL    HW2 2769   6.866   0.350   3.118
  624SOL     OW 2770   6.493   1.634   6.145
  624SOL    HW1 2771   6.495   1.554   6.085
  624SOL    HW2 2772   6.542   1.710   6.101
  625SOL     OW 2773   3.655   0.993   1.180
  625SOL    HW1 2774   3.651   1.093   1.178
  625SOL    HW2 2775   3.668   0.962   1.274
  626SOL     OW 2776   0.870   5.944   3.520
  626SOL    HW1 2777   0.902   5.955   3.426
  626SOL    HW2 2778   0.931   5.993   3.582
  627SOL     OW 2779   6.505   5.279   0.153
  627SOL    HW1 2780   6.521   5.340   0.231
  627SOL    HW2 2781   6.412   5.292   0.119
  628SOL     OW 2782   3.568   5.227   6.501
  628SOL    HW1 2783   3.647   5.288   6.503
  628SOL    HW2 2784   3.519   5.238   6.414
  629SOL     OW 2785   1.156   7.003   6.979
  629SOL    HW1 2786   1.138   7.021   0.051
  629SOL    HW2 2787   1.248   6.966   6.969
  630SOL     OW 2788   6.728   1.854   1.194
  630SOL    HW1 2789   6.765   1.776   1.144
  630SOL    HW2 2790   6.728   1.935   1.136
  631SOL     OW 2791   1.668   2.763   3.478
  631SOL    HW1 2792   1.701   2.723   3.563
  631SOL    HW2 2793   1.711   2.717   3.400
  632SOL     OW 2794   2.979   4.209   1.105
  632SOL    HW1 2795   3.012   4.137   1.045
  632SOL    HW2 2796   3.028   4.205   1.192
  633SOL     OW 2797   1.499   5.737   0.678
  633SOL    HW1 2798   1.595   5.762   0.684
  633SOL    HW2 2799   1.467   5.702   0.766
  634SOL     OW 2800   3.048   3.082   4.904
  634SOL    HW1 2801   3.102   3.064   4.987
  634SOL    HW2 2802   2.976   3.013   4.896
  635SOL     OW 2803   5.731   6.831   6.542
  635SOL    HW1 2804   5.663   6.844   6.471
  635SOL    HW2 2805   5.703   6.755   6.601
  636SOL     OW 2806   2.849   1.085   4.767
  636SOL    HW1 2807   2.820   1.065   4.861
  636SOL    HW2 2808   2.883   1.001   4.724
  637SOL     OW 2809   0.101   1.133   2.791
  637SOL    HW1 2810   0.167   1.062   2.766
  637SOL    HW2 2811   0.059   1.110   2.879
  638SOL     OW 2812   6.774   3.179   5.052
  638SOL    HW1 2813   6.815   3.137   5.133
  638SOL    HW2 2814   6.676   3.160   5.051
  639SOL     OW 2815   5.925   3.464   1.569
  639SOL    HW1 2816   5.923   3.520   1.486
  639SOL    HW2 2817   5.841   3.410   1.575
  640SOL     OW 2818   0.143   3.192   2.415
  640SOL    HW1 2819   0.152   3.213   2.318
  640SOL    HW2 2820   0.204   3.116   2.438
  641SOL     OW 2821   2.547   5.325   4.524
  641SOL    HW1 2822   2.511   5.266   4.453
  641SOL    HW2 2823   2.592   5.270   4.594
  642SOL     OW 2824   0.437   5.171   4.436
  642SOL    HW1 2825   0.517   5.222   4.467
  642SOL    HW2 2826   0.436   5.081   4.479
  643SOL     OW 2827   4.291   5.577   0.514
  643SOL    HW1 2828   4.245   5.492   0.538
  643SOL    HW2 2829   4.347   5.562   0.432
  644SOL     OW 2830   6.781   6.416   4.999
  644SOL    HW1 2831   6.868   6.411   5.047
  644SOL    HW2 2832   6.759   6.511   4.979
  645SOL     OW 2833   4.501   5.857   2.432
  645SOL    HW1 2834   4.415   5.808   2.446
  645SOL    HW2 2835   4.502   5.899   2.342
  646SOL     OW 2836   3.464   1.908   4.876
  646SOL    HW1 2837   3.427   1.974   4.811
  646SOL    HW2 2838   3.417   1.918   4.964
  647SOL     OW 2839   3.281   2.581   0.355
  647SOL    HW1 2840   3.213   2.562   0.283
  647SOL    HW2 2841   3.332   2.663   0.332
  648SOL     OW 2842   6.006   1.231   3.922
  648SOL    HW1 2843   6.075   1.159   3.929
  648SOL    HW2 2844   6.025   1.303   3.989
  649SOL     OW 2845   2.896   5.548   0.807
  649SOL    HW1 2846   2.902   5.455   0.844
  649SOL    HW2 2847   2.865   5.544   0.712
  650SOL     OW 2848   0.887   3.225   0.929
  650SOL    HW1 2849   0.820   3.171   0.878
  650SOL    HW2 2850   0.978   3.190   0.912
  651SOL     OW 2851   0.132   0.960   3.963
  651SOL    HW1 2852   0.082   1.047   3.967
  651SOL    HW2 2853   0.184   0.947   4.047
  652SOL     OW 2854   4.150   5.553   0.839
  652SOL    HW1 2855   4.238   5.587   0.807
  652SOL    HW2 2856   4.078   5.619   0.816
  653SOL     OW 2857   1.570   6.594   2.480
  653SOL    HW1 2858   1.638   6.616   2.410
  653SOL    HW2 2859   1.500   6.535   2.442
  654SOL     OW 2860   0.872   6.843   5.236
  654SOL    HW1 2861   0.935   6.917   5.213
  654SOL    HW2 2862   0.785   6.881   5.265
  655SOL     OW 2863   0.970   3.478   0.880
  655SOL    HW1 2864   1.013   3.512   0.965
  655SOL    HW2 2865   0.962   3.379   0.885
  656SOL     OW 2866   2.778   6.262   6.664
  656SOL    HW1 2867   2.724   6.237   6.583
  656SOL    HW2 2868   2.717   6.292   6.737
  657SOL     OW 2869   3.738   3.336   3.663
  657SOL    HW1 2870   3.718   3.238   3.673
  657SOL    HW2 2871   3.707   3.367   3.574
  658SOL     OW 2872   1.236   0.930   4.333
  658SOL    HW1 2873   1.152   0.970   4.296
  658SOL    HW2 2874   1.249   0.838   4.295
  659SOL     OW 2875   1.564   5.716   6.501
  659SOL    HW1 2876   1.578   5.625   6.539
  659SOL    HW2 2877   1.648   5.746   6.455
  660SOL     OW 2878   5.792   4.558   2.767
  660SOL    HW1 2879   5.818   4.603   2.681
  660SOL    HW2 2880   5.874   4.521   2.811
  661SOL     OW 2881   4.512   4.858   3.813
  661SOL    HW1 2882   4.568   4.796   3.869
  661SOL    HW2 2883   4.425   4.814   3.791
  662SOL     OW 2884   5.075   4.031   0.255
  662SOL    HW1 2885   5.139   3.964   0.217
  662SOL    HW2 2886   5.096   4.048   0.351
  663SOL     OW 2887   0.222   4.744   6.908
  663SOL    HW1 2888   0.214   4.719   6.812
  663SOL    HW2 2889   0.201   4.842   6.919
  664SOL     OW 2890   1.340   6.981   6.259
  664SOL    HW1 2891   1.414   0.000   6.209
  664SOL    HW2 2892   1.279   6.934   6.194
  665SOL     OW 2893   2.612   4.542   2.908
  665SOL    HW1 2894   2.545   4.594   2.961
  665SOL    HW2 2895   2.662   4.605   2.848
  666SOL     OW 2896   3.169   1.203   6.615
  666SOL    HW1 2897   3.109   1.229   6.539
  666SOL    HW2 2898   3.116   1.155   6.684
  667SOL     OW 2899   1.651   3.283   2.416
  667SOL    HW1 2900   1.565   3.282   2.467
  667SOL    HW2 2901   1.660   3.196   2.366
  668SOL     OW 2902   5.077   0.240   0.991
  668SOL    HW1 2903   5.066   0.246   0.892
  668SOL    HW2 2904   5.017   0.307   1.035
  669SOL     OW 2905   0.549   5.592   2.867
  669SOL    HW1 2906   0.501   5.616   2.782
  669SOL    HW2 2907   0.633   5.644   2.873
  670SOL     OW 2908   3.990   3.601   3.016
  670SOL    HW1 2909   4.056   3.547   3.067
  670SOL    HW2 2910   3.991   3.696   3.049
  671SOL     OW 2911   1.638   0.609   6.642
  671SOL    HW1 2912   1.687   0.587   6.557
  671SOL    HW2 2913   1.574   0.684   6.625
  672SOL     OW 2914   1.205   2.111   2.930
  672SOL    HW1 2915   1.131   2.048   2.908
  672SOL    HW2 2916   1.166   2.196   2.967
  673SOL     OW 2917   4.655   0.150   0.389
  673SOL    HW1 2918   4.630   0.055   0.370
  673SOL    HW2 2919   4.649   0.204   0.305
  674SOL     OW 2920   0.134   2.386   4.902
  674SOL    HW1 2921   0.048   2.390   4.952
  674SOL    HW2 2922   0.116   2.385   4.804
  675SOL     OW 2923   6.427   6.364   3.772
  675SOL    HW1 2924   6.442   6.383   3.869
  675SOL    HW2 2925   6.476   6.432   3.717
  676SOL     OW 2926   3.360   5.556   4.388
  676SOL    HW1 2927   3.333   5.616   4.312
  676SOL    HW2 2928   3.397   5.611   4.462
  677SOL     OW 2929   4.283   6.797   0.550
  677SOL    HW1 2930   4.221   6.758   0.618
  677SOL    HW2 2931   4.377   6.795   0.585
  678SOL     OW 2932   2.450   1.101   5.283
  678SOL    HW1 2933   2.449   1.006   5.254
  678SOL    HW2 2934   2.367   1.122   5.334
  679SOL     OW 2935   6.010   0.976   2.180
  679SOL    HW1 2936   6.075   0.939   2.246
  679SOL    HW2 2937   5.957   0.901   2.140
  680SOL     OW 2938   5.592   4.090   4.339
  680SOL    HW1 2939   5.663   4.138   4.390
  680SOL    HW2 2940   5.633   4.018   4.284
  681SOL     OW 2941   0.900   6.526   2.133
  681SOL    HW1 2942   0.885   6.537   2.035
  681SOL    HW2 2943   0.986   6.568   2.159
  682SOL     OW 2944   0.291   0.319   6.100
  682SOL    HW1 2945   0.336   0.259   6.167
  682SOL    HW2 2946   0.208   0.357   6.141
  683SOL     OW 2947   4.947   1.374   1.355
  683SOL    HW1 2948   5.027   1.351   1.299
  683SOL    HW2 2949   4.975   1.432   1.431
  684SOL     OW 2950   0.246   6.105   6.414
  684SOL    HW1 2951   0.315   6.032   6.413
  684SOL    HW2 2952   0.288   6.190   6.448
  685SOL     OW 2953   6.413   0.746   6.694
  685SOL    HW1 2954   6.509   0.725   6.714
  685SOL    HW2 2955   6.386   0.697   6.611
  686SOL     OW 2956   5.729   4.950   2.732
  686SOL    HW1 2957   5.714   4.879   2.801
  686SOL    HW2 2958   5.822   4.942   2.696
  687SOL     OW 2959   5.595   2.130   5.393
  687SOL    HW1 2960   5.674   2.070   5.406
  687SOL    HW2 2961   5.605   2.212   5.449
  688SOL     OW 2962   6.493   3.636   4.587
  688SOL    HW1 2963   6.543   3.670   4.666
  688SOL    HW2 2964   6.403   3.604   4.615
  689SOL     OW 2965   5.757   4.283   4.458
  689SOL    HW1 2966   5.749   4.264   4.556
  689SOL    HW2 2967   5.786   4.378   4.446
  690SOL     OW 2968   0.165   3.409   3.907
  690SOL    HW1 2969   0.095   3.389   3.838
  690SOL    HW2 2970   0.254   3.417   3.862
  691SOL     OW 2971   0.180   3.247   6.769
  691SOL    HW1 2972   0.223   3.202   6.691
  691SOL    HW2 2973   0.094   3.288   6.740
  692SOL     OW 2974   2.691   0.398   3.320
  692SOL    HW1 2975   2.707   0.334   3.395
  692SOL    HW2 2976   2.638   0.476   3.353
  693SOL     OW 2977   6.364   1.222   2.902
  693SOL    HW1 2978   6.305   1.216   2.822
  693SOL    HW2 2979   6.353   1.141   2.959
  694SOL     OW 2980   1.427   0.419   2.267
  694SOL    HW1 2981   1.360   0.444   2.198
  694SOL    HW2 2982   1.518   0.449   2.238
  695SOL     OW 2983   4.837   5.510   6.721
  695SOL    HW1 2984   4.830   5.520   6.622
  695SOL    HW2 2985   4.884   5.589   6.760
  696SOL     OW 2986   5.152   6.553   2.663
  696SOL    HW1 2987   5.140   6.631   2.724
  696SOL    HW2 2988   5.159   6.469   2.717
  697SOL     OW 2989   1.435   3.912   3.735
  697SOL    HW1 2990   1.385   3.981   3.787
  697SOL    HW2 2991   1.438   3.938   3.639
  698SOL     OW 2992   5.703   5.947   3.963
  698SOL    HW1 2993   5.780   5.910   4.014
  698SOL    HW2 2994   5.657   5.873   3.914
  699SOL     OW 2995   0.934   4.509   6.368
  699SOL    HW1 2996   0.850   4.552   6.403
  699SOL    HW2 2997   0.921   4.484   6.272
  700SOL     OW 2998   1.838   1.853   4.677
  700SOL    HW1 2999   1.747   1.812   4.688
  700SOL    HW2 3000   1.828   1.945   4.637
  701SOL     OW 3001   0.845   4.778   5.660
  701SOL    HW1 3002   0.827   4.682   5.641
  701SOL    HW2 3003   0.931   4.786   5.711
  702SOL     OW 3004   5.264   5.951   5.006
  702SOL    HW1 3005   5.341   5.917   4.951
  702SOL    HW2 3006   5.218   5.874   5.049
  703SOL     OW 3007   4.979   4.219   6.406
  703SOL    HW1 3008   4.949   4.253   6.495
  703SOL    HW2 3009   5.077   4.238   6.395
  704SOL     OW 3010   2.439   0.061   1.750
  704SOL    HW1 3011   2.408   7.002   1.705
  704SOL    HW2 3012   2.360   0.111   1.785
  705SOL     OW 3013   0.384   1.963   3.623
  705SOL    HW1 3014   0.449   1.975   3.698
  705SOL    HW2 3015   0.294   1.941   3.662
  706SOL     OW 3016   4.922   2.768   4.051
  706SOL    HW1 3017   4.921   2.854   4.102
  706SOL    HW2 3018   5.014   2.752   4.016
  707SOL     OW 3019   4.610   2.090   2.495
  707SOL    HW1 3020   4.540   2.049   2.437
  707SOL    HW2 3021   4.678   2.136   2.438
  708SOL     OW 3022   3.999   0.531   2.364
  708SOL    HW1 3023   4.059   0.542   2.443
  708SOL    HW2 3024   4.039   0.575   2.284
  709SOL     OW 3025   0.746   5.259   0.058
  709SOL    HW1 3026   0.788   5.299   0.140
  709SOL    HW2 3027   0.739   5.328   7.012
  710SOL     OW 3028   3.448   3.247   2.980
  710SOL    HW1 3029   3.404   3.327   2.939
  710SOL    HW2 3030   3.538   3.234   2.939
  711SOL     OW 3031   0.689   1.120   5.014
  711SOL    HW1 3032   0.633   1.100   5.094
  711SOL    HW2 3033   0.696   1.219   5.002
  712SOL     OW 3034   1.222   3.717   2.431
  712SOL    HW1 3035   1.257   3.627   2.458
  712SOL    HW2 3036   1.298   3.773   2.397
  713SOL     OW 3037   3.099   3.937   4.142
  713SOL    HW1 3038   3.197   3.917   4.150
  713SOL    HW2 3039   3.054   3.917   4.229
  714SOL     OW 3040   5.043   4.752   5.407
  714SOL    HW1 3041   5.043   4.767   5.308
  714SOL    HW2 3042   4.970   4.807   5.448
  715SOL     OW 3043   5.545   0.153   6.409
  715SOL    HW1 3044   5.485   0.232   6.396
  715SOL    HW2 3045   5.639   0.184   6.424
  716SOL     OW 3046   6.880   5.346   1.772
  716SOL    HW1 3047   6.818   5.420   1.747
  716SOL    HW2 3048   6.888   5.282   1.696
  717SOL     OW 3049   6.214   2.897   6.694
  717SOL    HW1 3050   6.178   2.942   6.613
  717SOL    HW2 3051   6.314   2.888   6.686
  718SOL     OW 3052   2.512   2.998   6.501
  718SOL    HW1 3053   2.451   3.039   6.432
  718SOL    HW2 3054   2.604   2.992   6.463
  719SOL     OW 3055   4.721   5.026   0.587
  719SOL    HW1 3056   4.807   5.044   0.636
  719SOL    HW2 3057   4.654   4.988   0.651
  720SOL     OW 3058   2.945   1.001   6.253
  720SOL    HW1 3059   2.988   0.947   6.325
  720SOL    HW2 3060   3.014   1.058   6.208
  721SOL     OW 3061   1.283   6.643   5.447
  721SOL    HW1 3062   1.346   6.686   5.382
  721SOL    HW2 3063   1.307   6.671   5.540
  722SOL     OW 3064   4.451   6.461   5.197
  722SOL    HW1 3065   4.469   6.469   5.295
  722SOL    HW2 3066   4.456   6.365   5.169
  723SOL     OW 3067   1.626   3.467   1.748
  723SOL    HW1 3068   1.640   3.458   1.650
  723SOL    HW2 3069   1.535   3.433   1.772
  724SOL     OW 3070   6.963   0.711   4.798
  724SOL    HW1 3071   6.990   0.735   4.891
  724SOL    HW2 3072   6.866   0.731   4.785
  725SOL     OW 3073   2.596   4.726   1.641
  725SOL    HW1 3074   2.635   4.783   1.713
  725SOL    HW2 3075   2.637   4.635   1.644
  726SOL     OW 3076   4.771   6.574   5.506
  726SOL    HW1 3077   4.696   6.515   5.478
  726SOL    HW2 3078   4.821   6.531   5.581
  727SOL     OW 3079   2.001   4.173   3.629
  727SOL    HW1 3080   1.963   4.257   3.668
  727SOL    HW2 3081   1.929   4.103   3.625
  728SOL     OW 3082   6.909   3.375   5.622
  728SOL    HW1 3083   6.874   3.450   5.678
  728SOL    HW2 3084   6.854   3.368   5.538
  729SOL     OW 3085   3.713   1.251   0.655
  729SOL    HW1 3086   3.763   1.168   0.680
  729SOL    HW2 3087   3.693   1.304   0.738
  730SOL     OW 3088   5.153   1.202   5.194
  730SOL    HW1 3089   5.191   1.266   5.129
  730SOL    HW2 3090   5.227   1.150   5.237
  731SOL     OW 3091   7.013   2.590   4.022
  731SOL    HW1 3092   6.959   2.658   4.070
  731SOL    HW2 3093   6.981   2.582   3.928
  732SOL     OW 3094   0.075   3.323   3.624
  732SOL    HW1 3095   7.002   3.310   3.642
  732SOL    HW2 3096   0.118   3.235   3.608
  733SOL     OW 3097   4.589   5.236   4.520
  733SOL    HW1 3098   4.579   5.137   4.530
  733SOL    HW2 3099   4.684   5.261   4.537
  734SOL     OW 3100   0.686   5.571   6.879
  734SOL    HW1 3101   0.617   5.603   6.813
  734SOL    HW2 3102   0.777   5.588   6.841
  735SOL     OW 3103   3.012   4.441   0.245
  735SOL    HW1 3104   3.042   4.468   0.336
  735SOL    HW2 3105   2.990   4.522   0.191
  736SOL     OW 3106   5.740   0.752   2.779
  736SOL    HW1 3107   5.708   0.842   2.807
  736SOL    HW2 3108   5.779   0.704   2.857
  737SOL     OW 3109   5.369   4.214   0.510
  737SOL    HW1 3110   5.277   4.193   0.544
  737SOL    HW2 3111   5.429   4.135   0.524
  738SOL     OW 3112   0.663   4.522   3.003
  738SOL    HW1 3113   0.577   4.472   3.006
  738SOL    HW2 3114   0.740   4.457   2.999
  739SOL     OW 3115   4.653   6.465   6.310
  739SOL    HW1 3116   4.669   6.413   6.226
  739SOL    HW2 3117   4.691   6.557   6.300
  740SOL     OW 3118   5.203   0.371   0.434
  740SOL    HW1 3119   5.207   0.343   0.338
  740SOL    HW2 3120   5.248   0.302   0.491
  741SOL     OW 3121   3.255   0.388   4.008
  741SOL    HW1 3122   3.238   0.291   4.026
  741SOL    HW2 3123   3.308   0.427   4.083
  742SOL     OW 3124   1.145   6.680   2.193
  742SOL    HW1 3125   1.180   6.772   2.210
  742SOL    HW2 3126   1.171   6.621   2.270
  743SOL     OW 3127   1.839   2.905   4.241
  743SOL    HW1 3128   1.775   2.829   4.254
  743SOL    HW2 3129   1.907   2.904   4.314
  744SOL     OW 3130   6.894   5.199   0.914
  744SOL    HW1 3131   6.960   5.230   0.981
  744SOL    HW2 3132   6.846   5.118   0.948
  745SOL     OW 3133   2.120   5.930   3.518
  745SOL    HW1 3134   2.083   5.889   3.434
  745SOL    HW2 3135   2.220   5.936   3.510
  746SOL     OW 3136   3.305   0.479   3.735
  746SOL    HW1 3137   3.219   0.529   3.720
  746SOL    HW2 3138   3.299   0.429   3.822
  747SOL     OW 3139   6.238   3.934   1.157
  747SOL    HW1 3140   6.294   4.016   1.148
  747SOL    HW2 3141   6.168   3.934   1.085
  748SOL     OW 3142   3.841   3.063   2.518
  748SOL    HW1 3143   3.834   3.002   2.440
  748SOL    HW2 3144   3.921   3.123   2.507
  749SOL     OW 3145   6.092   2.217   5.455
  749SOL    HW1 3146   6.019   2.221   5.387
  749SOL    HW2 3147   6.175   2.181   5.412
  750SOL     OW 3148   3.232   3.470   1.901
  750SOL    HW1 3149   3.282   3.476   1.814
  750SOL    HW2 3150   3.282   3.411   1.964
  751SOL     OW 3151   5.575   1.175   0.661
  751SOL    HW1 3152   5.545   1.240   0.731
  751SOL    HW2 3153   5.666   1.142   0.684
  752SOL     OW 3154   4.369   0.954   1.776
  752SOL    HW1 3155   4.417   0.961   1.863
  752SOL    HW2 3156   4.434   0.963   1.701
  753SOL     OW 3157   2.634   1.132   2.823
  753SOL    HW1 3158   2.715   1.191   2.818
  753SOL    HW2 3159   2.603   1.126   2.918
  754SOL     OW 3160   4.856   5.712   0.054
  754SOL    HW1 3161   4.795   5.645   0.097
  754SOL    HW2 3162   4.830   5.804   0.083
  755SOL     OW 3163   6.801   5.553   2.903
  755SOL    HW1 3164   6.785   5.454   2.903
  755SOL    HW2 3165   6.797   5.588   2.996
  756SOL     OW 3166   3.587   6.291   4.032
  756SOL    HW1 3167   3.542   6.332   3.952
  756SOL    HW2 3168   3.639   6.360   4.081
  757SOL     OW 3169   6.440   1.351   4.361
  757SOL    HW1 3170   6.434   1.276   4.295
  757SOL    HW2 3171   6.521   1.338   4.418
  758SOL     OW 3172   4.384   2.084   1.666
  758SOL    HW1 3173   4.330   2.057   1.586
  758SOL    HW2 3174   4.477   2.106   1.638
  759SOL     OW 3175   1.668   0.702   0.987
  759SOL    HW1 3176   1.741   0.638   0.965
  759SOL    HW2 3177   1.704   0.795   0.992
  760SOL     OW 3178   4.352   2.261   5.785
  760SOL    HW1 3179   4.342   2.277   5.883
  760SOL    HW2 3180   4.262   2.258   5.741
  761SOL     OW 3181   5.450   1.711   6.759
  761SOL    HW1 3182   5.452   1.627   6.814
  761SOL    HW2 3183   5.401   1.693   6.673
  762SOL     OW 3184   2.174   5.023   4.284
  762SOL    HW1 3185   2.246   4.958   4.310
  762SOL    HW2 3186   2.148   5.077   4.364
  763SOL     OW 3187   5.788   5.246   0.017
  763SOL    HW1 3188   5.839   5.297   0.086
  763SOL    HW2 3189   5.721   5.187   0.062
  764SOL     OW 3190   5.004   1.049   2.517
  764SOL    HW1 3191   5.024   1.078   2.611
  764SOL    HW2 3192   5.012   0.950   2.510
  765SOL     OW 3193   6.762   7.004   3.280
  765SOL    HW1 3194   6.713   0.064   3.301
  765SOL    HW2 3195   6.788   6.958   3.365
  766SOL     OW 3196   0.092   6.506   0.440
  766SOL    HW1 3197   0.183   6.469   0.422
  766SOL    HW2 3198   0.092   6.605   0.424
  767SOL     OW 3199   5.982   6.868   1.313
  767SOL    HW1 3200   5.918   6.793   1.330
  767SOL    HW2 3201   6.054   6.836   1.251
  768SOL     OW 3202   3.361   6.750   3.820
  768SOL    HW1 3203   3.381   6.711   3.910
  768SOL    HW2 3204   3.322   6.842   3.832
  769SOL     OW 3205   3.108   0.688   0.000
  769SOL    HW1 3206   3.125   0.589   0.005
  769SOL    HW2 3207   3.095   0.724   0.093
  770SOL     OW 3208   2.848   4.847   3.742
  770SOL    HW1 3209   2.864   4.833   3.644
  770SOL    HW2 3210   2.936   4.848   3.789
  771SOL     OW 3211   0.617   5.325   4.590
  771SOL    HW1 3212   0.704   5.351   4.633
  771SOL    HW2 3213   0.565   5.408   4.569
  772SOL     OW 3214   6.941   4.778   5.380
  772SOL    HW1 3215   6.937   4.680   5.401
  772SOL    HW2 3216   0.009   4.802   5.352
  773SOL     OW 3217   0.176   3.390   1.880
  773SOL    HW1 3218   0.083   3.355   1.868
  773SOL    HW2 3219   0.186   3.476   1.831
  774SOL     OW 3220   1.204   1.245   1.562
  774SOL    HW1 3221   1.188   1.180   1.636
  774SOL    HW2 3222   1.299   1.274   1.563
  775SOL     OW 3223   1.163   2.608   4.419
  775SOL    HW1 3224   1.196   2.598   4.325
  775SOL    HW2 3225   1.239   2.592   4.482
  776SOL     OW 3226   2.363   6.671   5.557
  776SOL    HW1 3227   2.425   6.627   5.492
  776SOL    HW2 3228   2.320   6.601   5.614
  777SOL     OW 3229   4.524   0.180   0.627
  777SOL    HW1 3230   4.601   0.203   0.686
  777SOL    HW2 3231   4.553   0.179   0.532
  778SOL     OW 3232   4.138   5.522   4.992
  778SOL    HW1 3233   4.167   5.610   4.954
  778SOL    HW2 3234   4.110   5.461   4.918
  779SOL     OW 3235   1.233   0.453   2.896
  779SOL    HW1 3236   1.307   0.513   2.864
  779SOL    HW2 3237   1.238   0.366   2.846
  780SOL     OW 3238   5.085   3.585   5.233
  780SOL    HW1 3239   5.181   3.572   5.258
  780SOL    HW2 3240   5.032   3.505   5.262
  781SOL     OW 3241   0.823   2.353   6.515
  781SOL    HW1 3242   0.823   2.431   6.452
  781SOL    HW2 3243   0.912   2.307   6.511
  782SOL     OW 3244   0.326   4.243   0.376
  782SOL    HW1 3245   0.423   4.235   0.400
  782SOL    HW2 3246   0.272   4.190   0.441
  783SOL     OW 3247   2.601   4.242   6.923
  783SOL    HW1 3248   2.504   4.222   6.937
  783SOL    HW2 3249   2.623   4.231   6.826
  784SOL     OW 3250   4.907   5.574   3.843
  784SOL    HW1 3251   4.892   5.664   3.884
  784SOL    HW2 3252   4.820   5.536   3.813
  785SOL     OW 3253   5.861   1.917   4.334
  785SOL    HW1 3254   5.911   1.833   4.355
  785SOL    HW2 3255   5.870   1.982   4.409
  786SOL     OW 3256   6.415   6.608   0.315
  786SOL    HW1 3257   6.322   6.599   0.281
  786SOL    HW2 3258   6.425   6.694   0.365
  787SOL     OW 3259   4.547   1.182   6.881
  787SOL    HW1 3260   4.494   1.236   6.816
  787SOL    HW2 3261   4.485   1.126   6.936
  788SOL     OW 3262   0.919   4.449   3.345
  788SOL    HW1 3263   0.929   4.451   3.245
  788SOL    HW2 3264   0.951   4.536   3.383
  789SOL     OW 3265   5.595   3.271   1.280
  789SOL    HW1 3266   5.579   3.314   1.192
  789SOL    HW2 3267   5.594   3.172   1.270
  790SOL     OW 3268   3.934   0.704   3.794
  790SOL    HW1 3269   3.855   0.732   3.849
  790SOL    HW2 3270   3.975   0.623   3.835
  791SOL     OW 3271   3.903   1.711   4.823
  791SOL    HW1 3272   3.969   1.773   4.781
  791SOL    HW2 3273   3.824   1.699   4.763
  792SOL     OW 3274   5.092   0.340   4.017
  792SOL    HW1 3275   5.107   0.280   4.095
  792SOL    HW2 3276   4.998   0.330   3.984
  793SOL     OW 3277   0.012   0.086   6.397
  793SOL    HW1 3278   0.082   0.017   6.377
  793SOL    HW2 3279   7.003   0.125   6.311
  794SOL     OW 3280   3.914   5.011   4.793
  794SOL    HW1 3281   3.973   5.032   4.871
  794SOL    HW2 3282   3.961   4.947   4.732
  795SOL     OW 3283   4.813   5.202   6.450
  795SOL    HW1 3284   4.852   5.277   6.397
  795SOL    HW2 3285   4.828   5.219   6.547
  796SOL     OW 3286   0.278   1.995   5.573
  796SOL    HW1 3287   0.324   2.000   5.662
  796SOL    HW2 3288   0.255   1.899   5.553
  797SOL     OW 3289   6.114   2.574   5.356
  797SOL    HW1 3290   6.044   2.545   5.290
  797SOL    HW2 3291   6.205   2.556   5.318
  798SOL     OW 3292   6.564   0.509   5.177
  798SOL    HW1 3293   6.593   0.498   5.272
  798SOL    HW2 3294   6.643   0.501   5.116
  799SOL     OW 3295   6.590   3.551   3.615
  799SOL    HW1 3296   6.629   3.471   3.660
  799SOL    HW2 3297   6.625   3.558   3.522
  800SOL     OW 3298   6.346   1.473   1.661
  800SOL    HW1 3299   6.404   1.512   1.733
  800SOL    HW2 3300   6.389   1.489   1.572
  801SOL     OW 3301   0.785   1.796   3.589
  801SOL    HW1 3302   0.852   1.783   3.662
  801SOL    HW2 3303   0.806   1.881   3.540
  802SOL     OW 3304   5.906   1.333   1.202
  802SOL    HW1 3305   5.923   1.242   1.240
  802SOL    HW2 3306   5.809   1.354   1.206
  803SOL     OW 3307   1.692   0.233   4.783
  803SOL    HW1 3308   1.661   0.193   4.696
  803SOL    HW2 3309   1.615   0.239   4.846
  804SOL     OW 3310   6.911   6.535   0.852
  804SOL    HW1 3311   6.922   6.544   0.950
  804SOL    HW2 3312   6.930   6.441   0.825
  805SOL     OW 3313   1.417   3.061   5.587
  805SOL    HW1 3314   1.372   3.014   5.512
  805SOL    HW2 3315   1.508   3.092   5.557
  806SOL     OW 3316   5.134   0.492   0.829
  806SOL    HW1 3317   5.077   0.524   0.754
  806SOL    HW2 3318   5.119   0.551   0.909
  807SOL     OW 3319   1.064   6.761   2.618
  807SOL    HW1 3320   1.106   6.839   2.665
  807SOL    HW2 3321   1.048   6.688   2.684
  808SOL     OW 3322   6.181   3.656   4.968
  808SOL    HW1 3323   6.193   3.557   4.973
  808SOL    HW2 3324   6.093   3.682   5.009
  809SOL     OW 3325   0.868   5.475   6.257
  809SOL    HW1 3326   0.887   5.569   6.229
  809SOL    HW2 3327   0.939   5.444   6.321
  810SOL     OW 3328   6.504   4.954   6.593
  810SOL    HW1 3329   6.531   5.049   6.574
  810SOL    HW2 3330   6.406   4.943   6.576
  811SOL     OW 3331   4.498   4.985   3.339
  811SOL    HW1 3332   4.408   4.985   3.297
  811SOL    HW2 3333   4.493   5.028   3.429
  812SOL     OW 3334   0.310   0.461   2.475
  812SOL    HW1 3335   0.368   0.472   2.394
  812SOL    HW2 3336   0.337   0.380   2.525
  813SOL     OW 3337   5.629   5.824   2.291
  813SOL    HW1 3338   5.683   5.744   2.317
  813SOL    HW2 3339   5.691   5.898   2.264
  814SOL     OW 3340   5.377   5.640   1.536
  814SOL    HW1 3341   5.385   5.694   1.620
  814SOL    HW2 3342   5.434   5.558   1.544
  815SOL     OW 3343   0.472   1.176   0.146
  815SOL    HW1 3344   0.501   1.270   0.158
  815SOL    HW2 3345   0.373   1.170   0.156
  816SOL     OW 3346   5.700   0.361   1.086
  816SOL    HW1 3347   5.680   0.313   1.000
  816SOL    HW2 3348   5.700   0.296   1.162
  817SOL     OW 3349   0.469   2.111   1.502
  817SOL    HW1 3350   0.412   2.106   1.584
  817SOL    HW2 3351   0.451   2.032   1.443
  818SOL     OW 3352   5.585   1.206   2.782
  818SOL    HW1 3353   5.622   1.294   2.812
  818SOL    HW2 3354   5.638   1.173   2.703
  819SOL     OW 3355   0.244   5.209   2.356
  819SOL    HW1 3356   0.307   5.183   2.283
  819SOL    HW2 3357   0.159   5.158   2.346
  820SOL     OW 3358   1.627   2.908   4.567
  820SOL    HW1 3359   1.704   2.879   4.624
  820SOL    HW2 3360   1.552   2.939   4.625
  821SOL     OW 3361   1.287   4.129   0.379
  821SOL    HW1 3362   1.349   4.091   0.447
  821SOL    HW2 3363   1.204   4.073   0.376
  822SOL     OW 3364   1.281   3.734   4.555
  822SOL    HW1 3365   1.199   3.742   4.498
  822SOL    HW2 3366   1.298   3.637   4.574
  823SOL     OW 3367   3.732   3.378   1.341
  823SOL    HW1 3368   3.801   3.441   1.378
  823SOL    HW2 3369   3.729   3.295   1.397
  824SOL     OW 3370   5.994   2.480   6.104
  824SOL    HW1 3371   5.984   2.461   6.201
  824SOL    HW2 3372   6.069   2.544   6.090
  825SOL     OW 3373   1.153   3.756   2.025
  825SOL    HW1 3374   1.178   3.691   1.952
  825SOL    HW2 3375   1.221   3.830   2.028
  826SOL     OW 3376   1.028   4.431   5.776
  826SOL    HW1 3377   1.026   4.518   5.826
  826SOL    HW2 3378   0.985   4.360   5.831
  827SOL     OW 3379   3.911   5.389   0.803
  827SOL    HW1 3380   4.000   5.426   0.830
  827SOL    HW2 3381   3.848   5.464   0.782
  828SOL     OW 3382   6.274   0.225   5.623
  828SOL    HW1 3383   6.333   0.146   5.607
  828SOL    HW2 3384   6.259   0.273   5.537
  829SOL     OW 3385   3.373   2.978   4.850
  829SOL    HW1 3386   3.389   2.953   4.755
  829SOL    HW2 3387   3.455   2.959   4.904
  830SOL     OW 3388   4.138   3.687   6.373
  830SOL    HW1 3389   4.169   3.636   6.292
  830SOL    HW2 3390   4.164   3.637   6.455
  831SOL     OW 3391   6.370   0.150   4.589
  831SOL    HW1 3392   6.368   0.226   4.655
  831SOL    HW2 3393   6.303   0.081   4.617
  832SOL     OW 3394   2.450   1.359   5.472
  832SOL    HW1 3395   2.374   1.369   5.537
  832SOL    HW2 3396   2.415   1.323   5.385
  833SOL     OW 3397   0.781   0.217   5.735
  833SOL    HW1 3398   0.856   0.162   5.770
  833SOL    HW2 3399   0.807   0.313   5.734
  834SOL     OW 3400   3.451   4.710   5.650
  834SOL    HW1 3401   3.352   4.728   5.654
  834SOL    HW2 3402   3.486   4.696   5.743
  835SOL     OW 3403   4.765   0.833   3.145
  835SOL    HW1 3404   4.737   0.802   3.236
  835SOL    HW2 3405   4.802   0.755   3.094
  836SOL     OW 3406   2.644   0.547   6.751
  836SOL    HW1 3407   2.592   0.502   6.679
  836SOL    HW2 3408   2.604   0.637   6.770
  837SOL     OW 3409   4.341   1.309   4.938
  837SOL    HW1 3410   4.285   1.307   4.855
  837SOL    HW2 3411   4.281   1.320   5.017
  838SOL     OW 3412   0.969   5.271   2.705
  838SOL    HW1 3413   1.045   5.243   2.763
  838SOL    HW2 3414   0.905   5.195   2.694
  839SOL     OW 3415   3.208   0.982   1.556
  839SOL    HW1 3416   3.287   0.923   1.542
  839SOL    HW2 3417   3.161   0.955   1.640
  840SOL     OW 3418   0.482   1.567   5.785
  840SOL    HW1 3419   0.482   1.662   5.752
  840SOL    HW2 3420   0.568   1.523   5.760
  841SOL     OW 3421   0.569   3.593   0.594
  841SOL    HW1 3422   0.555   3.605   0.496
  841SOL    HW2 3423   0.655   3.544   0.610
  842SOL     OW 3424   3.522   5.148   3.676
  842SOL    HW1 3425   3.447   5.214   3.668
  842SOL    HW2 3426   3.596   5.187   3.730
  843SOL     OW 3427   0.027   4.323   2.064
  843SOL    HW1 3428   6.993   4.278   2.131
  843SOL    HW2 3429   6.998   4.389   2.012
  844SOL     OW 3430   5.436   5.474   6.714
  844SOL    HW1 3431   5.533   5.453   6.728
  844SOL    HW2 3432   5.389   5.472   6.802
  845SOL     OW 3433   1.797   5.462   4.962
  845SOL    HW1 3434   1.756   5.553   4.965
  845SOL    HW2 3435   1.840   5.442   5.050
  846SOL     OW 3436   5.025   3.191   6.929
  846SOL    HW1 3437   5.100   3.132   6.961
  846SOL    HW2 3438   5.058   3.248   6.854
  847SOL     OW 3439   5.273   3.923   1.988
  847SOL    HW1 3440   5.304   3.968   1.904
  847SOL    HW2 3441   5.352   3.885   2.037
  848SOL     OW 3442   5.999   0.335   5.208
  848SOL    HW1 3443   6.073   0.400   5.189
  848SOL    HW2 3444   5.980   0.282   5.126
  849SOL     OW 3445   0.726   5.581   4.129
  849SOL    HW1 3446   0.806   5.579   4.190
  849SOL    HW2 3447   0.738   5.653   4.061
  850SOL     OW 3448   4.057   0.564   3.481
  850SOL    HW1 3449   4.031   0.660   3.473
  850SOL    HW2 3450   3.975   0.506   3.475
  851SOL     OW 3451   0.355   0.576   5.261
  851SOL    HW1 3452   0.281   0.639   5.288
  851SOL    HW2 3453   0.318   0.483   5.254
  852SOL     OW 3454   2.628   4.522   5.740
  852SOL    HW1 3455   2.569   4.455   5.786
  852SOL    HW2 3456   2.610   4.613   5.776
  853SOL     OW 3457   1.448   4.033   0.621
  853SOL    HW1 3458   1.456   3.936   0.596
  853SOL    HW2 3459   1.537   4.078   0.609
  854SOL     OW 3460   6.477   4.916   1.606
  854SOL    HW1 3461   6.561   4.868   1.633
  854SOL    HW2 3462   6.399   4.877   1.654
  855SOL     OW 3463   5.272   0.807   0.755
  855SOL    HW1 3464   5.253   0.739   0.684
  855SOL    HW2 3465   5.300   0.893   0.712
  856SOL     OW 3466   1.011   1.057   4.664
  856SOL    HW1 3467   0.915   1.027   4.664
  856SOL    HW2 3468   1.019   1.143   4.714
  857SOL     OW 3469   6.007   3.669   1.807
  857SOL    HW1 3470   6.031   3.588   1.754
  857SOL    HW2 3471   6.002   3.646   1.904
  858SOL     OW 3472   3.637   3.228   1.781
  858SOL    HW1 3473   3.576   3.252   1.856
  858SOL    HW2 3474   3.700   3.157   1.810
  859SOL     OW 3475   6.601   4.609   1.103
  859SOL    HW1 3476   6.540   4.597   1.024
  859SOL    HW2 3477   6.684   4.554   1.090
  860SOL     OW 3478   1.771   4.380   0.137
  860SOL    HW1 3479   1.846   4.315   0.124
  860SOL    HW2 3480   1.691   4.331   0.172
  861SOL     OW 3481   3.327   4.410   5.877
  861SOL    HW1 3482   3.393   4.485   5.879
  861SOL    HW2 3483   3.355   4.339   5.942
  862SOL     OW 3484   4.864   4.276   3.316
  862SOL    HW1 3485   4.769   4.300   3.331
  862SOL    HW2 3486   4.919   4.359   3.307
  863SOL     OW 3487   6.058   2.152   0.859
  863SOL    HW1 3488   5.960   2.171   0.856
  863SOL    HW2 3489   6.073   2.053   0.858
  864SOL     OW 3490   6.696   4.911   2.777
  864SOL    HW1 3491   6.606   4.884   2.741
  864SOL    HW2 3492   6.694   4.906   2.877
  865SOL     OW 3493   2.153   0.838   3.938
  865SOL    HW1 3494   2.157   0.934   3.968
  865SOL    HW2 3495   2.231   0.818   3.879
  866SOL     OW 3496   4.327   1.426   0.983
  866SOL    HW1 3497   4.290   1.334   0.995
  866SOL    HW2 3498   4.266   1.492   1.027
  867SOL     OW 3499   2.411   1.724   6.494
  867SOL    HW1 3500   2.501   1.752   6.527
  867SOL    HW2 3501   2.402   1.748   6.397
  868SOL     OW 3502   5.558   2.329   3.478
  868SOL    HW1 3503   5.647   2.308   3.517
  868SOL    HW2 3504   5.535   2.424   3.495
  869SOL     OW 3505   6.753   4.034   1.463
  869SOL    HW1 3506   6.674   4.059   1.408
  869SOL    HW2 3507   6.837   4.057   1.414
  870SOL     OW 3508   6.607   2.474   0.224
  870SOL    HW1 3509   6.557   2.388   0.232
  870SOL    HW2 3510   6.623   2.494   0.127
  871SOL     OW 3511   5.888   4.012   0.707
  871SOL    HW1 3512   5.967   3.969   0.662
  871SOL    HW2 3513   5.873   3.969   0.796
  872SOL     OW 3514   6.465   1.889   2.031
  872SOL    HW1 3515   6.458   1.793   2.061
  872SOL    HW2 3516   6.518   1.940   2.099
  873SOL     OW 3517   3.433   6.201   5.166
  873SOL    HW1 3518   3.436   6.137   5.243
  873SOL    HW2 3519   3.523   6.206   5.123
  874SOL     OW 3520   0.195   4.261   6.983
  874SOL    HW1 3521   0.276   4.215   6.947
  874SOL    HW2 3522   0.152   4.203   0.028
  875SOL     OW 3523   6.230   5.159   6.320
  875SOL    HW1 3524   6.258   5.245   6.363
  875SOL    HW2 3525   6.276   5.083   6.366
  876SOL     OW 3526   1.454   2.160   0.751
  876SOL    HW1 3527   1.491   2.165   0.659
  876SOL    HW2 3528   1.361   2.122   0.749
  877SOL     OW 3529   5.218   5.945   0.308
  877SOL    HW1 3530   5.298   5.993   0.273
  877SOL    HW2 3531   5.244   5.853   0.337
  878SOL     OW 3532   3.750   2.377   0.681
  878SOL    HW1 3533   3.761   2.475   0.661
  878SOL    HW2 3534   3.829   2.344   0.731
  879SOL     OW 3535   4.618   2.206   2.744
  879SOL    HW1 3536   4.574   2.147   2.811
  879SOL    HW2 3537   4.650   2.151   2.667
  880SOL     OW 3538   4.706   5.272   2.011
  880SOL    HW1 3539   4.803   5.291   1.994
  880SOL    HW2 3540   4.650   5.336   1.959
  881SOL     OW 3541   4.933   5.001   3.474
  881SOL    HW1 3542   4.924   5.023   3.377
  881SOL    HW2 3543   4.873   5.060   3.527
  882SOL     OW 3544   0.530   1.841   4.482
  882SOL    HW1 3545   0.616   1.790   4.481
  882SOL    HW2 3546   0.521   1.892   4.396
  883SOL     OW 3547   3.297   4.800   0.309
  883SOL    HW1 3548   3.249   4.768   0.228
  883SOL    HW2 3549   3.334   4.892   0.292
  884SOL     OW 3550   3.970   3.956   1.754
  884SOL    HW1 3551   3.890   3.973   1.812
  884SOL    HW2 3552   3.947   3.890   1.683
  885SOL     OW 3553   4.322   6.457   5.774
  885SOL    HW1 3554   4.383   6.495   5.844
  885SOL    HW2 3555   4.374   6.397   5.713
  886SOL     OW 3556   4.094   1.932   6.604
  886SOL    HW1 3557   4.084   1.931   6.704
  886SOL    HW2 3558   4.184   1.969   6.580
  887SOL     OW 3559   5.591   6.710   5.187
  887SOL    HW1 3560   5.628   6.658   5.264
  887SOL    HW2 3561   5.492   6.697   5.182
  888SOL     OW 3562   5.996   6.837   3.059
  888SOL    HW1 3563   5.916   6.823   3.117
  888SOL    HW2 3564   6.038   6.749   3.039
  889SOL     OW 3565   1.057   6.874   4.296
  889SOL    HW1 3566   1.085   6.948   4.357
  889SOL    HW2 3567   1.093   6.787   4.331
  890SOL     OW 3568   1.726   4.278   2.013
  890SOL    HW1 3569   1.707   4.343   2.086
  890SOL    HW2 3570   1.823   4.284   1.987
  891SOL     OW 3571   5.574   3.783   6.195
  891SOL    HW1 3572   5.609   3.812   6.106
  891SOL    HW2 3573   5.483   3.742   6.182
  892SOL     OW 3574   1.682   4.963   1.854
  892SOL    HW1 3575   1.657   4.979   1.949
  892SOL    HW2 3576   1.600   4.941   1.801
  893SOL     OW 3577   1.882   6.626   2.137
  893SOL    HW1 3578   1.837   6.714   2.121
  893SOL    HW2 3579   1.934   6.600   2.056
  894SOL     OW 3580   1.590   5.616   4.296
  894SOL    HW1 3581   1.544   5.536   4.335
  894SOL    HW2 3582   1.573   5.619   4.198
  895SOL     OW 3583   2.471   0.799   4.320
  895SOL    HW1 3584   2.387   0.764   4.359
  895SOL    HW2 3585   2.541   0.806   4.391
  896SOL     OW 3586   5.478   7.008   3.535
  896SOL    HW1 3587   5.513   0.049   3.468
  896SOL    HW2 3588   5.546   6.993   3.606
  897SOL     OW 3589   5.321   1.481   6.108
  897SOL    HW1 3590   5.287   1.538   6.033
  897SOL    HW2 3591   5.259   1.488   6.187
  898SOL     OW 3592   5.630   6.918   4.093
  898SOL    HW1 3593   5.710   6.868   4.125
  898SOL    HW2 3594   5.571   6.939   4.171
  899SOL     OW 3595   1.286   4.238   6.981
  899SOL    HW1 3596   1.189   4.254   6.996
  899SOL    HW2 3597   1.301   4.142   6.958
  900SOL     OW 3598   0.394   5.615   3.499
  900SOL    HW1 3599   0.444   5.680   3.441
  900SOL    HW2 3600   0.454   5.583   3.572
  901SOL     OW 3601   5.435   1.832   3.643
  901SOL    HW1 3602   5.473   1.850   3.734
  901SOL    HW2 3603   5.350   1.781   3.652
  902SOL     OW 3604   1.266   6.512   0.233
  902SOL    HW1 3605   1.357   6.490   0.270
  902SOL    HW2 3606   1.236   6.437   0.174
  903SOL     OW 3607   0.731   4.967   6.682
  903SOL    HW1 3608   0.774   5.036   6.625
  903SOL    HW2 3609   0.638   4.995   6.706
  904SOL     OW 3610   1.732   0.962   4.137
  904SOL    HW1 3611   1.633   0.967   4.152
  904SOL    HW2 3612   1.761   1.037   4.079
  905SOL     OW 3613   6.138   2.181   4.463
  905SOL    HW1 3614   6.198   2.134   4.528
  905SOL    HW2 3615   6.049   2.197   4.506
  906SOL     OW 3616   6.420   4.212   5.554
  906SOL    HW1 3617   6.514   4.213   5.518
  906SOL    HW2 3618   6.415   4.275   5.631
  907SOL     OW 3619   0.164   3.316   2.176
  907SOL    HW1 3620   0.071   3.328   2.142
  907SOL    HW2 3621   0.228   3.352   2.108
  908SOL     OW 3622   2.963   1.041   3.560
  908SOL    HW1 3623   2.972   1.005   3.467
  908SOL    HW2 3624   2.920   0.972   3.618
  909SOL     OW 3625   4.077   6.781   1.426
  909SOL    HW1 3626   4.063   6.867   1.475
  909SOL    HW2 3627   4.106   6.710   1.491
  910SOL     OW 3628   1.626   1.514   1.983
  910SOL    HW1 3629   1.726   1.505   1.992
  910SOL    HW2 3630   1.596   1.598   2.029
  911SOL     OW 3631   0.634   3.373   1.052
  911SOL    HW1 3632   0.703   3.398   0.984
  911SOL    HW2 3633   0.544   3.368   1.007
  912SOL     OW 3634   0.834   0.661   6.398
  912SOL    HW1 3635   0.757   0.642   6.338
  912SOL    HW2 3636   0.817   0.745   6.449
  913SOL     OW 3637   1.886   1.225   2.464
  913SOL    HW1 3638   1.851   1.278   2.387
  913SOL    HW2 3639   1.978   1.257   2.487
  914SOL     OW 3640   3.004   5.876   1.918
  914SOL    HW1 3641   3.040   5.808   1.982
  914SOL    HW2 3642   2.915   5.846   1.885
  915SOL     OW 3643   1.813   2.459   0.163
  915SOL    HW1 3644   1.768   2.437   0.250
  915SOL    HW2 3645   1.911   2.444   0.171
  916SOL     OW 3646   1.474   3.039   2.495
  916SOL    HW1 3647   1.564   3.027   2.454
  916SOL    HW2 3648   1.408   2.980   2.448
  917SOL     OW 3649   3.920   1.224   6.240
  917SOL    HW1 3650   4.020   1.228   6.239
  917SOL    HW2 3651   3.883   1.314   6.264
  918SOL     OW 3652   0.409   1.979   4.906
  918SOL    HW1 3653   0.442   1.903   4.960
  918SOL    HW2 3654   0.487   2.027   4.864
  919SOL     OW 3655   1.804   0.298   1.065
  919SOL    HW1 3656   1.899   0.296   1.098
  919SOL    HW2 3657   1.745   0.338   1.135
  920SOL     OW 3658   1.706   0.886   2.997
  920SOL    HW1 3659   1.657   0.852   3.078
  920SOL    HW2 3660   1.661   0.852   2.914
  921SOL     OW 3661   4.043   4.039   0.570
  921SOL    HW1 3662   4.089   4.073   0.652
  921SOL    HW2 3663   4.108   4.035   0.494
  922SOL     OW 3664   2.270   5.230   6.893
  922SOL    HW1 3665   2.359   5.214   6.852
  922SOL    HW2 3666   2.241   5.149   6.944
  923SOL     OW 3667   4.146   1.533   6.822
  923SOL    HW1 3668   4.066   1.592   6.811
  923SOL    HW2 3669   4.119   1.449   6.868
  924SOL     OW 3670   6.548   5.229   2.633
  924SOL    HW1 3671   6.513   5.156   2.573
  924SOL    HW2 3672   6.472   5.287   2.662
  925SOL     OW 3673   6.906   1.621   2.803
  925SOL    HW1 3674   6.870   1.561   2.732
  925SOL    HW2 3675   6.876   1.587   2.893
  926SOL     OW 3676   3.964   6.139   1.323
  926SOL    HW1 3677   3.936   6.230   1.354
  926SOL    HW2 3678   3.945   6.072   1.395
  927SOL     OW 3679   4.364   5.617   5.145
  927SOL    HW1 3680   4.348   5.712   5.170
  927SOL    HW2 3681   4.282   5.580   5.102
  928SOL     OW 3682   0.166   1.447   1.304
  928SOL    HW1 3683   0.080   1.471   1.350
  928SOL    HW2 3684   0.198   1.358   1.338
  929SOL     OW 3685   0.015   2.099   1.960
  929SOL    HW1 3686   0.022   2.152   2.044
  929SOL    HW2 3687   0.101   2.105   1.909
  930SOL     OW 3688   6.060   5.631   2.170
  930SOL    HW1 3689   6.093   5.693   2.099
  930SOL    HW2 3690   6.031   5.684   2.250
  931SOL     OW 3691   1.341   2.728   2.041
  931SOL    HW1 3692   1.283   2.809   2.049
  931SOL    HW2 3693   1.404   2.724   2.118
  932SOL     OW 3694   4.294   5.944   1.389
  932SOL    HW1 3695   4.269   5.876   1.320
  932SOL    HW2 3696   4.265   5.911   1.479
  933SOL     OW 3697   1.205   6.888   3.450
  933SOL    HW1 3698   1.203   6.915   3.354
  933SOL    HW2 3699   1.265   6.809   3.461
  934SOL     OW 3700   3.088   0.769   5.499
  934SOL    HW1 3701   3.158   0.837   5.475
  934SOL    HW2 3702   3.008   0.783   5.440
  935SOL     OW 3703   1.387   3.359   4.968
  935SOL    HW1 3704   1.383   3.368   4.869
  935SOL    HW2 3705   1.303   3.318   5.002
  936SOL     OW 3706   0.726   2.070   1.433
  936SOL    HW1 3707   0.798   2.138   1.443
  936SOL    HW2 3708   0.643   2.101   1.480
  937SOL     OW 3709   5.134   2.371   3.709
  937SOL    HW1 3710   5.232   2.359   3.695
  937SOL    HW2 3711   5.117   2.456   3.759
  938SOL     OW 3712   0.345   1.266   6.440
  938SOL    HW1 3713   0.317   1.171   6.453
  938SOL    HW2 3714   0.361   1.309   6.529
  939SOL     OW 3715   6.402   1.176   5.514
  939SOL    HW1 3716   6.400   1.089   5.564
  939SOL    HW2 3717   6.312   1.218   5.516
  940SOL     OW 3718   7.022   0.418   4.352
  940SOL    HW1 3719   0.030   0.502   4.396
  940SOL    HW2 3720   0.033   0.338   4.400
  941SOL     OW 3721   5.765   2.610   5.387
  941SOL    HW1 3722   5.842   2.555   5.354
  941SOL    HW2 3723   5.760   2.694   5.333
  942SOL     OW 3724   4.561   0.641   4.901
  942SOL    HW1 3725   4.607   0.633   4.813
  942SOL    HW2 3726   4.501   0.562   4.915
  943SOL     OW 3727   5.493   1.961   0.396
  943SOL    HW1 3728   5.445   2.025   0.337
  943SOL    HW2 3729   5.460   1.868   0.378
  944SOL     OW 3730   4.878   4.097   4.725
  944SOL    HW1 3731   4.827   4.154   4.790
  944SOL    HW2 3732   4.954   4.053   4.772
  945SOL     OW 3733   5.727   3.475   6.277
  945SOL    HW1 3734   5.629   3.490   6.290
  945SOL    HW2 3735   5.759   3.528   6.199
  946SOL     OW 3736   5.730   3.850   6.660
  946SOL    HW1 3737   5.711   3.881   6.567
  946SOL    HW2 3738   5.793   3.915   6.704
  947SOL     OW 3739   0.621   2.631   5.711
  947SOL    HW1 3740   0.570   2.579   5.643
  947SOL    HW2 3741   0.610   2.729   5.692
  948SOL     OW 3742   3.977   1.570   0.338
  948SOL    HW1 3743   3.941   1.485   0.377
  948SOL    HW2 3744   4.020   1.551   0.250
  949SOL     OW 3745   5.458   6.054   6.565
  949SOL    HW1 3746   5.510   5.979   6.607
  949SOL    HW2 3747   5.362   6.047   6.593
  950SOL     OW 3748   3.852   5.449   1.245
  950SOL    HW1 3749   3.951   5.458   1.256
  950SOL    HW2 3750   3.814   5.536   1.214
  951SOL     OW 3751   1.252   2.805   3.749
  951SOL    HW1 3752   1.308   2.730   3.782
  951SOL    HW2 3753   1.226   2.865   3.825
  952SOL     OW 3754   4.859   1.885   1.516
  952SOL    HW1 3755   4.764   1.860   1.503
  952SOL    HW2 3756   4.894   1.929   1.434
  953SOL     OW 3757   3.816   6.583   6.106
  953SOL    HW1 3758   3.797   6.500   6.159
  953SOL    HW2 3759   3.736   6.606   6.051
  954SOL     OW 3760   6.626   0.933   1.761
  954SOL    HW1 3761   6.642   0.837   1.739
  954SOL    HW2 3762   6.575   0.940   1.846
  955SOL     OW 3763   0.684   6.321   2.489
  955SOL    HW1 3764   0.719   6.405   2.529
  955SOL    HW2 3765   0.743   6.293   2.413
  956SOL     OW 3766   1.566   2.843   0.847
  956SOL    HW1 3767   1.567   2.758   0.899
  956SOL    HW2 3768   1.545   2.920   0.908
  957SOL     OW 3769   1.939   6.640   5.060
  957SOL    HW1 3770   1.962   6.547   5.031
  957SOL    HW2 3771   1.840   6.653   5.056
  958SOL     OW 3772   4.924   3.021   0.218
  958SOL    HW1 3773   4.887   3.114   0.214
  958SOL    HW2 3774   5.003   3.014   0.158
  959SOL     OW 3775   1.693   3.555   1.229
  959SOL    HW1 3776   1.704   3.479   1.292
  959SOL    HW2 3777   1.744   3.537   1.145
  960SOL     OW 3778   1.509   5.221   5.699
  960SOL    HW1 3779   1.493   5.182   5.609
  960SOL    HW2 3780   1.602   5.197   5.729
  961SOL     OW 3781   3.690   6.994   6.780
  961SOL    HW1 3782   3.747   7.013   6.700
  961SOL    HW2 3783   3.724   0.021   6.858
  962SOL     OW 3784   1.248   6.629   3.644
  962SOL    HW1 3785   1.179   6.653   3.713
  962SOL    HW2 3786   1.243   6.531   3.626
  963SOL     OW 3787   5.803   0.047   1.890
  963SOL    HW1 3788   5.834   0.112   1.960
  963SOL    HW2 3789   5.742   0.094   1.826
  964SOL     OW 3790   5.294   3.483   1.556
  964SOL    HW1 3791   5.275   3.396   1.602
  964SOL    HW2 3792   5.223   3.502   1.489
  965SOL     OW 3793   1.845   1.708   0.120
  965SOL    HW1 3794   1.863   1.649   0.042
  965SOL    HW2 3795   1.909   1.688   0.193
  966SOL     OW 3796   6.840   2.385   1.955
  966SOL    HW1 3797   6.771   2.453   1.977
  966SOL    HW2 3798   6.835   2.363   1.858
  967SOL     OW 3799   0.963   5.980   2.429
  967SOL    HW1 3800   0.997   5.889   2.405
  967SOL    HW2 3801   0.987   6.000   2.524
  968SOL     OW 3802   7.003   4.278   0.832
  968SOL    HW1 3803   0.073   4.249   0.839
  968SOL    HW2 3804   6.999   4.377   0.816
  969SOL     OW 3805   4.090   6.961   6.534
  969SOL    HW1 3806   4.146   0.016   6.513
  969SOL    HW2 3807   4.120   6.883   6.479
  970SOL     OW 3808   4.727   3.014   5.858
  970SOL    HW1 3809   4.659   2.945   5.834
  970SOL    HW2 3810   4.754   3.002   5.954
  971SOL     OW 3811   0.318   2.997   0.195
  971SOL    HW1 3812   0.375   3.074   0.165
  971SOL    HW2 3813   0.276   3.019   0.283
  972SOL     OW 3814   5.021   6.886   0.733
  972SOL    HW1 3815   4.991   6.792   0.749
  972SOL    HW2 3816   5.118   6.886   0.710
  973SOL     OW 3817   5.848   3.019   5.712
  973SOL    HW1 3818   5.821   2.925   5.692
  973SOL    HW2 3819   5.803   3.050   5.796
  974SOL     OW 3820   2.449   0.152   4.731
  974SOL    HW1 3821   2.360   0.113   4.755
  974SOL    HW2 3822   2.522   0.089   4.760
  975SOL     OW 3823   3.193   0.104   5.411
  975SOL    HW1 3824   3.236   0.176   5.466
  975SOL    HW2 3825   3.101   0.131   5.386
  976SOL     OW 3826   0.332   5.053   3.216
  976SOL    HW1 3827   0.400   5.126   3.216
  976SOL    HW2 3828   0.378   4.965   3.206
  977SOL     OW 3829   0.666   2.567   1.983
  977SOL    HW1 3830   0.567   2.561   1.976
  977SOL    HW2 3831   0.692   2.565   2.080
  978SOL     OW 3832   5.592   3.545   4.764
  978SOL    HW1 3833   5.610   3.566   4.860
  978SOL    HW2 3834   5.626   3.620   4.707
  979SOL     OW 3835   5.623   1.503   3.331
  979SOL    HW1 3836   5.648   1.578   3.270
  979SOL    HW2 3837   5.660   1.417   3.296
  980SOL     OW 3838   0.160   0.427   4.670
  980SOL    HW1 3839   0.179   0.430   4.572
  980SOL    HW2 3840   0.074   0.475   4.689
  981SOL     OW 3841   6.201   3.002   6.013
  981SOL    HW1 3842   6.158   3.077   5.963
  981SOL    HW2 3843   6.273   3.037   6.073
  982SOL     OW 3844   1.596   3.785   1.110
  982SOL    HW1 3845   1.520   3.831   1.156
  982SOL    HW2 3846   1.628   3.709   1.166
  983SOL     OW 3847   5.290   1.957   3.368
  983SOL    HW1 3848   5.259   1.908   3.286
  983SOL    HW2 3849   5.238   1.926   3.447
  984SOL     OW 3850   4.963   2.520   5.436
  984SOL    HW1 3851   4.938   2.443   5.494
  984SOL    HW2 3852   4.888   2.586   5.435
  985SOL     OW 3853   2.179   4.863   0.914
  985SOL    HW1 3854   2.263   4.808   0.907
  985SOL    HW2 3855   2.135   4.868   0.825
  986SOL     OW 3856   4.427   4.385   6.875
  986SOL    HW1 3857   4.351   4.342   6.925
  986SOL    HW2 3858   4.398   4.408   6.782
  987SOL     OW 3859   3.643   6.806   2.725
  987SOL    HW1 3860   3.705   6.850   2.660
  987SOL    HW2 3861   3.553   6.793   2.682
  988SOL     OW 3862   3.431   2.943   1.949
  988SOL    HW1 3863   3.395   3.008   1.882
  988SOL    HW2 3864   3.366   2.869   1.963
  989SOL     OW 3865   0.496   0.376   4.491
  989SOL    HW1 3866   0.432   0.393   4.417
  989SOL    HW2 3867   0.590   0.384   4.456
  990SOL     OW 3868   4.919   6.209   2.232
  990SOL    HW1 3869   4.853   6.181   2.302
  990SOL    HW2 3870   5.011   6.207   2.271
  991SOL     OW 3871   5.923   1.829   5.043
  991SOL    HW1 3872   5.837   1.880   5.040
  991SOL    HW2 3873   5.964   1.836   5.134
  992SOL     OW 3874   6.909   3.184   1.379
  992SOL    HW1 3875   6.969   3.237   1.318
  992SOL    HW2 3876   6.816   3.220   1.373
  993SOL     OW 3877   3.874   5.911   4.983
  993SOL    HW1 3878   3.954   5.958   5.020
  993SOL    HW2 3879   3.901   5.846   4.912
  994SOL     OW 3880   3.427   3.038   2.523
  994SOL    HW1 3881   3.457   3.133   2.522
  994SOL    HW2 3882   3.329   3.034   2.507
  995SOL     OW 3883   0.283   1.500   4.836
  995SOL    HW1 3884   0.298   1.408   4.798
  995SOL    HW2 3885   0.200   1.539   4.795
  996SOL     OW 3886   0.974   3.713   0.698
  996SOL    HW1 3887   1.042   3.786   0.711
  996SOL    HW2 3888   1.011   3.627   0.734
  997SOL     OW 3889   0.292   1.387   0.748
  997SOL    HW1 3890   0.365   1.438   0.701
  997SOL    HW2 3891   0.293   1.410   0.845
  998SOL     OW 3892   4.985   6.905   3.452
  998SOL    HW1 3893   5.068   6.912   3.507
  998SOL    HW2 3894   4.905   6.908   3.512
  999SOL     OW 3895   6.323   5.337   1.578
  999SOL    HW1 3896   6.323   5.360   1.481
  999SOL    HW2 3897   6.298   5.418   1.632
 1000SOL     OW 3898   4.505   2.475   4.162
 1000SOL    HW1 3899   4.566   2.397   4.179
 1000SOL    HW2 3900   4.529   2.550   4.224
 1001SOL     OW 3901   4.465   1.573   6.032
 1001SOL    HW1 3902   4.450   1.575   5.933
 1001SOL    HW2 3903   4.531   1.644   6.057
 1002SOL     OW 3904   0.130   1.179   6.982
 1002SOL    HW1 3905   0.203   1.161   6.916
 1002SOL    HW2 3906   0.169   1.185   0.049
 1003SOL     OW 3907   4.516   5.020   2.925
 1003SOL    HW1 3908   4.523   4.922   2.943
 1003SOL    HW2 3909   4.514   5.036   2.826
 1004SOL     OW 3910   5.992   5.509   0.777
 1004SOL    HW1 3911   5.995   5.494   0.875
 1004SOL    HW2 3912   5.950   5.430   0.732
 1005SOL     OW 3913   0.015   5.435   3.852
 1005SOL    HW1 3914   0.061   5.353   3.886
 1005SOL    HW2 3915   7.002   5.487   3.929
 1006SOL     OW 3916   2.265   4.172   0.115
 1006SOL    HW1 3917   2.277   4.257   0.063
 1006SOL    HW2 3918   2.323   4.174   0.196
 1007SOL     OW 3919   0.980   0.939   3.480
 1007SOL    HW1 3920   0.955   0.863   3.419
 1007SOL    HW2 3921   0.999   0.904   3.571
 1008SOL     OW 3922   2.550   2.099   4.416
 1008SOL    HW1 3923   2.532   2.141   4.505
 1008SOL    HW2 3924   2.613   2.157   4.364
 1009SOL     OW 3925   2.486   5.989   5.525
 1009SOL    HW1 3926   2.432   6.069   5.500
 1009SOL    HW2 3927   2.562   6.017   5.585
 1010SOL     OW 3928   5.293   0.263   5.966
 1010SOL    HW1 3929   5.204   0.305   5.953
 1010SOL    HW2 3930   5.353   0.285   5.889
 1011SOL     OW 3931   3.388   5.927   4.093
 1011SOL    HW1 3932   3.457   5.988   4.133
 1011SOL    HW2 3933   3.412   5.908   3.998
 1012SOL     OW 3934   3.450   5.640   0.632
 1012SOL    HW1 3935   3.501   5.661   0.548
 1012SOL    HW2 3936   3.361   5.603   0.608
 1013SOL     OW 3937   0.311   0.789   0.286
 1013SOL    HW1 3938   0.227   0.763   0.238
 1013SOL    HW2 3939   0.373   0.834   0.222
 1014SOL     OW 3940   5.574   6.897   6.321
 1014SOL    HW1 3941   5.666   6.900   6.283
 1014SOL    HW2 3942   5.543   6.989   6.345
 1015SOL     OW 3943   3.330   0.116   4.807
 1015SOL    HW1 3944   3.368   0.046   4.746
 1015SOL    HW2 3945   3.238   0.140   4.777
 1016SOL     OW 3946   4.662   2.655   2.140
 1016SOL    HW1 3947   4.670   2.702   2.052
 1016SOL    HW2 3948   4.570   2.616   2.149
 1017SOL     OW 3949   5.226   0.843   6.476
 1017SOL    HW1 3950   5.232   0.940   6.502
 1017SOL    HW2 3951   5.170   0.835   6.394
 1018SOL     OW 3952   1.462   2.432   1.543
 1018SOL    HW1 3953   1.482   2.477   1.629
 1018SOL    HW2 3954   1.548   2.411   1.495
 1019SOL     OW 3955   6.309   1.370   0.582
 1019SOL    HW1 3956   6.298   1.426   0.501
 1019SOL    HW2 3957   6.267   1.415   0.660
 1020SOL     OW 3958   3.297   2.215   1.211
 1020SOL    HW1 3959   3.328   2.241   1.302
 1020SOL    HW2 3960   3.296   2.115   1.204
 1021SOL     OW 3961   6.617   1.546   0.652
 1021SOL    HW1 3962   6.645   1.603   0.575
 1021SOL    HW2 3963   6.553   1.597   0.710
 1022SOL     OW 3964   3.710   2.887   0.089
 1022SOL    HW1 3965   3.743   2.896   0.183
 1022SOL    HW2 3966   3.775   2.832   0.036
 1023SOL     OW 3967   6.505   0.460   4.580
 1023SOL    HW1 3968   6.569   0.401   4.628
 1023SOL    HW2 3969   6.521   0.556   4.607
 1024SOL     OW 3970   6.470   1.768   4.159
 1024SOL    HW1 3971   6.476   1.816   4.072
 1024SOL    HW2 3972   6.560   1.730   4.182
 1025SOL     OW 3973   3.482   4.341   1.342
 1025SOL    HW1 3974   3.432   4.309   1.423
 1025SOL    HW2 3975   3.426   4.409   1.294
 1026SOL     OW 3976   0.866   3.000   6.452
 1026SOL    HW1 3977   0.797   2.959   6.393
 1026SOL    HW2 3978   0.952   2.949   6.443
 1027SOL     OW 3979   2.065   4.748   1.408
 1027SOL    HW1 3980   2.081   4.832   1.355
 1027SOL    HW2 3981   2.018   4.681   1.351
 1028SOL     OW 3982   0.266   5.329   0.703
 1028SOL    HW1 3983   0.330   5.298   0.772
 1028SOL    HW2 3984   0.316   5.363   0.623
 1029SOL     OW 3985   3.578   0.732   5.793
 1029SOL    HW1 3986   3.600   0.705   5.699
 1029SOL    HW2 3987   3.622   0.668   5.856
 1030SOL     OW 3988   4.072   4.638   5.330
 1030SOL    HW1 3989   3.973   4.633   5.319
 1030SOL    HW2 3990   4.115   4.566   5.275
 1031SOL     OW 3991   2.158   5.370   0.972
 1031SOL    HW1 3992   2.215   5.309   0.917
 1031SOL    HW2 3993   2.106   5.430   0.911
 1032SOL     OW 3994   1.053   1.331   4.762
 1032SOL    HW1 3995   1.106   1.399   4.712
 1032SOL    HW2 3996   0.962   1.367   4.781
 1033SOL     OW 3997   2.301   6.458   2.978
 1033SOL    HW1 3998   2.238   6.485   2.905
 1033SOL    HW2 3999   2.395   6.461   2.943
 1034SOL     OW 4000   1.180   6.996   1.763
 1034SOL    HW1 4001   1.241   7.016   1.686
 1034SOL    HW2 4002   1.231   6.946   1.833
 1035SOL     OW 4003   3.330   0.802   2.940
 1035SOL    HW1 4004   3.293   0.863   2.870
 1035SOL    HW2 4005   3.355   0.855   3.021
 1036SOL     OW 4006   4.831   6.865   6.813
 1036SOL    HW1 4007   4.892   6.811   6.871
 1036SOL    HW2 4008   4.882   6.903   6.736
 1037SOL     OW 4009   3.341   1.628   6.096
 1037SOL    HW1 4010   3.369   1.706   6.152
 1037SOL    HW2 4011   3.292   1.562   6.153
 1038SOL     OW 4012   2.546   1.455   4.944
 1038SOL    HW1 4013   2.505   1.541   4.914
 1038SOL    HW2 4014   2.575   1.463   5.039
 1039SOL     OW 4015   4.260   2.014   3.490
 1039SOL    HW1 4016   4.359   2.020   3.483
 1039SOL    HW2 4017   4.217   2.072   3.421
 1040SOL     OW 4018   5.610   3.235   4.201
 1040SOL    HW1 4019   5.618   3.334   4.208
 1040SOL    HW2 4020   5.701   3.194   4.205
 1041SOL     OW 4021   1.846   6.579   4.252
 1041SOL    HW1 4022   1.795   6.658   4.286
 1041SOL    HW2 4023   1.916   6.554   4.319
 1042SOL     OW 4024   4.790   3.885   0.963
 1042SOL    HW1 4025   4.719   3.845   1.022
 1042SOL    HW2 4026   4.841   3.812   0.919
 1043SOL     OW 4027   3.856   0.558   6.671
 1043SOL    HW1 4028   3.784   0.604   6.619
 1043SOL    HW2 4029   3.815   0.504   6.745
 1044SOL     OW 4030   3.939   3.973   2.363
 1044SOL    HW1 4031   3.921   3.972   2.265
 1044SOL    HW2 4032   3.863   4.019   2.410
 1045SOL     OW 4033   3.950   1.062   3.136
 1045SOL    HW1 4034   4.023   1.075   3.069
 1045SOL    HW2 4035   3.968   1.119   3.216
 1046SOL     OW 4036   3.619   1.016   2.119
 1046SOL    HW1 4037   3.605   0.925   2.158
 1046SOL    HW2 4038   3.665   1.007   2.031
 1047SOL     OW 4039   0.672   5.445   1.971
 1047SOL    HW1 4040   0.601   5.409   2.032
 1047SOL    HW2 4041   0.743   5.376   1.959
 1048SOL     OW 4042   6.439   4.827   5.269
 1048SOL    HW1 4043   6.379   4.801   5.345
 1048SOL    HW2 4044   6.394   4.804   5.182
 1049SOL     OW 4045   0.489   3.529   5.255
 1049SOL    HW1 4046   0.454   3.437   5.238
 1049SOL    HW2 4047   0.540   3.530   5.341
 1050SOL     OW 4048   2.604   0.545   0.663
 1050SOL    HW1 4049   2.504   0.553   0.660
 1050SOL    HW2 4050   2.639   0.534   0.570
 1051SOL     OW 4051   4.868   4.584   2.365
 1051SOL    HW1 4052   4.957   4.538   2.368
 1051SOL    HW2 4053   4.819   4.554   2.283
 1052SOL     OW 4054   4.021   0.323   4.754
 1052SOL    HW1 4055   4.093   0.256   4.771
 1052SOL    HW2 4056   3.933   0.276   4.748
 1053SOL     OW 4057   3.868   4.847   3.761
 1053SOL    HW1 4058   3.963   4.867   3.785
 1053SOL    HW2 4059   3.866   4.787   3.681
 1054SOL     OW 4060   4.190   5.783   4.894
 1054SOL    HW1 4061   4.191   5.829   4.806
 1054SOL    HW2 4062   4.185   5.850   4.967
 1055SOL     OW 4063   3.715   4.857   4.168
 1055SOL    HW1 4064   3.648   4.864   4.242
 1055SOL    HW2 4065   3.672   4.882   4.082
 1056SOL     OW 4066   2.446   5.528   6.235
 1056SOL    HW1 4067   2.439   5.608   6.176
 1056SOL    HW2 4068   2.455   5.557   6.330
 1057SOL     OW 4069   3.918   3.937   1.140
 1057SOL    HW1 4070   3.982   3.861   1.129
 1057SOL    HW2 4071   3.946   4.013   1.080
 1058SOL     OW 4072   2.725   6.467   2.339
 1058SOL    HW1 4073   2.819   6.439   2.363
 1058SOL    HW2 4074   2.728   6.531   2.263
 1059SOL     OW 4075   3.260   0.657   0.294
 1059SOL    HW1 4076   3.333   0.705   0.245
 1059SOL    HW2 4077   3.191   0.722   0.324
 1060SOL     OW 4078   2.730   1.180   4.398
 1060SOL    HW1 4079   2.737   1.219   4.490
 1060SOL    HW2 4080   2.635   1.181   4.368
 1061SOL     OW 4081   2.951   5.999   1.361
 1061SOL    HW1 4082   3.023   6.059   1.394
 1061SOL    HW2 4083   2.898   6.046   1.290
 1062SOL     OW 4084   4.779   4.753   4.893
 1062SOL    HW1 4085   4.837   4.673   4.875
 1062SOL    HW2 4086   4.819   4.834   4.849
 1063SOL     OW 4087   2.705   2.516   6.271
 1063SOL    HW1 4088   2.642   2.457   6.220
 1063SOL    HW2 4089   2.731   2.472   6.357
 1064SOL     OW 4090   0.395   3.214   1.870
 1064SOL    HW1 4091   0.429   3.231   1.778
 1064SOL    HW2 4092   0.305   3.255   1.881
 1065SOL     OW 4093   4.256   5.008   5.950
 1065SOL    HW1 4094   4.345   5.038   5.985
 1065SOL    HW2 4095   4.232   4.921   5.993
 1066SOL     OW 4096   4.262   6.606   3.393
 1066SOL    HW1 4097   4.278   6.646   3.483
 1066SOL    HW2 4098   4.260   6.507   3.400
 1067SOL     OW 4099   2.745   3.245   0.873
 1067SOL    HW1 4100   2.708   3.154   0.856
 1067SOL    HW2 4101   2.671   3.312   0.871
 1068SOL     OW 4102   0.363   4.458   0.808
 1068SOL    HW1 4103   0.287   4.423   0.755
 1068SOL    HW2 4104   0.374   4.556   0.790
 1069SOL     OW 4105   4.064   3.211   2.551
 1069SOL    HW1 4106   4.138   3.169   2.603
 1069SOL    HW2 4107   4.069   3.311   2.560
 1070SOL     OW 4108   2.579   6.908   0.708
 1070SOL    HW1 4109   2.611   6.907   0.803
 1070SOL    HW2 4110   2.645   6.861   0.650
 1071SOL     OW 4111   5.095   5.381   3.880
 1071SOL    HW1 4112   5.052   5.292   3.865
 1071SOL    HW2 4113   5.032   5.454   3.856
 1072SOL     OW 4114   3.643   5.553   2.886
 1072SOL    HW1 4115   3.626   5.486   2.958
 1072SOL    HW2 4116   3.684   5.635   2.926
 1073SOL     OW 4117   2.684   5.585   3.207
 1073SOL    HW1 4118   2.690   5.533   3.122
 1073SOL    HW2 4119   2.764   5.645   3.216
 1074SOL     OW 4120   1.507   5.468   2.310
 1074SOL    HW1 4121   1.481   5.452   2.215
 1074SOL    HW2 4122   1.599   5.507   2.314
 1075SOL     OW 4123   1.180   4.421   3.150
 1075SOL    HW1 4124   1.213   4.334   3.184
 1075SOL    HW2 4125   1.237   4.495   3.185
 1076SOL     OW 4126   6.921   4.029   2.807
 1076SOL    HW1 4127   6.905   4.124   2.781
 1076SOL    HW2 4128   7.019   4.013   2.819
 1077SOL     OW 4129   4.980   0.530   1.760
 1077SOL    HW1 4130   5.031   0.581   1.829
 1077SOL    HW2 4131   4.928   0.593   1.702
 1078SOL     OW 4132   0.196   3.243   1.585
 1078SOL    HW1 4133   0.216   3.341   1.587
 1078SOL    HW2 4134   0.118   3.223   1.645
 1079SOL     OW 4135   2.156   5.182   3.341
 1079SOL    HW1 4136   2.164   5.082   3.345
 1079SOL    HW2 4137   2.076   5.207   3.287
 1080SOL     OW 4138   1.823   5.568   3.764
 1080SOL    HW1 4139   1.729   5.592   3.789
 1080SOL    HW2 4140   1.877   5.651   3.756
 1081SOL     OW 4141   1.500   0.547   0.233
 1081SOL    HW1 4142   1.439   0.541   0.154
 1081SOL    HW2 4143   1.477   0.474   0.298
 1082SOL     OW 4144   2.104   6.895   0.920
 1082SOL    HW1 4145   2.090   6.797   0.935
 1082SOL    HW2 4146   2.178   6.908   0.854
 1083SOL     OW 4147   3.427   2.424   1.719
 1083SOL    HW1 4148   3.503   2.404   1.781
 1083SOL    HW2 4149   3.353   2.359   1.735
 1084SOL     OW 4150   6.640   3.649   0.813
 1084SOL    HW1 4151   6.567   3.675   0.876
 1084SOL    HW2 4152   6.672   3.730   0.764
 1085SOL     OW 4153   1.634   5.153   3.520
 1085SOL    HW1 4154   1.661   5.075   3.463
 1085SOL    HW2 4155   1.712   5.215   3.531
 1086SOL     OW 4156   3.555   5.234   2.530
 1086SOL    HW1 4157   3.476   5.258   2.587
 1086SOL    HW2 4158   3.587   5.143   2.554
 1087SOL     OW 4159   4.162   3.510   4.831
 1087SOL    HW1 4160   4.247   3.480   4.873
 1087SOL    HW2 4161   4.110   3.430   4.800
 1088SOL     OW 4162   6.701   4.526   2.433
 1088SOL    HW1 4163   6.797   4.503   2.419
 1088SOL    HW2 4164   6.644   4.462   2.383
 1089SOL     OW 4165   6.288   6.674   3.183
 1089SOL    HW1 4166   6.266   6.619   3.263
 1089SOL    HW2 4167   6.381   6.654   3.153
 1090SOL     OW 4168   2.080   1.782   6.255
 1090SOL    HW1 4169   1.986   1.786   6.291
 1090SOL    HW2 4170   2.138   1.844   6.307
 1091SOL     OW 4171   1.217   2.578   5.735
 1091SOL    HW1 4172   1.151   2.602   5.663
 1091SOL    HW2 4173   1.284   2.652   5.744
 1092SOL     OW 4174   2.018   4.550   1.174
 1092SOL    HW1 4175   2.115   4.532   1.191
 1092SOL    HW2 4176   1.972   4.464   1.155
 1093SOL     OW 4177   6.728   2.698   1.806
 1093SOL    HW1 4178   6.720   2.687   1.707
 1093SOL    HW2 4179   6.768   2.787   1.826
 1094SOL     OW 4180   0.342   6.551   2.128
 1094SOL    HW1 4181   0.378   6.528   2.038
 1094SOL    HW2 4182   0.242   6.546   2.127
 1095SOL     OW 4183   6.873   3.782   5.864
 1095SOL    HW1 4184   6.834   3.808   5.775
 1095SOL    HW2 4185   6.972   3.775   5.857
 1096SOL     OW 4186   3.475   3.293   2.006
 1096SOL    HW1 4187   3.561   3.341   2.024
 1096SOL    HW2 4188   3.431   3.270   2.093
 1097SOL     OW 4189   2.378   4.331   5.859
 1097SOL    HW1 4190   2.357   4.288   5.772
 1097SOL    HW2 4191   2.294   4.372   5.897
 1098SOL     OW 4192   4.093   0.583   2.614
 1098SOL    HW1 4193   4.026   0.645   2.655
 1098SOL    HW2 4194   4.106   0.504   2.673
 1099SOL     OW 4195   3.244   0.603   2.521
 1099SOL    HW1 4196   3.258   0.531   2.452
 1099SOL    HW2 4197   3.332   0.648   2.540
 1100SOL     OW 4198   6.545   1.158   6.784
 1100SOL    HW1 4199   6.494   1.085   6.740
 1100SOL    HW2 4200   6.612   1.119   6.847
 1101SOL     OW 4201   5.112   3.269   1.369
 1101SOL    HW1 4202   5.155   3.241   1.455
 1101SOL    HW2 4203   5.056   3.350   1.385
 1102SOL     OW 4204   0.156   3.876   3.676
 1102SOL    HW1 4205   0.097   3.954   3.654
 1102SOL    HW2 4206   0.230   3.907   3.736
 1103SOL     OW 4207   0.154   3.424   0.024
 1103SOL    HW1 4208   0.192   3.445   0.114
 1103SOL    HW2 4209   0.149   3.507   6.994
 1104SOL     OW 4210   2.637   5.294   6.260
 1104SOL    HW1 4211   2.575   5.373   6.255
 1104SOL    HW2 4212   2.698   5.293   6.181
 1105SOL     OW 4213   3.757   5.684   1.095
 1105SOL    HW1 4214   3.681   5.747   1.113
 1105SOL    HW2 4215   3.767   5.670   0.996
 1106SOL     OW 4216   1.257   0.901   6.245
 1106SOL    HW1 4217   1.351   0.934   6.259
 1106SOL    HW2 4218   1.203   0.974   6.202
 1107SOL     OW 4219   6.582   0.534   1.305
 1107SOL    HW1 4220   6.628   0.611   1.350
 1107SOL    HW2 4221   6.574   0.552   1.207
 1108SOL     OW 4222   1.159   1.062   6.775
 1108SOL    HW1 4223   1.159   0.988   6.843
 1108SOL    HW2 4224   1.123   1.145   6.817
 1109SOL     OW 4225   4.743   0.739   4.061
 1109SOL    HW1 4226   4.797   0.768   3.982
 1109SOL    HW2 4227   4.741   0.640   4.066
 1110SOL     OW 4228   3.803   2.943   2.794
 1110SOL    HW1 4229   3.824   2.983   2.705
 1110SOL    HW2 4230   3.762   2.853   2.782
 1111SOL     OW 4231   4.904   0.125   0.067
 1111SOL    HW1 4232   4.981   0.079   0.023
 1111SOL    HW2 4233   4.897   0.095   0.162
 1112SOL     OW 4234   0.722   1.518   2.554
 1112SOL    HW1 4235   0.790   1.457   2.513
 1112SOL    HW2 4236   0.672   1.566   2.483
 1113SOL     OW 4237   6.181   3.903   1.431
 1113SOL    HW1 4238   6.095   3.955   1.429
 1113SOL    HW2 4239   6.219   3.898   1.338
 1114SOL     OW 4240   5.863   0.857   5.660
 1114SOL    HW1 4241   5.824   0.946   5.637
 1114SOL    HW2 4242   5.813   0.785   5.612
 1115SOL     OW 4243   2.389   4.655   0.851
 1115SOL    HW1 4244   2.476   4.702   0.831
 1115SOL    HW2 4245   2.400   4.557   0.837
 1116SOL     OW 4246   3.595   6.396   6.324
 1116SOL    HW1 4247   3.572   6.478   6.378
 1116SOL    HW2 4248   3.690   6.370   6.341
 1117SOL     OW 4249   2.602   2.969   0.810
 1117SOL    HW1 4250   2.653   2.884   0.801
 1117SOL    HW2 4251   2.522   2.967   0.751
 1118SOL     OW 4252   1.759   3.201   1.776
 1118SOL    HW1 4253   1.754   3.295   1.810
 1118SOL    HW2 4254   1.798   3.201   1.684
 1119SOL     OW 4255   2.950   3.295   3.042
 1119SOL    HW1 4256   3.045   3.300   3.071
 1119SOL    HW2 4257   2.913   3.204   3.064
 1120SOL     OW 4258   4.543   0.930   4.104
 1120SOL    HW1 4259   4.624   0.871   4.103
 1120SOL    HW2 4260   4.493   0.917   4.190
 1121SOL     OW 4261   5.361   3.109   2.933
 1121SOL    HW1 4262   5.402   3.158   3.010
 1121SOL    HW2 4263   5.297   3.041   2.968
 1122SOL     OW 4264   4.535   5.297   6.485
 1122SOL    HW1 4265   4.628   5.272   6.457
 1122SOL    HW2 4266   4.491   5.345   6.409
 1123SOL     OW 4267   3.997   1.345   1.683
 1123SOL    HW1 4268   4.084   1.298   1.698
 1123SOL    HW2 4269   3.925   1.297   1.734
 1124SOL     OW 4270   1.544   5.057   4.365
 1124SOL    HW1 4271   1.550   5.116   4.446
 1124SOL    HW2 4272   1.634   5.049   4.324
 1125SOL     OW 4273   2.961   3.359   4.891
 1125SOL    HW1 4274   2.865   3.353   4.915
 1125SOL    HW2 4275   3.011   3.282   4.931
 1126SOL     OW 4276   6.125   0.412   2.461
 1126SOL    HW1 4277   6.184   0.378   2.533
 1126SOL    HW2 4278   6.151   0.507   2.439
 1127SOL     OW 4279   2.016   5.716   6.402
 1127SOL    HW1 4280   1.974   5.777   6.470
 1127SOL    HW2 4281   2.061   5.640   6.450
 1128SOL     OW 4282   2.282   2.153   4.295
 1128SOL    HW1 4283   2.368   2.151   4.347
 1128SOL    HW2 4284   2.205   2.137   4.357
 1129SOL     OW 4285   4.669   6.739   6.219
 1129SOL    HW1 4286   4.585   6.765   6.170
 1129SOL    HW2 4287   4.739   6.808   6.205
 1130SOL     OW 4288   0.424   5.957   5.636
 1130SOL    HW1 4289   0.488   5.911   5.575
 1130SOL    HW2 4290   0.395   6.043   5.596
 1131SOL     OW 4291   0.458   5.403   5.653
 1131SOL    HW1 4292   0.515   5.323   5.638
 1131SOL    HW2 4293   0.364   5.383   5.625
 1132SOL     OW 4294   5.804   6.664   4.995
 1132SOL    HW1 4295   5.745   6.680   5.074
 1132SOL    HW2 4296   5.756   6.689   4.911
 1133SOL     OW 4297   6.944   2.787   6.367
 1133SOL    HW1 4298   6.920   2.787   6.464
 1133SOL    HW2 4299   7.000   2.706   6.347
 1134SOL     OW 4300   6.947   2.594   5.801
 1134SOL    HW1 4301   0.012   2.637   5.803
 1134SOL    HW2 4302   6.953   2.501   5.836
 1135SOL     OW 4303   6.229   1.817   4.464
 1135SOL    HW1 4304   6.211   1.878   4.542
 1135SOL    HW2 4305   6.326   1.793   4.462
 1136SOL     OW 4306   3.544   5.164   4.067
 1136SOL    HW1 4307   3.480   5.237   4.044
 1136SOL    HW2 4308   3.558   5.161   4.166
 1137SOL     OW 4309   1.489   0.988   6.332
 1137SOL    HW1 4310   1.505   1.031   6.421
 1137SOL    HW2 4311   1.576   0.969   6.288
 1138SOL     OW 4312   1.022   4.047   5.728
 1138SOL    HW1 4313   0.939   4.098   5.749
 1138SOL    HW2 4314   1.017   3.956   5.768
 1139SOL     OW 4315   0.706   6.726   2.231
 1139SOL    HW1 4316   0.724   6.630   2.209
 1139SOL    HW2 4317   0.660   6.770   2.154
 1140SOL     OW 4318   3.733   2.105   3.008
 1140SOL    HW1 4319   3.831   2.095   3.021
 1140SOL    HW2 4320   3.690   2.128   3.095
 1141SOL     OW 4321   6.956   6.049   6.031
 1141SOL    HW1 4322   6.863   6.014   6.016
 1141SOL    HW2 4323   6.954   6.120   6.101
 1142SOL     OW 4324   6.571   0.770   4.584
 1142SOL    HW1 4325   6.641   0.752   4.654
 1142SOL    HW2 4326   6.482   0.777   4.627
 1143SOL     OW 4327   4.742   1.623   1.769
 1143SOL    HW1 4328   4.699   1.710   1.795
 1143SOL    HW2 4329   4.696   1.586   1.688
 1144SOL     OW 4330   1.039   0.025   5.176
 1144SOL    HW1 4331   1.026   0.045   5.273
 1144SOL    HW2 4332   1.095   0.097   5.134
 1145SOL     OW 4333   1.963   4.552   4.765
 1145SOL    HW1 4334   1.903   4.629   4.744
 1145SOL    HW2 4335   1.924   4.498   4.839
 1146SOL     OW 4336   5.857   1.746   0.934
 1146SOL    HW1 4337   5.798   1.806   0.879
 1146SOL    HW2 4338   5.947   1.788   0.944
 1147SOL     OW 4339   6.582   3.473   2.205
 1147SOL    HW1 4340   6.514   3.496   2.136
 1147SOL    HW2 4341   6.671   3.509   2.178
 1148SOL     OW 4342   5.409   1.201   6.837
 1148SOL    HW1 4343   5.493   1.159   6.872
 1148SOL    HW2 4344   5.386   1.280   6.895
 1149SOL     OW 4345   5.726   2.310   3.024
 1149SOL    HW1 4346   5.653   2.310   3.092
 1149SOL    HW2 4347   5.760   2.217   3.011
 1150SOL     OW 4348   1.215   5.301   5.630
 1150SOL    HW1 4349   1.288   5.313   5.697
 1150SOL    HW2 4350   1.246   5.333   5.540
 1151SOL     OW 4351   2.640   5.133   0.462
 1151SOL    HW1 4352   2.699   5.096   0.535
 1151SOL    HW2 4353   2.679   5.110   0.373
 1152SOL     OW 4354   0.820   0.766   4.152
 1152SOL    HW1 4355   0.846   0.820   4.232
 1152SOL    HW2 4356   0.738   0.713   4.173
 1153SOL     OW 4357   2.482   4.640   2.543
 1153SOL    HW1 4358   2.479   4.666   2.447
 1153SOL    HW2 4359   2.566   4.675   2.585
 1154SOL     OW 4360   1.952   4.195   2.215
 1154SOL    HW1 4361   1.919   4.101   2.207
 1154SOL    HW2 4362   1.960   4.236   2.124
 1155SOL     OW 4363   4.173   6.822   2.656
 1155SOL    HW1 4364   4.135   6.911   2.682
 1155SOL    HW2 4365   4.141   6.798   2.565
 1156SOL     OW 4366   1.735   1.426   3.968
 1156SOL    HW1 4367   1.677   1.430   3.887
 1156SOL    HW2 4368   1.680   1.445   4.049
 1157SOL     OW 4369   1.470   2.959   4.282
 1157SOL    HW1 4370   1.386   2.904   4.281
 1157SOL    HW2 4371   1.544   2.906   4.322
 1158SOL     OW 4372   4.457   6.081   6.478
 1158SOL    HW1 4373   4.501   6.015   6.539
 1158SOL    HW2 4374   4.457   6.045   6.385
 1159SOL     OW 4375   5.861   4.679   2.524
 1159SOL    HW1 4376   5.882   4.770   2.559
 1159SOL    HW2 4377   5.852   4.683   2.424
 1160SOL     OW 4378   3.089   3.097   1.333
 1160SOL    HW1 4379   3.098   3.005   1.295
 1160SOL    HW2 4380   3.109   3.165   1.262
 1161SOL     OW 4381   4.453   0.549   4.045
 1161SOL    HW1 4382   4.486   0.594   3.961
 1161SOL    HW2 4383   4.379   0.603   4.085
 1162SOL     OW 4384   4.184   5.122   1.412
 1162SOL    HW1 4385   4.182   5.146   1.509
 1162SOL    HW2 4386   4.090   5.119   1.376
 1163SOL     OW 4387   5.047   0.508   2.374
 1163SOL    HW1 4388   5.079   0.472   2.286
 1163SOL    HW2 4389   5.120   0.500   2.441
 1164SOL     OW 4390   6.081   3.638   3.911
 1164SOL    HW1 4391   6.057   3.735   3.905
 1164SOL    HW2 4392   6.178   3.626   3.894
 1165SOL     OW 4393   1.130   4.647   2.606
 1165SOL    HW1 4394   1.084   4.575   2.555
 1165SOL    HW2 4395   1.229   4.630   2.607
 1166SOL     OW 4396   3.182   2.087   6.668
 1166SOL    HW1 4397   3.131   2.005   6.643
 1166SOL    HW2 4398   3.240   2.115   6.592
 1167SOL     OW 4399   3.867   1.582   5.282
 1167SOL    HW1 4400   3.838   1.677   5.275
 1167SOL    HW2 4401   3.898   1.549   5.193
 1168SOL     OW 4402   6.096   0.042   3.369
 1168SOL    HW1 4403   6.106   0.056   3.468
 1168SOL    HW2 4404   6.005   0.006   3.349
 1169SOL     OW 4405   0.761   3.276   1.446
 1169SOL    HW1 4406   0.766   3.215   1.366
 1169SOL    HW2 4407   0.709   3.358   1.423
 1170SOL     OW 4408   3.207   0.437   1.184
 1170SOL    HW1 4409   3.135   0.483   1.236
 1170SOL    HW2 4410   3.204   0.467   1.088
 1171SOL     OW 4411   2.932   0.465   0.250
 1171SOL    HW1 4412   3.019   0.423   0.277
 1171SOL    HW2 4413   2.917   0.548   0.304
 1172SOL     OW 4414   3.408   3.524   5.087
 1172SOL    HW1 4415   3.384   3.596   5.153
 1172SOL    HW2 4416   3.371   3.436   5.119
 1173SOL     OW 4417   5.210   7.011   6.478
 1173SOL    HW1 4418   5.296   6.993   6.526
 1173SOL    HW2 4419   5.219   6.984   6.382
 1174SOL     OW 4420   3.550   6.022   6.857
 1174SOL    HW1 4421   3.536   5.959   6.934
 1174SOL    HW2 4422   3.537   5.972   6.771
 1175SOL     OW 4423   0.095   5.039   4.735
 1175SOL    HW1 4424   0.016   5.090   4.700
 1175SOL    HW2 4425   0.154   5.013   4.658
 1176SOL     OW 4426   6.489   2.905   0.961
 1176SOL    HW1 4427   6.462   2.985   1.015
 1176SOL    HW2 4428   6.493   2.930   0.864
 1177SOL     OW 4429   5.595   3.356   0.122
 1177SOL    HW1 4430   5.625   3.323   0.212
 1177SOL    HW2 4431   5.624   3.450   0.110
 1178SOL     OW 4432   5.484   4.240   2.528
 1178SOL    HW1 4433   5.465   4.201   2.438
 1178SOL    HW2 4434   5.559   4.305   2.521
 1179SOL     OW 4435   1.974   5.848   6.005
 1179SOL    HW1 4436   2.068   5.816   6.007
 1179SOL    HW2 4437   1.912   5.770   6.013
 1180SOL     OW 4438   1.874   0.823   3.777
 1180SOL    HW1 4439   1.959   0.825   3.830
 1180SOL    HW2 4440   1.890   0.862   3.687
 1181SOL     OW 4441   1.685   4.274   2.448
 1181SOL    HW1 4442   1.784   4.258   2.441
 1181SOL    HW2 4443   1.660   4.284   2.544
 1182SOL     OW 4444   1.108   3.789   4.337
 1182SOL    HW1 4445   1.071   3.879   4.360
 1182SOL    HW2 4446   1.045   3.742   4.275
 1183SOL     OW 4447   4.495   6.195   0.915
 1183SOL    HW1 4448   4.535   6.235   0.998
 1183SOL    HW2 4449   4.395   6.203   0.919
 1184SOL     OW 4450   3.354   3.087   6.093
 1184SOL    HW1 4451   3.355   3.169   6.036
 1184SOL    HW2 4452   3.297   3.017   6.051
 1185SOL     OW 4453   2.547   1.303   6.444
 1185SOL    HW1 4454   2.637   1.260   6.433
 1185SOL    HW2 4455   2.553   1.375   6.513
 1186SOL     OW 4456   3.739   0.786   5.156
 1186SOL    HW1 4457   3.657   0.835   5.185
 1186SOL    HW2 4458   3.815   0.850   5.150
 1187SOL     OW 4459   0.724   2.144   5.051
 1187SOL    HW1 4460   0.632   2.177   5.031
 1187SOL    HW2 4461   0.755   2.184   5.137
 1188SOL     OW 4462   1.373   0.692   4.963
 1188SOL    HW1 4463   1.323   0.778   4.963
 1188SOL    HW2 4464   1.458   0.703   5.015
 1189SOL     OW 4465   0.134   1.215   1.502
 1189SOL    HW1 4466   0.191   1.184   1.578
 1189SOL    HW2 4467   0.097   1.136   1.453
 1190SOL     OW 4468   4.456   5.209   2.367
 1190SOL    HW1 4469   4.518   5.173   2.297
 1190SOL    HW2 4470   4.510   5.245   2.443
 1191SOL     OW 4471   2.685   4.477   1.369
 1191SOL    HW1 4472   2.668   4.479   1.467
 1191SOL    HW2 4473   2.660   4.565   1.329
 1192SOL     OW 4474   4.442   5.110   2.658
 1192SOL    HW1 4475   4.508   5.184   2.654
 1192SOL    HW2 4476   4.465   5.041   2.590
 1193SOL     OW 4477   3.880   6.836   4.401
 1193SOL    HW1 4478   3.948   6.908   4.416
 1193SOL    HW2 4479   3.833   6.853   4.314
 1194SOL     OW 4480   5.706   1.591   1.539
 1194SOL    HW1 4481   5.750   1.595   1.629
 1194SOL    HW2 4482   5.738   1.668   1.484
 1195SOL     OW 4483   3.253   6.488   0.269
 1195SOL    HW1 4484   3.183   6.546   0.311
 1195SOL    HW2 4485   3.343   6.526   0.289
 1196SOL     OW 4486   1.390   5.233   3.403
 1196SOL    HW1 4487   1.446   5.163   3.446
 1196SOL    HW2 4488   1.447   5.290   3.343
 1197SOL     OW 4489   3.291   5.046   0.004
 1197SOL    HW1 4490   3.238   5.130   0.018
 1197SOL    HW2 4491   3.246   4.989   6.961
 1198SOL     OW 4492   3.267   1.072   2.421
 1198SOL    HW1 4493   3.312   1.084   2.333
 1198SOL    HW2 4494   3.318   1.005   2.476
 1199SOL     OW 4495   3.310   3.647   4.067
 1199SOL    HW1 4496   3.250   3.632   3.988
 1199SOL    HW2 4497   3.400   3.677   4.035
 1200SOL     OW 4498   4.593   3.440   1.137
 1200SOL    HW1 4499   4.579   3.366   1.203
 1200SOL    HW2 4500   4.658   3.506   1.175
 1201SOL     OW 4501   1.564   1.578   4.988
 1201SOL    HW1 4502   1.475   1.580   4.942
 1201SOL    HW2 4503   1.562   1.509   5.060
 1202SOL     OW 4504   6.412   0.323   4.891
 1202SOL    HW1 4505   6.313   0.336   4.881
 1202SOL    HW2 4506   6.448   0.392   4.955
 1203SOL     OW 4507   6.433   6.376   1.897
 1203SOL    HW1 4508   6.474   6.449   1.843
 1203SOL    HW2 4509   6.340   6.402   1.923
 1204SOL     OW 4510   1.588   6.977   0.193
 1204SOL    HW1 4511   1.528   7.007   0.268
 1204SOL    HW2 4512   1.613   6.881   0.206
 1205SOL     OW 4513   0.479   3.228   5.453
 1205SOL    HW1 4514   0.391   3.247   5.497
 1205SOL    HW2 4515   0.491   3.129   5.443
 1206SOL     OW 4516   0.162   2.081   4.501
 1206SOL    HW1 4517   0.131   2.038   4.586
 1206SOL    HW2 4518   0.192   2.011   4.437
 1207SOL     OW 4519   6.157   6.501   6.885
 1207SOL    HW1 4520   6.177   6.568   6.814
 1207SOL    HW2 4521   6.123   6.549   6.966
 1208SOL     OW 4522   3.643   3.602   2.913
 1208SOL    HW1 4523   3.654   3.629   2.817
 1208SOL    HW2 4524   3.662   3.680   2.972
 1209SOL     OW 4525   6.614   4.557   5.037
 1209SOL    HW1 4526   6.637   4.503   4.956
 1209SOL    HW2 4527   6.595   4.495   5.114
 1210SOL     OW 4528   2.532   7.010   2.831
 1210SOL    HW1 4529   2.517   0.082   2.806
 1210SOL    HW2 4530   2.471   6.953   2.775
 1211SOL     OW 4531   1.003   2.898   2.912
 1211SOL    HW1 4532   1.096   2.936   2.906
 1211SOL    HW2 4533   0.997   2.817   2.854
 1212SOL     OW 4534   0.848   4.790   3.603
 1212SOL    HW1 4535   0.875   4.838   3.686
 1212SOL    HW2 4536   0.798   4.706   3.627
 1213SOL     OW 4537   5.667   3.368   5.066
 1213SOL    HW1 4538   5.668   3.467   5.055
 1213SOL    HW2 4539   5.685   3.345   5.161
 1214SOL     OW 4540   1.554   2.081   1.518
 1214SOL    HW1 4541   1.615   2.003   1.534
 1214SOL    HW2 4542   1.608   2.161   1.493
 1215SOL     OW 4543   0.137   5.386   1.944
 1215SOL    HW1 4544   0.071   5.397   2.019
 1215SOL    HW2 4545   0.112   5.306   1.889
 1216SOL     OW 4546   2.666   0.105   1.621
 1216SOL    HW1 4547   2.737   0.047   1.662
 1216SOL    HW2 4548   2.581   0.093   1.672
 1217SOL     OW 4549   2.302   2.314   2.856
 1217SOL    HW1 4550   2.243   2.285   2.931
 1217SOL    HW2 4551   2.250   2.370   2.792
 1218SOL     OW 4552   0.566   3.202   3.464
 1218SOL    HW1 4553   0.483   3.155   3.437
 1218SOL    HW2 4554   0.611   3.241   3.384
 1219SOL     OW 4555   2.588   5.405   3.528
 1219SOL    HW1 4556   2.507   5.356   3.496
 1219SOL    HW2 4557   2.576   5.503   3.510
 1220SOL     OW 4558   6.240   4.654   2.366
 1220SOL    HW1 4559   6.196   4.689   2.449
 1220SOL    HW2 4560   6.339   4.651   2.380
 1221SOL     OW 4561   4.924   4.695   6.139
 1221SOL    HW1 4562   4.941   4.607   6.095
 1221SOL    HW2 4563   4.921   4.767   6.070
 1222SOL     OW 4564   6.208   4.580   1.346
 1222SOL    HW1 4565   6.307   4.584   1.331
 1222SOL    HW2 4566   6.164   4.653   1.293
 1223SOL     OW 4567   6.909   5.326   5.302
 1223SOL    HW1 4568   6.905   5.234   5.340
 1223SOL    HW2 4569   6.835   5.339   5.237
 1224SOL     OW 4570   4.400   4.928   1.231
 1224SOL    HW1 4571   4.359   5.003   1.281
 1224SOL    HW2 4572   4.418   4.957   1.136
 1225SOL     OW 4573   3.776   1.888   6.702
 1225SOL    HW1 4574   3.786   1.941   6.617
 1225SOL    HW2 4575   3.855   1.905   6.761
 1226SOL     OW 4576   5.747   5.485   0.997
 1226SOL    HW1 4577   5.711   5.551   0.931
 1226SOL    HW2 4578   5.699   5.495   1.084
 1227SOL     OW 4579   4.873   4.917   6.682
 1227SOL    HW1 4580   4.893   4.963   6.768
 1227SOL    HW2 4581   4.780   4.881   6.683
 1228SOL     OW 4582   3.575   4.185   4.142
 1228SOL    HW1 4583   3.587   4.278   4.176
 1228SOL    HW2 4584   3.615   4.120   4.207
 1229SOL     OW 4585   2.443   5.365   3.157
 1229SOL    HW1 4586   2.436   5.346   3.255
 1229SOL    HW2 4587   2.374   5.432   3.131
 1230SOL     OW 4588   4.605   5.509   1.187
 1230SOL    HW1 4589   4.572   5.469   1.102
 1230SOL    HW2 4590   4.578   5.450   1.264
 1231SOL     OW 4591   2.367   1.370   6.979
 1231SOL    HW1 4592   2.325   1.460   6.975
 1231SOL    HW2 4593   2.307   1.303   6.935
 1232SOL     OW 4594   3.110   1.297   5.148
 1232SOL    HW1 4595   3.069   1.312   5.058
 1232SOL    HW2 4596   3.086   1.374   5.208
 1233SOL     OW 4597   0.019   5.370   4.756
 1233SOL    HW1 4598   0.066   5.353   4.669
 1233SOL    HW2 4599   0.000   5.282   4.801
 1234SOL     OW 4600   6.183   4.616   6.954
 1234SOL    HW1 4601   6.220   4.668   0.006
 1234SOL    HW2 4602   6.219   4.653   6.869
 1235SOL     OW 4603   5.941   4.757   1.064
 1235SOL    HW1 4604   5.942   4.837   1.125
 1235SOL    HW2 4605   6.033   4.743   1.027
 1236SOL     OW 4606   1.168   1.161   2.702
 1236SOL    HW1 4607   1.198   1.256   2.709
 1236SOL    HW2 4608   1.216   1.106   2.771
 1237SOL     OW 4609   1.086   0.048   4.449
 1237SOL    HW1 4610   0.995   0.082   4.473
 1237SOL    HW2 4611   1.155   0.115   4.478
 1238SOL     OW 4612   0.737   0.348   4.282
 1238SOL    HW1 4613   0.731   0.254   4.249
 1238SOL    HW2 4614   0.824   0.388   4.252
 1239SOL     OW 4615   4.837   4.418   3.991
 1239SOL    HW1 4616   4.869   4.458   4.077
 1239SOL    HW2 4617   4.872   4.472   3.915
 1240SOL     OW 4618   0.302   3.567   0.679
 1240SOL    HW1 4619   0.396   3.586   0.649
 1240SOL    HW2 4620   0.273   3.478   0.644
 1241SOL     OW 4621   3.994   5.533   6.264
 1241SOL    HW1 4622   4.048   5.454   6.233
 1241SOL    HW2 4623   3.925   5.555   6.195
 1242SOL     OW 4624   1.993   5.152   0.505
 1242SOL    HW1 4625   2.040   5.156   0.417
 1242SOL    HW2 4626   1.970   5.245   0.534
 1243SOL     OW 4627   1.195   3.722   3.530
 1243SOL    HW1 4628   1.282   3.685   3.563
 1243SOL    HW2 4629   1.162   3.666   3.454
 1244SOL     OW 4630   6.329   0.043   5.001
 1244SOL    HW1 4631   6.315   0.087   5.089
 1244SOL    HW2 4632   6.248   0.055   4.944
 1245SOL     OW 4633   4.370   6.750   1.365
 1245SOL    HW1 4634   4.398   6.772   1.272
 1245SOL    HW2 4635   4.270   6.756   1.372
 1246SOL     OW 4636   5.723   1.815   1.370
 1246SOL    HW1 4637   5.670   1.892   1.404
 1246SOL    HW2 4638   5.795   1.849   1.309
 1247SOL     OW 4639   5.278   6.989   2.933
 1247SOL    HW1 4640   5.201   6.932   2.904
 1247SOL    HW2 4641   5.362   6.955   2.892
 1248SOL     OW 4642   0.759   6.480   4.450
 1248SOL    HW1 4643   0.674   6.476   4.502
 1248SOL    HW2 4644   0.758   6.560   4.390
 1249SOL     OW 4645   6.120   6.242   6.943
 1249SOL    HW1 4646   6.113   6.231   0.018
 1249SOL    HW2 4647   6.135   6.338   6.921
 1250SOL     OW 4648   0.579   4.606   4.698
 1250SOL    HW1 4649   0.554   4.511   4.715
 1250SOL    HW2 4650   0.531   4.640   4.617
 1251SOL     OW 4651   3.066   0.274   2.721
 1251SOL    HW1 4652   2.998   0.299   2.652
 1251SOL    HW2 4653   3.102   0.357   2.764
 1252SOL     OW 4654   2.777   5.266   6.657
 1252SOL    HW1 4655   2.830   5.295   6.736
 1252SOL    HW2 4656   2.759   5.345   6.598
 1253SOL     OW 4657   2.915   6.371   0.054
 1253SOL    HW1 4658   2.927   6.285   0.105
 1253SOL    HW2 4659   3.004   6.411   0.034
 1254SOL     OW 4660   6.173   1.516   3.840
 1254SOL    HW1 4661   6.175   1.482   3.747
 1254SOL    HW2 4662   6.162   1.616   3.839
 1255SOL     OW 4663   6.086   2.008   5.670
 1255SOL    HW1 4664   6.075   2.074   5.596
 1255SOL    HW2 4665   6.020   2.027   5.743
 1256SOL     OW 4666   0.409   5.782   5.013
 1256SOL    HW1 4667   0.505   5.809   5.017
 1256SOL    HW2 4668   0.371   5.780   5.106
 1257SOL     OW 4669   6.905   6.091   3.241
 1257SOL    HW1 4670   6.948   6.159   3.182
 1257SOL    HW2 4671   6.920   5.999   3.204
 1258SOL     OW 4672   4.625   5.910   6.598
 1258SOL    HW1 4673   4.562   5.859   6.656
 1258SOL    HW2 4674   4.719   5.897   6.631
 1259SOL     OW 4675   5.541   6.788   5.490
 1259SOL    HW1 4676   5.621   6.845   5.473
 1259SOL    HW2 4677   5.474   6.840   5.544
 1260SOL     OW 4678   3.078   1.572   0.674
 1260SOL    HW1 4679   3.031   1.488   0.648
 1260SOL    HW2 4680   3.136   1.554   0.754
 1261SOL     OW 4681   6.917   4.387   4.650
 1261SOL    HW1 4682   6.852   4.340   4.709
 1261SOL    HW2 4683   7.010   4.373   4.684
 1262SOL     OW 4684   4.029   5.739   1.870
 1262SOL    HW1 4685   4.032   5.787   1.957
 1262SOL    HW2 4686   4.022   5.640   1.886
 1263SOL     OW 4687   6.885   1.814   0.901
 1263SOL    HW1 4688   6.898   1.745   0.972
 1263SOL    HW2 4689   6.816   1.881   0.931
 1264SOL     OW 4690   6.139   2.638   4.584
 1264SOL    HW1 4691   6.209   2.699   4.547
 1264SOL    HW2 4692   6.059   2.692   4.611
 1265SOL     OW 4693   6.271   6.067   4.474
 1265SOL    HW1 4694   6.250   6.023   4.386
 1265SOL    HW2 4695   6.257   6.165   4.466
 1266SOL     OW 4696   3.108   0.786   3.867
 1266SOL    HW1 4697   3.120   0.882   3.890
 1266SOL    HW2 4698   3.133   0.772   3.771
 1267SOL     OW 4699   0.182   4.221   2.741
 1267SOL    HW1 4700   0.200   4.296   2.676
 1267SOL    HW2 4701   0.107   4.247   2.801
 1268SOL     OW 4702   5.995   4.421   6.755
 1268SOL    HW1 4703   5.984   4.410   6.854
 1268SOL    HW2 4704   6.069   4.486   6.737
 1269SOL     OW 4705   6.864   5.101   6.546
 1269SOL    HW1 4706   6.812   5.057   6.473
 1269SOL    HW2 4707   6.874   5.199   6.526
 1270SOL     OW 4708   1.305   1.978   4.134
 1270SOL    HW1 4709   1.356   2.039   4.194
 1270SOL    HW2 4710   1.244   2.031   4.076
 1271SOL     OW 4711   4.998   2.634   3.781
 1271SOL    HW1 4712   4.907   2.674   3.770
 1271SOL    HW2 4713   5.065   2.689   3.732
 1272SOL     OW 4714   6.287   6.277   0.856
 1272SOL    HW1 4715   6.252   6.184   0.867
 1272SOL    HW2 4716   6.378   6.283   0.897
 1273SOL     OW 4717   2.649   6.588   5.786
 1273SOL    HW1 4718   2.741   6.597   5.823
 1273SOL    HW2 4719   2.643   6.636   5.698
 1274SOL     OW 4720   5.960   1.999   2.773
 1274SOL    HW1 4721   5.894   1.961   2.708
 1274SOL    HW2 4722   6.051   2.000   2.731
 1275SOL     OW 4723   3.939   1.797   4.045
 1275SOL    HW1 4724   3.906   1.874   3.991
 1275SOL    HW2 4725   3.957   1.827   4.139
 1276SOL     OW 4726   6.505   6.851   2.512
 1276SOL    HW1 4727   6.455   6.878   2.594
 1276SOL    HW2 4728   6.495   6.752   2.498
 1277SOL     OW 4729   1.024   1.977   4.787
 1277SOL    HW1 4730   1.036   1.884   4.823
 1277SOL    HW2 4731   0.928   2.003   4.793
 1278SOL     OW 4732   3.171   1.050   5.655
 1278SOL    HW1 4733   3.124   0.999   5.728
 1278SOL    HW2 4734   3.237   1.113   5.696
 1279SOL     OW 4735   2.209   4.893   0.351
 1279SOL    HW1 4736   2.160   4.815   0.312
 1279SOL    HW2 4737   2.278   4.924   0.285
 1280SOL     OW 4738   1.881   5.571   2.621
 1280SOL    HW1 4739   1.890   5.478   2.657
 1280SOL    HW2 4740   1.967   5.619   2.632
 1281SOL     OW 4741   0.598   6.812   4.012
 1281SOL    HW1 4742   0.609   6.716   4.037
 1281SOL    HW2 4743   0.682   6.862   4.031
 1282SOL     OW 4744   1.258   6.885   2.366
 1282SOL    HW1 4745   1.354   6.911   2.380
 1282SOL    HW2 4746   1.221   6.846   2.450
 1283SOL     OW 4747   4.740   4.098   5.164
 1283SOL    HW1 4748   4.743   4.004   5.198
 1283SOL    HW2 4749   4.738   4.162   5.241
 1284SOL     OW 4750   2.745   2.061   2.941
 1284SOL    HW1 4751   2.818   2.012   2.892
 1284SOL    HW2 4752   2.776   2.081   3.034
 1285SOL     OW 4753   5.641   2.842   5.939
 1285SOL    HW1 4754   5.595   2.804   5.858
 1285SOL    HW2 4755   5.582   2.831   6.019
 1286SOL     OW 4756   6.137   6.379   1.651
 1286SOL    HW1 4757   6.052   6.373   1.598
 1286SOL    HW2 4758   6.173   6.287   1.666
 1287SOL     OW 4759   6.321   4.174   5.861
 1287SOL    HW1 4760   6.292   4.126   5.778
 1287SOL    HW2 4761   6.339   4.270   5.839
 1288SOL     OW 4762   6.527   2.580   3.760
 1288SOL    HW1 4763   6.558   2.675   3.754
 1288SOL    HW2 4764   6.529   2.551   3.856
 1289SOL     OW 4765   6.837   4.913   2.532
 1289SOL    HW1 4766   6.797   4.916   2.623
 1289SOL    HW2 4767   6.869   5.005   2.507
 1290SOL     OW 4768   0.558   0.322   1.076
 1290SOL    HW1 4769   0.653   0.296   1.060
 1290SOL    HW2 4770   0.536   0.403   1.022
 1291SOL     OW 4771   1.705   0.249   0.810
 1291SOL    HW1 4772   1.734   0.274   0.903
 1291SOL    HW2 4773   1.612   0.213   0.813
 1292SOL     OW 4774   0.849   5.791   6.515
 1292SOL    HW1 4775   0.808   5.772   6.604
 1292SOL    HW2 4776   0.947   5.771   6.519
 1293SOL     OW 4777   6.081   2.743   6.039
 1293SOL    HW1 4778   5.985   2.750   6.064
 1293SOL    HW2 4779   6.116   2.833   6.012
 1294SOL     OW 4780   0.417   1.761   3.423
 1294SOL    HW1 4781   0.401   1.819   3.503
 1294SOL    HW2 4782   0.500   1.707   3.439
 1295SOL     OW 4783   4.875   3.486   1.690
 1295SOL    HW1 4784   4.860   3.388   1.680
 1295SOL    HW2 4785   4.877   3.509   1.787
 1296SOL     OW 4786   3.752   2.151   0.194
 1296SOL    HW1 4787   3.653   2.165   0.194
 1296SOL    HW2 4788   3.793   2.204   0.268
 1297SOL     OW 4789   6.624   0.792   5.979
 1297SOL    HW1 4790   6.589   0.718   6.035
 1297SOL    HW2 4791   6.721   0.776   5.959
 1298SOL     OW 4792   6.680   2.583   3.287
 1298SOL    HW1 4793   6.756   2.519   3.272
 1298SOL    HW2 4794   6.613   2.574   3.213
 1299SOL     OW 4795   1.310   3.161   4.058
 1299SOL    HW1 4796   1.398   3.125   4.088
 1299SOL    HW2 4797   1.258   3.193   4.137
 1300SOL     OW 4798   3.871   3.569   1.957
 1300SOL    HW1 4799   3.959   3.593   1.997
 1300SOL    HW2 4800   3.874   3.476   1.920
 1301SOL     OW 4801   0.703   0.329   2.527
 1301SOL    HW1 4802   0.678   0.238   2.495
 1301SOL    HW2 4803   0.638   0.359   2.596
 1302SOL     OW 4804   2.737   5.857   5.335
 1302SOL    HW1 4805   2.654   5.909   5.350
 1302SOL    HW2 4806   2.772   5.823   5.422
 1303SOL     OW 4807   2.855   0.159   1.272
 1303SOL    HW1 4808   2.868   0.209   1.358
 1303SOL    HW2 4809   2.944   0.129   1.238
 1304SOL     OW 4810   3.604   1.070   6.448
 1304SOL    HW1 4811   3.607   1.048   6.350
 1304SOL    HW2 4812   3.665   1.008   6.497
 1305SOL     OW 4813   6.100   6.156   3.979
 1305SOL    HW1 4814   6.080   6.059   3.966
 1305SOL    HW2 4815   6.027   6.198   4.033
 1306SOL     OW 4816   1.374   4.814   4.679
 1306SOL    HW1 4817   1.280   4.837   4.653
 1306SOL    HW2 4818   1.432   4.813   4.598
 1307SOL     OW 4819   1.522   1.802   4.081
 1307SOL    HW1 4820   1.486   1.806   3.988
 1307SOL    HW2 4821   1.466   1.859   4.141
 1308SOL     OW 4822   4.527   6.379   3.251
 1308SOL    HW1 4823   4.582   6.461   3.238
 1308SOL    HW2 4824   4.551   6.310   3.182
 1309SOL     OW 4825   5.604   2.995   4.949
 1309SOL    HW1 4826   5.568   3.086   4.929
 1309SOL    HW2 4827   5.534   2.941   4.997
 1310SOL     OW 4828   5.537   3.637   5.280
 1310SOL    HW1 4829   5.580   3.721   5.314
 1310SOL    HW2 4830   5.449   3.624   5.325
 1311SOL     OW 4831   5.257   4.991   5.144
 1311SOL    HW1 4832   5.260   5.091   5.141
 1311SOL    HW2 4833   5.351   4.955   5.151
 1312SOL     OW 4834   5.977   7.016   2.268
 1312SOL    HW1 4835   6.029   0.046   2.333
 1312SOL    HW2 4836   5.975   6.921   2.297
 1313SOL     OW 4837   3.197   5.077   4.746
 1313SOL    HW1 4838   3.166   5.169   4.769
 1313SOL    HW2 4839   3.278   5.083   4.688
 1314SOL     OW 4840   6.055   1.744   5.591
 1314SOL    HW1 4841   6.086   1.838   5.602
 1314SOL    HW2 4842   6.089   1.688   5.667
 1315SOL     OW 4843   2.583   6.883   3.342
 1315SOL    HW1 4844   2.525   6.819   3.292
 1315SOL    HW2 4845   2.526   6.950   3.389
 1316SOL     OW 4846   3.570   6.441   2.928
 1316SOL    HW1 4847   3.511   6.367   2.959
 1316SOL    HW2 4848   3.581   6.508   3.002
 1317SOL     OW 4849   0.363   3.390   4.193
 1317SOL    HW1 4850   0.381   3.401   4.291
 1317SOL    HW2 4851   0.291   3.322   4.180
 1318SOL     OW 4852   0.821   6.325   1.303
 1318SOL    HW1 4853   0.822   6.411   1.251
 1318SOL    HW2 4854   0.839   6.345   1.400
 1319SOL     OW 4855   6.692   0.404   0.251
 1319SOL    HW1 4856   6.660   0.351   0.172
 1319SOL    HW2 4857   6.624   0.400   0.324
 1320SOL     OW 4858   5.407   6.093   5.198
 1320SOL    HW1 4859   5.435   6.063   5.107
 1320SOL    HW2 4860   5.340   6.029   5.235
 1321SOL     OW 4861   3.077   1.614   6.597
 1321SOL    HW1 4862   3.142   1.542   6.571
 1321SOL    HW2 4863   3.114   1.664   6.676
 1322SOL     OW 4864   5.126   1.796   6.053
 1322SOL    HW1 4865   5.196   1.816   5.985
 1322SOL    HW2 4866   5.098   1.881   6.098
 1323SOL     OW 4867   6.106   1.320   4.352
 1323SOL    HW1 4868   6.155   1.238   4.381
 1323SOL    HW2 4869   6.134   1.398   4.408
 1324SOL     OW 4870   1.308   3.378   6.914
 1324SOL    HW1 4871   1.325   3.424   6.826
 1324SOL    HW2 4872   1.231   3.423   6.959
 1325SOL     OW 4873   4.155   5.258   3.800
 1325SOL    HW1 4874   4.125   5.225   3.710
 1325SOL    HW2 4875   4.211   5.340   3.788
 1326SOL     OW 4876   5.154   3.987   4.384
 1326SOL    HW1 4877   5.094   3.967   4.462
 1326SOL    HW2 4878   5.122   4.070   4.338
 1327SOL     OW 4879   3.127   5.993   4.194
 1327SOL    HW1 4880   3.215   5.947   4.208
 1327SOL    HW2 4881   3.086   5.961   4.109
 1328SOL     OW 4882   2.152   1.545   0.639
 1328SOL    HW1 4883   2.228   1.608   0.652
 1328SOL    HW2 4884   2.068   1.597   0.623
 1329SOL     OW 4885   0.691   6.915   1.719
 1329SOL    HW1 4886   0.774   6.897   1.665
 1329SOL    HW2 4887   0.692   6.858   1.801
 1330SOL     OW 4888   4.660   6.429   1.041
 1330SOL    HW1 4889   4.621   6.446   0.951
 1330SOL    HW2 4890   4.732   6.361   1.034
 1331SOL     OW 4891   6.864   1.607   2.182
 1331SOL    HW1 4892   6.885   1.701   2.155
 1331SOL    HW2 4893   6.941   1.547   2.158
 1332SOL     OW 4894   4.132   2.122   1.062
 1332SOL    HW1 4895   4.124   2.033   1.109
 1332SOL    HW2 4896   4.189   2.111   0.981
 1333SOL     OW 4897   4.052   3.870   4.372
 1333SOL    HW1 4898   4.069   3.775   4.397
 1333SOL    HW2 4899   4.043   3.926   4.455
 1334SOL     OW 4900   0.229   3.730   3.915
 1334SOL    HW1 4901   0.316   3.705   3.871
 1334SOL    HW2 4902   0.163   3.757   3.845
 1335SOL     OW 4903   2.674   5.442   1.933
 1335SOL    HW1 4904   2.754   5.418   1.879
 1335SOL    HW2 4905   2.664   5.379   2.010
 1336SOL     OW 4906   0.478   1.010   4.849
 1336SOL    HW1 4907   0.530   1.011   4.934
 1336SOL    HW2 4908   0.382   0.990   4.868
 1337SOL     OW 4909   3.482   0.634   6.756
 1337SOL    HW1 4910   3.527   0.689   6.825
 1337SOL    HW2 4911   3.498   0.537   6.775
 1338SOL     OW 4912   3.426   5.663   1.283
 1338SOL    HW1 4913   3.468   5.642   1.371
 1338SOL    HW2 4914   3.392   5.579   1.241
 1339SOL     OW 4915   0.195   4.645   6.655
 1339SOL    HW1 4916   0.201   4.562   6.599
 1339SOL    HW2 4917   0.107   4.689   6.640
 1340SOL     OW 4918   1.880   1.007   6.443
 1340SOL    HW1 4919   1.851   1.077   6.508
 1340SOL    HW2 4920   1.801   0.954   6.413
 1341SOL     OW 4921   6.071   2.712   3.937
 1341SOL    HW1 4922   6.015   2.637   3.972
 1341SOL    HW2 4923   6.165   2.702   3.969
 1342SOL     OW 4924   0.528   6.395   1.913
 1342SOL    HW1 4925   0.609   6.346   1.944
 1342SOL    HW2 4926   0.544   6.430   1.821
 1343SOL     OW 4927   3.152   5.781   3.889
 1343SOL    HW1 4928   3.122   5.815   3.978
 1343SOL    HW2 4929   3.104   5.696   3.868
 1344SOL     OW 4930   5.117   1.161   3.090
 1344SOL    HW1 4931   5.097   1.190   3.184
 1344SOL    HW2 4932   5.155   1.238   3.039
 1345SOL     OW 4933   1.077   6.007   3.003
 1345SOL    HW1 4934   1.070   5.973   3.097
 1345SOL    HW2 4935   1.163   5.976   2.963
 1346SOL     OW 4936   0.479   1.050   3.831
 1346SOL    HW1 4937   0.546   1.027   3.902
 1346SOL    HW2 4938   0.455   1.147   3.838
 1347SOL     OW 4939   4.968   0.375   3.619
 1347SOL    HW1 4940   5.027   0.366   3.539
 1347SOL    HW2 4941   4.926   0.286   3.641
 1348SOL     OW 4942   4.661   5.991   4.482
 1348SOL    HW1 4943   4.724   6.068   4.495
 1348SOL    HW2 4944   4.706   5.921   4.426
 1349SOL     OW 4945   4.600   2.376   0.111
 1349SOL    HW1 4946   4.644   2.393   0.199
 1349SOL    HW2 4947   4.587   2.462   0.063
 1350SOL     OW 4948   3.510   0.517   4.982
 1350SOL    HW1 4949   3.600   0.542   4.948
 1350SOL    HW2 4950   3.503   0.540   5.079
 1351SOL     OW 4951   1.025   1.591   4.295
 1351SOL    HW1 4952   1.002   1.521   4.362
 1351SOL    HW2 4953   1.098   1.649   4.331
 1352SOL     OW 4954   0.668   6.513   4.070
 1352SOL    HW1 4955   0.687   6.479   3.978
 1352SOL    HW2 4956   0.748   6.500   4.128
 1353SOL     OW 4957   2.249   2.701   5.146
 1353SOL    HW1 4958   2.184   2.625   5.140
 1353SOL    HW2 4959   2.252   2.751   5.060
 1354SOL     OW 4960   0.432   0.163   0.539
 1354SOL    HW1 4961   0.345   0.114   0.543
 1354SOL    HW2 4962   0.422   0.252   0.585
 1355SOL     OW 4963   3.868   3.201   6.816
 1355SOL    HW1 4964   3.910   3.284   6.778
 1355SOL    HW2 4965   3.771   3.201   6.795
 1356SOL     OW 4966   3.198   2.802   1.973
 1356SOL    HW1 4967   3.175   2.719   2.024
 1356SOL    HW2 4968   3.139   2.808   1.892
 1357SOL     OW 4969   2.889   2.920   5.718
 1357SOL    HW1 4970   2.883   3.011   5.675
 1357SOL    HW2 4971   2.805   2.901   5.768
 1358SOL     OW 4972   1.874   3.791   5.887
 1358SOL    HW1 4973   1.782   3.827   5.874
 1358SOL    HW2 4974   1.932   3.861   5.929
 1359SOL     OW 4975   6.820   1.139   0.193
 1359SOL    HW1 4976   6.724   1.114   0.184
 1359SOL    HW2 4977   6.846   1.202   0.119
 1360SOL     OW 4978   3.437   2.881   3.799
 1360SOL    HW1 4979   3.503   2.888   3.874
 1360SOL    HW2 4980   3.344   2.891   3.835
 1361SOL     OW 4981   0.709   6.191   1.077
 1361SOL    HW1 4982   0.655   6.268   1.111
 1361SOL    HW2 4983   0.797   6.188   1.126
 1362SOL     OW 4984   3.025   1.871   6.559
 1362SOL    HW1 4985   2.975   1.900   6.641
 1362SOL    HW2 4986   3.022   1.771   6.553
 1363SOL     OW 4987   6.682   6.797   1.063
 1363SOL    HW1 4988   6.695   6.852   0.980
 1363SOL    HW2 4989   6.772   6.769   1.098
 1364SOL     OW 4990   1.257   3.781   1.004
 1364SOL    HW1 4991   1.266   3.730   0.917
 1364SOL    HW2 4992   1.342   3.828   1.024
 1365SOL     OW 4993   0.883   3.790   5.438
 1365SOL    HW1 4994   0.822   3.859   5.399
 1365SOL    HW2 4995   0.973   3.830   5.454
 1366SOL     OW 4996   3.687   0.957   1.444
 1366SOL    HW1 4997   3.708   1.045   1.488
 1366SOL    HW2 4998   3.773   0.909   1.425
 1367SOL     OW 4999   1.665   6.829   4.809
 1367SOL    HW1 5000   1.710   6.748   4.773
 1367SOL    HW2 5001   1.732   6.902   4.823
 1368SOL     OW 5002   1.843   6.472   4.724
 1368SOL    HW1 5003   1.891   6.482   4.811
 1368SOL    HW2 5004   1.744   6.475   4.739
 1369SOL     OW 5005   2.438   5.534   3.815
 1369SOL    HW1 5006   2.403   5.443   3.792
 1369SOL    HW2 5007   2.497   5.527   3.896
 1370SOL     OW 5008   6.810   2.521   2.966
 1370SOL    HW1 5009   6.719   2.539   3.002
 1370SOL    HW2 5010   6.838   2.428   2.992
 1371SOL     OW 5011   6.110   2.448   5.606
 1371SOL    HW1 5012   6.156   2.512   5.544
 1371SOL    HW2 5013   6.095   2.361   5.560
 1372SOL     OW 5014   5.977   2.860   1.345
 1372SOL    HW1 5015   5.958   2.951   1.381
 1372SOL    HW2 5016   6.008   2.801   1.420
 1373SOL     OW 5017   5.873   3.208   2.002
 1373SOL    HW1 5018   5.935   3.222   1.925
 1373SOL    HW2 5019   5.781   3.189   1.968
 1374SOL     OW 5020   3.740   3.287   2.090
 1374SOL    HW1 5021   3.748   3.196   2.130
 1374SOL    HW2 5022   3.816   3.303   2.028
 1375SOL     OW 5023   5.304   4.354   4.610
 1375SOL    HW1 5024   5.272   4.433   4.661
 1375SOL    HW2 5025   5.349   4.290   4.672
 1376SOL     OW 5026   3.091   4.522   5.829
 1376SOL    HW1 5027   3.009   4.479   5.865
 1376SOL    HW2 5028   3.168   4.458   5.835
 1377SOL     OW 5029   2.086   1.727   2.730
 1377SOL    HW1 5030   1.997   1.767   2.707
 1377SOL    HW2 5031   2.150   1.742   2.655
 1378SOL     OW 5032   5.555   2.401   4.396
 1378SOL    HW1 5033   5.553   2.493   4.433
 1378SOL    HW2 5034   5.506   2.339   4.458
 1379SOL     OW 5035   4.394   5.686   0.023
 1379SOL    HW1 5036   4.445   5.666   6.964
 1379SOL    HW2 5037   4.321   5.618   0.035
 1380SOL     OW 5038   0.189   5.628   3.172
 1380SOL    HW1 5039   0.160   5.666   3.259
 1380SOL    HW2 5040   0.285   5.652   3.156
 1381SOL     OW 5041   6.356   2.554   6.152
 1381SOL    HW1 5042   6.449   2.524   6.131
 1381SOL    HW2 5043   6.359   2.637   6.208
 1382SOL     OW 5044   4.846   2.623   6.934
 1382SOL    HW1 5045   4.821   2.701   6.991
 1382SOL    HW2 5046   4.888   2.553   6.991
 1383SOL     OW 5047   6.865   0.423   0.738
 1383SOL    HW1 5048   6.833   0.411   0.832
 1383SOL    HW2 5049   6.839   0.514   0.705
 1384SOL     OW 5050   5.848   1.930   2.063
 1384SOL    HW1 5051   5.932   1.882   2.038
 1384SOL    HW2 5052   5.796   1.875   2.129
 1385SOL     OW 5053   0.447   6.177   1.403
 1385SOL    HW1 5054   0.455   6.255   1.466
 1385SOL    HW2 5055   0.419   6.209   1.313
 1386SOL     OW 5056   2.149   5.583   4.372
 1386SOL    HW1 5057   2.133   5.485   4.384
 1386SOL    HW2 5058   2.084   5.620   4.305
 1387SOL     OW 5059   2.226   5.771   1.510
 1387SOL    HW1 5060   2.196   5.688   1.557
 1387SOL    HW2 5061   2.308   5.807   1.555
 1388SOL     OW 5062   6.183   0.293   2.161
 1388SOL    HW1 5063   6.198   0.311   2.258
 1388SOL    HW2 5064   6.264   0.321   2.109
 1389SOL     OW 5065   5.929   0.930   2.528
 1389SOL    HW1 5066   6.026   0.947   2.546
 1389SOL    HW2 5067   5.907   0.835   2.550
 1390SOL     OW 5068   1.565   1.779   4.746
 1390SOL    HW1 5069   1.520   1.714   4.807
 1390SOL    HW2 5070   1.506   1.796   4.666
 1391SOL     OW 5071   0.313   3.006   3.365
 1391SOL    HW1 5072   0.351   2.917   3.342
 1391SOL    HW2 5073   0.229   3.022   3.312
 1392SOL     OW 5074   5.051   4.211   4.278
 1392SOL    HW1 5075   5.066   4.299   4.323
 1392SOL    HW2 5076   4.973   4.219   4.215
 1393SOL     OW 5077   3.429   5.651   6.532
 1393SOL    HW1 5078   3.382   5.594   6.599
 1393SOL    HW2 5079   3.503   5.599   6.489
 1394SOL     OW 5080   1.557   6.179   6.864
 1394SOL    HW1 5081   1.610   6.115   6.809
 1394SOL    HW2 5082   1.575   6.272   6.833
 1395SOL     OW 5083   3.817   4.961   5.832
 1395SOL    HW1 5084   3.815   4.997   5.739
 1395SOL    HW2 5085   3.912   4.943   5.859
 1396SOL     OW 5086   6.163   6.266   3.716
 1396SOL    HW1 5087   6.155   6.220   3.804
 1396SOL    HW2 5088   6.236   6.334   3.720
 1397SOL     OW 5089   4.472   6.277   5.598
 1397SOL    HW1 5090   4.435   6.189   5.628
 1397SOL    HW2 5091   4.543   6.262   5.530
 1398SOL     OW 5092   2.166   1.026   4.604
 1398SOL    HW1 5093   2.074   1.006   4.638
 1398SOL    HW2 5094   2.187   1.122   4.619
 1399SOL     OW 5095   3.008   6.118   2.318
 1399SOL    HW1 5096   3.075   6.045   2.301
 1399SOL    HW2 5097   3.000   6.175   2.237
 1400SOL     OW 5098   2.170   6.465   2.724
 1400SOL    HW1 5099   2.179   6.556   2.683
 1400SOL    HW2 5100   2.090   6.419   2.685
 1401SOL     OW 5101   6.694   1.641   4.261
 1401SOL    HW1 5102   6.672   1.546   4.241
 1401SOL    HW2 5103   6.785   1.663   4.225
 1402SOL     OW 5104   6.858   3.293   0.477
 1402SOL    HW1 5105   6.813   3.340   0.554
 1402SOL    HW2 5106   6.801   3.216   0.448
 1403SOL     OW 5107   3.391   0.619   2.171
 1403SOL    HW1 5108   3.383   0.554   2.247
 1403SOL    HW2 5109   3.463   0.589   2.109
 1404SOL     OW 5110   5.412   1.475   0.484
 1404SOL    HW1 5111   5.505   1.440   0.493
 1404SOL    HW2 5112   5.385   1.521   0.568
 1405SOL     OW 5113   3.477   2.893   1.212
 1405SOL    HW1 5114   3.459   2.827   1.138
 1405SOL    HW2 5115   3.391   2.912   1.260
 1406SOL     OW 5116   1.750   4.355   1.380
 1406SOL    HW1 5117   1.812   4.377   1.456
 1406SOL    HW2 5118   1.713   4.263   1.393
 1407SOL     OW 5119   6.593   2.205   2.879
 1407SOL    HW1 5120   6.536   2.287   2.878
 1407SOL    HW2 5121   6.602   2.173   2.973
 1408SOL     OW 5122   6.311   0.046   6.068
 1408SOL    HW1 5123   6.273   0.136   6.086
 1408SOL    HW2 5124   6.408   0.045   6.092
 1409SOL     OW 5125   0.512   1.582   4.114
 1409SOL    HW1 5126   0.459   1.498   4.103
 1409SOL    HW2 5127   0.604   1.568   4.079
 1410SOL     OW 5128   6.789   2.957   6.847
 1410SOL    HW1 5129   6.719   2.896   6.883
 1410SOL    HW2 5130   6.747   3.045   6.823
 1411SOL     OW 5131   1.899   0.437   1.675
 1411SOL    HW1 5132   1.860   0.353   1.712
 1411SOL    HW2 5133   1.826   0.501   1.653
 1412SOL     OW 5134   1.208   2.805   6.998
 1412SOL    HW1 5135   1.179   2.775   6.907
 1412SOL    HW2 5136   1.307   2.820   6.998
 1413SOL     OW 5137   3.381   0.060   3.792
 1413SOL    HW1 5138   3.432   0.092   3.871
 1413SOL    HW2 5139   3.390   0.125   3.717
 1414SOL     OW 5140   3.097   0.815   1.894
 1414SOL    HW1 5141   3.018   0.828   1.834
 1414SOL    HW2 5142   3.067   0.783   1.983
 1415SOL     OW 5143   4.364   6.097   6.011
 1415SOL    HW1 5144   4.299   6.068   5.941
 1415SOL    HW2 5145   4.456   6.102   5.971
 1416SOL     OW 5146   4.619   5.772   3.106
 1416SOL    HW1 5147   4.605   5.870   3.121
 1416SOL    HW2 5148   4.531   5.730   3.081
 1417SOL     OW 5149   3.445   2.769   6.467
 1417SOL    HW1 5150   3.417   2.674   6.481
 1417SOL    HW2 5151   3.390   2.808   6.393
 1418SOL     OW 5152   3.041   3.974   2.726
 1418SOL    HW1 5153   3.122   4.015   2.683
 1418SOL    HW2 5154   2.984   3.932   2.656
 1419SOL     OW 5155   4.459   6.097   4.632
 1419SOL    HW1 5156   4.491   6.130   4.721
 1419SOL    HW2 5157   4.533   6.048   4.586
 1420SOL     OW 5158   0.024   5.611   1.779
 1420SOL    HW1 5159   0.058   5.642   1.868
 1420SOL    HW2 5160   0.095   5.558   1.733
 1421SOL     OW 5161   3.738   0.992   2.970
 1421SOL    HW1 5162   3.694   0.903   2.958
 1421SOL    HW2 5163   3.810   0.984   3.039
 1422SOL     OW 5164   2.528   6.239   0.219
 1422SOL    HW1 5165   2.540   6.329   0.176
 1422SOL    HW2 5166   2.468   6.183   0.162
 1423SOL     OW 5167   4.845   0.390   2.575
 1423SOL    HW1 5168   4.925   0.385   2.514
 1423SOL    HW2 5169   4.762   0.394   2.520
 1424SOL     OW 5170   6.465   4.855   2.683
 1424SOL    HW1 5171   6.384   4.904   2.651
 1424SOL    HW2 5172   6.493   4.789   2.614
 1425SOL     OW 5173   1.867   6.976   4.872
 1425SOL    HW1 5174   1.915   6.949   4.955
 1425SOL    HW2 5175   1.934   6.997   4.801
 1426SOL     OW 5176   1.840   1.198   5.662
 1426SOL    HW1 5177   1.872   1.245   5.580
 1426SOL    HW2 5178   1.855   1.255   5.743
 1427SOL     OW 5179   6.212   0.923   4.923
 1427SOL    HW1 5180   6.228   0.885   4.832
 1427SOL    HW2 5181   6.242   0.858   4.992
 1428SOL     OW 5182   5.641   1.350   0.208
 1428SOL    HW1 5183   5.655   1.325   0.304
 1428SOL    HW2 5184   5.715   1.313   0.152
 1429SOL     OW 5185   5.265   0.010   0.252
 1429SOL    HW1 5186   5.255   0.109   0.239
 1429SOL    HW2 5187   5.308   6.995   0.172
 1430SOL     OW 5188   1.815   4.641   3.608
 1430SOL    HW1 5189   1.869   4.697   3.547
 1430SOL    HW2 5190   1.734   4.692   3.638
 1431SOL     OW 5191   1.220   0.784   1.280
 1431SOL    HW1 5192   1.139   0.729   1.301
 1431SOL    HW2 5193   1.280   0.733   1.219
 1432SOL     OW 5194   2.919   0.024   1.737
 1432SOL    HW1 5195   2.977   0.092   1.692
 1432SOL    HW2 5196   2.977   6.979   1.780
 1433SOL     OW 5197   4.512   0.572   4.343
 1433SOL    HW1 5198   4.476   0.623   4.265
 1433SOL    HW2 5199   4.457   0.593   4.424
 1434SOL     OW 5200   0.877   0.770   5.202
 1434SOL    HW1 5201   0.925   0.857   5.190
 1434SOL    HW2 5202   0.862   0.754   5.300
 1435SOL     OW 5203   0.311   1.477   3.541
 1435SOL    HW1 5204   0.372   1.464   3.463
 1435SOL    HW2 5205   0.301   1.575   3.559
 1436SOL     OW 5206   4.386   4.084   0.741
 1436SOL    HW1 5207   4.485   4.083   0.750
 1436SOL    HW2 5208   4.357   4.009   0.681
 1437SOL     OW 5209   3.720   1.142   2.360
 1437SOL    HW1 5210   3.808   1.189   2.374
 1437SOL    HW2 5211   3.706   1.126   2.263
 1438SOL     OW 5212   2.044   0.613   1.183
 1438SOL    HW1 5213   2.001   0.587   1.096
 1438SOL    HW2 5214   1.975   0.653   1.244
 1439SOL     OW 5215   0.444   5.690   2.618
 1439SOL    HW1 5216   0.377   5.764   2.626
 1439SOL    HW2 5217   0.408   5.619   2.559
 1440SOL     OW 5218   2.370   3.237   1.679
 1440SOL    HW1 5219   2.290   3.213   1.734
 1440SOL    HW2 5220   2.440   3.166   1.689
 1441SOL     OW 5221   5.117   5.936   0.901
 1441SOL    HW1 5222   5.184   6.002   0.935
 1441SOL    HW2 5223   5.147   5.843   0.924
 1442SOL     OW 5224   5.083   5.621   0.769
 1442SOL    HW1 5225   5.170   5.659   0.801
 1442SOL    HW2 5226   5.080   5.523   0.792
 1443SOL     OW 5227   0.176   2.739   2.730
 1443SOL    HW1 5228   0.089   2.692   2.746
 1443SOL    HW2 5229   0.169   2.834   2.760
 1444SOL     OW 5230   0.469   4.759   6.517
 1444SOL    HW1 5231   0.405   4.834   6.501
 1444SOL    HW2 5232   0.420   4.680   6.555
 1445SOL     OW 5233   1.212   3.626   1.768
 1445SOL    HW1 5234   1.258   3.668   1.690
 1445SOL    HW2 5235   1.113   3.629   1.756
 1446SOL     OW 5236   6.706   6.230   0.719
 1446SOL    HW1 5237   6.644   6.152   0.726
 1446SOL    HW2 5238   6.774   6.226   0.792
 1447SOL     OW 5239   5.640   5.514   4.537
 1447SOL    HW1 5240   5.711   5.478   4.476
 1447SOL    HW2 5241   5.683   5.565   4.611
 1448SOL     OW 5242   1.024   2.641   5.561
 1448SOL    HW1 5243   0.956   2.568   5.568
 1448SOL    HW2 5244   0.979   2.727   5.534
 1449SOL     OW 5245   2.173   3.120   3.067
 1449SOL    HW1 5246   2.175   3.125   2.967
 1449SOL    HW2 5247   2.174   3.213   3.105
 1450SOL     OW 5248   2.958   1.964   3.605
 1450SOL    HW1 5249   2.898   1.965   3.525
 1450SOL    HW2 5250   2.919   2.022   3.677
 1451SOL     OW 5251   2.843   1.267   2.753
 1451SOL    HW1 5252   2.851   1.366   2.736
 1451SOL    HW2 5253   2.933   1.225   2.745
 1452SOL     OW 5254   4.782   3.115   6.788
 1452SOL    HW1 5255   4.860   3.132   6.849
 1452SOL    HW2 5256   4.699   3.105   6.842
 1453SOL     OW 5257   7.009   4.490   5.401
 1453SOL    HW1 5258   0.085   4.486   5.397
 1453SOL    HW2 5259   6.971   4.442   5.322
 1454SOL     OW 5260   3.446   2.137   3.004
 1454SOL    HW1 5261   3.437   2.040   3.026
 1454SOL    HW2 5262   3.542   2.164   3.007
 1455SOL     OW 5263   0.144   5.698   2.048
 1455SOL    HW1 5264   0.157   5.726   2.143
 1455SOL    HW2 5265   0.231   5.668   2.009
 1456SOL     OW 5266   6.429   5.108   4.340
 1456SOL    HW1 5267   6.443   5.113   4.439
 1456SOL    HW2 5268   6.488   5.174   4.295
 1457SOL     OW 5269   1.166   5.251   6.096
 1457SOL    HW1 5270   1.183   5.350   6.098
 1457SOL    HW2 5271   1.240   5.203   6.143
 1458SOL     OW 5272   5.514   4.840   5.125
 1458SOL    HW1 5273   5.533   4.803   5.216
 1458SOL    HW2 5274   5.594   4.890   5.092
 1459SOL     OW 5275   5.897   6.675   5.415
 1459SOL    HW1 5276   5.847   6.602   5.370
 1459SOL    HW2 5277   5.917   6.748   5.349
 1460SOL     OW 5278   1.438   6.504   5.085
 1460SOL    HW1 5279   1.396   6.448   5.156
 1460SOL    HW2 5280   1.378   6.580   5.062
 1461SOL     OW 5281   6.394   2.885   3.942
 1461SOL    HW1 5282   6.379   2.789   3.967
 1461SOL    HW2 5283   6.329   2.943   3.991
 1462SOL     OW 5284   0.253   1.137   1.714
 1462SOL    HW1 5285   0.278   1.089   1.798
 1462SOL    HW2 5286   0.263   1.236   1.728
 1463SOL     OW 5287   2.139   5.642   6.814
 1463SOL    HW1 5288   2.059   5.701   6.812
 1463SOL    HW2 5289   2.150   5.596   6.726
 1464SOL     OW 5290   1.017   4.373   4.020
 1464SOL    HW1 5291   1.003   4.471   4.005
 1464SOL    HW2 5292   1.072   4.335   3.946
 1465SOL     OW 5293   1.275   3.184   4.474
 1465SOL    HW1 5294   1.301   3.280   4.480
 1465SOL    HW2 5295   1.222   3.169   4.390
 1466SOL     OW 5296   5.486   1.615   2.786
 1466SOL    HW1 5297   5.473   1.615   2.885
 1466SOL    HW2 5298   5.507   1.708   2.756
 1467SOL     OW 5299   0.453   0.457   3.596
 1467SOL    HW1 5300   0.417   0.529   3.537
 1467SOL    HW2 5301   0.447   0.486   3.691
 1468SOL     OW 5302   2.957   5.494   2.535
 1468SOL    HW1 5303   3.012   5.435   2.594
 1468SOL    HW2 5304   2.981   5.590   2.551
 1469SOL     OW 5305   5.976   3.903   3.537
 1469SOL    HW1 5306   5.884   3.920   3.501
 1469SOL    HW2 5307   6.025   3.989   3.547
 1470SOL     OW 5308   5.876   1.670   2.245
 1470SOL    HW1 5309   5.783   1.691   2.276
 1470SOL    HW2 5310   5.935   1.749   2.260
 1471SOL     OW 5311   4.587   6.913   1.036
 1471SOL    HW1 5312   4.659   6.974   1.002
 1471SOL    HW2 5313   4.602   6.895   1.133
 1472SOL     OW 5314   1.467   0.271   6.423
 1472SOL    HW1 5315   1.498   0.233   6.336
 1472SOL    HW2 5316   1.378   0.315   6.411
 1473SOL     OW 5317   1.661   5.875   3.672
 1473SOL    HW1 5318   1.689   5.956   3.724
 1473SOL    HW2 5319   1.602   5.819   3.729
 1474SOL     OW 5320   2.754   4.782   1.325
 1474SOL    HW1 5321   2.840   4.826   1.348
 1474SOL    HW2 5322   2.684   4.807   1.393
 1475SOL     OW 5323   5.643   0.372   6.639
 1475SOL    HW1 5324   5.697   0.310   6.581
 1475SOL    HW2 5325   5.568   0.411   6.586
 1476SOL     OW 5326   4.835   0.397   0.012
 1476SOL    HW1 5327   4.915   0.458   0.014
 1476SOL    HW2 5328   4.866   0.302   0.009
 1477SOL     OW 5329   3.364   4.111   1.519
 1477SOL    HW1 5330   3.376   4.035   1.582
 1477SOL    HW2 5331   3.286   4.093   1.459
 1478SOL     OW 5332   4.441   5.262   6.740
 1478SOL    HW1 5333   4.482   5.199   6.806
 1478SOL    HW2 5334   4.500   5.269   6.659
 1479SOL     OW 5335   4.483   3.500   1.714
 1479SOL    HW1 5336   4.527   3.457   1.635
 1479SOL    HW2 5337   4.517   3.593   1.724
 1480SOL     OW 5338   3.141   0.684   4.344
 1480SOL    HW1 5339   3.220   0.738   4.316
 1480SOL    HW2 5340   3.092   0.652   4.262
 1481SOL     OW 5341   4.705   2.646   5.913
 1481SOL    HW1 5342   4.656   2.560   5.929
 1481SOL    HW2 5343   4.689   2.677   5.819
 1482SOL     OW 5344   5.689   1.373   1.376
 1482SOL    HW1 5345   5.632   1.300   1.414
 1482SOL    HW2 5346   5.713   1.438   1.447
 1483SOL     OW 5347   6.152   0.963   0.339
 1483SOL    HW1 5348   6.109   0.927   0.422
 1483SOL    HW2 5349   6.165   0.889   0.274
 1484SOL     OW 5350   3.692   5.134   5.151
 1484SOL    HW1 5351   3.673   5.176   5.240
 1484SOL    HW2 5352   3.756   5.192   5.100
 1485SOL     OW 5353   5.014   2.877   3.473
 1485SOL    HW1 5354   5.065   2.930   3.405
 1485SOL    HW2 5355   5.060   2.882   3.561
 1486SOL     OW 5356   4.586   5.925   3.852
 1486SOL    HW1 5357   4.664   5.871   3.821
 1486SOL    HW2 5358   4.558   5.989   3.780
 1487SOL     OW 5359   6.764   0.994   0.518
 1487SOL    HW1 5360   6.749   1.026   0.612
 1487SOL    HW2 5361   6.861   1.003   0.495
 1488SOL     OW 5362   6.223   1.577   2.861
 1488SOL    HW1 5363   6.153   1.611   2.798
 1488SOL    HW2 5364   6.302   1.544   2.810
 1489SOL     OW 5365   3.173   4.739   0.076
 1489SOL    HW1 5366   3.085   4.693   0.073
 1489SOL    HW2 5367   3.189   4.787   7.014
 1490SOL     OW 5368   6.302   2.323   2.099
 1490SOL    HW1 5369   6.290   2.420   2.123
 1490SOL    HW2 5370   6.337   2.273   2.178
 1491SOL     OW 5371   5.672   2.439   3.918
 1491SOL    HW1 5372   5.574   2.458   3.913
 1491SOL    HW2 5373   5.689   2.344   3.893
 1492SOL     OW 5374   6.371   1.558   3.223
 1492SOL    HW1 5375   6.453   1.512   3.255
 1492SOL    HW2 5376   6.393   1.612   3.141
 1493SOL     OW 5377   5.951   1.753   5.978
 1493SOL    HW1 5378   6.049   1.757   5.959
 1493SOL    HW2 5379   5.936   1.706   6.064
 1494SOL     OW 5380   6.764   4.961   6.306
 1494SOL    HW1 5381   6.752   4.867   6.338
 1494SOL    HW2 5382   6.676   4.997   6.275
 1495SOL     OW 5383   6.573   3.703   3.990
 1495SOL    HW1 5384   6.482   3.735   4.015
 1495SOL    HW2 5385   6.633   3.708   4.069
 1496SOL     OW 5386   6.000   6.736   6.103
 1496SOL    HW1 5387   6.024   6.679   6.182
 1496SOL    HW2 5388   5.985   6.677   6.023
 1497SOL     OW 5389   6.181   2.177   2.422
 1497SOL    HW1 5390   6.114   2.249   2.438
 1497SOL    HW2 5391   6.269   2.217   2.397
 1498SOL     OW 5392   3.295   4.031   0.701
 1498SOL    HW1 5393   3.297   4.042   0.602
 1498SOL    HW2 5394   3.380   4.065   0.740
 1499SOL     OW 5395   0.213   4.361   4.178
 1499SOL    HW1 5396   0.139   4.414   4.137
 1499SOL    HW2 5397   0.201   4.264   4.156
 1500SOL     OW 5398   0.430   5.876   2.293
 1500SOL    HW1 5399   0.338   5.916   2.299
 1500SOL    HW2 5400   0.471   5.902   2.206
 1501SOL     OW 5401   6.391   1.770   0.394
 1501SOL    HW1 5402   6.488   1.752   0.408
 1501SOL    HW2 5403   6.345   1.685   0.365
 1502SOL     OW 5404   6.497   0.319   6.187
 1502SOL    HW1 5405   6.496   0.418   6.176
 1502SOL    HW2 5406   6.459   0.276   6.105
 1503SOL     OW 5407   0.637   4.778   1.501
 1503SOL    HW1 5408   0.625   4.730   1.588
 1503SOL    HW2 5409   0.556   4.765   1.444
 1504SOL     OW 5410   2.134   6.743   2.691
 1504SOL    HW1 5411   2.078   6.794   2.626
 1504SOL    HW2 5412   2.082   6.729   2.775
 1505SOL     OW 5413   6.240   5.199   5.051
 1505SOL    HW1 5414   6.282   5.234   4.967
 1505SOL    HW2 5415   6.160   5.253   5.073
 1506SOL     OW 5416   0.897   1.111   0.525
 1506SOL    HW1 5417   0.809   1.154   0.507
 1506SOL    HW2 5418   0.924   1.058   0.444
 1507SOL     OW 5419   2.185   2.533   3.469
 1507SOL    HW1 5420   2.223   2.451   3.511
 1507SOL    HW2 5421   2.094   2.513   3.432
 1508SOL     OW 5422   2.160   1.046   1.419
 1508SOL    HW1 5423   2.205   1.135   1.419
 1508SOL    HW2 5424   2.137   1.020   1.325
 1509SOL     OW 5425   5.508   1.005   4.323
 1509SOL    HW1 5426   5.568   1.072   4.366
 1509SOL    HW2 5427   5.467   0.947   4.394
 1510SOL     OW 5428   3.360   6.005   5.356
 1510SOL    HW1 5429   3.384   5.910   5.335
 1510SOL    HW2 5430   3.262   6.011   5.372
 1511SOL     OW 5431   3.033   3.667   4.973
 1511SOL    HW1 5432   2.938   3.691   4.989
 1511SOL    HW2 5433   3.038   3.588   4.912
 1512SOL     OW 5434   5.678   6.432   0.804
 1512SOL    HW1 5435   5.660   6.390   0.893
 1512SOL    HW2 5436   5.591   6.447   0.756
 1513SOL     OW 5437   2.248   6.981   5.901
 1513SOL    HW1 5438   2.302   6.952   5.980
 1513SOL    HW2 5439   2.285   6.939   5.818
 1514SOL     OW 5440   3.016   2.822   6.421
 1514SOL    HW1 5441   3.099   2.875   6.403
 1514SOL    HW2 5442   3.020   2.736   6.372
 1515SOL     OW 5443   4.335   0.523   2.191
 1515SOL    HW1 5444   4.406   0.587   2.163
 1515SOL    HW2 5445   4.249   0.547   2.146
 1516SOL     OW 5446   5.970   0.077   5.588
 1516SOL    HW1 5447   6.014   0.052   5.674
 1516SOL    HW2 5448   5.909   0.155   5.603
 1517SOL     OW 5449   3.396   6.611   4.047
 1517SOL    HW1 5450   3.447   6.525   4.046
 1517SOL    HW2 5451   3.311   6.599   4.096
 1518SOL     OW 5452   0.630   3.282   6.461
 1518SOL    HW1 5453   0.605   3.212   6.528
 1518SOL    HW2 5454   0.703   3.247   6.402
 1519SOL     OW 5455   6.758   5.003   0.176
 1519SOL    HW1 5456   6.662   4.979   0.191
 1519SOL    HW2 5457   6.813   4.971   0.253
 1520SOL     OW 5458   0.570   6.212   3.280
 1520SOL    HW1 5459   0.638   6.282   3.258
 1520SOL    HW2 5460   0.590   6.129   3.227
 1521SOL     OW 5461   2.059   5.388   6.081
 1521SOL    HW1 5462   2.070   5.357   6.176
 1521SOL    HW2 5463   2.141   5.363   6.028
 1522SOL     OW 5464   6.105   5.886   3.896
 1522SOL    HW1 5465   6.190   5.862   3.943
 1522SOL    HW2 5466   6.125   5.927   3.808
 1523SOL     OW 5467   3.338   6.296   0.762
 1523SOL    HW1 5468   3.389   6.218   0.800
 1523SOL    HW2 5469   3.241   6.273   0.758
 1524SOL     OW 5470   2.189   1.411   3.608
 1524SOL    HW1 5471   2.212   1.464   3.527
 1524SOL    HW2 5472   2.213   1.463   3.690
 1525SOL     OW 5473   5.459   4.701   7.010
 1525SOL    HW1 5474   5.413   4.635   6.950
 1525SOL    HW2 5475   5.442   4.676   0.081
 1526SOL     OW 5476   1.181   1.814   0.751
 1526SOL    HW1 5477   1.144   1.775   0.667
 1526SOL    HW2 5478   1.252   1.753   0.787
 1527SOL     OW 5479   4.342   1.917   3.773
 1527SOL    HW1 5480   4.328   1.970   3.689
 1527SOL    HW2 5481   4.434   1.936   3.809
 1528SOL     OW 5482   3.289   3.748   2.261
 1528SOL    HW1 5483   3.352   3.745   2.183
 1528SOL    HW2 5484   3.341   3.739   2.346
 1529SOL     OW 5485   4.535   2.019   6.110
 1529SOL    HW1 5486   4.574   2.002   6.020
 1529SOL    HW2 5487   4.607   2.014   6.179
 1530SOL     OW 5488   2.347   6.688   1.063
 1530SOL    HW1 5489   2.265   6.633   1.046
 1530SOL    HW2 5490   2.321   6.784   1.075
 1531SOL     OW 5491   4.800   5.803   4.320
 1531SOL    HW1 5492   4.830   5.730   4.383
 1531SOL    HW2 5493   4.748   5.762   4.245
 1532SOL     OW 5494   2.990   5.540   0.333
 1532SOL    HW1 5495   2.969   5.445   0.357
 1532SOL    HW2 5496   3.040   5.543   0.247
 1533SOL     OW 5497   5.543   5.765   1.380
 1533SOL    HW1 5498   5.563   5.855   1.419
 1533SOL    HW2 5499   5.477   5.717   1.437
 1534SOL     OW 5500   2.728   4.580   6.698
 1534SOL    HW1 5501   2.818   4.541   6.676
 1534SOL    HW2 5502   2.666   4.566   6.622
 1535SOL     OW 5503   5.466   4.654   3.681
 1535SOL    HW1 5504   5.479   4.733   3.740
 1535SOL    HW2 5505   5.380   4.609   3.704
 1536SOL     OW 5506   5.030   3.632   6.805
 1536SOL    HW1 5507   5.032   3.716   6.750
 1536SOL    HW2 5508   5.123   3.607   6.831
 1537SOL     OW 5509   2.952   5.220   2.917
 1537SOL    HW1 5510   2.902   5.216   3.004
 1537SOL    HW2 5511   3.002   5.306   2.911
 1538SOL     OW 5512   2.900   1.774   0.788
 1538SOL    HW1 5513   2.859   1.729   0.709
 1538SOL    HW2 5514   2.983   1.725   0.815
 1539SOL     OW 5515   5.858   3.294   0.852
 1539SOL    HW1 5516   5.854   3.373   0.791
 1539SOL    HW2 5517   5.954   3.269   0.866
 1540SOL     OW 5518   3.352   6.997   3.305
 1540SOL    HW1 5519   3.298   0.053   3.285
 1540SOL    HW2 5520   3.300   6.936   3.365
 1541SOL     OW 5521   4.094   3.073   5.967
 1541SOL    HW1 5522   4.053   3.120   6.045
 1541SOL    HW2 5523   4.142   2.991   5.999
 1542SOL     OW 5524   0.273   5.907   2.731
 1542SOL    HW1 5525   0.244   5.963   2.653
 1542SOL    HW2 5526   0.356   5.948   2.771
 1543SOL     OW 5527   2.890   5.291   0.393
 1543SOL    HW1 5528   2.930   5.228   0.459
 1543SOL    HW2 5529   2.804   5.327   0.429
 1544SOL     OW 5530   3.825   3.516   3.854
 1544SOL    HW1 5531   3.809   3.430   3.806
 1544SOL    HW2 5532   3.809   3.593   3.792
 1545SOL     OW 5533   5.628   5.939   1.607
 1545SOL    HW1 5534   5.704   5.889   1.567
 1545SOL    HW2 5535   5.628   6.033   1.572
 1546SOL     OW 5536   5.786   6.211   5.993
 1546SOL    HW1 5537   5.789   6.118   5.955
 1546SOL    HW2 5538   5.877   6.252   5.987
 1547SOL     OW 5539   1.876   3.208   6.717
 1547SOL    HW1 5540   1.854   3.206   6.815
 1547SOL    HW2 5541   1.903   3.300   6.690
 1548SOL     OW 5542   0.074   2.386   0.345
 1548SOL    HW1 5543   0.109   2.453   0.279
 1548SOL    HW2 5544   7.013   2.420   0.384
 1549SOL     OW 5545   5.182   1.257   4.631
 1549SOL    HW1 5546   5.241   1.184   4.666
 1549SOL    HW2 5547   5.143   1.308   4.708
 1550SOL     OW 5548   3.866   3.045   4.375
 1550SOL    HW1 5549   3.856   3.047   4.475
 1550SOL    HW2 5550   3.787   2.998   4.335
 1551SOL     OW 5551   6.888   5.066   5.376
 1551SOL    HW1 5552   6.813   5.014   5.335
 1551SOL    HW2 5553   6.975   5.023   5.352
 1552SOL     OW 5554   1.848   4.001   0.986
 1552SOL    HW1 5555   1.862   4.100   0.979
 1552SOL    HW2 5556   1.899   3.966   1.064
 1553SOL     OW 5557   2.021   1.811   5.993
 1553SOL    HW1 5558   1.945   1.746   5.984
 1553SOL    HW2 5559   2.065   1.798   6.082
 1554SOL     OW 5560   3.729   1.944   3.874
 1554SOL    HW1 5561   3.670   2.004   3.819
 1554SOL    HW2 5562   3.674   1.868   3.909
 1555SOL     OW 5563   6.164   4.842   5.942
 1555SOL    HW1 5564   6.109   4.910   5.894
 1555SOL    HW2 5565   6.105   4.769   5.976
 1556SOL     OW 5566   1.885   0.799   5.843
 1556SOL    HW1 5567   1.892   0.789   5.942
 1556SOL    HW2 5568   1.941   0.877   5.813
 1557SOL     OW 5569   0.305   2.523   5.103
 1557SOL    HW1 5570   0.387   2.466   5.113
 1557SOL    HW2 5571   0.241   2.478   5.040
 1558SOL     OW 5572   0.397   7.019   4.737
 1558SOL    HW1 5573   0.368   6.925   4.753
 1558SOL    HW2 5574   0.347   0.056   4.797
 1559SOL     OW 5575   1.390   1.500   5.875
 1559SOL    HW1 5576   1.319   1.486   5.805
 1559SOL    HW2 5577   1.375   1.436   5.950
 1560SOL     OW 5578   0.296   0.326   6.763
 1560SOL    HW1 5579   0.391   0.346   6.740
 1560SOL    HW2 5580   0.248   0.296   6.680
 1561SOL     OW 5581   5.723   6.091   2.117
 1561SOL    HW1 5582   5.691   6.087   2.022
 1561SOL    HW2 5583   5.814   6.051   2.123
 1562SOL     OW 5584   6.340   0.667   3.740
 1562SOL    HW1 5585   6.420   0.713   3.701
 1562SOL    HW2 5586   6.309   0.716   3.821
 1563SOL     OW 5587   3.734   6.738   5.370
 1563SOL    HW1 5588   3.724   6.684   5.453
 1563SOL    HW2 5589   3.676   6.819   5.376
 1564SOL     OW 5590   0.740   2.146   2.765
 1564SOL    HW1 5591   0.645   2.117   2.753
 1564SOL    HW2 5592   0.763   2.215   2.696
 1565SOL     OW 5593   6.162   4.308   1.263
 1565SOL    HW1 5594   6.158   4.401   1.300
 1565SOL    HW2 5595   6.137   4.242   1.335
 1566SOL     OW 5596   6.022   4.560   3.204
 1566SOL    HW1 5597   5.991   4.487   3.264
 1566SOL    HW2 5598   5.953   4.632   3.199
 1567SOL     OW 5599   6.129   5.845   5.227
 1567SOL    HW1 5600   6.155   5.941   5.231
 1567SOL    HW2 5601   6.172   5.796   5.303
 1568SOL     OW 5602   0.467   6.783   7.023
 1568SOL    HW1 5603   0.380   6.817   0.033
 1568SOL    HW2 5604   0.465   6.780   6.923
 1569SOL     OW 5605   3.234   6.351   5.319
 1569SOL    HW1 5606   3.274   6.320   5.233
 1569SOL    HW2 5607   3.135   6.332   5.318
 1570SOL     OW 5608   3.241   2.231   1.796
 1570SOL    HW1 5609   3.222   2.177   1.878
 1570SOL    HW2 5610   3.155   2.246   1.746
 1571SOL     OW 5611   0.009   3.801   0.813
 1571SOL    HW1 5612   6.995   3.734   0.750
 1571SOL    HW2 5613   0.086   3.847   0.770
 1572SOL     OW 5614   1.649   5.863   2.360
 1572SOL    HW1 5615   1.597   5.832   2.281
 1572SOL    HW2 5616   1.587   5.895   2.431
 1573SOL     OW 5617   4.321   0.396   0.661
 1573SOL    HW1 5618   4.369   0.479   0.632
 1573SOL    HW2 5619   4.386   0.322   0.674
 1574SOL     OW 5620   5.960   2.587   2.345
 1574SOL    HW1 5621   5.985   2.504   2.295
 1574SOL    HW2 5622   5.925   2.655   2.281
 1575SOL     OW 5623   3.079   1.870   0.097
 1575SOL    HW1 5624   3.047   1.789   0.047
 1575SOL    HW2 5625   3.092   1.846   0.194
 1576SOL     OW 5626   6.377   5.649   3.629
 1576SOL    HW1 5627   6.282   5.680   3.635
 1576SOL    HW2 5628   6.385   5.559   3.672
 1577SOL     OW 5629   1.393   0.222   0.135
 1577SOL    HW1 5630   1.436   0.276   0.207
 1577SOL    HW2 5631   1.463   0.187   0.072
 1578SOL     OW 5632   5.911   5.473   4.800
 1578SOL    HW1 5633   5.975   5.533   4.753
 1578SOL    HW2 5634   5.932   5.378   4.779
 1579SOL     OW 5635   0.469   6.906   3.605
 1579SOL    HW1 5636   0.509   6.997   3.590
 1579SOL    HW2 5637   0.452   6.893   3.702
 1580SOL     OW 5638   3.146   3.775   5.747
 1580SOL    HW1 5639   3.216   3.807   5.684
 1580SOL    HW2 5640   3.106   3.690   5.712
 1581SOL     OW 5641   6.329   3.805   4.128
 1581SOL    HW1 5642   6.251   3.784   4.187
 1581SOL    HW2 5643   6.388   3.871   4.174
 1582SOL     OW 5644   6.407   6.143   5.191
 1582SOL    HW1 5645   6.368   6.162   5.281
 1582SOL    HW2 5646   6.376   6.212   5.125
 1583SOL     OW 5647   2.205   1.932   2.151
 1583SOL    HW1 5648   2.174   1.973   2.236
 1583SOL    HW2 5649   2.144   1.960   2.076
 1584SOL     OW 5650   1.953   0.181   6.196
 1584SOL    HW1 5651   1.953   0.193   6.097
 1584SOL    HW2 5652   1.937   0.269   6.240
 1585SOL     OW 5653   5.807   1.131   5.470
 1585SOL    HW1 5654   5.827   1.076   5.388
 1585SOL    HW2 5655   5.754   1.212   5.443
 1586SOL     OW 5656   3.639   4.139   3.187
 1586SOL    HW1 5657   3.571   4.136   3.261
 1586SOL    HW2 5658   3.731   4.137   3.227
 1587SOL     OW 5659   2.308   6.600   6.617
 1587SOL    HW1 5660   2.275   6.675   6.674
 1587SOL    HW2 5661   2.285   6.618   6.521
 1588SOL     OW 5662   5.855   3.817   1.583
 1588SOL    HW1 5663   5.919   3.773   1.646
 1588SOL    HW2 5664   5.781   3.860   1.635
 1589SOL     OW 5665   5.204   4.390   3.102
 1589SOL    HW1 5666   5.147   4.364   3.024
 1589SOL    HW2 5667   5.146   4.411   3.180
 1590SOL     OW 5668   1.879   7.017   5.369
 1590SOL    HW1 5669   1.966   0.032   5.397
 1590SOL    HW2 5670   1.804   0.048   5.403
 1591SOL     OW 5671   0.842   3.768   1.079
 1591SOL    HW1 5672   0.906   3.693   1.094
 1591SOL    HW2 5673   0.778   3.743   1.006
 1592SOL     OW 5674   3.076   3.921   3.647
 1592SOL    HW1 5675   3.109   3.934   3.740
 1592SOL    HW2 5676   2.995   3.863   3.647
 1593SOL     OW 5677   1.151   5.164   4.729
 1593SOL    HW1 5678   1.080   5.105   4.767
 1593SOL    HW2 5679   1.139   5.171   4.630
 1594SOL     OW 5680   1.268   5.062   3.215
 1594SOL    HW1 5681   1.184   5.104   3.181
 1594SOL    HW2 5682   1.311   5.123   3.282
 1595SOL     OW 5683   0.044   5.238   5.664
 1595SOL    HW1 5684   0.098   5.286   5.596
 1595SOL    HW2 5685   0.105   5.192   5.729
 1596SOL     OW 5686   2.724   4.982   0.252
 1596SOL    HW1 5687   2.814   5.007   0.218
 1596SOL    HW2 5688   2.719   4.883   0.265
 1597SOL     OW 5689   2.321   7.019   0.237
 1597SOL    HW1 5690   2.307   0.011   0.334
 1597SOL    HW2 5691   2.346   0.080   0.192
 1598SOL     OW 5692   6.746   5.588   1.755
 1598SOL    HW1 5693   6.719   5.634   1.671
 1598SOL    HW2 5694   6.835   5.622   1.785
 1599SOL     OW 5695   3.187   4.930   0.551
 1599SOL    HW1 5696   3.263   4.942   0.615
 1599SOL    HW2 5697   3.222   4.900   0.462
 1600SOL     OW 5698   3.511   0.962   5.156
 1600SOL    HW1 5699   3.477   0.918   5.073
 1600SOL    HW2 5700   3.468   1.052   5.166
 1601SOL     OW 5701   1.174   5.049   5.148
 1601SOL    HW1 5702   1.132   5.021   5.061
 1601SOL    HW2 5703   1.240   4.980   5.176
 1602SOL     OW 5704   0.282   4.148   2.331
 1602SOL    HW1 5705   0.214   4.082   2.300
 1602SOL    HW2 5706   0.236   4.233   2.357
 1603SOL     OW 5707   5.936   6.452   0.735
 1603SOL    HW1 5708   5.935   6.474   0.638
 1603SOL    HW2 5709   5.845   6.424   0.764
 1604SOL     OW 5710   0.275   5.923   4.834
 1604SOL    HW1 5711   0.330   5.865   4.894
 1604SOL    HW2 5712   0.299   6.019   4.850
 1605SOL     OW 5713   5.217   6.786   3.287
 1605SOL    HW1 5714   5.127   6.809   3.250
 1605SOL    HW2 5715   5.223   6.816   3.382
 1606SOL     OW 5716   5.422   6.589   5.664
 1606SOL    HW1 5717   5.449   6.607   5.759
 1606SOL    HW2 5718   5.474   6.649   5.603
 1607SOL     OW 5719   4.666   3.023   1.054
 1607SOL    HW1 5720   4.571   2.994   1.050
 1607SOL    HW2 5721   4.726   2.944   1.040
 1608SOL     OW 5722   2.313   0.584   0.690
 1608SOL    HW1 5723   2.260   0.653   0.642
 1608SOL    HW2 5724   2.251   0.521   0.738
 1609SOL     OW 5725   5.554   0.943   5.845
 1609SOL    HW1 5726   5.514   1.002   5.775
 1609SOL    HW2 5727   5.586   0.999   5.921
 1610SOL     OW 5728   5.375   6.686   4.158
 1610SOL    HW1 5729   5.461   6.639   4.140
 1610SOL    HW2 5730   5.326   6.640   4.232
 1611SOL     OW 5731   3.990   2.921   1.642
 1611SOL    HW1 5732   3.916   2.875   1.594
 1611SOL    HW2 5733   4.056   2.853   1.673
 1612SOL     OW 5734   3.478   1.201   4.687
 1612SOL    HW1 5735   3.444   1.213   4.594
 1612SOL    HW2 5736   3.574   1.173   4.685
 1613SOL     OW 5737   1.742   6.965   1.122
 1613SOL    HW1 5738   1.839   6.990   1.126
 1613SOL    HW2 5739   1.712   6.934   1.212
 1614SOL     OW 5740   0.845   3.002   6.105
 1614SOL    HW1 5741   0.824   3.040   6.015
 1614SOL    HW2 5742   0.760   2.969   6.148
 1615SOL     OW 5743   6.367   4.689   5.792
 1615SOL    HW1 5744   6.412   4.703   5.704
 1615SOL    HW2 5745   6.303   4.764   5.809
 1616SOL     OW 5746   2.686   1.630   5.654
 1616SOL    HW1 5747   2.683   1.687   5.736
 1616SOL    HW2 5748   2.715   1.686   5.576
 1617SOL     OW 5749   4.457   0.267   4.166
 1617SOL    HW1 5750   4.551   0.235   4.176
 1617SOL    HW2 5751   4.457   0.361   4.130
 1618SOL     OW 5752   5.778   2.213   1.715
 1618SOL    HW1 5753   5.749   2.124   1.749
 1618SOL    HW2 5754   5.753   2.222   1.619
 1619SOL     OW 5755   2.028   2.946   4.397
 1619SOL    HW1 5756   2.068   2.883   4.464
 1619SOL    HW2 5757   2.098   2.971   4.329
 1620SOL     OW 5758   3.510   5.750   1.836
 1620SOL    HW1 5759   3.416   5.778   1.814
 1620SOL    HW2 5760   3.520   5.742   1.935
 1621SOL     OW 5761   1.894   1.798   2.045
 1621SOL    HW1 5762   1.967   1.801   1.977
 1621SOL    HW2 5763   1.835   1.878   2.034
 1622SOL     OW 5764   1.989   2.252   4.983
 1622SOL    HW1 5765   1.993   2.349   5.009
 1622SOL    HW2 5766   1.992   2.196   5.066
 1623SOL     OW 5767   2.771   2.259   4.804
 1623SOL    HW1 5768   2.708   2.290   4.733
 1623SOL    HW2 5769   2.751   2.306   4.890
 1624SOL     OW 5770   2.158   0.777   0.586
 1624SOL    HW1 5771   2.060   0.792   0.591
 1624SOL    HW2 5772   2.206   0.853   0.630
 1625SOL     OW 5773   0.302   5.378   1.709
 1625SOL    HW1 5774   0.240   5.403   1.784
 1625SOL    HW2 5775   0.333   5.461   1.662
 1626SOL     OW 5776   2.152   2.688   5.877
 1626SOL    HW1 5777   2.213   2.610   5.862
 1626SOL    HW2 5778   2.158   2.718   5.972
 1627SOL     OW 5779   5.219   2.849   3.963
 1627SOL    HW1 5780   5.206   2.946   3.984
 1627SOL    HW2 5781   5.310   2.821   3.994
 1628SOL     OW 5782   3.070   3.305   0.134
 1628SOL    HW1 5783   3.043   3.329   0.227
 1628SOL    HW2 5784   3.144   3.364   0.104
 1629SOL     OW 5785   3.307   2.143   2.770
 1629SOL    HW1 5786   3.215   2.122   2.804
 1629SOL    HW2 5787   3.361   2.181   2.844
 1630SOL     OW 5788   6.710   4.911   4.767
 1630SOL    HW1 5789   6.733   4.929   4.863
 1630SOL    HW2 5790   6.763   4.834   4.734
 1631SOL     OW 5791   0.305   6.565   5.729
 1631SOL    HW1 5792   0.389   6.527   5.691
 1631SOL    HW2 5793   0.279   6.514   5.811
 1632SOL     OW 5794   5.007   0.239   0.707
 1632SOL    HW1 5795   5.006   0.336   0.683
 1632SOL    HW2 5796   5.063   0.189   0.642
 1633SOL     OW 5797   5.939   3.018   3.382
 1633SOL    HW1 5798   6.019   2.982   3.335
 1633SOL    HW2 5799   5.968   3.080   3.455
 1634SOL     OW 5800   3.931   0.477   0.245
 1634SOL    HW1 5801   4.007   0.504   0.186
 1634SOL    HW2 5802   3.943   0.517   0.336
 1635SOL     OW 5803   0.695   4.966   4.232
 1635SOL    HW1 5804   0.700   4.867   4.245
 1635SOL    HW2 5805   0.720   4.988   4.138
 1636SOL     OW 5806   2.567   6.571   1.177
 1636SOL    HW1 5807   2.483   6.606   1.136
 1636SOL    HW2 5808   2.578   6.474   1.154
 1637SOL     OW 5809   0.277   2.576   2.313
 1637SOL    HW1 5810   0.261   2.550   2.408
 1637SOL    HW2 5811   0.375   2.568   2.292
 1638SOL     OW 5812   1.419   2.806   5.692
 1638SOL    HW1 5813   1.502   2.766   5.654
 1638SOL    HW2 5814   1.410   2.901   5.661
 1639SOL     OW 5815   5.077   4.575   2.771
 1639SOL    HW1 5816   5.107   4.490   2.730
 1639SOL    HW2 5817   4.992   4.606   2.728
 1640SOL     OW 5818   5.434   0.736   1.310
 1640SOL    HW1 5819   5.498   0.702   1.242
 1640SOL    HW2 5820   5.398   0.825   1.281
 1641SOL     OW 5821   6.766   3.113   5.368
 1641SOL    HW1 5822   6.727   3.040   5.312
 1641SOL    HW2 5823   6.866   3.105   5.369
 1642SOL     OW 5824   0.479   1.882   1.288
 1642SOL    HW1 5825   0.574   1.881   1.258
 1642SOL    HW2 5826   0.423   1.931   1.220
 1643SOL     OW 5827   3.822   0.622   5.965
 1643SOL    HW1 5828   3.836   0.546   6.029
 1643SOL    HW2 5829   3.837   0.589   5.872
 1644SOL     OW 5830   3.245   1.113   0.547
 1644SOL    HW1 5831   3.306   1.049   0.596
 1644SOL    HW2 5832   3.264   1.109   0.449
 1645SOL     OW 5833   1.876   6.315   6.155
 1645SOL    HW1 5834   1.809   6.305   6.228
 1645SOL    HW2 5835   1.966   6.330   6.195
 1646SOL     OW 5836   1.383   3.963   6.943
 1646SOL    HW1 5837   1.300   3.948   6.997
 1646SOL    HW2 5838   1.463   3.953   7.003
 1647SOL     OW 5839   5.843   2.608   3.403
 1647SOL    HW1 5840   5.925   2.605   3.346
 1647SOL    HW2 5841   5.818   2.516   3.431
 1648SOL     OW 5842   4.125   0.121   2.301
 1648SOL    HW1 5843   4.062   0.149   2.229
 1648SOL    HW2 5844   4.190   0.195   2.319
 1649SOL     OW 5845   2.748   6.908   2.713
 1649SOL    HW1 5846   2.672   6.941   2.770
 1649SOL    HW2 5847   2.716   6.832   2.656
 1650SOL     OW 5848   3.656   6.906   3.969
 1650SOL    HW1 5849   3.618   6.852   4.044
 1650SOL    HW2 5850   3.644   7.003   3.989
 1651SOL     OW 5851   1.721   0.084   1.468
 1651SOL    HW1 5852   1.696   7.012   1.465
 1651SOL    HW2 5853   1.644   0.136   1.505
 1652SOL     OW 5854   3.078   3.268   1.766
 1652SOL    HW1 5855   3.045   3.270   1.672
 1652SOL    HW2 5856   3.052   3.352   1.813
 1653SOL     OW 5857   1.119   4.758   0.883
 1653SOL    HW1 5858   1.204   4.811   0.885
 1653SOL    HW2 5859   1.081   4.753   0.975
 1654SOL     OW 5860   0.513   2.041   3.267
 1654SOL    HW1 5861   0.605   2.069   3.239
 1654SOL    HW2 5862   0.520   1.967   3.334
 1655SOL     OW 5863   4.522   4.836   5.823
 1655SOL    HW1 5864   4.477   4.886   5.750
 1655SOL    HW2 5865   4.527   4.894   5.905
 1656SOL     OW 5866   0.412   4.397   3.021
 1656SOL    HW1 5867   0.448   4.363   2.934
 1656SOL    HW2 5868   0.349   4.330   3.060
 1657SOL     OW 5869   0.863   0.643   4.802
 1657SOL    HW1 5870   0.785   0.598   4.846
 1657SOL    HW2 5871   0.946   0.623   4.854
 1658SOL     OW 5872   6.518   6.892   2.936
 1658SOL    HW1 5873   6.601   6.879   2.881
 1658SOL    HW2 5874   6.450   6.824   2.909
 1659SOL     OW 5875   4.965   1.966   6.199
 1659SOL    HW1 5876   4.945   2.044   6.258
 1659SOL    HW2 5877   4.880   1.931   6.159
 1660SOL     OW 5878   2.133   6.122   3.763
 1660SOL    HW1 5879   2.232   6.117   3.773
 1660SOL    HW2 5880   2.109   6.116   3.667
 1661SOL     OW 5881   3.264   0.035   2.942
 1661SOL    HW1 5882   3.260   6.966   2.977
 1661SOL    HW2 5883   3.176   0.080   2.959
 1662SOL     OW 5884   0.099   0.269   2.872
 1662SOL    HW1 5885   0.176   0.238   2.928
 1662SOL    HW2 5886   0.025   0.301   2.931
 1663SOL     OW 5887   2.183   0.079   3.429
 1663SOL    HW1 5888   2.173   0.047   3.523
 1663SOL    HW2 5889   2.144   0.011   3.366
 1664SOL     OW 5890   2.364   5.264   4.342
 1664SOL    HW1 5891   2.268   5.286   4.357
 1664SOL    HW2 5892   2.371   5.192   4.272
 1665SOL     OW 5893   1.135   0.515   4.395
 1665SOL    HW1 5894   1.163   0.436   4.449
 1665SOL    HW2 5895   1.067   0.567   4.445
 1666SOL     OW 5896   5.492   3.653   6.668
 1666SOL    HW1 5897   5.559   3.579   6.658
 1666SOL    HW2 5898   5.540   3.740   6.679
 1667SOL     OW 5899   6.823   0.913   6.682
 1667SOL    HW1 5900   6.893   0.942   6.746
 1667SOL    HW2 5901   6.829   0.967   6.598
 1668SOL     OW 5902   2.195   0.368   4.970
 1668SOL    HW1 5903   2.132   0.360   5.046
 1668SOL    HW2 5904   2.144   0.370   4.884
 1669SOL     OW 5905   6.133   6.323   6.595
 1669SOL    HW1 5906   6.137   6.235   6.549
 1669SOL    HW2 5907   6.181   6.317   6.682
 1670SOL     OW 5908   6.006   3.716   6.505
 1670SOL    HW1 5909   5.979   3.619   6.509
 1670SOL    HW2 5910   5.979   3.754   6.417
 1671SOL     OW 5911   6.216   4.588   0.441
 1671SOL    HW1 5912   6.199   4.586   0.540
 1671SOL    HW2 5913   6.180   4.673   0.403
 1672SOL     OW 5914   1.667   5.314   2.009
 1672SOL    HW1 5915   1.600   5.240   2.006
 1672SOL    HW2 5916   1.758   5.276   2.030
 1673SOL     OW 5917   6.486   1.998   3.427
 1673SOL    HW1 5918   6.409   2.015   3.488
 1673SOL    HW2 5919   6.457   2.009   3.332
 1674SOL     OW 5920   2.139   5.244   6.651
 1674SOL    HW1 5921   2.193   5.243   6.735
 1674SOL    HW2 5922   2.177   5.179   6.586
 1675SOL     OW 5923   4.870   2.226   0.723
 1675SOL    HW1 5924   4.845   2.323   0.722
 1675SOL    HW2 5925   4.932   2.209   0.800
 1676SOL     OW 5926   2.427   1.257   4.412
 1676SOL    HW1 5927   2.455   1.351   4.394
 1676SOL    HW2 5928   2.357   1.255   4.483
 1677SOL     OW 5929   6.138   0.885   5.542
 1677SOL    HW1 5930   6.062   0.913   5.484
 1677SOL    HW2 5931   6.110   0.888   5.638
 1678SOL     OW 5932   4.913   0.370   1.401
 1678SOL    HW1 5933   4.933   0.468   1.397
 1678SOL    HW2 5934   4.988   0.323   1.447
 1679SOL     OW 5935   5.937   4.244   0.229
 1679SOL    HW1 5936   5.881   4.315   0.188
 1679SOL    HW2 5937   5.933   4.251   0.328
 1680SOL     OW 5938   1.274   2.499   4.781
 1680SOL    HW1 5939   1.265   2.430   4.853
 1680SOL    HW2 5940   1.260   2.590   4.820
 1681SOL     OW 5941   4.607   5.838   0.754
 1681SOL    HW1 5942   4.591   5.907   0.684
 1681SOL    HW2 5943   4.695   5.855   0.797
 1682SOL     OW 5944   6.779   3.701   5.424
 1682SOL    HW1 5945   6.764   3.604   5.402
 1682SOL    HW2 5946   6.864   3.732   5.380
 1683SOL     OW 5947   5.535   5.934   6.317
 1683SOL    HW1 5948   5.630   5.957   6.339
 1683SOL    HW2 5949   5.473   5.980   6.381
 1684SOL     OW 5950   0.084   6.344   4.754
 1684SOL    HW1 5951   0.021   6.418   4.731
 1684SOL    HW2 5952   0.111   6.296   4.670
 1685SOL     OW 5953   1.432   1.241   6.942
 1685SOL    HW1 5954   1.454   1.164   6.883
 1685SOL    HW2 5955   1.485   1.233   0.002
 1686SOL     OW 5956   1.981   5.877   6.604
 1686SOL    HW1 5957   1.960   5.907   6.697
 1686SOL    HW2 5958   2.080   5.871   6.593
 1687SOL     OW 5959   2.232   6.098   1.856
 1687SOL    HW1 5960   2.282   6.041   1.921
 1687SOL    HW2 5961   2.141   6.118   1.892
 1688SOL     OW 5962   0.665   1.491   3.796
 1688SOL    HW1 5963   0.725   1.411   3.798
 1688SOL    HW2 5964   0.719   1.574   3.810
 1689SOL     OW 5965   3.367   1.732   2.183
 1689SOL    HW1 5966   3.387   1.825   2.152
 1689SOL    HW2 5967   3.453   1.681   2.193
 1690SOL     OW 5968   0.823   2.025   0.772
 1690SOL    HW1 5969   0.871   2.113   0.770
 1690SOL    HW2 5970   0.759   2.020   0.696
 1691SOL     OW 5971   4.563   4.868   2.568
 1691SOL    HW1 5972   4.654   4.910   2.570
 1691SOL    HW2 5973   4.566   4.787   2.509
 1692SOL     OW 5974   1.651   6.965   3.371
 1692SOL    HW1 5975   1.598   7.016   3.439
 1692SOL    HW2 5976   1.596   6.889   3.337
 1693SOL     OW 5977   2.919   1.968   4.136
 1693SOL    HW1 5978   3.014   1.938   4.129
 1693SOL    HW2 5979   2.912   2.040   4.204
 1694SOL     OW 5980   4.708   6.017   5.465
 1694SOL    HW1 5981   4.654   5.934   5.475
 1694SOL    HW2 5982   4.800   5.994   5.431
 1695SOL     OW 5983   3.400   1.212   6.177
 1695SOL    HW1 5984   3.456   1.143   6.223
 1695SOL    HW2 5985   3.452   1.253   6.102
 1696SOL     OW 5986   3.620   5.477   2.048
 1696SOL    HW1 5987   3.713   5.457   2.015
 1696SOL    HW2 5988   3.588   5.402   2.105
 1697SOL     OW 5989   0.955   1.355   2.349
 1697SOL    HW1 5990   0.975   1.257   2.348
 1697SOL    HW2 5991   1.036   1.406   2.318
 1698SOL     OW 5992   5.125   1.815   0.798
 1698SOL    HW1 5993   5.128   1.791   0.895
 1698SOL    HW2 5994   5.031   1.835   0.772
 1699SOL     OW 5995   2.626   4.194   0.799
 1699SOL    HW1 5996   2.643   4.195   0.700
 1699SOL    HW2 5997   2.639   4.102   0.834
 1700SOL     OW 5998   6.511   2.853   4.505
 1700SOL    HW1 5999   6.571   2.777   4.481
 1700SOL    HW2 6000   6.418   2.832   4.475
 1701SOL     OW 6001   5.878   3.275   4.937
 1701SOL    HW1 6002   5.930   3.354   4.906
 1701SOL    HW2 6003   5.791   3.306   4.977
 1702SOL     OW 6004   4.947   2.871   1.931
 1702SOL    HW1 6005   4.952   2.880   1.832
 1702SOL    HW2 6006   4.881   2.937   1.967
 1703SOL     OW 6007   1.426   3.694   0.172
 1703SOL    HW1 6008   1.510   3.730   0.131
 1703SOL    HW2 6009   1.451   3.635   0.249
 1704SOL     OW 6010   0.213   0.645   1.682
 1704SOL    HW1 6011   0.143   0.654   1.753
 1704SOL    HW2 6012   0.219   0.729   1.629
 1705SOL     OW 6013   3.797   3.631   2.666
 1705SOL    HW1 6014   3.842   3.542   2.673
 1705SOL    HW2 6015   3.866   3.703   2.662
 1706SOL     OW 6016   2.514   0.392   6.578
 1706SOL    HW1 6017   2.449   0.326   6.615
 1706SOL    HW2 6018   2.478   0.427   6.491
 1707SOL     OW 6019   5.600   1.451   3.027
 1707SOL    HW1 6020   5.637   1.529   2.977
 1707SOL    HW2 6021   5.671   1.381   3.035
 1708SOL     OW 6022   0.623   4.584   1.698
 1708SOL    HW1 6023   0.583   4.532   1.622
 1708SOL    HW2 6024   0.721   4.593   1.683
 1709SOL     OW 6025   2.981   5.736   4.764
 1709SOL    HW1 6026   2.918   5.709   4.837
 1709SOL    HW2 6027   2.982   5.665   4.693
 1710SOL     OW 6028   0.272   5.357   4.087
 1710SOL    HW1 6029   0.294   5.335   3.991
 1710SOL    HW2 6030   0.293   5.278   4.144
 1711SOL     OW 6031   1.957   4.151   5.233
 1711SOL    HW1 6032   1.987   4.056   5.232
 1711SOL    HW2 6033   1.867   4.158   5.190
 1712SOL     OW 6034   1.734   4.923   1.534
 1712SOL    HW1 6035   1.755   4.961   1.444
 1712SOL    HW2 6036   1.712   4.997   1.597
 1713SOL     OW 6037   1.784   3.337   0.341
 1713SOL    HW1 6038   1.727   3.288   0.275
 1713SOL    HW2 6039   1.868   3.285   0.358
 1714SOL     OW 6040   3.881   1.409   1.390
 1714SOL    HW1 6041   3.974   1.403   1.426
 1714SOL    HW2 6042   3.819   1.361   1.452
 1715SOL     OW 6043   0.422   2.909   3.642
 1715SOL    HW1 6044   0.403   2.938   3.548
 1715SOL    HW2 6045   0.391   2.815   3.655
 1716SOL     OW 6046   6.939   6.936   6.962
 1716SOL    HW1 6047   7.016   6.998   6.981
 1716SOL    HW2 6048   6.886   6.923   0.021
 1717SOL     OW 6049   3.333   0.009   7.022
 1717SOL    HW1 6050   3.326   6.968   0.072
 1717SOL    HW2 6051   3.247   0.011   6.971
 1718SOL     OW 6052   1.199   4.457   5.578
 1718SOL    HW1 6053   1.141   4.438   5.658
 1718SOL    HW2 6054   1.292   4.428   5.596
 1719SOL     OW 6055   2.215   3.433   1.430
 1719SOL    HW1 6056   2.120   3.463   1.438
 1719SOL    HW2 6057   2.247   3.448   1.337
 1720SOL     OW 6058   6.598   1.305   2.782
 1720SOL    HW1 6059   6.511   1.283   2.826
 1720SOL    HW2 6060   6.673   1.293   2.847
 1721SOL     OW 6061   1.773   6.056   3.862
 1721SOL    HW1 6062   1.840   5.995   3.821
 1721SOL    HW2 6063   1.816   6.144   3.883
 1722SOL     OW 6064   5.636   0.198   1.729
 1722SOL    HW1 6065   5.579   0.233   1.803
 1722SOL    HW2 6066   5.615   0.246   1.644
 1723SOL     OW 6067   6.123   0.870   2.870
 1723SOL    HW1 6068   6.187   0.896   2.941
 1723SOL    HW2 6069   6.087   0.778   2.889
 1724SOL     OW 6070   5.061   0.522   6.992
 1724SOL    HW1 6071   5.061   0.471   6.906
 1724SOL    HW2 6072   5.109   0.609   6.979
 1725SOL     OW 6073   4.025   5.477   2.241
 1725SOL    HW1 6074   4.118   5.492   2.272
 1725SOL    HW2 6075   3.984   5.400   2.290
 1726SOL     OW 6076   0.029   3.756   4.281
 1726SOL    HW1 6077   0.122   3.763   4.244
 1726SOL    HW2 6078   7.004   3.841   4.263
 1727SOL     OW 6079   2.896   3.371   5.267
 1727SOL    HW1 6080   2.817   3.416   5.310
 1727SOL    HW2 6081   2.970   3.438   5.257
 1728SOL     OW 6082   4.433   4.576   3.563
 1728SOL    HW1 6083   4.408   4.588   3.659
 1728SOL    HW2 6084   4.357   4.603   3.505
 1729SOL     OW 6085   2.156   3.835   2.412
 1729SOL    HW1 6086   2.200   3.916   2.448
 1729SOL    HW2 6087   2.163   3.835   2.312
 1730SOL     OW 6088   5.849   2.116   4.529
 1730SOL    HW1 6089   5.837   2.206   4.488
 1730SOL    HW2 6090   5.804   2.114   4.618
 1731SOL     OW 6091   0.450   6.398   0.652
 1731SOL    HW1 6092   0.426   6.451   0.570
 1731SOL    HW2 6093   0.545   6.418   0.677
 1732SOL     OW 6094   0.735   4.546   6.850
 1732SOL    HW1 6095   0.675   4.626   6.855
 1732SOL    HW2 6096   0.691   4.467   6.892
 1733SOL     OW 6097   1.050   3.982   0.300
 1733SOL    HW1 6098   1.017   3.896   0.340
 1733SOL    HW2 6099   1.079   3.966   0.206
 1734SOL     OW 6100   4.749   3.685   1.514
 1734SOL    HW1 6101   4.809   3.743   1.459
 1734SOL    HW2 6102   4.798   3.651   1.594
 1735SOL     OW 6103   5.053   6.213   0.623
 1735SOL    HW1 6104   4.977   6.201   0.686
 1735SOL    HW2 6105   5.042   6.149   0.546
 1736SOL     OW 6106   3.095   3.713   0.263
 1736SOL    HW1 6107   3.142   3.783   0.317
 1736SOL    HW2 6108   3.157   3.637   0.245
 1737SOL     OW 6109   1.386   6.051   3.591
 1737SOL    HW1 6110   1.328   5.987   3.540
 1737SOL    HW2 6111   1.459   6.084   3.531
 1738SOL     OW 6112   1.144   1.532   1.537
 1738SOL    HW1 6113   1.203   1.576   1.605
 1738SOL    HW2 6114   1.153   1.433   1.543
 1739SOL     OW 6115   4.514   2.443   6.126
 1739SOL    HW1 6116   4.437   2.379   6.132
 1739SOL    HW2 6117   4.588   2.412   6.185
 1740SOL     OW 6118   0.802   1.200   5.329
 1740SOL    HW1 6119   0.789   1.290   5.371
 1740SOL    HW2 6120   0.829   1.211   5.233
 1741SOL     OW 6121   2.333   0.716   2.301
 1741SOL    HW1 6122   2.273   0.751   2.229
 1741SOL    HW2 6123   2.277   0.675   2.373
 1742SOL     OW 6124   6.078   6.328   4.769
 1742SOL    HW1 6125   6.082   6.248   4.709
 1742SOL    HW2 6126   5.990   6.328   4.817
 1743SOL     OW 6127   4.608   0.900   0.793
 1743SOL    HW1 6128   4.547   0.979   0.803
 1743SOL    HW2 6129   4.682   0.922   0.731
 1744SOL     OW 6130   2.902   6.734   1.410
 1744SOL    HW1 6131   3.001   6.731   1.402
 1744SOL    HW2 6132   2.869   6.825   1.387
 1745SOL     OW 6133   6.334   3.172   5.113
 1745SOL    HW1 6134   6.394   3.184   5.033
 1745SOL    HW2 6135   6.329   3.075   5.136
 1746SOL     OW 6136   2.563   1.009   5.682
 1746SOL    HW1 6137   2.529   1.050   5.597
 1746SOL    HW2 6138   2.662   1.023   5.689
 1747SOL     OW 6139   5.146   6.825   5.734
 1747SOL    HW1 6140   5.171   6.734   5.765
 1747SOL    HW2 6141   5.228   6.881   5.723
 1748SOL     OW 6142   5.707   1.537   1.824
 1748SOL    HW1 6143   5.755   1.555   1.910
 1748SOL    HW2 6144   5.706   1.438   1.807
 1749SOL     OW 6145   4.592   0.095   5.819
 1749SOL    HW1 6146   4.546   0.172   5.776
 1749SOL    HW2 6147   4.614   0.117   5.913
 1750SOL     OW 6148   4.788   0.313   4.024
 1750SOL    HW1 6149   4.753   0.388   4.080
 1750SOL    HW2 6150   4.791   0.229   4.079
 1751SOL     OW 6151   2.059   5.459   3.671
 1751SOL    HW1 6152   2.132   5.520   3.703
 1751SOL    HW2 6153   1.971   5.493   3.703
 1752SOL     OW 6154   0.120   1.925   6.835
 1752SOL    HW1 6155   0.061   1.973   6.770
 1752SOL    HW2 6156   0.211   1.965   6.833
 1753SOL     OW 6157   2.322   6.678   2.295
 1753SOL    HW1 6158   2.369   6.763   2.270
 1753SOL    HW2 6159   2.364   6.639   2.376
 1754SOL     OW 6160   3.824   2.743   1.493
 1754SOL    HW1 6161   3.826   2.739   1.393
 1754SOL    HW2 6162   3.800   2.654   1.531
 1755SOL     OW 6163   5.968   3.667   0.284
 1755SOL    HW1 6164   5.989   3.764   0.297
 1755SOL    HW2 6165   5.891   3.642   0.342
 1756SOL     OW 6166   5.686   5.629   4.795
 1756SOL    HW1 6167   5.724   5.722   4.802
 1756SOL    HW2 6168   5.760   5.562   4.806
 1757SOL     OW 6169   3.618   0.732   5.495
 1757SOL    HW1 6170   3.637   0.708   5.400
 1757SOL    HW2 6171   3.635   0.830   5.509
 1758SOL     OW 6172   2.698   1.700   3.347
 1758SOL    HW1 6173   2.706   1.676   3.250
 1758SOL    HW2 6174   2.743   1.630   3.403
 1759SOL     OW 6175   0.478   5.554   5.990
 1759SOL    HW1 6176   0.496   5.574   6.086
 1759SOL    HW2 6177   0.485   5.639   5.936
 1760SOL     OW 6178   5.065   0.297   2.174
 1760SOL    HW1 6179   5.110   0.248   2.249
 1760SOL    HW2 6180   5.114   0.278   2.089
 1761SOL     OW 6181   5.775   2.665   1.833
 1761SOL    HW1 6182   5.689   2.670   1.782
 1761SOL    HW2 6183   5.801   2.757   1.863
 1762SOL     OW 6184   5.553   2.671   0.720
 1762SOL    HW1 6185   5.537   2.575   0.743
 1762SOL    HW2 6186   5.468   2.723   0.734
 1763SOL     OW 6187   2.100   3.416   3.969
 1763SOL    HW1 6188   2.013   3.455   3.940
 1763SOL    HW2 6189   2.150   3.481   4.026
 1764SOL     OW 6190   6.537   2.969   4.208
 1764SOL    HW1 6191   6.478   3.043   4.179
 1764SOL    HW2 6192   6.487   2.883   4.205
 1765SOL     OW 6193   1.942   3.083   6.180
 1765SOL    HW1 6194   1.971   3.177   6.162
 1765SOL    HW2 6195   1.927   3.035   6.094
 1766SOL     OW 6196   6.122   3.269   5.359
 1766SOL    HW1 6197   6.173   3.186   5.338
 1766SOL    HW2 6198   6.024   3.253   5.347
 1767SOL     OW 6199   6.721   4.287   1.807
 1767SOL    HW1 6200   6.664   4.217   1.765
 1767SOL    HW2 6201   6.815   4.279   1.774
 1768SOL     OW 6202   6.181   6.809   3.943
 1768SOL    HW1 6203   6.126   6.781   3.864
 1768SOL    HW2 6204   6.206   6.905   3.935
 1769SOL     OW 6205   5.353   0.687   3.674
 1769SOL    HW1 6206   5.256   0.679   3.655
 1769SOL    HW2 6207   5.371   0.775   3.719
 1770SOL     OW 6208   3.396   5.266   5.103
 1770SOL    HW1 6209   3.428   5.175   5.076
 1770SOL    HW2 6210   3.467   5.334   5.084
 1771SOL     OW 6211   4.341   6.889   0.072
 1771SOL    HW1 6212   4.294   6.804   0.047
 1771SOL    HW2 6213   4.328   6.907   0.169
 1772SOL     OW 6214   3.157   6.239   3.503
 1772SOL    HW1 6215   3.175   6.314   3.440
 1772SOL    HW2 6216   3.231   6.232   3.569
 1773SOL     OW 6217   1.133   6.352   6.985
 1773SOL    HW1 6218   1.084   6.353   0.047
 1773SOL    HW2 6219   1.117   6.439   6.937
 1774SOL     OW 6220   3.115   4.942   2.176
 1774SOL    HW1 6221   3.018   4.965   2.179
 1774SOL    HW2 6222   3.170   5.026   2.179
 1775SOL     OW 6223   0.632   4.284   1.305
 1775SOL    HW1 6224   0.695   4.224   1.354
 1775SOL    HW2 6225   0.685   4.347   1.247
 1776SOL     OW 6226   3.108   6.228   5.882
 1776SOL    HW1 6227   3.084   6.131   5.896
 1776SOL    HW2 6228   3.165   6.236   5.800
 1777SOL     OW 6229   3.265   5.542   0.207
 1777SOL    HW1 6230   3.240   5.590   0.122
 1777SOL    HW2 6231   3.286   5.609   0.278
 1778SOL     OW 6232   6.523   3.715   5.819
 1778SOL    HW1 6233   6.550   3.724   5.915
 1778SOL    HW2 6234   6.576   3.779   5.764
 1779SOL     OW 6235   3.807   0.600   5.646
 1779SOL    HW1 6236   3.884   0.657   5.675
 1779SOL    HW2 6237   3.762   0.642   5.567
 1780SOL     OW 6238   3.432   3.543   6.680
 1780SOL    HW1 6239   3.391   3.454   6.658
 1780SOL    HW2 6240   3.530   3.539   6.663
 1781SOL     OW 6241   3.788   5.218   3.744
 1781SOL    HW1 6242   3.773   5.310   3.708
 1781SOL    HW2 6243   3.846   5.223   3.825
 1782SOL     OW 6244   3.390   1.675   4.179
 1782SOL    HW1 6245   3.387   1.585   4.136
 1782SOL    HW2 6246   3.332   1.675   4.260
 1783SOL     OW 6247   1.883   5.752   6.880
 1783SOL    HW1 6248   1.875   5.799   6.968
 1783SOL    HW2 6249   1.853   5.657   6.890
 1784SOL     OW 6250   3.213   6.715   5.907
 1784SOL    HW1 6251   3.256   6.800   5.876
 1784SOL    HW2 6252   3.183   6.727   6.002
 1785SOL     OW 6253   0.108   4.861   1.709
 1785SOL    HW1 6254   0.136   4.803   1.632
 1785SOL    HW2 6255   0.189   4.902   1.750
 1786SOL     OW 6256   4.041   2.371   0.989
 1786SOL    HW1 6257   4.013   2.338   0.899
 1786SOL    HW2 6258   4.075   2.294   1.043
 1787SOL     OW 6259   3.925   0.879   5.927
 1787SOL    HW1 6260   3.868   0.921   5.856
 1787SOL    HW2 6261   3.879   0.798   5.964
 1788SOL     OW 6262   1.478   4.903   6.354
 1788SOL    HW1 6263   1.558   4.933   6.406
 1788SOL    HW2 6264   1.423   4.841   6.410
 1789SOL     OW 6265   6.116   0.417   0.238
 1789SOL    HW1 6266   6.161   0.472   0.168
 1789SOL    HW2 6267   6.147   0.445   0.328
 1790SOL     OW 6268   3.213   6.826   3.076
 1790SOL    HW1 6269   3.215   6.740   3.024
 1790SOL    HW2 6270   3.268   6.815   3.159
 1791SOL     OW 6271   0.150   6.781   2.539
 1791SOL    HW1 6272   0.186   6.784   2.632
 1791SOL    HW2 6273   0.162   6.870   2.495
 1792SOL     OW 6274   1.126   4.212   4.650
 1792SOL    HW1 6275   1.183   4.264   4.713
 1792SOL    HW2 6276   1.161   4.118   4.643
 1793SOL     OW 6277   0.113   0.934   3.691
 1793SOL    HW1 6278   0.131   0.923   3.789
 1793SOL    HW2 6279   0.199   0.923   3.640
 1794SOL     OW 6280   4.506   6.351   6.530
 1794SOL    HW1 6281   4.554   6.389   6.451
 1794SOL    HW2 6282   4.486   6.254   6.513
 1795SOL     OW 6283   1.027   3.020   0.075
 1795SOL    HW1 6284   1.121   3.041   0.049
 1795SOL    HW2 6285   1.014   3.039   0.172
 1796SOL     OW 6286   3.470   0.555   6.323
 1796SOL    HW1 6287   3.422   0.643   6.325
 1796SOL    HW2 6288   3.412   0.486   6.280
 1797SOL     OW 6289   1.006   0.738   0.786
 1797SOL    HW1 6290   0.976   0.690   0.869
 1797SOL    HW2 6291   1.014   0.672   0.712
 1798SOL     OW 6292   5.548   2.274   3.218
 1798SOL    HW1 6293   5.514   2.183   3.194
 1798SOL    HW2 6294   5.536   2.289   3.316
 1799SOL     OW 6295   2.322   1.731   6.806
 1799SOL    HW1 6296   2.354   1.710   6.714
 1799SOL    HW2 6297   2.234   1.778   6.801
 1800SOL     OW 6298   3.833   4.981   2.357
 1800SOL    HW1 6299   3.738   4.949   2.366
 1800SOL    HW2 6300   3.878   4.975   2.446
 1801SOL     OW 6301   5.706   0.059   0.957
 1801SOL    HW1 6302   5.632   7.018   0.975
 1801SOL    HW2 6303   5.759   0.074   1.040
 1802SOL     OW 6304   5.304   5.052   3.743
 1802SOL    HW1 6305   5.321   5.079   3.648
 1802SOL    HW2 6306   5.222   4.996   3.747
 1803SOL     OW 6307   5.580   5.537   1.210
 1803SOL    HW1 6308   5.503   5.475   1.194
 1803SOL    HW2 6309   5.547   5.619   1.258
 1804SOL     OW 6310   3.269   3.278   5.923
 1804SOL    HW1 6311   3.273   3.374   5.895
 1804SOL    HW2 6312   3.177   3.242   5.908
 1805SOL     OW 6313   5.656   2.720   6.515
 1805SOL    HW1 6314   5.597   2.790   6.556
 1805SOL    HW2 6315   5.668   2.644   6.578
 1806SOL     OW 6316   0.076   0.785   0.875
 1806SOL    HW1 6317   0.134   0.742   0.944
 1806SOL    HW2 6318   0.102   0.881   0.864
 1807SOL     OW 6319   6.101   2.110   5.977
 1807SOL    HW1 6320   6.096   2.068   6.068
 1807SOL    HW2 6321   6.100   2.209   5.986
 1808SOL     OW 6322   2.025   4.495   3.993
 1808SOL    HW1 6323   2.088   4.556   4.042
 1808SOL    HW2 6324   2.001   4.418   4.053
 1809SOL     OW 6325   3.578   0.242   6.600
 1809SOL    HW1 6326   3.652   0.259   6.536
 1809SOL    HW2 6327   3.547   0.147   6.592
 1810SOL     OW 6328   3.360   5.835   2.888
 1810SOL    HW1 6329   3.304   5.761   2.925
 1810SOL    HW2 6330   3.436   5.796   2.835
 1811SOL     OW 6331   6.205   5.855   2.535
 1811SOL    HW1 6332   6.272   5.824   2.467
 1811SOL    HW2 6333   6.230   5.821   2.625
 1812SOL     OW 6334   4.242   5.391   6.604
 1812SOL    HW1 6335   4.310   5.366   6.673
 1812SOL    HW2 6336   4.286   5.441   6.530
 1813SOL     OW 6337   6.900   5.571   5.405
 1813SOL    HW1 6338   6.975   5.571   5.471
 1813SOL    HW2 6339   6.895   5.481   5.362
 1814SOL     OW 6340   4.970   6.676   2.488
 1814SOL    HW1 6341   5.042   6.743   2.468
 1814SOL    HW2 6342   5.007   6.605   2.548
 1815SOL     OW 6343   0.281   0.970   2.354
 1815SOL    HW1 6344   0.379   0.952   2.339
 1815SOL    HW2 6345   0.270   1.057   2.401
 1816SOL     OW 6346   0.868   4.130   0.479
 1816SOL    HW1 6347   0.912   4.087   0.400
 1816SOL    HW2 6348   0.914   4.217   0.499
 1817SOL     OW 6349   1.074   5.385   1.819
 1817SOL    HW1 6350   1.038   5.414   1.730
 1817SOL    HW2 6351   1.167   5.350   1.808
 1818SOL     OW 6352   1.587   1.149   3.014
 1818SOL    HW1 6353   1.555   1.207   3.089
 1818SOL    HW2 6354   1.682   1.171   2.993
 1819SOL     OW 6355   1.141   4.230   2.357
 1819SOL    HW1 6356   1.198   4.271   2.286
 1819SOL    HW2 6357   1.132   4.131   2.341
 1820SOL     OW 6358   5.859   0.489   2.840
 1820SOL    HW1 6359   5.829   0.435   2.762
 1820SOL    HW2 6360   5.959   0.487   2.846
 1821SOL     OW 6361   1.616   1.473   3.343
 1821SOL    HW1 6362   1.658   1.515   3.263
 1821SOL    HW2 6363   1.630   1.532   3.423
 1822SOL     OW 6364   3.629   3.476   1.653
 1822SOL    HW1 6365   3.659   3.417   1.728
 1822SOL    HW2 6366   3.544   3.441   1.614
 1823SOL     OW 6367   4.055   0.097   2.577
 1823SOL    HW1 6368   4.071   0.096   2.478
 1823SOL    HW2 6369   3.961   0.068   2.596
 1824SOL     OW 6370   5.082   2.429   1.720
 1824SOL    HW1 6371   5.010   2.467   1.777
 1824SOL    HW2 6372   5.065   2.331   1.705
 1825SOL     OW 6373   1.011   1.194   1.382
 1825SOL    HW1 6374   1.088   1.221   1.440
 1825SOL    HW2 6375   1.003   1.258   1.306
 1826SOL     OW 6376   2.949   5.946   6.563
 1826SOL    HW1 6377   2.877   5.925   6.497
 1826SOL    HW2 6378   3.037   5.952   6.516
 1827SOL     OW 6379   6.209   6.799   1.878
 1827SOL    HW1 6380   6.165   6.802   1.789
 1827SOL    HW2 6381   6.271   6.878   1.887
 1828SOL     OW 6382   1.801   2.246   7.006
 1828SOL    HW1 6383   1.822   2.283   6.915
 1828SOL    HW2 6384   1.814   2.318   0.050
 1829SOL     OW 6385   6.094   5.744   1.802
 1829SOL    HW1 6386   6.112   5.645   1.808
 1829SOL    HW2 6387   6.001   5.763   1.834
 1830SOL     OW 6388   5.725   6.061   3.718
 1830SOL    HW1 6389   5.791   6.137   3.718
 1830SOL    HW2 6390   5.705   6.035   3.813
 1831SOL     OW 6391   5.157   0.796   3.398
 1831SOL    HW1 6392   5.139   0.724   3.465
 1831SOL    HW2 6393   5.083   0.797   3.331
 1832SOL     OW 6394   5.192   2.795   0.471
 1832SOL    HW1 6395   5.258   2.720   0.470
 1832SOL    HW2 6396   5.100   2.758   0.488
 1833SOL     OW 6397   5.776   1.932   5.460
 1833SOL    HW1 6398   5.792   1.886   5.547
 1833SOL    HW2 6399   5.860   1.931   5.406
 1834SOL     OW 6400   2.466   3.956   0.597
 1834SOL    HW1 6401   2.563   3.977   0.609
 1834SOL    HW2 6402   2.455   3.889   0.522
 1835SOL     OW 6403   1.018   4.270   0.012
 1835SOL    HW1 6404   0.958   4.204   6.992
 1835SOL    HW2 6405   0.984   4.290   0.104
 1836SOL     OW 6406   0.489   5.782   0.678
 1836SOL    HW1 6407   0.438   5.833   0.608
 1836SOL    HW2 6408   0.428   5.760   0.754
 1837SOL     OW 6409   0.844   2.266   4.614
 1837SOL    HW1 6410   0.891   2.178   4.630
 1837SOL    HW2 6411   0.783   2.257   4.535
 1838SOL     OW 6412   0.819   2.647   4.049
 1838SOL    HW1 6413   0.754   2.715   4.015
 1838SOL    HW2 6414   0.784   2.606   4.133
 1839SOL     OW 6415   6.758   1.656   5.908
 1839SOL    HW1 6416   6.829   1.639   5.977
 1839SOL    HW2 6417   6.784   1.736   5.854
 1840SOL     OW 6418   1.523   5.292   0.289
 1840SOL    HW1 6419   1.568   5.209   0.257
 1840SOL    HW2 6420   1.515   5.290   0.389
 1841SOL     OW 6421   1.558   3.185   2.849
 1841SOL    HW1 6422   1.631   3.127   2.886
 1841SOL    HW2 6423   1.518   3.239   2.923
 1842SOL     OW 6424   0.784   5.034   6.952
 1842SOL    HW1 6425   0.774   5.035   6.853
 1842SOL    HW2 6426   0.780   5.128   6.987
 1843SOL     OW 6427   3.828   2.089   4.807
 1843SOL    HW1 6428   3.804   2.050   4.896
 1843SOL    HW2 6429   3.875   2.021   4.752
 1844SOL     OW 6430   5.381   3.424   3.679
 1844SOL    HW1 6431   5.369   3.335   3.723
 1844SOL    HW2 6432   5.295   3.452   3.637
 1845SOL     OW 6433   4.083   6.915   1.049
 1845SOL    HW1 6434   4.095   7.014   1.050
 1845SOL    HW2 6435   4.011   6.889   1.114
 1846SOL     OW 6436   3.293   0.963   5.415
 1846SOL    HW1 6437   3.391   0.945   5.413
 1846SOL    HW2 6438   3.269   1.012   5.499
 1847SOL     OW 6439   1.940   0.033   0.325
 1847SOL    HW1 6440   1.850   0.062   0.290
 1847SOL    HW2 6441   1.927   6.994   0.401
 1848SOL     OW 6442   2.985   6.941   2.505
 1848SOL    HW1 6443   3.030   6.858   2.535
 1848SOL    HW2 6444   3.051   7.016   2.501
 1849SOL     OW 6445   2.759   1.092   6.447
 1849SOL    HW1 6446   2.821   1.081   6.369
 1849SOL    HW2 6447   2.736   1.002   6.484
 1850SOL     OW 6448   5.422   1.544   1.566
 1850SOL    HW1 6449   5.520   1.524   1.570
 1850SOL    HW2 6450   5.404   1.630   1.612
 1851SOL     OW 6451   6.577   3.428   2.892
 1851SOL    HW1 6452   6.672   3.456   2.878
 1851SOL    HW2 6453   6.519   3.510   2.899
 1852SOL     OW 6454   5.486   2.941   6.503
 1852SOL    HW1 6455   5.397   2.941   6.548
 1852SOL    HW2 6456   5.476   2.902   6.411
 1853SOL     OW 6457   1.527   4.376   0.539
 1853SOL    HW1 6458   1.427   4.375   0.542
 1853SOL    HW2 6459   1.558   4.443   0.472
 1854SOL     OW 6460   2.820   5.516   4.117
 1854SOL    HW1 6461   2.820   5.614   4.098
 1854SOL    HW2 6462   2.835   5.501   4.215
 1855SOL     OW 6463   5.533   4.326   1.681
 1855SOL    HW1 6464   5.613   4.297   1.734
 1855SOL    HW2 6465   5.465   4.366   1.742
 1856SOL     OW 6466   5.031   3.469   6.388
 1856SOL    HW1 6467   5.029   3.369   6.384
 1856SOL    HW2 6468   5.115   3.499   6.432
 1857SOL     OW 6469   4.863   1.494   3.969
 1857SOL    HW1 6470   4.948   1.498   3.917
 1857SOL    HW2 6471   4.851   1.578   4.022
 1858SOL     OW 6472   5.561   3.447   3.474
 1858SOL    HW1 6473   5.501   3.446   3.554
 1858SOL    HW2 6474   5.655   3.427   3.501
 1859SOL     OW 6475   4.949   1.489   3.495
 1859SOL    HW1 6476   4.901   1.523   3.414
 1859SOL    HW2 6477   4.889   1.428   3.547
 1860SOL     OW 6478   4.153   1.934   5.230
 1860SOL    HW1 6479   4.235   1.940   5.174
 1860SOL    HW2 6480   4.178   1.937   5.327
 1861SOL     OW 6481   5.244   6.504   2.388
 1861SOL    HW1 6482   5.235   6.545   2.478
 1861SOL    HW2 6483   5.337   6.467   2.377
 1862SOL     OW 6484   1.674   1.780   0.502
 1862SOL    HW1 6485   1.619   1.858   0.473
 1862SOL    HW2 6486   1.667   1.707   0.434
 1863SOL     OW 6487   2.163   2.667   1.463
 1863SOL    HW1 6488   2.068   2.698   1.471
 1863SOL    HW2 6489   2.214   2.731   1.405
 1864SOL     OW 6490   1.107   6.504   3.395
 1864SOL    HW1 6491   1.147   6.582   3.444
 1864SOL    HW2 6492   1.011   6.494   3.420
 1865SOL     OW 6493   5.046   2.329   6.635
 1865SOL    HW1 6494   5.029   2.302   6.730
 1865SOL    HW2 6495   5.060   2.427   6.629
 1866SOL     OW 6496   5.533   5.516   2.650
 1866SOL    HW1 6497   5.505   5.593   2.594
 1866SOL    HW2 6498   5.471   5.439   2.634
 1867SOL     OW 6499   0.850   4.736   6.676
 1867SOL    HW1 6500   0.808   4.664   6.731
 1867SOL    HW2 6501   0.804   4.823   6.694
 1868SOL     OW 6502   6.244   4.033   5.651
 1868SOL    HW1 6503   6.151   4.066   5.663
 1868SOL    HW2 6504   6.298   4.100   5.601
 1869SOL     OW 6505   5.852   1.354   4.668
 1869SOL    HW1 6506   5.945   1.384   4.690
 1869SOL    HW2 6507   5.818   1.407   4.591
 1870SOL     OW 6508   2.264   4.082   4.303
 1870SOL    HW1 6509   2.264   4.093   4.402
 1870SOL    HW2 6510   2.295   4.166   4.259
 1871SOL     OW 6511   1.522   0.529   0.769
 1871SOL    HW1 6512   1.599   0.569   0.818
 1871SOL    HW2 6513   1.490   0.447   0.816
 1872SOL     OW 6514   2.555   4.602   0.132
 1872SOL    HW1 6515   2.585   4.526   0.074
 1872SOL    HW2 6516   2.456   4.595   0.148
 1873SOL     OW 6517   5.350   1.025   0.576
 1873SOL    HW1 6518   5.436   1.076   0.584
 1873SOL    HW2 6519   5.294   1.066   0.504
 1874SOL     OW 6520   1.505   3.521   2.693
 1874SOL    HW1 6521   1.489   3.439   2.637
 1874SOL    HW2 6522   1.513   3.601   2.633
 1875SOL     OW 6523   1.399   0.034   1.345
 1875SOL    HW1 6524   1.433   0.116   1.299
 1875SOL    HW2 6525   1.443   6.978   1.307
 1876SOL     OW 6526   2.333   6.810   4.322
 1876SOL    HW1 6527   2.248   6.857   4.343
 1876SOL    HW2 6528   2.410   6.874   4.332
 1877SOL     OW 6529   6.818   6.874   3.516
 1877SOL    HW1 6530   6.752   6.847   3.586
 1877SOL    HW2 6531   6.867   6.793   3.483
 1878SOL     OW 6532   5.671   2.492   5.812
 1878SOL    HW1 6533   5.601   2.465   5.878
 1878SOL    HW2 6534   5.761   2.467   5.847
 1879SOL     OW 6535   1.762   4.341   5.840
 1879SOL    HW1 6536   1.671   4.377   5.861
 1879SOL    HW2 6537   1.756   4.281   5.760
 1880SOL     OW 6538   6.128   0.563   5.100
 1880SOL    HW1 6539   6.157   0.584   5.193
 1880SOL    HW2 6540   6.205   0.577   5.037
 1881SOL     OW 6541   0.397   2.596   6.800
 1881SOL    HW1 6542   0.342   2.679   6.787
 1881SOL    HW2 6543   0.475   2.617   6.859
 1882SOL     OW 6544   1.175   6.359   6.662
 1882SOL    HW1 6545   1.086   6.362   6.706
 1882SOL    HW2 6546   1.174   6.291   6.589
 1883SOL     OW 6547   0.451   2.257   4.072
 1883SOL    HW1 6548   0.546   2.232   4.055
 1883SOL    HW2 6549   0.396   2.174   4.082
 1884SOL     OW 6550   0.815   2.868   1.045
 1884SOL    HW1 6551   0.866   2.841   0.964
 1884SOL    HW2 6552   0.812   2.792   1.110
 1885SOL     OW 6553   2.009   1.204   4.453
 1885SOL    HW1 6554   1.963   1.235   4.370
 1885SOL    HW2 6555   2.060   1.119   4.433
 1886SOL     OW 6556   0.725   6.579   3.359
 1886SOL    HW1 6557   0.775   6.540   3.436
 1886SOL    HW2 6558   0.750   6.531   3.275
 1887SOL     OW 6559   2.954   6.042   6.170
 1887SOL    HW1 6560   2.992   6.022   6.080
 1887SOL    HW2 6561   2.950   6.141   6.183
 1888SOL     OW 6562   2.855   1.126   3.185
 1888SOL    HW1 6563   2.886   1.069   3.261
 1888SOL    HW2 6564   2.886   1.220   3.199
 1889SOL     OW 6565   0.361   3.480   2.372
 1889SOL    HW1 6566   0.289   3.416   2.345
 1889SOL    HW2 6567   0.407   3.515   2.291
 1890SOL     OW 6568   0.815   5.958   4.744
 1890SOL    HW1 6569   0.904   5.933   4.706
 1890SOL    HW2 6570   0.756   5.877   4.747
 1891SOL     OW 6571   2.955   3.193   3.346
 1891SOL    HW1 6572   3.011   3.275   3.332
 1891SOL    HW2 6573   2.998   3.134   3.414
 1892SOL     OW 6574   1.019   0.554   2.725
 1892SOL    HW1 6575   1.021   0.611   2.643
 1892SOL    HW2 6576   1.110   0.548   2.764
 1893SOL     OW 6577   3.764   3.768   4.347
 1893SOL    HW1 6578   3.860   3.763   4.321
 1893SOL    HW2 6579   3.727   3.676   4.357
 1894SOL     OW 6580   3.235   3.382   4.484
 1894SOL    HW1 6581   3.189   3.457   4.437
 1894SOL    HW2 6582   3.166   3.325   4.530
 1895SOL     OW 6583   1.758   6.048   0.302
 1895SOL    HW1 6584   1.700   5.969   0.322
 1895SOL    HW2 6585   1.737   6.081   0.210
 1896SOL     OW 6586   6.143   2.459   1.272
 1896SOL    HW1 6587   6.230   2.504   1.253
 1896SOL    HW2 6588   6.159   2.361   1.286
 1897SOL     OW 6589   1.274   4.558   4.659
 1897SOL    HW1 6590   1.326   4.642   4.676
 1897SOL    HW2 6591   1.260   4.547   4.561
 1898SOL     OW 6592   1.773   6.165   2.965
 1898SOL    HW1 6593   1.711   6.156   2.888
 1898SOL    HW2 6594   1.810   6.259   2.968
 1899SOL     OW 6595   0.196   1.073   2.025
 1899SOL    HW1 6596   0.208   1.145   2.092
 1899SOL    HW2 6597   0.219   0.984   2.066
 1900SOL     OW 6598   2.473   6.450   6.987
 1900SOL    HW1 6599   2.444   6.409   6.900
 1900SOL    HW2 6600   2.413   6.527   7.008
 1901SOL     OW 6601   2.648   3.863   1.629
 1901SOL    HW1 6602   2.679   3.958   1.616
 1901SOL    HW2 6603   2.722   3.810   1.669
 1902SOL     OW 6604   1.469   0.407   4.928
 1902SOL    HW1 6605   1.427   0.449   4.848
 1902SOL    HW2 6606   1.460   0.468   5.007
 1903SOL     OW 6607   1.508   2.437   4.076
 1903SOL    HW1 6608   1.603   2.428   4.048
 1903SOL    HW2 6609   1.487   2.371   4.148
 1904SOL     OW 6610   5.645   6.089   1.856
 1904SOL    HW1 6611   5.598   6.059   1.773
 1904SOL    HW2 6612   5.729   6.137   1.831
 1905SOL     OW 6613   0.847   1.659   3.822
 1905SOL    HW1 6614   0.908   1.662   3.900
 1905SOL    HW2 6615   0.897   1.627   3.741
 1906SOL     OW 6616   1.519   6.549   4.661
 1906SOL    HW1 6617   1.603   6.598   4.638
 1906SOL    HW2 6618   1.529   6.506   4.750
 1907SOL     OW 6619   4.850   2.958   0.478
 1907SOL    HW1 6620   4.903   2.976   0.396
 1907SOL    HW2 6621   4.897   2.994   0.558
 1908SOL     OW 6622   3.707   1.248   1.229
 1908SOL    HW1 6623   3.786   1.309   1.235
 1908SOL    HW2 6624   3.658   1.247   1.316
 1909SOL     OW 6625   6.307   5.252   4.778
 1909SOL    HW1 6626   6.401   5.284   4.786
 1909SOL    HW2 6627   6.260   5.303   4.706
 1910SOL     OW 6628   0.534   5.876   6.103
 1910SOL    HW1 6629   0.552   5.974   6.104
 1910SOL    HW2 6630   0.558   5.837   6.192
 1911SOL     OW 6631   6.207   5.963   4.237
 1911SOL    HW1 6632   6.122   5.956   4.185
 1911SOL    HW2 6633   6.283   5.981   4.175
 1912SOL     OW 6634   3.617   5.048   2.055
 1912SOL    HW1 6635   3.561   5.093   1.985
 1912SOL    HW2 6636   3.645   4.958   2.021
 1913SOL     OW 6637   3.510   4.429   6.680
 1913SOL    HW1 6638   3.590   4.369   6.689
 1913SOL    HW2 6639   3.518   4.504   6.745
 1914SOL     OW 6640   3.360   4.457   0.055
 1914SOL    HW1 6641   3.290   4.525   0.079
 1914SOL    HW2 6642   3.334   4.412   6.995
 1915SOL     OW 6643   3.535   2.851   6.719
 1915SOL    HW1 6644   3.451   2.831   6.769
 1915SOL    HW2 6645   3.520   2.836   6.621
 1916SOL     OW 6646   3.933   0.921   2.533
 1916SOL    HW1 6647   3.871   0.997   2.514
 1916SOL    HW2 6648   4.010   0.953   2.588
 1917SOL     OW 6649   2.017   4.152   1.232
 1917SOL    HW1 6650   2.113   4.167   1.254
 1917SOL    HW2 6651   1.998   4.181   1.139
 1918SOL     OW 6652   5.350   2.170   3.594
 1918SOL    HW1 6653   5.409   2.224   3.534
 1918SOL    HW2 6654   5.300   2.103   3.539
 1919SOL     OW 6655   6.707   3.000   6.135
 1919SOL    HW1 6656   6.680   2.907   6.156
 1919SOL    HW2 6657   6.673   3.062   6.206
 1920SOL     OW 6658   4.991   3.242   0.794
 1920SOL    HW1 6659   5.001   3.170   0.725
 1920SOL    HW2 6660   5.005   3.202   0.885
 1921SOL     OW 6661   2.458   2.104   6.807
 1921SOL    HW1 6662   2.503   2.182   6.850
 1921SOL    HW2 6663   2.466   2.024   6.867
 1922SOL     OW 6664   3.239   2.955   3.592
 1922SOL    HW1 6665   3.299   2.893   3.642
 1922SOL    HW2 6666   3.271   2.965   3.498
 1923SOL     OW 6667   3.455   0.915   4.554
 1923SOL    HW1 6668   3.370   0.968   4.548
 1923SOL    HW2 6669   3.435   0.823   4.587
 1924SOL     OW 6670   5.033   1.105   0.772
 1924SOL    HW1 6671   4.952   1.160   0.791
 1924SOL    HW2 6672   5.015   1.009   0.795
 1925SOL     OW 6673   1.256   3.732   1.492
 1925SOL    HW1 6674   1.347   3.703   1.460
 1925SOL    HW2 6675   1.255   3.831   1.504
 1926SOL     OW 6676   3.703   0.713   2.214
 1926SOL    HW1 6677   3.675   0.690   2.308
 1926SOL    HW2 6678   3.779   0.777   2.217
 1927SOL     OW 6679   1.935   5.239   1.239
 1927SOL    HW1 6680   1.940   5.217   1.336
 1927SOL    HW2 6681   1.998   5.315   1.219
 1928SOL     OW 6682   6.507   4.709   2.443
 1928SOL    HW1 6683   6.562   4.627   2.459
 1928SOL    HW2 6684   6.562   4.777   2.394
 1929SOL     OW 6685   3.516   6.689   3.589
 1929SOL    HW1 6686   3.581   6.765   3.577
 1929SOL    HW2 6687   3.443   6.717   3.651
 1930SOL     OW 6688   3.646   3.415   0.378
 1930SOL    HW1 6689   3.732   3.371   0.353
 1930SOL    HW2 6690   3.661   3.476   0.456
 1931SOL     OW 6691   0.132   2.356   3.893
 1931SOL    HW1 6692   0.081   2.404   3.964
 1931SOL    HW2 6693   0.085   2.270   3.871
 1932SOL     OW 6694   4.874   1.960   2.156
 1932SOL    HW1 6695   4.897   1.952   2.253
 1932SOL    HW2 6696   4.958   1.960   2.102
 1933SOL     OW 6697   1.332   1.040   1.191
 1933SOL    HW1 6698   1.276   0.960   1.211
 1933SOL    HW2 6699   1.288   1.095   1.120
 1934SOL     OW 6700   6.734   1.022   6.963
 1934SOL    HW1 6701   6.709   0.951   0.003
 1934SOL    HW2 6702   6.829   1.008   6.932
 1935SOL     OW 6703   5.911   4.824   3.659
 1935SOL    HW1 6704   5.872   4.777   3.579
 1935SOL    HW2 6705   5.840   4.881   3.701
 1936SOL     OW 6706   4.789   3.215   6.154
 1936SOL    HW1 6707   4.773   3.215   6.252
 1936SOL    HW2 6708   4.742   3.293   6.113
 1937SOL     OW 6709   6.249   4.915   6.492
 1937SOL    HW1 6710   6.222   4.850   6.421
 1937SOL    HW2 6711   6.167   4.956   6.532
 1938SOL     OW 6712   6.758   2.878   0.292
 1938SOL    HW1 6713   6.726   2.951   0.352
 1938SOL    HW2 6714   6.681   2.843   0.238
 1939SOL     OW 6715   0.315   0.429   4.289
 1939SOL    HW1 6716   0.218   0.411   4.307
 1939SOL    HW2 6717   0.332   0.424   4.191
 1940SOL     OW 6718   0.365   5.185   0.412
 1940SOL    HW1 6719   0.424   5.152   0.338
 1940SOL    HW2 6720   0.374   5.125   0.491
 1941SOL     OW 6721   5.179   1.713   4.780
 1941SOL    HW1 6722   5.130   1.741   4.863
 1941SOL    HW2 6723   5.113   1.680   4.712
 1942SOL     OW 6724   0.318   4.585   1.860
 1942SOL    HW1 6725   0.398   4.593   1.801
 1942SOL    HW2 6726   0.236   4.575   1.804
 1943SOL     OW 6727   0.709   2.743   3.325
 1943SOL    HW1 6728   0.778   2.790   3.269
 1943SOL    HW2 6729   0.726   2.762   3.421
 1944SOL     OW 6730   0.720   3.227   3.699
 1944SOL    HW1 6731   0.796   3.290   3.686
 1944SOL    HW2 6732   0.653   3.240   3.627
 1945SOL     OW 6733   5.481   1.302   1.932
 1945SOL    HW1 6734   5.451   1.288   2.027
 1945SOL    HW2 6735   5.411   1.353   1.883
 1946SOL     OW 6736   6.423   5.555   0.845
 1946SOL    HW1 6737   6.398   5.482   0.782
 1946SOL    HW2 6738   6.355   5.561   0.918
 1947SOL     OW 6739   6.119   5.130   2.755
 1947SOL    HW1 6740   6.216   5.122   2.734
 1947SOL    HW2 6741   6.105   5.199   2.826
 1948SOL     OW 6742   5.334   3.148   3.693
 1948SOL    HW1 6743   5.263   3.126   3.760
 1948SOL    HW2 6744   5.306   3.114   3.603
 1949SOL     OW 6745   3.310   4.328   6.451
 1949SOL    HW1 6746   3.343   4.404   6.507
 1949SOL    HW2 6747   3.297   4.360   6.357
 1950SOL     OW 6748   3.911   3.957   3.397
 1950SOL    HW1 6749   3.937   3.993   3.487
 1950SOL    HW2 6750   3.818   3.920   3.402
 1951SOL     OW 6751   6.551   5.139   5.618
 1951SOL    HW1 6752   6.647   5.123   5.641
 1951SOL    HW2 6753   6.542   5.150   5.519
 1952SOL     OW 6754   5.626   4.898   6.918
 1952SOL    HW1 6755   5.582   4.987   6.926
 1952SOL    HW2 6756   5.566   4.827   6.954
 1953SOL     OW 6757   1.164   1.264   0.036
 1953SOL    HW1 6758   1.262   1.268   0.015
 1953SOL    HW2 6759   1.112   1.294   6.981
 1954SOL     OW 6760   3.532   6.715   2.063
 1954SOL    HW1 6761   3.626   6.748   2.059
 1954SOL    HW2 6762   3.506   6.677   1.975
 1955SOL     OW 6763   6.925   2.577   3.758
 1955SOL    HW1 6764   7.005   2.530   3.721
 1955SOL    HW2 6765   6.862   2.599   3.684
 1956SOL     OW 6766   5.136   0.897   1.634
 1956SOL    HW1 6767   5.144   0.927   1.729
 1956SOL    HW2 6768   5.185   0.811   1.622
 1957SOL     OW 6769   6.761   2.316   4.340
 1957SOL    HW1 6770   6.713   2.325   4.253
 1957SOL    HW2 6771   6.697   2.285   4.411
 1958SOL     OW 6772   4.373   1.602   0.601
 1958SOL    HW1 6773   4.276   1.608   0.624
 1958SOL    HW2 6774   4.404   1.690   0.564
 1959SOL     OW 6775   1.235   2.020   5.541
 1959SOL    HW1 6776   1.157   2.083   5.538
 1959SOL    HW2 6777   1.315   2.065   5.501
 1960SOL     OW 6778   5.804   3.872   3.252
 1960SOL    HW1 6779   5.758   3.786   3.276
 1960SOL    HW2 6780   5.740   3.932   3.204
 1961SOL     OW 6781   0.463   3.738   3.769
 1961SOL    HW1 6782   0.498   3.709   3.680
 1961SOL    HW2 6783   0.518   3.815   3.803
 1962SOL     OW 6784   0.692   0.514   1.714
 1962SOL    HW1 6785   0.628   0.591   1.717
 1962SOL    HW2 6786   0.755   0.519   1.791
 1963SOL     OW 6787   0.610   2.789   6.908
 1963SOL    HW1 6788   0.570   2.774   6.999
 1963SOL    HW2 6789   0.636   2.885   6.898
 1964SOL     OW 6790   5.732   3.670   0.430
 1964SOL    HW1 6791   5.642   3.636   0.456
 1964SOL    HW2 6792   5.729   3.769   0.419
 1965SOL     OW 6793   6.185   4.521   3.665
 1965SOL    HW1 6794   6.088   4.507   3.686
 1965SOL    HW2 6795   6.195   4.552   3.571
 1966SOL     OW 6796   0.695   4.622   6.470
 1966SOL    HW1 6797   0.615   4.681   6.474
 1966SOL    HW2 6798   0.771   4.665   6.519
 1967SOL     OW 6799   6.491   3.406   4.924
 1967SOL    HW1 6800   6.536   3.494   4.914
 1967SOL    HW2 6801   6.392   3.419   4.929
 1968SOL     OW 6802   2.587   0.792   5.979
 1968SOL    HW1 6803   2.630   0.755   5.896
 1968SOL    HW2 6804   2.500   0.836   5.954
 1969SOL     OW 6805   1.249   5.861   0.975
 1969SOL    HW1 6806   1.290   5.902   1.057
 1969SOL    HW2 6807   1.162   5.819   0.998
 1970SOL     OW 6808   5.459   4.523   4.209
 1970SOL    HW1 6809   5.363   4.540   4.234
 1970SOL    HW2 6810   5.501   4.609   4.181
 1971SOL     OW 6811   1.907   4.302   4.931
 1971SOL    HW1 6812   1.840   4.255   4.988
 1971SOL    HW2 6813   1.996   4.302   4.977
 1972SOL     OW 6814   6.172   1.946   2.626
 1972SOL    HW1 6815   6.149   1.852   2.601
 1972SOL    HW2 6816   6.271   1.959   2.620
 1973SOL     OW 6817   3.583   2.334   0.894
 1973SOL    HW1 6818   3.629   2.255   0.936
 1973SOL    HW2 6819   3.629   2.359   0.809
 1974SOL     OW 6820   2.514   0.103   5.161
 1974SOL    HW1 6821   2.477   0.019   5.122
 1974SOL    HW2 6822   2.465   0.182   5.125
 1975SOL     OW 6823   2.106   2.686   2.844
 1975SOL    HW1 6824   2.080   2.639   2.929
 1975SOL    HW2 6825   2.193   2.734   2.858
 1976SOL     OW 6826   1.194   0.906   4.958
 1976SOL    HW1 6827   1.264   0.950   4.903
 1976SOL    HW2 6828   1.117   0.968   4.970
 1977SOL     OW 6829   1.671   3.702   6.678
 1977SOL    HW1 6830   1.669   3.665   6.585
 1977SOL    HW2 6831   1.752   3.760   6.690
 1978SOL     OW 6832   2.989   0.518   2.060
 1978SOL    HW1 6833   2.922   0.467   2.114
 1978SOL    HW2 6834   2.986   0.615   2.087
 1979SOL     OW 6835   5.879   4.852   6.439
 1979SOL    HW1 6836   5.850   4.758   6.418
 1979SOL    HW2 6837   5.826   4.917   6.385
 1980SOL     OW 6838   3.812   0.287   0.801
 1980SOL    HW1 6839   3.776   0.342   0.877
 1980SOL    HW2 6840   3.769   0.196   0.804
 1981SOL     OW 6841   4.072   1.968   2.020
 1981SOL    HW1 6842   4.007   1.900   1.985
 1981SOL    HW2 6843   4.154   1.922   2.053
 1982SOL     OW 6844   1.430   2.941   6.165
 1982SOL    HW1 6845   1.460   3.023   6.117
 1982SOL    HW2 6846   1.381   2.881   6.102
 1983SOL     OW 6847   6.181   1.553   1.955
 1983SOL    HW1 6848   6.170   1.492   2.034
 1983SOL    HW2 6849   6.121   1.522   1.881
 1984SOL     OW 6850   4.528   4.093   6.274
 1984SOL    HW1 6851   4.609   4.053   6.317
 1984SOL    HW2 6852   4.446   4.061   6.322
 1985SOL     OW 6853   6.154   4.748   4.250
 1985SOL    HW1 6854   6.188   4.719   4.340
 1985SOL    HW2 6855   6.065   4.791   4.261
 1986SOL     OW 6856   2.893   3.593   2.095
 1986SOL    HW1 6857   2.892   3.591   2.195
 1986SOL    HW2 6858   2.975   3.641   2.063
 1987SOL     OW 6859   2.602   0.763   2.044
 1987SOL    HW1 6860   2.595   0.849   1.992
 1987SOL    HW2 6861   2.607   0.784   2.142
 1988SOL     OW 6862   0.447   1.967   1.814
 1988SOL    HW1 6863   0.435   1.928   1.906
 1988SOL    HW2 6864   0.437   1.894   1.746
 1989SOL     OW 6865   2.937   5.924   5.117
 1989SOL    HW1 6866   2.997   6.004   5.116
 1989SOL    HW2 6867   2.868   5.935   5.188
 1990SOL     OW 6868   3.884   0.250   0.119
 1990SOL    HW1 6869   3.884   0.345   0.152
 1990SOL    HW2 6870   3.891   0.250   0.019
 1991SOL     OW 6871   2.323   5.341   1.600
 1991SOL    HW1 6872   2.293   5.246   1.602
 1991SOL    HW2 6873   2.283   5.387   1.521
 1992SOL     OW 6874   0.755   6.525   2.693
 1992SOL    HW1 6875   0.729   6.587   2.619
 1992SOL    HW2 6876   0.848   6.545   2.722
 1993SOL     OW 6877   1.995   1.750   2.994
 1993SOL    HW1 6878   1.981   1.841   3.033
 1993SOL    HW2 6879   2.042   1.759   2.906
 1994SOL     OW 6880   3.963   3.117   1.298
 1994SOL    HW1 6881   3.885   3.075   1.251
 1994SOL    HW2 6882   3.939   3.136   1.393
 1995SOL     OW 6883   5.699   1.792   4.134
 1995SOL    HW1 6884   5.748   1.825   4.215
 1995SOL    HW2 6885   5.764   1.748   4.072
 1996SOL     OW 6886   4.942   0.772   0.709
 1996SOL    HW1 6887   4.927   0.804   0.802
 1996SOL    HW2 6888   5.004   0.834   0.661
 1997SOL     OW 6889   3.481   0.853   3.581
 1997SOL    HW1 6890   3.561   0.880   3.527
 1997SOL    HW2 6891   3.401   0.903   3.550
 1998SOL     OW 6892   2.947   3.804   1.245
 1998SOL    HW1 6893   2.901   3.886   1.279
 1998SOL    HW2 6894   3.002   3.765   1.319
 1999SOL     OW 6895   0.444   6.713   6.768
 1999SOL    HW1 6896   0.395   6.626   6.759
 1999SOL    HW2 6897   0.538   6.702   6.736
 2000SOL     OW 6898   4.093   4.341   6.082
 2000SOL    HW1 6899   4.098   4.275   6.157
 2000SOL    HW2 6900   4.186   4.371   6.058
 2001SOL     OW 6901   1.605   2.609   1.010
 2001SOL    HW1 6902   1.678   2.620   1.077
 2001SOL    HW2 6903   1.594   2.512   0.989
 2002SOL     OW 6904   6.501   5.207   0.901
 2002SOL    HW1 6905   6.517   5.305   0.892
 2002SOL    HW2 6906   6.475   5.185   0.996
 2003SOL     OW 6907   5.751   5.653   1.678
 2003SOL    HW1 6908   5.689   5.593   1.729
 2003SOL    HW2 6909   5.774   5.610   1.591
 2004SOL     OW 6910   3.965   6.945   2.835
 2004SOL    HW1 6911   3.894   7.012   2.813
 2004SOL    HW2 6912   3.929   6.853   2.820
 2005SOL     OW 6913   1.520   6.749   0.389
 2005SOL    HW1 6914   1.443   6.704   0.435
 2005SOL    HW2 6915   1.549   6.694   0.311
 2006SOL     OW 6916   5.530   6.841   2.357
 2006SOL    HW1 6917   5.518   6.833   2.456
 2006SOL    HW2 6918   5.627   6.837   2.334
 2007SOL     OW 6919   5.619   5.292   5.794
 2007SOL    HW1 6920   5.542   5.262   5.850
 2007SOL    HW2 6921   5.633   5.227   5.719
 2008SOL     OW 6922   1.890   3.368   2.929
 2008SOL    HW1 6923   1.825   3.292   2.929
 2008SOL    HW2 6924   1.975   3.339   2.884
 2009SOL     OW 6925   6.145   6.893   2.646
 2009SOL    HW1 6926   6.202   6.964   2.686
 2009SOL    HW2 6927   6.169   6.804   2.685
 2010SOL     OW 6928   6.699   1.787   1.740
 2010SOL    HW1 6929   6.778   1.835   1.778
 2010SOL    HW2 6930   6.663   1.839   1.662
 2011SOL     OW 6931   1.131   0.211   4.844
 2011SOL    HW1 6932   1.043   0.249   4.816
 2011SOL    HW2 6933   1.147   0.233   4.940
 2012SOL     OW 6934   0.618   3.098   0.897
 2012SOL    HW1 6935   0.662   3.089   0.808
 2012SOL    HW2 6936   0.648   3.024   0.957
 2013SOL     OW 6937   0.222   2.717   2.106
 2013SOL    HW1 6938   0.213   2.670   2.194
 2013SOL    HW2 6939   0.132   2.726   2.065
 2014SOL     OW 6940   3.995   1.362   4.405
 2014SOL    HW1 6941   3.933   1.383   4.481
 2014SOL    HW2 6942   4.000   1.263   4.392
 2015SOL     OW 6943   3.990   6.488   2.341
 2015SOL    HW1 6944   3.893   6.468   2.328
 2015SOL    HW2 6945   4.039   6.472   2.255
 2016SOL     OW 6946   2.050   0.661   4.584
 2016SOL    HW1 6947   2.127   0.642   4.645
 2016SOL    HW2 6948   2.083   0.698   4.498
 2017SOL     OW 6949   3.245   6.262   3.876
 2017SOL    HW1 6950   3.293   6.199   3.814
 2017SOL    HW2 6951   3.250   6.355   3.839
 2018SOL     OW 6952   0.308   0.352   4.011
 2018SOL    HW1 6953   0.286   0.281   3.944
 2018SOL    HW2 6954   0.340   0.434   3.963
 2019SOL     OW 6955   6.186   5.136   6.795
 2019SOL    HW1 6956   6.129   5.215   6.816
 2019SOL    HW2 6957   6.129   5.058   6.771
 2020SOL     OW 6958   2.021   6.653   1.085
 2020SOL    HW1 6959   1.951   6.656   1.014
 2020SOL    HW2 6960   2.026   6.560   1.123
 2021SOL     OW 6961   0.217   5.861   4.577
 2021SOL    HW1 6962   0.215   5.881   4.675
 2021SOL    HW2 6963   0.246   5.766   4.563
 2022SOL     OW 6964   1.647   3.369   4.469
 2022SOL    HW1 6965   1.664   3.278   4.432
 2022SOL    HW2 6966   1.713   3.390   4.541
 2023SOL     OW 6967   6.660   5.794   6.644
 2023SOL    HW1 6968   6.651   5.882   6.598
 2023SOL    HW2 6969   6.757   5.773   6.657
 2024SOL     OW 6970   0.428   5.741   3.883
 2024SOL    HW1 6971   0.350   5.776   3.831
 2024SOL    HW2 6972   0.481   5.679   3.825
 2025SOL     OW 6973   2.158   6.129   4.434
 2025SOL    HW1 6974   2.139   6.172   4.522
 2025SOL    HW2 6975   2.256   6.137   4.413
 2026SOL     OW 6976   0.555   0.260   5.613
 2026SOL    HW1 6977   0.537   0.171   5.571
 2026SOL    HW2 6978   0.644   0.258   5.658
 2027SOL     OW 6979   6.927   6.351   2.274
 2027SOL    HW1 6980   6.856   6.289   2.240
 2027SOL    HW2 6981   6.891   6.405   2.350
 2028SOL     OW 6982   2.802   5.709   4.995
 2028SOL    HW1 6983   2.857   5.787   5.027
 2028SOL    HW2 6984   2.789   5.645   5.070
 2029SOL     OW 6985   6.432   2.770   6.518
 2029SOL    HW1 6986   6.472   2.827   6.590
 2029SOL    HW2 6987   6.483   2.684   6.512
 2030SOL     OW 6988   2.286   6.825   2.969
 2030SOL    HW1 6989   2.241   6.903   2.925
 2030SOL    HW2 6990   2.366   6.798   2.915
 2031SOL     OW 6991   0.670   6.128   4.995
 2031SOL    HW1 6992   0.679   6.129   4.895
 2031SOL    HW2 6993   0.686   6.220   5.031
 2032SOL     OW 6994   2.160   2.781   6.128
 2032SOL    HW1 6995   2.259   2.794   6.123
 2032SOL    HW2 6996   2.131   2.790   6.223
 2033SOL     OW 6997   1.698   1.364   0.672
 2033SOL    HW1 6998   1.718   1.336   0.578
 2033SOL    HW2 6999   1.778   1.411   0.711
 2034SOL     OW 7000   0.812   4.690   4.936
 2034SOL    HW1 7001   0.896   4.635   4.931
 2034SOL    HW2 7002   0.774   4.702   4.844
 2035SOL     OW 7003   5.525   6.037   3.012
 2035SOL    HW1 7004   5.563   6.044   3.105
 2035SOL    HW2 7005   5.429   6.011   3.017
 2036SOL     OW 7006   0.481   4.209   6.300
 2036SOL    HW1 7007   0.531   4.254   6.374
 2036SOL    HW2 7008   0.386   4.239   6.301
 2037SOL     OW 7009   0.874   2.477   6.947
 2037SOL    HW1 7010   0.965   2.443   6.923
 2037SOL    HW2 7011   0.876   2.518   0.014
 2038SOL     OW 7012   1.012   1.309   5.882
 2038SOL    HW1 7013   1.081   1.361   5.830
 2038SOL    HW2 7014   0.955   1.257   5.818
 2039SOL     OW 7015   5.314   6.065   3.324
 2039SOL    HW1 7016   5.313   6.165   3.327
 2039SOL    HW2 7017   5.364   6.035   3.243
 2040SOL     OW 7018   2.714   2.095   0.473
 2040SOL    HW1 7019   2.688   2.192   0.463
 2040SOL    HW2 7020   2.735   2.076   0.569
 2041SOL     OW 7021   2.869   6.542   6.709
 2041SOL    HW1 7022   2.839   6.562   6.615
 2041SOL    HW2 7023   2.820   6.462   6.743
 2042SOL     OW 7024   6.217   0.581   6.186
 2042SOL    HW1 7025   6.234   0.675   6.214
 2042SOL    HW2 7026   6.175   0.530   6.261
 2043SOL     OW 7027   0.598   4.128   0.449
 2043SOL    HW1 7028   0.553   4.048   0.488
 2043SOL    HW2 7029   0.694   4.129   0.476
 2044SOL     OW 7030   4.010   0.522   1.844
 2044SOL    HW1 7031   4.110   0.524   1.842
 2044SOL    HW2 7032   3.974   0.565   1.761
 2045SOL     OW 7033   2.115   5.861   3.929
 2045SOL    HW1 7034   2.123   5.775   3.980
 2045SOL    HW2 7035   2.176   5.930   3.970
 2046SOL     OW 7036   0.822   2.993   5.792
 2046SOL    HW1 7037   0.818   3.091   5.771
 2046SOL    HW2 7038   0.790   2.941   5.713
 2047SOL     OW 7039   6.622   0.058   1.491
 2047SOL    HW1 7040   6.712   0.062   1.533
 2047SOL    HW2 7041   6.632   0.059   1.391
 2048SOL     OW 7042   2.185   0.852   4.380
 2048SOL    HW1 7043   2.222   0.917   4.446
 2048SOL    HW2 7044   2.106   0.893   4.334
 2049SOL     OW 7045   4.584   2.819   5.282
 2049SOL    HW1 7046   4.488   2.838   5.304
 2049SOL    HW2 7047   4.640   2.899   5.305
 2050SOL     OW 7048   0.615   0.818   3.502
 2050SOL    HW1 7049   0.669   0.876   3.441
 2050SOL    HW2 7050   0.656   0.819   3.593
 2051SOL     OW 7051   3.518   6.574   0.352
 2051SOL    HW1 7052   3.616   6.591   0.347
 2051SOL    HW2 7053   3.500   6.502   0.419
 2052SOL     OW 7054   0.714   3.712   0.814
 2052SOL    HW1 7055   0.804   3.732   0.775
 2052SOL    HW2 7056   0.673   3.636   0.764
 2053SOL     OW 7057   5.957   4.941   2.626
 2053SOL    HW1 7058   5.969   4.953   2.527
 2053SOL    HW2 7059   6.014   5.007   2.674
 2054SOL     OW 7060   2.861   3.575   3.051
 2054SOL    HW1 7061   2.903   3.488   3.076
 2054SOL    HW2 7062   2.817   3.567   2.961
 2055SOL     OW 7063   4.313   2.590   5.526
 2055SOL    HW1 7064   4.278   2.523   5.591
 2055SOL    HW2 7065   4.236   2.632   5.476
 2056SOL     OW 7066   2.931   4.893   1.639
 2056SOL    HW1 7067   2.868   4.870   1.713
 2056SOL    HW2 7068   3.006   4.827   1.636
 2057SOL     OW 7069   5.971   2.952   4.014
 2057SOL    HW1 7070   6.002   2.866   3.974
 2057SOL    HW2 7071   6.043   3.022   4.004
 2058SOL     OW 7072   5.717   0.225   3.527
 2058SOL    HW1 7073   5.654   0.278   3.585
 2058SOL    HW2 7074   5.757   0.151   3.581
 2059SOL     OW 7075   2.270   2.121   5.370
 2059SOL    HW1 7076   2.226   2.130   5.280
 2059SOL    HW2 7077   2.351   2.063   5.362
 2060SOL     OW 7078   1.946   2.407   6.385
 2060SOL    HW1 7079   1.994   2.422   6.472
 2060SOL    HW2 7080   2.011   2.414   6.309
 2061SOL     OW 7081   1.861   1.618   3.454
 2061SOL    HW1 7082   1.924   1.696   3.463
 2061SOL    HW2 7083   1.901   1.550   3.392
 2062SOL     OW 7084   6.060   5.038   4.380
 2062SOL    HW1 7085   5.982   5.077   4.429
 2062SOL    HW2 7086   6.103   5.109   4.325
 2063SOL     OW 7087   1.470   2.172   4.230
 2063SOL    HW1 7088   1.562   2.174   4.268
 2063SOL    HW2 7089   1.403   2.177   4.304
 2064SOL     OW 7090   0.645   3.757   4.346
 2064SOL    HW1 7091   0.655   3.739   4.248
 2064SOL    HW2 7092   0.664   3.674   4.397
 2065SOL     OW 7093   3.943   3.566   5.783
 2065SOL    HW1 7094   4.028   3.546   5.733
 2065SOL    HW2 7095   3.906   3.481   5.820
 2066SOL     OW 7096   1.658   2.624   4.984
 2066SOL    HW1 7097   1.572   2.636   4.934
 2066SOL    HW2 7098   1.664   2.531   5.019
 2067SOL     OW 7099   6.251   4.608   1.997
 2067SOL    HW1 7100   6.349   4.589   2.003
 2067SOL    HW2 7101   6.203   4.556   2.067
 2068SOL     OW 7102   4.360   6.404   4.330
 2068SOL    HW1 7103   4.416   6.321   4.324
 2068SOL    HW2 7104   4.264   6.379   4.343
 2069SOL     OW 7105   6.392   1.015   3.770
 2069SOL    HW1 7106   6.452   1.030   3.692
 2069SOL    HW2 7107   6.447   0.996   3.851
 2070SOL     OW 7108   1.318   4.983   1.251
 2070SOL    HW1 7109   1.376   4.924   1.196
 2070SOL    HW2 7110   1.238   5.012   1.198
 2071SOL     OW 7111   6.839   2.589   4.833
 2071SOL    HW1 7112   6.928   2.603   4.791
 2071SOL    HW2 7113   6.844   2.516   4.901
 2072SOL     OW 7114   5.594   3.915   5.301
 2072SOL    HW1 7115   5.627   3.998   5.346
 2072SOL    HW2 7116   5.606   3.924   5.202
 2073SOL     OW 7117   3.296   5.218   6.778
 2073SOL    HW1 7118   3.265   5.306   6.743
 2073SOL    HW2 7119   3.393   5.223   6.801
 2074SOL     OW 7120   2.438   4.776   6.073
 2074SOL    HW1 7121   2.468   4.868   6.099
 2074SOL    HW2 7122   2.518   4.716   6.065
 2075SOL     OW 7123   5.542   2.457   1.675
 2075SOL    HW1 7124   5.466   2.499   1.724
 2075SOL    HW2 7125   5.509   2.416   1.590
 2076SOL     OW 7126   6.723   6.767   4.603
 2076SOL    HW1 7127   6.626   6.788   4.587
 2076SOL    HW2 7128   6.759   6.717   4.525
 2077SOL     OW 7129   6.395   4.384   0.449
 2077SOL    HW1 7130   6.413   4.388   0.547
 2077SOL    HW2 7131   6.326   4.453   0.424
 2078SOL     OW 7132   0.969   2.690   6.558
 2078SOL    HW1 7133   1.056   2.706   6.605
 2078SOL    HW2 7134   0.895   2.694   6.625
 2079SOL     OW 7135   5.270   1.383   3.032
 2079SOL    HW1 7136   5.369   1.378   3.027
 2079SOL    HW2 7137   5.243   1.420   3.121
 2080SOL     OW 7138   2.346   3.206   6.208
 2080SOL    HW1 7139   2.417   3.179   6.143
 2080SOL    HW2 7140   2.297   3.285   6.172
 2081SOL     OW 7141   0.070   6.249   2.555
 2081SOL    HW1 7142   0.070   6.334   2.503
 2081SOL    HW2 7143   0.088   6.270   2.651
 2082SOL     OW 7144   0.098   5.757   3.842
 2082SOL    HW1 7145   0.089   5.677   3.784
 2082SOL    HW2 7146   0.010   5.803   3.850
 2083SOL     OW 7147   0.449   5.855   4.110
 2083SOL    HW1 7148   0.521   5.817   4.168
 2083SOL    HW2 7149   0.463   5.825   4.016
 2084SOL     OW 7150   6.756   2.325   1.389
 2084SOL    HW1 7151   6.840   2.374   1.365
 2084SOL    HW2 7152   6.702   2.308   1.307
 2085SOL     OW 7153   6.386   5.746   0.590
 2085SOL    HW1 7154   6.294   5.717   0.618
 2085SOL    HW2 7155   6.428   5.798   0.665
 2086SOL     OW 7156   5.447   0.042   6.634
 2086SOL    HW1 7157   5.478   0.078   6.546
 2086SOL    HW2 7158   5.497   6.983   6.655
 2087SOL     OW 7159   4.672   1.655   6.581
 2087SOL    HW1 7160   4.735   1.674   6.656
 2087SOL    HW2 7161   4.609   1.732   6.570
 2088SOL     OW 7162   0.159   4.346   6.133
 2088SOL    HW1 7163   0.120   4.396   6.211
 2088SOL    HW2 7164   0.177   4.252   6.160
 2089SOL     OW 7165   2.579   4.277   6.049
 2089SOL    HW1 7166   2.653   4.332   6.087
 2089SOL    HW2 7167   2.505   4.337   6.020
 2090SOL     OW 7168   5.260   2.876   0.227
 2090SOL    HW1 7169   5.337   2.914   0.278
 2090SOL    HW2 7170   5.188   2.848   0.291
 2091SOL     OW 7171   4.918   6.313   0.883
 2091SOL    HW1 7172   4.851   6.314   0.808
 2091SOL    HW2 7173   4.900   6.236   0.944
 2092SOL     OW 7174   3.348   3.291   2.248
 2092SOL    HW1 7175   3.276   3.345   2.292
 2092SOL    HW2 7176   3.434   3.304   2.298
 2093SOL     OW 7177   4.327   0.282   1.112
 2093SOL    HW1 7178   4.424   0.276   1.087
 2093SOL    HW2 7179   4.312   0.234   1.199
 2094SOL     OW 7180   5.161   2.099   0.984
 2094SOL    HW1 7181   5.182   2.097   1.082
 2094SOL    HW2 7182   5.245   2.093   0.932
 2095SOL     OW 7183   4.880   5.355   4.299
 2095SOL    HW1 7184   4.965   5.343   4.248
 2095SOL    HW2 7185   4.804   5.369   4.235
 2096SOL     OW 7186   4.185   0.107   2.816
 2096SOL    HW1 7187   4.143   0.109   2.725
 2096SOL    HW2 7188   4.114   0.090   2.885
 2097SOL     OW 7189   0.798   5.894   5.723
 2097SOL    HW1 7190   0.843   5.806   5.711
 2097SOL    HW2 7191   0.782   5.911   5.820
 2098SOL     OW 7192   2.227   6.969   3.668
 2098SOL    HW1 7193   2.138   6.979   3.713
 2098SOL    HW2 7194   2.280   6.898   3.715
 2099SOL     OW 7195   4.159   1.829   0.063
 2099SOL    HW1 7196   4.112   1.815   0.150
 2099SOL    HW2 7197   4.192   1.741   0.029
 2100SOL     OW 7198   4.579   0.786   6.900
 2100SOL    HW1 7199   4.603   0.754   6.992
 2100SOL    HW2 7200   4.493   0.836   6.904
 2101SOL     OW 7201   1.845   6.987   2.700
 2101SOL    HW1 7202   1.867   6.978   2.797
 2101SOL    HW2 7203   1.875   6.905   2.651
 2102SOL     OW 7204   3.759   2.568   1.716
 2102SOL    HW1 7205   3.686   2.629   1.748
 2102SOL    HW2 7206   3.750   2.479   1.759
 2103SOL     OW 7207   1.433   0.284   0.865
 2103SOL    HW1 7208   1.419   0.190   0.894
 2103SOL    HW2 7209   1.348   0.321   0.828
 2104SOL     OW 7210   2.076   4.346   2.646
 2104SOL    HW1 7211   2.162   4.388   2.675
 2104SOL    HW2 7212   2.056   4.372   2.552
 2105SOL     OW 7213   5.478   0.174   5.219
 2105SOL    HW1 7214   5.524   0.100   5.170
 2105SOL    HW2 7215   5.391   0.194   5.174
 2106SOL     OW 7216   3.393   2.355   1.444
 2106SOL    HW1 7217   3.412   2.366   1.542
 2106SOL    HW2 7218   3.477   2.374   1.392
 2107SOL     OW 7219   4.909   4.473   4.848
 2107SOL    HW1 7220   4.842   4.399   4.855
 2107SOL    HW2 7221   4.964   4.477   4.932
 2108SOL     OW 7222   4.585   6.912   4.686
 2108SOL    HW1 7223   4.611   6.907   4.783
 2108SOL    HW2 7224   4.659   6.874   4.630
 2109SOL     OW 7225   2.583   5.863   2.026
 2109SOL    HW1 7226   2.643   5.942   2.036
 2109SOL    HW2 7227   2.492   5.885   2.062
 2110SOL     OW 7228   3.532   5.548   0.120
 2110SOL    HW1 7229   3.478   5.497   0.053
 2110SOL    HW2 7230   3.486   5.548   0.208
 2111SOL     OW 7231   0.719   2.301   6.780
 2111SOL    HW1 7232   0.756   2.359   6.853
 2111SOL    HW2 7233   0.756   2.331   6.692
 2112SOL     OW 7234   0.722   0.457   6.634
 2112SOL    HW1 7235   0.768   0.497   6.555
 2112SOL    HW2 7236   0.789   0.435   6.704
 2113SOL     OW 7237   6.359   1.524   5.006
 2113SOL    HW1 7238   6.370   1.566   5.096
 2113SOL    HW2 7239   6.382   1.591   4.935
 2114SOL     OW 7240   2.426   0.834   5.195
 2114SOL    HW1 7241   2.333   0.798   5.193
 2114SOL    HW2 7242   2.489   0.766   5.157
 2115SOL     OW 7243   0.043   6.353   3.417
 2115SOL    HW1 7244   0.110   6.283   3.392
 2115SOL    HW2 7245   0.000   6.391   3.335
 2116SOL     OW 7246   2.226   1.168   6.845
 2116SOL    HW1 7247   2.155   1.115   6.892
 2116SOL    HW2 7248   2.183   1.230   6.780
 2117SOL     OW 7249   6.402   2.123   2.635
 2117SOL    HW1 7250   6.311   2.148   2.667
 2117SOL    HW2 7251   6.458   2.092   2.712
 2118SOL     OW 7252   6.920   2.914   2.513
 2118SOL    HW1 7253   6.885   2.902   2.606
 2118SOL    HW2 7254   6.863   2.981   2.465
 2119SOL     OW 7255   0.893   3.011   0.343
 2119SOL    HW1 7256   0.941   3.094   0.371
 2119SOL    HW2 7257   0.801   3.010   0.384
 2120SOL     OW 7258   5.549   1.847   0.646
 2120SOL    HW1 7259   5.493   1.764   0.655
 2120SOL    HW2 7260   5.554   1.873   0.550
 2121SOL     OW 7261   2.114   6.563   1.374
 2121SOL    HW1 7262   2.095   6.482   1.319
 2121SOL    HW2 7263   2.182   6.542   1.444
 2122SOL     OW 7264   6.653   1.040   4.757
 2122SOL    HW1 7265   6.580   1.090   4.802
 2122SOL    HW2 7266   6.666   1.075   4.664
 2123SOL     OW 7267   1.045   4.740   3.407
 2123SOL    HW1 7268   0.975   4.758   3.475
 2123SOL    HW2 7269   1.017   4.779   3.319
 2124SOL     OW 7270   5.059   3.677   6.234
 2124SOL    HW1 7271   5.051   3.587   6.276
 2124SOL    HW2 7272   5.021   3.746   6.296
 2125SOL     OW 7273   1.077   5.859   4.682
 2125SOL    HW1 7274   1.144   5.919   4.638
 2125SOL    HW2 7275   1.112   5.829   4.771
 2126SOL     OW 7276   2.896   3.689   0.434
 2126SOL    HW1 7277   2.972   3.689   0.370
 2126SOL    HW2 7278   2.919   3.745   0.514
 2127SOL     OW 7279   0.985   3.393   4.393
 2127SOL    HW1 7280   0.962   3.296   4.385
 2127SOL    HW2 7281   1.031   3.423   4.309
 2128SOL     OW 7282   5.141   3.110   2.181
 2128SOL    HW1 7283   5.064   3.112   2.117
 2128SOL    HW2 7284   5.170   3.016   2.196
 2129SOL     OW 7285   5.577   4.097   3.637
 2129SOL    HW1 7286   5.484   4.106   3.602
 2129SOL    HW2 7287   5.589   4.007   3.678
 2130SOL     OW 7288   1.841   0.739   2.060
 2130SOL    HW1 7289   1.830   0.835   2.033
 2130SOL    HW2 7290   1.928   0.729   2.108
 2131SOL     OW 7291   5.942   0.332   6.793
 2131SOL    HW1 7292   5.941   0.251   6.851
 2131SOL    HW2 7293   5.880   0.401   6.830
 2132SOL     OW 7294   2.798   2.681   0.213
 2132SOL    HW1 7295   2.708   2.719   0.233
 2132SOL    HW2 7296   2.853   2.749   0.165
 2133SOL     OW 7297   3.847   2.190   1.236
 2133SOL    HW1 7298   3.943   2.172   1.214
 2133SOL    HW2 7299   3.790   2.160   1.160
 2134SOL     OW 7300   1.665   6.785   5.652
 2134SOL    HW1 7301   1.758   6.750   5.660
 2134SOL    HW2 7302   1.625   6.796   5.744
 2135SOL     OW 7303   1.079   6.333   4.212
 2135SOL    HW1 7304   1.135   6.266   4.162
 2135SOL    HW2 7305   1.031   6.286   4.287
 2136SOL     OW 7306   0.900   5.094   3.525
 2136SOL    HW1 7307   0.863   5.082   3.432
 2136SOL    HW2 7308   0.999   5.102   3.521
 2137SOL     OW 7309   0.278   6.697   4.334
 2137SOL    HW1 7310   0.357   6.656   4.380
 2137SOL    HW2 7311   0.237   6.766   4.394
 2138SOL     OW 7312   1.344   2.314   6.045
 2138SOL    HW1 7313   1.301   2.376   6.110
 2138SOL    HW2 7314   1.434   2.349   6.020
 2139SOL     OW 7315   3.256   0.105   4.391
 2139SOL    HW1 7316   3.284   0.040   4.461
 2139SOL    HW2 7317   3.329   0.114   4.323
 2140SOL     OW 7318   1.449   5.870   4.175
 2140SOL    HW1 7319   1.494   5.817   4.248
 2140SOL    HW2 7320   1.353   5.844   4.170
 2141SOL     OW 7321   6.988   2.025   6.644
 2141SOL    HW1 7322   6.889   2.040   6.651
 2141SOL    HW2 7323   7.019   2.050   6.553
 2142SOL     OW 7324   3.656   0.902   3.365
 2142SOL    HW1 7325   3.721   0.977   3.376
 2142SOL    HW2 7326   3.693   0.835   3.300
 2143SOL     OW 7327   3.543   5.843   0.072
 2143SOL    HW1 7328   3.627   5.835   0.126
 2143SOL    HW2 7329   3.484   5.764   0.090
 2144SOL     OW 7330   1.111   1.048   1.750
 2144SOL    HW1 7331   1.123   1.077   1.845
 2144SOL    HW2 7332   1.013   1.046   1.728
 2145SOL     OW 7333   2.971   5.507   2.845
 2145SOL    HW1 7334   2.965   5.498   2.944
 2145SOL    HW2 7335   2.898   5.567   2.812
 2146SOL     OW 7336   2.764   2.424   0.812
 2146SOL    HW1 7337   2.816   2.493   0.762
 2146SOL    HW2 7338   2.669   2.427   0.783
 2147SOL     OW 7339   0.333   1.249   4.709
 2147SOL    HW1 7340   0.333   1.272   4.612
 2147SOL    HW2 7341   0.408   1.185   4.728
 2148SOL     OW 7342   6.104   3.231   3.969
 2148SOL    HW1 7343   6.006   3.229   3.948
 2148SOL    HW2 7344   6.130   3.322   4.000
 2149SOL     OW 7345   2.949   0.753   3.113
 2149SOL    HW1 7346   3.021   0.693   3.148
 2149SOL    HW2 7347   2.862   0.704   3.113
 2150SOL     OW 7348   4.873   0.135   3.406
 2150SOL    HW1 7349   4.782   0.133   3.365
 2150SOL    HW2 7350   4.888   0.051   3.458
 2151SOL     OW 7351   4.397   4.585   6.073
 2151SOL    HW1 7352   4.474   4.540   6.119
 2151SOL    HW2 7353   4.351   4.520   6.013
 2152SOL     OW 7354   6.825   6.764   2.406
 2152SOL    HW1 7355   6.794   6.856   2.430
 2152SOL    HW2 7356   6.815   6.750   2.307
 2153SOL     OW 7357   4.318   1.726   3.487
 2153SOL    HW1 7358   4.278   1.816   3.471
 2153SOL    HW2 7359   4.294   1.694   3.579
 2154SOL     OW 7360   3.540   6.433   5.304
 2154SOL    HW1 7361   3.507   6.517   5.347
 2154SOL    HW2 7362   3.462   6.385   5.263
 2155SOL     OW 7363   5.953   3.373   6.981
 2155SOL    HW1 7364   5.914   3.455   7.023
 2155SOL    HW2 7365   6.040   3.396   6.938
 2156SOL     OW 7366   6.477   0.337   2.439
 2156SOL    HW1 7367   6.479   0.362   2.536
 2156SOL    HW2 7368   6.484   0.237   2.431
 2157SOL     OW 7369   6.173   1.067   4.407
 2157SOL    HW1 7370   6.187   1.072   4.506
 2157SOL    HW2 7371   6.149   0.973   4.382
 2158SOL     OW 7372   4.965   0.122   3.841
 2158SOL    HW1 7373   5.001   0.046   3.894
 2158SOL    HW2 7374   4.869   0.137   3.865
 2159SOL     OW 7375   2.640   0.326   5.290
 2159SOL    HW1 7376   2.581   0.275   5.228
 2159SOL    HW2 7377   2.713   0.266   5.323
 2160SOL     OW 7378   2.976   2.844   0.731
 2160SOL    HW1 7379   3.050   2.879   0.674
 2160SOL    HW2 7380   2.893   2.835   0.675
 2161SOL     OW 7381   4.873   2.467   4.120
 2161SOL    HW1 7382   4.928   2.483   4.202
 2161SOL    HW2 7383   4.861   2.553   4.070
 2162SOL     OW 7384   2.226   1.417   1.603
 2162SOL    HW1 7385   2.279   1.473   1.539
 2162SOL    HW2 7386   2.277   1.334   1.625
 2163SOL     OW 7387   2.773   1.655   1.062
 2163SOL    HW1 7388   2.708   1.593   1.020
 2163SOL    HW2 7389   2.813   1.715   0.992
 2164SOL     OW 7390   6.749   0.741   1.398
 2164SOL    HW1 7391   6.801   0.791   1.329
 2164SOL    HW2 7392   6.788   0.758   1.488
 2165SOL     OW 7393   3.260   0.182   2.234
 2165SOL    HW1 7394   3.292   0.221   2.148
 2165SOL    HW2 7395   3.160   0.182   2.236
 2166SOL     OW 7396   5.349   2.102   5.501
 2166SOL    HW1 7397   5.368   2.131   5.595
 2166SOL    HW2 7398   5.433   2.068   5.459
 2167SOL     OW 7399   3.388   0.976   0.713
 2167SOL    HW1 7400   3.448   1.051   0.743
 2167SOL    HW2 7401   3.438   0.889   0.719
 2168SOL     OW 7402   5.793   6.373   4.616
 2168SOL    HW1 7403   5.837   6.379   4.706
 2168SOL    HW2 7404   5.832   6.442   4.555
 2169SOL     OW 7405   5.594   1.289   5.958
 2169SOL    HW1 7406   5.567   1.258   6.049
 2169SOL    HW2 7407   5.631   1.382   5.964
 2170SOL     OW 7408   5.531   4.517   4.506
 2170SOL    HW1 7409   5.556   4.475   4.418
 2170SOL    HW2 7410   5.455   4.467   4.546
 2171SOL     OW 7411   6.879   3.812   0.460
 2171SOL    HW1 7412   6.819   3.740   0.426
 2171SOL    HW2 7413   6.966   3.808   0.412
 2172SOL     OW 7414   2.560   0.564   1.845
 2172SOL    HW1 7415   2.581   0.610   1.759
 2172SOL    HW2 7416   2.557   0.631   1.919
 2173SOL     OW 7417   4.649   2.557   4.798
 2173SOL    HW1 7418   4.698   2.470   4.798
 2173SOL    HW2 7419   4.575   2.554   4.865
 2174SOL     OW 7420   1.163   5.564   4.330
 2174SOL    HW1 7421   1.173   5.579   4.428
 2174SOL    HW2 7422   1.237   5.504   4.298
 2175SOL     OW 7423   1.544   6.154   5.634
 2175SOL    HW1 7424   1.467   6.110   5.680
 2175SOL    HW2 7425   1.517   6.245   5.604
 2176SOL     OW 7426   1.872   2.380   2.301
 2176SOL    HW1 7427   1.951   2.438   2.323
 2176SOL    HW2 7428   1.875   2.356   2.204
 2177SOL     OW 7429   1.176   2.071   0.732
 2177SOL    HW1 7430   1.185   1.973   0.752
 2177SOL    HW2 7431   1.088   2.104   0.767
 2178SOL     OW 7432   6.101   6.468   0.948
 2178SOL    HW1 7433   6.044   6.488   0.869
 2178SOL    HW2 7434   6.168   6.398   0.925
 2179SOL     OW 7435   1.302   4.079   3.962
 2179SOL    HW1 7436   1.340   4.171   3.951
 2179SOL    HW2 7437   1.224   4.068   3.901
 2180SOL     OW 7438   3.530   2.748   1.775
 2180SOL    HW1 7439   3.480   2.830   1.802
 2180SOL    HW2 7440   3.477   2.667   1.798
 2181SOL     OW 7441   3.255   6.699   1.343
 2181SOL    HW1 7442   3.197   6.779   1.353
 2181SOL    HW2 7443   3.348   6.721   1.374
 2182SOL     OW 7444   5.075   2.903   0.924
 2182SOL    HW1 7445   5.044   2.994   0.949
 2182SOL    HW2 7446   5.009   2.835   0.958
 2183SOL     OW 7447   3.779   2.486   1.047
 2183SOL    HW1 7448   3.718   2.428   0.994
 2183SOL    HW2 7449   3.874   2.456   1.034
 2184SOL     OW 7450   5.282   3.524   6.473
 2184SOL    HW1 7451   5.342   3.463   6.421
 2184SOL    HW2 7452   5.335   3.569   6.545
 2185SOL     OW 7453   6.825   0.029   2.120
 2185SOL    HW1 7454   6.761   0.077   2.059
 2185SOL    HW2 7455   6.808   6.956   2.116
 2186SOL     OW 7456   0.567   4.196   3.573
 2186SOL    HW1 7457   0.660   4.189   3.608
 2186SOL    HW2 7458   0.546   4.117   3.515
 2187SOL     OW 7459   6.259   1.104   0.561
 2187SOL    HW1 7460   6.276   1.076   0.466
 2187SOL    HW2 7461   6.280   1.201   0.571
 2188SOL     OW 7462   4.624   1.377   3.880
 2188SOL    HW1 7463   4.722   1.395   3.884
 2188SOL    HW2 7464   4.595   1.337   3.968
 2189SOL     OW 7465   3.482   0.253   7.024
 2189SOL    HW1 7466   3.467   0.292   6.934
 2189SOL    HW2 7467   3.434   0.165   0.007
 2190SOL     OW 7468   5.341   2.850   0.747
 2190SOL    HW1 7469   5.320   2.929   0.688
 2190SOL    HW2 7470   5.284   2.854   0.829
 2191SOL     OW 7471   2.854   1.683   0.343
 2191SOL    HW1 7472   2.849   1.645   0.251
 2191SOL    HW2 7473   2.788   1.637   0.402
 2192SOL     OW 7474   4.474   5.923   2.736
 2192SOL    HW1 7475   4.523   5.993   2.788
 2192SOL    HW2 7476   4.495   5.934   2.639
 2193SOL     OW 7477   6.621   6.005   4.387
 2193SOL    HW1 7478   6.605   6.103   4.378
 2193SOL    HW2 7479   6.720   5.988   4.389
 2194SOL     OW 7480   2.747   6.956   1.954
 2194SOL    HW1 7481   2.795   6.990   1.873
 2194SOL    HW2 7482   2.685   6.883   1.927
 2195SOL     OW 7483   0.596   4.705   2.139
 2195SOL    HW1 7484   0.633   4.678   2.050
 2195SOL    HW2 7485   0.663   4.686   2.210
 2196SOL     OW 7486   4.256   3.803   0.571
 2196SOL    HW1 7487   4.260   3.760   0.660
 2196SOL    HW2 7488   4.347   3.805   0.530
 2197SOL     OW 7489   4.425   4.017   0.004
 2197SOL    HW1 7490   4.408   4.071   0.087
 2197SOL    HW2 7491   4.349   3.954   7.014
 2198SOL     OW 7492   6.811   4.301   0.430
 2198SOL    HW1 7493   6.725   4.251   0.446
 2198SOL    HW2 7494   6.793   4.399   0.436
 2199SOL     OW 7495   4.414   1.072   3.287
 2199SOL    HW1 7496   4.379   1.013   3.214
 2199SOL    HW2 7497   4.376   1.164   3.277
 2200SOL     OW 7498   3.576   7.013   4.335
 2200SOL    HW1 7499   3.556   6.945   4.265
 2200SOL    HW2 7500   3.630   6.972   4.408
 2201SOL     OW 7501   4.711   4.240   4.222
 2201SOL    HW1 7502   4.724   4.310   4.151
 2201SOL    HW2 7503   4.736   4.277   4.311
 2202SOL     OW 7504   4.511   5.362   3.570
 2202SOL    HW1 7505   4.585   5.378   3.636
 2202SOL    HW2 7506   4.549   5.364   3.477
 2203SOL     OW 7507   3.278   2.156   2.487
 2203SOL    HW1 7508   3.343   2.217   2.442
 2203SOL    HW2 7509   3.294   2.156   2.586
 2204SOL     OW 7510   2.638   2.593   0.519
 2204SOL    HW1 7511   2.731   2.587   0.555
 2204SOL    HW2 7512   2.636   2.657   0.442
 2205SOL     OW 7513   2.832   1.089   2.074
 2205SOL    HW1 7514   2.878   1.131   1.996
 2205SOL    HW2 7515   2.894   1.026   2.120
 2206SOL     OW 7516   1.831   3.265   0.669
 2206SOL    HW1 7517   1.844   3.167   0.659
 2206SOL    HW2 7518   1.888   3.299   0.744
 2207SOL     OW 7519   6.820   4.710   4.649
 2207SOL    HW1 7520   6.771   4.701   4.563
 2207SOL    HW2 7521   6.832   4.620   4.691
 2208SOL     OW 7522   0.188   5.054   2.078
 2208SOL    HW1 7523   0.271   4.998   2.088
 2208SOL    HW2 7524   0.196   5.110   1.996
 2209SOL     OW 7525   0.249   6.452   1.675
 2209SOL    HW1 7526   0.235   6.440   1.773
 2209SOL    HW2 7527   0.233   6.547   1.651
 2210SOL     OW 7528   2.006   4.992   4.081
 2210SOL    HW1 7529   2.038   4.924   4.015
 2210SOL    HW2 7530   2.075   5.004   4.152
 2211SOL     OW 7531   6.762   2.170   4.959
 2211SOL    HW1 7532   6.818   2.092   4.931
 2211SOL    HW2 7533   6.666   2.143   4.960
 2212SOL     OW 7534   2.557   6.716   6.059
 2212SOL    HW1 7535   2.555   6.770   5.976
 2212SOL    HW2 7536   2.585   6.773   6.136
 2213SOL     OW 7537   4.636   0.488   3.153
 2213SOL    HW1 7538   4.646   0.436   3.238
 2213SOL    HW2 7539   4.571   0.563   3.168
 2214SOL     OW 7540   4.052   6.978   5.366
 2214SOL    HW1 7541   4.020   6.990   5.272
 2214SOL    HW2 7542   4.129   6.914   5.367
 2215SOL     OW 7543   5.422   2.004   5.189
 2215SOL    HW1 7544   5.334   2.051   5.191
 2215SOL    HW2 7545   5.487   2.053   5.247
 2216SOL     OW 7546   3.390   1.500   2.406
 2216SOL    HW1 7547   3.471   1.537   2.361
 2216SOL    HW2 7548   3.411   1.409   2.442
 2217SOL     OW 7549   3.854   0.620   1.633
 2217SOL    HW1 7550   3.759   0.642   1.656
 2217SOL    HW2 7551   3.855   0.564   1.550
 2218SOL     OW 7552   0.784   0.119   2.807
 2218SOL    HW1 7553   0.697   0.086   2.844
 2218SOL    HW2 7554   0.776   0.217   2.786
 2219SOL     OW 7555   2.114   2.169   2.688
 2219SOL    HW1 7556   2.206   2.184   2.725
 2219SOL    HW2 7557   2.066   2.101   2.744
 2220SOL     OW 7558   1.189   0.513   2.120
 2220SOL    HW1 7559   1.159   0.587   2.060
 2220SOL    HW2 7560   1.230   0.440   2.065
 2221SOL     OW 7561   0.494   0.461   5.930
 2221SOL    HW1 7562   0.442   0.448   6.015
 2221SOL    HW2 7563   0.433   0.452   5.852
 2222SOL     OW 7564   6.553   4.824   3.943
 2222SOL    HW1 7565   6.495   4.898   3.977
 2222SOL    HW2 7566   6.550   4.822   3.843
 2223SOL     OW 7567   6.630   6.778   1.387
 2223SOL    HW1 7568   6.652   6.799   1.482
 2223SOL    HW2 7569   6.581   6.855   1.347
 2224SOL     OW 7570   0.905   5.011   0.867
 2224SOL    HW1 7571   0.911   4.916   0.839
 2224SOL    HW2 7572   0.965   5.027   0.945
 2225SOL     OW 7573   0.448   3.777   0.114
 2225SOL    HW1 7574   0.425   3.753   0.020
 2225SOL    HW2 7575   0.515   3.851   0.114
 2226SOL     OW 7576   3.775   3.663   2.274
 2226SOL    HW1 7577   3.867   3.697   2.254
 2226SOL    HW2 7578   3.738   3.712   2.353
 2227SOL     OW 7579   1.165   2.073   3.911
 2227SOL    HW1 7580   1.220   2.076   3.828
 2227SOL    HW2 7581   1.069   2.058   3.886
 2228SOL     OW 7582   2.653   4.889   3.914
 2228SOL    HW1 7583   2.670   4.852   4.005
 2228SOL    HW2 7584   2.736   4.880   3.859
 2229SOL     OW 7585   5.749   6.106   3.196
 2229SOL    HW1 7586   5.819   6.131   3.129
 2229SOL    HW2 7587   5.757   6.009   3.218
 2230SOL     OW 7588   2.153   5.469   1.877
 2230SOL    HW1 7589   2.210   5.472   1.959
 2230SOL    HW2 7590   2.179   5.543   1.816
 2231SOL     OW 7591   2.215   5.938   1.229
 2231SOL    HW1 7592   2.282   6.004   1.263
 2231SOL    HW2 7593   2.187   5.877   1.304
 2232SOL     OW 7594   5.391   2.511   3.909
 2232SOL    HW1 7595   5.360   2.517   3.814
 2232SOL    HW2 7596   5.312   2.496   3.969
 2233SOL     OW 7597   3.465   1.066   6.907
 2233SOL    HW1 7598   3.406   1.009   6.964
 2233SOL    HW2 7599   3.430   1.066   6.813
 2234SOL     OW 7600   3.668   2.664   1.293
 2234SOL    HW1 7601   3.588   2.683   1.351
 2234SOL    HW2 7602   3.668   2.727   1.215
 2235SOL     OW 7603   1.897   1.519   2.068
 2235SOL    HW1 7604   1.887   1.618   2.056
 2235SOL    HW2 7605   1.992   1.492   2.054
 2236SOL     OW 7606   1.270   4.744   5.562
 2236SOL    HW1 7607   1.213   4.824   5.579
 2236SOL    HW2 7608   1.213   4.662   5.564
 2237SOL     OW 7609   6.521   3.097   4.633
 2237SOL    HW1 7610   6.615   3.118   4.607
 2237SOL    HW2 7611   6.491   3.015   4.584
 2238SOL     OW 7612   5.871   6.584   0.440
 2238SOL    HW1 7613   5.837   6.674   0.467
 2238SOL    HW2 7614   5.798   6.517   0.448
 2239SOL     OW 7615   6.100   6.103   1.902
 2239SOL    HW1 7616   6.004   6.126   1.886
 2239SOL    HW2 7617   6.146   6.090   1.814
 2240SOL     OW 7618   6.105   3.432   2.000
 2240SOL    HW1 7619   6.099   3.376   1.917
 2240SOL    HW2 7620   6.040   3.398   2.068
 2241SOL     OW 7621   1.441   0.370   3.978
 2241SOL    HW1 7622   1.402   0.444   3.924
 2241SOL    HW2 7623   1.529   0.343   3.939
 2242SOL     OW 7624   3.287   1.889   2.602
 2242SOL    HW1 7625   3.224   1.878   2.678
 2242SOL    HW2 7626   3.294   1.986   2.578
 2243SOL     OW 7627   2.915   0.168   5.094
 2243SOL    HW1 7628   2.856   0.107   5.041
 2243SOL    HW2 7629   2.948   0.242   5.036
 2244SOL     OW 7630   3.952   0.973   5.193
 2244SOL    HW1 7631   3.982   0.935   5.280
 2244SOL    HW2 7632   3.885   1.045   5.209
 2245SOL     OW 7633   0.231   2.157   1.812
 2245SOL    HW1 7634   0.292   2.236   1.814
 2245SOL    HW2 7635   0.285   2.074   1.825
 2246SOL     OW 7636   0.771   4.649   5.341
 2246SOL    HW1 7637   0.791   4.563   5.388
 2246SOL    HW2 7638   0.850   4.709   5.348
 2247SOL     OW 7639   1.758   1.211   4.574
 2247SOL    HW1 7640   1.738   1.113   4.580
 2247SOL    HW2 7641   1.844   1.224   4.525
 2248SOL     OW 7642   4.633   3.845   5.803
 2248SOL    HW1 7643   4.563   3.803   5.861
 2248SOL    HW2 7644   4.641   3.793   5.718
 2249SOL     OW 7645   4.472   5.871   5.474
 2249SOL    HW1 7646   4.489   5.781   5.512
 2249SOL    HW2 7647   4.374   5.891   5.475
 2250SOL     OW 7648   4.731   5.281   1.652
 2250SOL    HW1 7649   4.800   5.211   1.633
 2250SOL    HW2 7650   4.647   5.238   1.683
 2251SOL     OW 7651   0.590   0.933   6.370
 2251SOL    HW1 7652   0.492   0.928   6.390
 2251SOL    HW2 7653   0.628   0.840   6.369
 2252SOL     OW 7654   3.297   0.800   6.690
 2252SOL    HW1 7655   3.359   0.728   6.719
 2252SOL    HW2 7656   3.346   0.888   6.687
 2253SOL     OW 7657   1.105   4.404   6.573
 2253SOL    HW1 7658   1.038   4.372   6.640
 2253SOL    HW2 7659   1.059   4.425   6.487
 2254SOL     OW 7660   1.514   4.488   6.573
 2254SOL    HW1 7661   1.602   4.528   6.549
 2254SOL    HW2 7662   1.515   4.462   6.670
 2255SOL     OW 7663   6.414   3.762   6.570
 2255SOL    HW1 7664   6.406   3.664   6.552
 2255SOL    HW2 7665   6.325   3.798   6.600
 2256SOL     OW 7666   2.462   4.670   1.909
 2256SOL    HW1 7667   2.448   4.598   1.841
 2256SOL    HW2 7668   2.526   4.738   1.872
 2257SOL     OW 7669   1.464   3.947   5.070
 2257SOL    HW1 7670   1.481   3.866   5.014
 2257SOL    HW2 7671   1.414   4.015   5.016
 2258SOL     OW 7672   2.338   5.315   4.684
 2258SOL    HW1 7673   2.328   5.409   4.718
 2258SOL    HW2 7674   2.408   5.313   4.612
 2259SOL     OW 7675   6.356   2.798   6.266
 2259SOL    HW1 7676   6.404   2.833   6.346
 2259SOL    HW2 7677   6.260   2.827   6.268
 2260SOL     OW 7678   4.196   3.102   0.758
 2260SOL    HW1 7679   4.268   3.161   0.794
 2260SOL    HW2 7680   4.107   3.145   0.774
 2261SOL     OW 7681   2.518   6.431   4.976
 2261SOL    HW1 7682   2.505   6.381   5.062
 2261SOL    HW2 7683   2.610   6.416   4.942
 2262SOL     OW 7684   3.224   1.743   2.991
 2262SOL    HW1 7685   3.197   1.647   2.985
 2262SOL    HW2 7686   3.293   1.763   2.921
 2263SOL     OW 7687   0.902   4.396   6.107
 2263SOL    HW1 7688   0.977   4.342   6.145
 2263SOL    HW2 7689   0.823   4.337   6.092
 2264SOL     OW 7690   3.282   3.817   3.450
 2264SOL    HW1 7691   3.219   3.761   3.503
 2264SOL    HW2 7692   3.234   3.898   3.415
 2265SOL     OW 7693   0.562   6.534   3.759
 2265SOL    HW1 7694   0.478   6.541   3.705
 2265SOL    HW2 7695   0.619   6.615   3.744
 2266SOL     OW 7696   6.401   0.597   5.793
 2266SOL    HW1 7697   6.464   0.635   5.725
 2266SOL    HW2 7698   6.313   0.579   5.749
 2267SOL     OW 7699   5.216   1.631   5.120
 2267SOL    HW1 7700   5.285   1.659   5.188
 2267SOL    HW2 7701   5.178   1.712   5.076
 2268SOL     OW 7702   6.990   5.502   0.268
 2268SOL    HW1 7703   6.939   5.555   0.336
 2268SOL    HW2 7704   6.938   5.421   0.243
 2269SOL     OW 7705   0.329   6.803   3.119
 2269SOL    HW1 7706   0.364   6.885   3.164
 2269SOL    HW2 7707   0.378   6.723   3.153
 2270SOL     OW 7708   3.985   3.161   3.407
 2270SOL    HW1 7709   4.001   3.210   3.493
 2270SOL    HW2 7710   3.919   3.087   3.422
 2271SOL     OW 7711   1.299   4.641   3.248
 2271SOL    HW1 7712   1.301   4.582   3.329
 2271SOL    HW2 7713   1.259   4.730   3.272
 2272SOL     OW 7714   5.296   0.826   5.840
 2272SOL    HW1 7715   5.378   0.857   5.888
 2272SOL    HW2 7716   5.234   0.903   5.826
 2273SOL     OW 7717   0.553   0.951   2.321
 2273SOL    HW1 7718   0.606   0.928   2.240
 2273SOL    HW2 7719   0.607   0.930   2.403
 2274SOL     OW 7720   0.880   3.867   3.935
 2274SOL    HW1 7721   0.895   3.802   3.861
 2274SOL    HW2 7722   0.954   3.860   4.002
 2275SOL     OW 7723   4.842   6.158   3.787
 2275SOL    HW1 7724   4.845   6.222   3.864
 2275SOL    HW2 7725   4.748   6.150   3.755
 2276SOL     OW 7726   3.375   6.013   2.417
 2276SOL    HW1 7727   3.364   5.984   2.512
 2276SOL    HW2 7728   3.309   5.964   2.359
 2277SOL     OW 7729   3.236   3.043   2.160
 2277SOL    HW1 7730   3.326   3.085   2.162
 2277SOL    HW2 7731   3.235   2.970   2.090
 2278SOL     OW 7732   4.147   5.575   1.258
 2278SOL    HW1 7733   4.085   5.651   1.280
 2278SOL    HW2 7734   4.216   5.606   1.193
 2279SOL     OW 7735   5.638   4.059   5.680
 2279SOL    HW1 7736   5.712   4.049   5.746
 2279SOL    HW2 7737   5.673   4.099   5.596
 2280SOL     OW 7738   5.619   0.364   6.222
 2280SOL    HW1 7739   5.539   0.414   6.189
 2280SOL    HW2 7740   5.623   0.275   6.177
 2281SOL     OW 7741   1.986   1.062   0.151
 2281SOL    HW1 7742   2.066   1.053   0.210
 2281SOL    HW2 7743   2.010   1.029   0.059
 2282SOL     OW 7744   4.220   5.862   2.848
 2282SOL    HW1 7745   4.309   5.894   2.817
 2282SOL    HW2 7746   4.156   5.859   2.771
 2283SOL     OW 7747   0.909   3.223   1.829
 2283SOL    HW1 7748   0.852   3.141   1.836
 2283SOL    HW2 7749   0.982   3.219   1.898
 2284SOL     OW 7750   2.102   2.185   1.604
 2284SOL    HW1 7751   2.120   2.230   1.516
 2284SOL    HW2 7752   2.188   2.156   1.645
 2285SOL     OW 7753   1.728   3.336   6.311
 2285SOL    HW1 7754   1.634   3.324   6.278
 2285SOL    HW2 7755   1.775   3.248   6.311
 2286SOL     OW 7756   6.470   6.815   4.257
 2286SOL    HW1 7757   6.541   6.875   4.221
 2286SOL    HW2 7758   6.451   6.743   4.190
 2287SOL     OW 7759   2.520   2.113   0.766
 2287SOL    HW1 7760   2.578   2.032   0.755
 2287SOL    HW2 7761   2.444   2.108   0.702
 2288SOL     OW 7762   2.675   5.733   4.611
 2288SOL    HW1 7763   2.721   5.645   4.599
 2288SOL    HW2 7764   2.608   5.727   4.685
 2289SOL     OW 7765   3.881   0.903   6.829
 2289SOL    HW1 7766   3.926   0.825   6.873
 2289SOL    HW2 7767   3.871   0.884   6.731
 2290SOL     OW 7768   3.491   3.592   4.646
 2290SOL    HW1 7769   3.397   3.608   4.673
 2290SOL    HW2 7770   3.541   3.680   4.645
 2291SOL     OW 7771   2.378   2.572   0.240
 2291SOL    HW1 7772   2.289   2.557   0.282
 2291SOL    HW2 7773   2.435   2.627   0.301
 2292SOL     OW 7774   4.957   2.010   3.240
 2292SOL    HW1 7775   5.017   1.931   3.228
 2292SOL    HW2 7776   5.011   2.094   3.235
 2293SOL     OW 7777   0.720   1.333   6.108
 2293SOL    HW1 7778   0.762   1.419   6.081
 2293SOL    HW2 7779   0.628   1.351   6.145
 2294SOL     OW 7780   6.474   1.834   5.040
 2294SOL    HW1 7781   6.450   1.803   5.132
 2294SOL    HW2 7782   6.456   1.932   5.032
 2295SOL     OW 7783   5.213   5.718   0.485
 2295SOL    HW1 7784   5.116   5.702   0.503
 2295SOL    HW2 7785   5.259   5.738   0.572
 2296SOL     OW 7786   3.565   5.492   5.104
 2296SOL    HW1 7787   3.600   5.502   5.197
 2296SOL    HW2 7788   3.638   5.510   5.038
 2297SOL     OW 7789   6.184   3.193   6.391
 2297SOL    HW1 7790   6.251   3.171   6.320
 2297SOL    HW2 7791   6.138   3.279   6.368
 2298SOL     OW 7792   2.660   3.468   5.376
 2298SOL    HW1 7793   2.655   3.463   5.476
 2298SOL    HW2 7794   2.690   3.559   5.348
 2299SOL     OW 7795   6.012   3.521   4.562
 2299SOL    HW1 7796   5.942   3.471   4.511
 2299SOL    HW2 7797   6.022   3.612   4.523
 2300SOL     OW 7798   5.476   0.247   2.670
 2300SOL    HW1 7799   5.379   0.233   2.689
 2300SOL    HW2 7800   5.487   0.301   2.587
 2301SOL     OW 7801   3.686   3.478   5.290
 2301SOL    HW1 7802   3.755   3.415   5.325
 2301SOL    HW2 7803   3.638   3.436   5.213
 2302SOL     OW 7804   6.785   3.372   6.126
 2302SOL    HW1 7805   6.874   3.330   6.140
 2302SOL    HW2 7806   6.762   3.429   6.205
 2303SOL     OW 7807   2.692   1.817   6.546
 2303SOL    HW1 7808   2.748   1.881   6.598
 2303SOL    HW2 7809   2.711   1.828   6.448
 2304SOL     OW 7810   6.164   0.059   2.445
 2304SOL    HW1 7811   6.135   0.006   2.524
 2304SOL    HW2 7812   6.263   0.072   2.447
 2305SOL     OW 7813   3.183   6.963   5.003
 2305SOL    HW1 7814   3.096   6.957   5.051
 2305SOL    HW2 7815   3.176   0.006   4.930
 2306SOL     OW 7816   1.532   4.244   4.831
 2306SOL    HW1 7817   1.436   4.254   4.804
 2306SOL    HW2 7818   1.558   4.148   4.828
 2307SOL     OW 7819   6.512   3.753   4.346
 2307SOL    HW1 7820   6.530   3.699   4.428
 2307SOL    HW2 7821   6.553   3.844   4.355
 2308SOL     OW 7822   0.741   5.703   1.916
 2308SOL    HW1 7823   0.713   5.610   1.942
 2308SOL    HW2 7824   0.831   5.722   1.956
 2309SOL     OW 7825   2.008   0.755   5.057
 2309SOL    HW1 7826   1.977   0.845   5.087
 2309SOL    HW2 7827   1.933   0.708   5.010
 2310SOL     OW 7828   4.271   6.970   0.331
 2310SOL    HW1 7829   4.281   0.039   0.363
 2310SOL    HW2 7830   4.233   6.913   0.404
 2311SOL     OW 7831   2.342   5.941   0.958
 2311SOL    HW1 7832   2.374   5.916   1.050
 2311SOL    HW2 7833   2.247   5.972   0.964
 2312SOL     OW 7834   3.086   4.843   2.852
 2312SOL    HW1 7835   3.006   4.880   2.805
 2312SOL    HW2 7836   3.151   4.807   2.785
 2313SOL     OW 7837   4.623   4.782   1.611
 2313SOL    HW1 7838   4.573   4.866   1.591
 2313SOL    HW2 7839   4.599   4.712   1.544
 2314SOL     OW 7840   2.540   4.491   3.424
 2314SOL    HW1 7841   2.540   4.547   3.340
 2314SOL    HW2 7842   2.600   4.534   3.492
 2315SOL     OW 7843   4.905   2.143   6.447
 2315SOL    HW1 7844   4.936   2.218   6.506
 2315SOL    HW2 7845   4.923   2.056   6.493
 2316SOL     OW 7846   4.921   3.383   2.281
 2316SOL    HW1 7847   5.016   3.382   2.251
 2316SOL    HW2 7848   4.884   3.475   2.272
 2317SOL     OW 7849   0.331   6.065   3.755
 2317SOL    HW1 7850   0.248   6.074   3.701
 2317SOL    HW2 7851   0.333   6.135   3.826
 2318SOL     OW 7852   0.425   1.352   3.767
 2318SOL    HW1 7853   0.372   1.386   3.690
 2318SOL    HW2 7854   0.504   1.412   3.781
 2319SOL     OW 7855   1.471   4.755   1.247
 2319SOL    HW1 7856   1.524   4.730   1.166
 2319SOL    HW2 7857   1.378   4.718   1.239
 2320SOL     OW 7858   6.121   4.815   4.542
 2320SOL    HW1 7859   6.029   4.790   4.571
 2320SOL    HW2 7860   6.118   4.905   4.497
 2321SOL     OW 7861   3.971   4.896   4.318
 2321SOL    HW1 7862   3.934   4.978   4.361
 2321SOL    HW2 7863   3.898   4.846   4.273
 2322SOL     OW 7864   2.873   0.941   4.380
 2322SOL    HW1 7865   2.851   0.859   4.328
 2322SOL    HW2 7866   2.793   1.001   4.383
 2323SOL     OW 7867   4.939   3.568   1.993
 2323SOL    HW1 7868   5.018   3.510   2.010
 2323SOL    HW2 7869   4.967   3.663   1.987
 2324SOL     OW 7870   0.667   5.301   4.094
 2324SOL    HW1 7871   0.698   5.396   4.083
 2324SOL    HW2 7872   0.696   5.267   4.183
 2325SOL     OW 7873   0.353   2.210   0.286
 2325SOL    HW1 7874   0.404   2.295   0.298
 2325SOL    HW2 7875   0.277   2.207   0.351
 2326SOL     OW 7876   0.720   4.209   0.759
 2326SOL    HW1 7877   0.737   4.153   0.679
 2326SOL    HW2 7878   0.798   4.203   0.822
 2327SOL     OW 7879   4.721   1.013   3.695
 2327SOL    HW1 7880   4.648   0.959   3.738
 2327SOL    HW2 7881   4.684   1.067   3.620
 2328SOL     OW 7882   6.322   5.020   3.961
 2328SOL    HW1 7883   6.261   4.944   3.983
 2328SOL    HW2 7884   6.299   5.057   3.871
 2329SOL     OW 7885   1.330   5.753   3.474
 2329SOL    HW1 7886   1.361   5.674   3.527
 2329SOL    HW2 7887   1.318   5.726   3.379
 2330SOL     OW 7888   1.266   4.546   0.561
 2330SOL    HW1 7889   1.200   4.614   0.594
 2330SOL    HW2 7890   1.286   4.563   0.464
 2331SOL     OW 7891   1.112   4.689   5.236
 2331SOL    HW1 7892   1.085   4.728   5.324
 2331SOL    HW2 7893   1.198   4.730   5.206
 2332SOL     OW 7894   5.627   3.246   5.677
 2332SOL    HW1 7895   5.653   3.196   5.759
 2332SOL    HW2 7896   5.680   3.331   5.672
 2333SOL     OW 7897   2.653   4.598   3.678
 2333SOL    HW1 7898   2.722   4.661   3.715
 2333SOL    HW2 7899   2.584   4.579   3.748
 2334SOL     OW 7900   2.399   0.346   5.956
 2334SOL    HW1 7901   2.416   0.434   6.001
 2334SOL    HW2 7902   2.367   0.280   6.024
 2335SOL     OW 7903   4.892   4.536   4.222
 2335SOL    HW1 7904   4.964   4.525   4.290
 2335SOL    HW2 7905   4.817   4.589   4.260
 2336SOL     OW 7906   4.271   2.792   5.801
 2336SOL    HW1 7907   4.325   2.822   5.722
 2336SOL    HW2 7908   4.331   2.774   5.878
 2337SOL     OW 7909   5.972   0.393   4.583
 2337SOL    HW1 7910   6.071   0.382   4.571
 2337SOL    HW2 7911   5.928   0.396   4.493
 2338SOL     OW 7912   1.449   6.960   6.962
 2338SOL    HW1 7913   1.499   6.905   6.896
 2338SOL    HW2 7914   1.512   6.992   0.009
 2339SOL     OW 7915   4.127   5.085   6.979
 2339SOL    HW1 7916   4.220   5.096   7.015
 2339SOL    HW2 7917   4.063   5.082   0.031
 2340SOL     OW 7918   3.468   5.241   4.369
 2340SOL    HW1 7919   3.545   5.297   4.399
 2340SOL    HW2 7920   3.390   5.300   4.346
 2341SOL     OW 7921   6.009   4.977   6.637
 2341SOL    HW1 7922   5.950   4.929   6.573
 2341SOL    HW2 7923   5.962   4.986   6.725
 2342SOL     OW 7924   6.675   1.179   5.516
 2342SOL    HW1 7925   6.575   1.181   5.519
 2342SOL    HW2 7926   6.706   1.226   5.434
 2343SOL     OW 7927   1.064   6.738   0.226
 2343SOL    HW1 7928   1.048   6.741   0.325
 2343SOL    HW2 7929   1.132   6.667   0.206
 2344SOL     OW 7930   2.441   0.938   2.719
 2344SOL    HW1 7931   2.506   0.998   2.766
 2344SOL    HW2 7932   2.354   0.939   2.768
 2345SOL     OW 7933   0.960   1.882   1.812
 2345SOL    HW1 7934   1.018   1.847   1.739
 2345SOL    HW2 7935   0.909   1.807   1.853
 2346SOL     OW 7936   4.794   3.005   5.331
 2346SOL    HW1 7937   4.785   3.067   5.253
 2346SOL    HW2 7938   4.886   3.012   5.369
 2347SOL     OW 7939   1.906   3.598   0.752
 2347SOL    HW1 7940   1.982   3.540   0.722
 2347SOL    HW2 7941   1.933   3.694   0.744
 2348SOL     OW 7942   2.178   6.963   1.935
 2348SOL    HW1 7943   2.124   6.959   1.851
 2348SOL    HW2 7944   2.194   6.870   1.969
 2349SOL     OW 7945   5.288   3.841   6.812
 2349SOL    HW1 7946   5.251   3.824   6.904
 2349SOL    HW2 7947   5.373   3.893   6.820
 2350SOL     OW 7948   2.248   6.414   5.063
 2350SOL    HW1 7949   2.210   6.479   5.129
 2350SOL    HW2 7950   2.337   6.447   5.031
 2351SOL     OW 7951   1.576   5.050   2.655
 2351SOL    HW1 7952   1.582   5.107   2.572
 2351SOL    HW2 7953   1.652   4.985   2.656
 2352SOL     OW 7954   5.496   5.136   0.683
 2352SOL    HW1 7955   5.463   5.114   0.591
 2352SOL    HW2 7956   5.502   5.236   0.693
 2353SOL     OW 7957   2.546   3.149   6.022
 2353SOL    HW1 7958   2.637   3.116   5.998
 2353SOL    HW2 7959   2.532   3.240   5.983
 2354SOL     OW 7960   4.160   1.622   2.243
 2354SOL    HW1 7961   4.063   1.647   2.239
 2354SOL    HW2 7962   4.215   1.699   2.209
 2355SOL     OW 7963   0.383   1.361   1.823
 2355SOL    HW1 7964   0.455   1.429   1.805
 2355SOL    HW2 7965   0.354   1.368   1.918
 2356SOL     OW 7966   3.033   5.429   3.938
 2356SOL    HW1 7967   2.999   5.347   3.892
 2356SOL    HW2 7968   2.962   5.465   3.999
 2357SOL     OW 7969   1.133   4.906   0.525
 2357SOL    HW1 7970   1.062   4.975   0.539
 2357SOL    HW2 7971   1.091   4.815   0.526
 2358SOL     OW 7972   3.043   0.739   5.115
 2358SOL    HW1 7973   3.057   0.830   5.155
 2358SOL    HW2 7974   2.950   0.732   5.080
 2359SOL     OW 7975   2.349   2.172   5.832
 2359SOL    HW1 7976   2.431   2.128   5.795
 2359SOL    HW2 7977   2.280   2.102   5.850
 2360SOL     OW 7978   3.249   5.042   1.001
 2360SOL    HW1 7979   3.179   5.112   0.987
 2360SOL    HW2 7980   3.207   4.961   1.041
 2361SOL     OW 7981   3.518   5.823   1.078
 2361SOL    HW1 7982   3.467   5.804   0.994
 2361SOL    HW2 7983   3.483   5.767   1.152
 2362SOL     OW 7984   3.222   5.344   4.276
 2362SOL    HW1 7985   3.266   5.427   4.309
 2362SOL    HW2 7986   3.148   5.317   4.338
 2363SOL     OW 7987   2.405   3.988   0.886
 2363SOL    HW1 7988   2.327   4.046   0.908
 2363SOL    HW2 7989   2.425   3.994   0.789
 2364SOL     OW 7990   4.343   1.446   2.345
 2364SOL    HW1 7991   4.280   1.522   2.328
 2364SOL    HW2 7992   4.409   1.441   2.270
 2365SOL     OW 7993   5.916   4.264   3.043
 2365SOL    HW1 7994   5.861   4.325   3.100
 2365SOL    HW2 7995   5.984   4.317   2.992
 2366SOL     OW 7996   2.936   5.428   5.225
 2366SOL    HW1 7997   3.034   5.410   5.235
 2366SOL    HW2 7998   2.894   5.356   5.170
 2367SOL     OW 7999   6.170   5.024   5.513
 2367SOL    HW1 8000   6.070   5.021   5.522
 2367SOL    HW2 8001   6.195   5.101   5.454
 2368SOL     OW 8002   5.207   0.828   4.953
 2368SOL    HW1 8003   5.256   0.884   4.886
 2368SOL    HW2 8004   5.109   0.829   4.932
 2369SOL     OW 8005   3.901   2.138   4.437
 2369SOL    HW1 8006   3.933   2.121   4.531
 2369SOL    HW2 8007   3.811   2.182   4.440
 2370SOL     OW 8008   5.259   2.078   1.752
 2370SOL    HW1 8009   5.193   2.118   1.690
 2370SOL    HW2 8010   5.352   2.099   1.722
 2371SOL     OW 8011   1.332   6.851   1.946
 2371SOL    HW1 8012   1.397   6.826   1.874
 2371SOL    HW2 8013   1.358   6.805   2.031
 2372SOL     OW 8014   6.561   0.288   5.839
 2372SOL    HW1 8015   6.505   0.368   5.823
 2372SOL    HW2 8016   6.649   0.315   5.880
 2373SOL     OW 8017   5.843   4.202   6.045
 2373SOL    HW1 8018   5.745   4.190   6.059
 2373SOL    HW2 8019   5.891   4.116   6.066
 2374SOL     OW 8020   6.509   6.443   2.198
 2374SOL    HW1 8021   6.429   6.425   2.141
 2374SOL    HW2 8022   6.582   6.482   2.142
 2375SOL     OW 8023   1.781   0.064   4.263
 2375SOL    HW1 8024   1.841   0.140   4.240
 2375SOL    HW2 8025   1.735   0.031   4.181
 2376SOL     OW 8026   4.783   2.398   3.358
 2376SOL    HW1 8027   4.707   2.458   3.384
 2376SOL    HW2 8028   4.830   2.366   3.441
 2377SOL     OW 8029   4.269   3.875   5.871
 2377SOL    HW1 8030   4.232   3.966   5.887
 2377SOL    HW2 8031   4.266   3.853   5.774
 2378SOL     OW 8032   0.535   0.757   0.784
 2378SOL    HW1 8033   0.619   0.758   0.731
 2378SOL    HW2 8034   0.463   0.804   0.733
 2379SOL     OW 8035   0.625   4.668   2.636
 2379SOL    HW1 8036   0.655   4.716   2.718
 2379SOL    HW2 8037   0.628   4.570   2.652
 2380SOL     OW 8038   4.432   5.796   6.782
 2380SOL    HW1 8039   4.335   5.773   6.773
 2380SOL    HW2 8040   4.440   5.885   6.827
 2381SOL     OW 8041   2.131   3.633   4.147
 2381SOL    HW1 8042   2.103   3.712   4.202
 2381SOL    HW2 8043   2.163   3.560   4.208
 2382SOL     OW 8044   0.073   5.080   3.104
 2382SOL    HW1 8045   0.150   5.063   3.165
 2382SOL    HW2 8046   0.027   5.165   3.131
 2383SOL     OW 8047   4.871   3.918   5.669
 2383SOL    HW1 8048   4.787   3.889   5.715
 2383SOL    HW2 8049   4.944   3.853   5.691
 2384SOL     OW 8050   0.523   2.491   2.578
 2384SOL    HW1 8051   0.514   2.515   2.675
 2384SOL    HW2 8052   0.596   2.423   2.568
 2385SOL     OW 8053   0.327   1.167   6.814
 2385SOL    HW1 8054   0.392   1.113   6.867
 2385SOL    HW2 8055   0.377   1.228   6.753
 2386SOL     OW 8056   6.194   5.626   5.043
 2386SOL    HW1 8057   6.151   5.690   5.107
 2386SOL    HW2 8058   6.141   5.541   5.040
 2387SOL     OW 8059   0.749   0.440   3.561
 2387SOL    HW1 8060   0.753   0.480   3.470
 2387SOL    HW2 8061   0.653   0.437   3.592
 2388SOL     OW 8062   0.737   3.303   5.452
 2388SOL    HW1 8063   0.752   3.401   5.445
 2388SOL    HW2 8064   0.640   3.283   5.444
 2389SOL     OW 8065   4.261   5.471   3.489
 2389SOL    HW1 8066   4.269   5.410   3.410
 2389SOL    HW2 8067   4.335   5.452   3.554
 2390SOL     OW 8068   5.120   2.585   6.072
 2390SOL    HW1 8069   5.063   2.531   6.011
 2390SOL    HW2 8070   5.205   2.610   6.026
 2391SOL     OW 8071   3.282   3.926   6.877
 2391SOL    HW1 8072   3.229   3.984   6.816
 2391SOL    HW2 8073   3.234   3.915   6.964
 2392SOL     OW 8074   3.958   5.312   5.927
 2392SOL    HW1 8075   3.974   5.216   5.951
 2392SOL    HW2 8076   4.038   5.367   5.952
 2393SOL     OW 8077   3.910   4.417   0.194
 2393SOL    HW1 8078   3.810   4.415   0.192
 2393SOL    HW2 8079   3.945   4.323   0.195
 2394SOL     OW 8080   6.423   1.409   3.969
 2394SOL    HW1 8081   6.323   1.422   3.968
 2394SOL    HW2 8082   6.454   1.385   3.877
 2395SOL     OW 8083   1.415   2.622   3.892
 2395SOL    HW1 8084   1.438   2.707   3.938
 2395SOL    HW2 8085   1.444   2.545   3.948
 2396SOL     OW 8086   0.008   0.479   6.651
 2396SOL    HW1 8087   6.935   0.463   6.640
 2396SOL    HW2 8088   0.042   0.422   6.726
 2397SOL     OW 8089   2.196   4.319   5.210
 2397SOL    HW1 8090   2.119   4.261   5.238
 2397SOL    HW2 8091   2.250   4.343   5.291
 2398SOL     OW 8092   3.926   6.058   4.560
 2398SOL    HW1 8093   3.908   6.022   4.469
 2398SOL    HW2 8094   4.014   6.104   4.561
 2399SOL     OW 8095   3.218   1.612   2.729
 2399SOL    HW1 8096   3.205   1.613   2.630
 2399SOL    HW2 8097   3.290   1.546   2.752
 2400SOL     OW 8098   1.289   3.116   0.033
 2400SOL    HW1 8099   1.298   3.191   6.992
 2400SOL    HW2 8100   1.356   3.045   0.012
 2401SOL     OW 8101   1.964   6.381   0.054
 2401SOL    HW1 8102   1.924   6.291   0.071
 2401SOL    HW2 8103   2.051   6.388   0.102
 2402SOL     OW 8104   0.919   4.219   2.153
 2402SOL    HW1 8105   1.012   4.200   2.182
 2402SOL    HW2 8106   0.917   4.237   2.055
 2403SOL     OW 8107   3.072   3.909   5.268
 2403SOL    HW1 8108   2.979   3.935   5.294
 2403SOL    HW2 8109   3.117   3.987   5.225
 2404SOL     OW 8110   6.024   1.461   1.436
 2404SOL    HW1 8111   6.085   1.530   1.396
 2404SOL    HW2 8112   5.969   1.419   1.363
 2405SOL     OW 8113   2.273   3.021   0.712
 2405SOL    HW1 8114   2.296   2.957   0.786
 2405SOL    HW2 8115   2.223   3.099   0.750
 2406SOL     OW 8116   3.756   5.475   4.888
 2406SOL    HW1 8117   3.805   5.412   4.828
 2406SOL    HW2 8118   3.735   5.559   4.838
 2407SOL     OW 8119   2.031   1.919   3.748
 2407SOL    HW1 8120   1.939   1.903   3.785
 2407SOL    HW2 8121   2.099   1.871   3.803
 2408SOL     OW 8122   3.898   0.393   6.147
 2408SOL    HW1 8123   3.941   0.330   6.082
 2408SOL    HW2 8124   3.961   0.413   6.222
 2409SOL     OW 8125   0.694   3.054   6.866
 2409SOL    HW1 8126   0.635   3.134   6.880
 2409SOL    HW2 8127   0.761   3.075   6.795
 2410SOL     OW 8128   6.841   3.545   4.654
 2410SOL    HW1 8129   6.766   3.491   4.617
 2410SOL    HW2 8130   6.804   3.615   4.715
 2411SOL     OW 8131   3.174   1.453   6.878
 2411SOL    HW1 8132   3.197   1.417   6.788
 2411SOL    HW2 8133   3.205   1.389   6.948
 2412SOL     OW 8134   3.715   2.470   6.197
 2412SOL    HW1 8135   3.792   2.426   6.151
 2412SOL    HW2 8136   3.664   2.402   6.250
 2413SOL     OW 8137   0.412   3.660   6.902
 2413SOL    HW1 8138   0.478   3.636   6.831
 2413SOL    HW2 8139   0.322   3.675   6.861
 2414SOL     OW 8140   0.042   1.392   5.598
 2414SOL    HW1 8141   0.076   1.439   5.516
 2414SOL    HW2 8142   0.063   1.448   5.678
 2415SOL     OW 8143   3.269   4.719   6.517
 2415SOL    HW1 8144   3.223   4.806   6.500
 2415SOL    HW2 8145   3.320   4.692   6.436
 2416SOL     OW 8146   0.441   2.579   3.066
 2416SOL    HW1 8147   0.354   2.592   3.114
 2416SOL    HW2 8148   0.516   2.575   3.133
 2417SOL     OW 8149   3.231   2.519   1.228
 2417SOL    HW1 8150   3.191   2.573   1.302
 2417SOL    HW2 8151   3.264   2.432   1.264
 2418SOL     OW 8152   5.309   4.592   6.804
 2418SOL    HW1 8153   5.263   4.679   6.782
 2418SOL    HW2 8154   5.275   4.520   6.744
 2419SOL     OW 8155   3.395   0.876   3.230
 2419SOL    HW1 8156   3.408   0.962   3.180
 2419SOL    HW2 8157   3.483   0.843   3.263
 2420SOL     OW 8158   1.873   3.570   2.630
 2420SOL    HW1 8159   1.782   3.611   2.636
 2420SOL    HW2 8160   1.921   3.607   2.551
 2421SOL     OW 8161   3.040   6.874   3.706
 2421SOL    HW1 8162   3.090   6.902   3.788
 2421SOL    HW2 8163   2.942   6.880   3.724
 2422SOL     OW 8164   4.032   5.860   0.257
 2422SOL    HW1 8165   4.077   5.945   0.230
 2422SOL    HW2 8166   4.032   5.852   0.357
 2423SOL     OW 8167   2.828   5.134   4.381
 2423SOL    HW1 8168   2.786   5.224   4.379
 2423SOL    HW2 8169   2.758   5.065   4.401
 2424SOL     OW 8170   5.057   6.727   6.398
 2424SOL    HW1 8171   5.096   6.639   6.425
 2424SOL    HW2 8172   5.101   6.759   6.313
 2425SOL     OW 8173   4.109   5.411   5.269
 2425SOL    HW1 8174   4.040   5.379   5.334
 2425SOL    HW2 8175   4.135   5.505   5.293
 2426SOL     OW 8176   3.041   2.073   5.134
 2426SOL    HW1 8177   3.091   2.146   5.088
 2426SOL    HW2 8178   3.002   2.107   5.219
 2427SOL     OW 8179   4.878   1.537   0.472
 2427SOL    HW1 8180   4.860   1.634   0.458
 2427SOL    HW2 8181   4.927   1.524   0.558
 2428SOL     OW 8182   1.730   1.620   3.151
 2428SOL    HW1 8183   1.745   1.678   3.231
 2428SOL    HW2 8184   1.746   1.673   3.068
 2429SOL     OW 8185   5.995   5.925   1.155
 2429SOL    HW1 8186   6.020   6.011   1.198
 2429SOL    HW2 8187   5.958   5.863   1.224
 2430SOL     OW 8188   6.265   0.609   6.508
 2430SOL    HW1 8189   6.328   0.539   6.474
 2430SOL    HW2 8190   6.194   0.565   6.564
 2431SOL     OW 8191   1.499   3.096   1.840
 2431SOL    HW1 8192   1.479   3.013   1.788
 2431SOL    HW2 8193   1.593   3.125   1.822
 2432SOL     OW 8194   2.361   5.549   2.139
 2432SOL    HW1 8195   2.404   5.592   2.060
 2432SOL    HW2 8196   2.411   5.574   2.222
 2433SOL     OW 8197   0.614   4.307   4.965
 2433SOL    HW1 8198   0.641   4.384   5.022
 2433SOL    HW2 8199   0.695   4.257   4.934
 2434SOL     OW 8200   4.550   1.158   3.506
 2434SOL    HW1 8201   4.480   1.185   3.572
 2434SOL    HW2 8202   4.505   1.119   3.425
 2435SOL     OW 8203   6.218   6.703   6.656
 2435SOL    HW1 8204   6.170   6.705   6.568
 2435SOL    HW2 8205   6.312   6.736   6.644
 2436SOL     OW 8206   0.020   3.442   0.353
 2436SOL    HW1 8207   6.986   3.475   0.279
 2436SOL    HW2 8208   6.993   3.378   0.409
 2437SOL     OW 8209   0.187   4.287   1.057
 2437SOL    HW1 8210   0.228   4.238   0.980
 2437SOL    HW2 8211   0.111   4.233   1.094
 2438SOL     OW 8212   3.617   1.698   4.720
 2438SOL    HW1 8213   3.604   1.718   4.623
 2438SOL    HW2 8214   3.572   1.769   4.775
 2439SOL     OW 8215   0.376   5.514   1.068
 2439SOL    HW1 8216   0.399   5.422   1.037
 2439SOL    HW2 8217   0.403   5.524   1.164
 2440SOL     OW 8218   6.561   1.255   5.095
 2440SOL    HW1 8219   6.607   1.166   5.096
 2440SOL    HW2 8220   6.522   1.271   5.004
 2441SOL     OW 8221   6.638   0.851   0.806
 2441SOL    HW1 8222   6.555   0.797   0.793
 2441SOL    HW2 8223   6.622   0.944   0.774
 2442SOL     OW 8224   5.308   3.304   2.433
 2442SOL    HW1 8225   5.215   3.267   2.435
 2442SOL    HW2 8226   5.342   3.312   2.527
 2443SOL     OW 8227   0.603   3.465   1.311
 2443SOL    HW1 8228   0.643   3.436   1.224
 2443SOL    HW2 8229   0.504   3.472   1.301
 2444SOL     OW 8230   3.201   5.635   2.930
 2444SOL    HW1 8231   3.173   5.551   2.883
 2444SOL    HW2 8232   3.124   5.699   2.932
 2445SOL     OW 8233   0.500   2.141   0.848
 2445SOL    HW1 8234   0.566   2.067   0.859
 2445SOL    HW2 8235   0.415   2.118   0.895
 2446SOL     OW 8236   6.999   5.923   1.944
 2446SOL    HW1 8237   0.010   6.002   1.993
 2446SOL    HW2 8238   6.977   5.850   2.009
 2447SOL     OW 8239   1.758   6.891   0.528
 2447SOL    HW1 8240   1.691   6.870   0.457
 2447SOL    HW2 8241   1.790   6.806   0.569
 2448SOL     OW 8242   5.985   0.888   4.314
 2448SOL    HW1 8243   5.912   0.825   4.290
 2448SOL    HW2 8244   5.945   0.975   4.345
 2449SOL     OW 8245   1.722   4.249   0.730
 2449SOL    HW1 8246   1.635   4.292   0.705
 2449SOL    HW2 8247   1.793   4.319   0.739
 2450SOL     OW 8248   0.892   6.384   4.903
 2450SOL    HW1 8249   0.981   6.374   4.948
 2450SOL    HW2 8250   0.896   6.460   4.838
 2451SOL     OW 8251   2.029   6.634   5.979
 2451SOL    HW1 8252   1.999   6.539   5.978
 2451SOL    HW2 8253   2.129   6.638   5.982
 2452SOL     OW 8254   2.144   1.705   4.180
 2452SOL    HW1 8255   2.125   1.699   4.278
 2452SOL    HW2 8256   2.104   1.627   4.132
 2453SOL     OW 8257   1.469   1.823   5.665
 2453SOL    HW1 8258   1.446   1.781   5.752
 2453SOL    HW2 8259   1.385   1.854   5.620
 2454SOL     OW 8260   3.319   6.066   0.957
 2454SOL    HW1 8261   3.230   6.099   0.988
 2454SOL    HW2 8262   3.314   5.967   0.940
 2455SOL     OW 8263   4.295   2.115   0.840
 2455SOL    HW1 8264   4.387   2.147   0.817
 2455SOL    HW2 8265   4.233   2.135   0.764
 2456SOL     OW 8266   0.387   3.772   5.935
 2456SOL    HW1 8267   0.432   3.843   5.990
 2456SOL    HW2 8268   0.421   3.777   5.841
 2457SOL     OW 8269   4.112   1.782   5.645
 2457SOL    HW1 8270   4.126   1.788   5.744
 2457SOL    HW2 8271   4.107   1.686   5.618
 2458SOL     OW 8272   0.444   6.879   2.415
 2458SOL    HW1 8273   0.420   6.852   2.509
 2458SOL    HW2 8274   0.387   6.827   2.351
 2459SOL     OW 8275   1.982   6.804   1.370
 2459SOL    HW1 8276   1.989   6.853   1.283
 2459SOL    HW2 8277   2.031   6.717   1.363
 2460SOL     OW 8278   0.604   0.587   4.197
 2460SOL    HW1 8279   0.602   0.625   4.289
 2460SOL    HW2 8280   0.611   0.487   4.202
 2461SOL     OW 8281   3.411   1.452   3.817
 2461SOL    HW1 8282   3.444   1.505   3.739
 2461SOL    HW2 8283   3.371   1.366   3.784
 2462SOL     OW 8284   0.716   5.341   0.595
 2462SOL    HW1 8285   0.631   5.393   0.602
 2462SOL    HW2 8286   0.794   5.402   0.609
 2463SOL     OW 8287   6.454   6.878   0.459
 2463SOL    HW1 8288   6.377   6.930   0.422
 2463SOL    HW2 8289   6.506   6.935   0.522
 2464SOL     OW 8290   0.710   2.546   4.281
 2464SOL    HW1 8291   0.748   2.492   4.356
 2464SOL    HW2 8292   0.616   2.572   4.304
 2465SOL     OW 8293   6.609   0.357   6.843
 2465SOL    HW1 8294   6.585   0.314   6.929
 2465SOL    HW2 8295   6.555   0.317   6.769
 2466SOL     OW 8296   0.598   2.158   1.935
 2466SOL    HW1 8297   0.543   2.087   1.891
 2466SOL    HW2 8298   0.693   2.151   1.905
 2467SOL     OW 8299   5.169   3.236   4.879
 2467SOL    HW1 8300   5.077   3.272   4.860
 2467SOL    HW2 8301   5.162   3.156   4.939
 2468SOL     OW 8302   3.566   0.175   5.277
 2468SOL    HW1 8303   3.509   0.124   5.212
 2468SOL    HW2 8304   3.546   0.142   5.370
 2469SOL     OW 8305   3.588   1.992   6.074
 2469SOL    HW1 8306   3.643   2.057   6.022
 2469SOL    HW2 8307   3.504   1.970   6.023
 2470SOL     OW 8308   2.474   5.451   6.685
 2470SOL    HW1 8309   2.438   5.504   6.762
 2470SOL    HW2 8310   2.524   5.371   6.719
 2471SOL     OW 8311   3.071   5.242   2.090
 2471SOL    HW1 8312   3.136   5.296   2.144
 2471SOL    HW2 8313   3.057   5.285   2.001
 2472SOL     OW 8314   4.641   1.413   3.457
 2472SOL    HW1 8315   4.657   1.404   3.359
 2472SOL    HW2 8316   4.596   1.331   3.491
 2473SOL     OW 8317   0.474   3.964   3.466
 2473SOL    HW1 8318   0.486   3.871   3.500
 2473SOL    HW2 8319   0.414   3.963   3.386
 2474SOL     OW 8320   1.136   6.466   1.603
 2474SOL    HW1 8321   1.213   6.433   1.549
 2474SOL    HW2 8322   1.156   6.559   1.636
 2475SOL     OW 8323   5.030   1.164   0.489
 2475SOL    HW1 8324   4.969   1.223   0.436
 2475SOL    HW2 8325   5.002   1.165   0.585
 2476SOL     OW 8326   4.104   0.155   1.023
 2476SOL    HW1 8327   4.192   0.201   1.037
 2476SOL    HW2 8328   4.030   0.218   1.049
 2477SOL     OW 8329   3.852   0.280   3.662
 2477SOL    HW1 8330   3.915   0.232   3.601
 2477SOL    HW2 8331   3.858   0.378   3.647
 2478SOL     OW 8332   4.313   0.018   5.104
 2478SOL    HW1 8333   4.342   0.112   5.124
 2478SOL    HW2 8334   4.386   6.979   5.127
 2479SOL     OW 8335   5.565   3.401   1.051
 2479SOL    HW1 8336   5.598   3.494   1.035
 2479SOL    HW2 8337   5.589   3.343   0.973
 2480SOL     OW 8338   3.625   2.404   1.342
 2480SOL    HW1 8339   3.646   2.500   1.324
 2480SOL    HW2 8340   3.684   2.346   1.286
 2481SOL     OW 8341   3.283   6.774   2.366
 2481SOL    HW1 8342   3.319   6.865   2.386
 2481SOL    HW2 8343   3.358   6.710   2.357
 2482SOL     OW 8344   6.443   3.350   0.261
 2482SOL    HW1 8345   6.366   3.294   0.233
 2482SOL    HW2 8346   6.529   3.307   0.232
 2483SOL     OW 8347   1.840   2.605   0.684
 2483SOL    HW1 8348   1.795   2.597   0.595
 2483SOL    HW2 8349   1.865   2.701   0.700
 2484SOL     OW 8350   4.161   0.582   0.100
 2484SOL    HW1 8351   4.215   0.575   0.184
 2484SOL    HW2 8352   4.217   0.556   0.022
 2485SOL     OW 8353   0.606   2.370   6.003
 2485SOL    HW1 8354   0.517   2.341   6.039
 2485SOL    HW2 8355   0.678   2.313   6.043
 2486SOL     OW 8356   6.950   5.439   3.599
 2486SOL    HW1 8357   6.979   5.454   3.693
 2486SOL    HW2 8358   6.934   5.341   3.584
 2487SOL     OW 8359   4.144   6.196   6.848
 2487SOL    HW1 8360   4.046   6.205   6.863
 2487SOL    HW2 8361   4.188   6.285   6.864
 2488SOL     OW 8362   6.775   4.166   0.704
 2488SOL    HW1 8363   6.742   4.256   0.674
 2488SOL    HW2 8364   6.869   4.175   0.738
 2489SOL     OW 8365   6.203   5.208   4.229
 2489SOL    HW1 8366   6.186   5.291   4.282
 2489SOL    HW2 8367   6.280   5.158   4.269
 2490SOL     OW 8368   2.571   5.801   3.300
 2490SOL    HW1 8369   2.629   5.834   3.374
 2490SOL    HW2 8370   2.602   5.710   3.271
 2491SOL     OW 8371   3.910   4.686   1.498
 2491SOL    HW1 8372   3.833   4.625   1.518
 2491SOL    HW2 8373   3.976   4.639   1.440
 2492SOL     OW 8374   6.500   4.899   1.320
 2492SOL    HW1 8375   6.585   4.850   1.301
 2492SOL    HW2 8376   6.491   4.913   1.419
 2493SOL     OW 8377   5.482   6.626   1.023
 2493SOL    HW1 8378   5.516   6.533   1.035
 2493SOL    HW2 8379   5.533   6.689   1.082
 2494SOL     OW 8380   6.715   3.275   1.076
 2494SOL    HW1 8381   6.751   3.367   1.055
 2494SOL    HW2 8382   6.761   3.208   1.018
 2495SOL     OW 8383   0.606   4.089   2.024
 2495SOL    HW1 8384   0.624   4.141   1.941
 2495SOL    HW2 8385   0.594   4.151   2.101
 2496SOL     OW 8386   5.642   4.780   6.686
 2496SOL    HW1 8387   5.700   4.700   6.670
 2496SOL    HW2 8388   5.658   4.815   6.778
 2497SOL     OW 8389   0.342   0.023   2.148
 2497SOL    HW1 8390   0.397   0.102   2.176
 2497SOL    HW2 8391   0.277   0.000   2.221
 2498SOL     OW 8392   1.612   3.512   5.054
 2498SOL    HW1 8393   1.625   3.584   4.986
 2498SOL    HW2 8394   1.522   3.470   5.041
 2499SOL     OW 8395   0.074   3.645   1.783
 2499SOL    HW1 8396   0.116   3.735   1.788
 2499SOL    HW2 8397   7.004   3.651   1.813
 2500SOL     OW 8398   3.721   3.189   1.512
 2500SOL    HW1 8399   3.684   3.096   1.505
 2500SOL    HW2 8400   3.688   3.232   1.595
 2501SOL     OW 8401   6.329   5.438   6.441
 2501SOL    HW1 8402   6.302   5.502   6.513
 2501SOL    HW2 8403   6.346   5.488   6.356
 2502SOL     OW 8404   2.422   6.377   4.494
 2502SOL    HW1 8405   2.416   6.278   4.488
 2502SOL    HW2 8406   2.513   6.403   4.526
 2503SOL     OW 8407   2.873   6.707   5.889
 2503SOL    HW1 8408   2.915   6.759   5.962
 2503SOL    HW2 8409   2.914   6.732   5.801
 2504SOL     OW 8410   3.905   6.775   3.633
 2504SOL    HW1 8411   3.957   6.777   3.548
 2504SOL    HW2 8412   3.837   6.849   3.632
 2505SOL     OW 8413   0.093   4.123   4.067
 2505SOL    HW1 8414   0.014   4.074   4.101
 2505SOL    HW2 8415   0.146   4.063   4.007
 2506SOL     OW 8416   5.665   5.277   6.146
 2506SOL    HW1 8417   5.692   5.371   6.161
 2506SOL    HW2 8418   5.594   5.273   6.076
 2507SOL     OW 8419   6.677   3.063   2.089
 2507SOL    HW1 8420   6.717   3.010   2.163
 2507SOL    HW2 8421   6.585   3.030   2.070
 2508SOL     OW 8422   5.477   1.385   4.618
 2508SOL    HW1 8423   5.388   1.424   4.591
 2508SOL    HW2 8424   5.525   1.353   4.537
 2509SOL     OW 8425   0.543   3.233   5.814
 2509SOL    HW1 8426   0.504   3.322   5.792
 2509SOL    HW2 8427   0.636   3.228   5.776
 2510SOL     OW 8428   3.141   3.955   2.378
 2510SOL    HW1 8429   3.172   3.877   2.323
 2510SOL    HW2 8430   3.064   3.927   2.435
 2511SOL     OW 8431   2.236   0.380   4.485
 2511SOL    HW1 8432   2.335   0.379   4.497
 2511SOL    HW2 8433   2.213   0.425   4.399
 2512SOL     OW 8434   4.220   4.843   4.254
 2512SOL    HW1 8435   4.256   4.934   4.233
 2512SOL    HW2 8436   4.128   4.853   4.293
 2513SOL     OW 8437   2.316   5.295   6.076
 2513SOL    HW1 8438   2.376   5.373   6.060
 2513SOL    HW2 8439   2.314   5.273   6.173
 2514SOL     OW 8440   1.429   1.884   2.719
 2514SOL    HW1 8441   1.366   1.829   2.775
 2514SOL    HW2 8442   1.394   1.977   2.713
 2515SOL     OW 8443   0.886   1.614   1.501
 2515SOL    HW1 8444   0.883   1.698   1.446
 2515SOL    HW2 8445   0.982   1.594   1.525
 2516SOL     OW 8446   5.722   2.041   4.757
 2516SOL    HW1 8447   5.758   2.010   4.844
 2516SOL    HW2 8448   5.642   2.098   4.772
 2517SOL     OW 8449   1.454   1.102   3.907
 2517SOL    HW1 8450   1.415   1.039   3.840
 2517SOL    HW2 8451   1.554   1.098   3.901
 2518SOL     OW 8452   2.287   4.697   1.569
 2518SOL    HW1 8453   2.309   4.747   1.652
 2518SOL    HW2 8454   2.205   4.736   1.527
 2519SOL     OW 8455   1.029   1.402   0.666
 2519SOL    HW1 8456   0.930   1.399   0.655
 2519SOL    HW2 8457   1.070   1.325   0.617
 2520SOL     OW 8458   2.567   2.325   0.457
 2520SOL    HW1 8459   2.536   2.290   0.546
 2520SOL    HW2 8460   2.596   2.420   0.467
 2521SOL     OW 8461   5.273   0.848   5.220
 2521SOL    HW1 8462   5.188   0.804   5.250
 2521SOL    HW2 8463   5.280   0.842   5.121
 2522SOL     OW 8464   1.225   2.015   6.836
 2522SOL    HW1 8465   1.310   2.058   6.866
 2522SOL    HW2 8466   1.167   2.082   6.791
 2523SOL     OW 8467   1.481   5.418   6.716
 2523SOL    HW1 8468   1.569   5.458   6.691
 2523SOL    HW2 8469   1.494   5.345   6.782
 2524SOL     OW 8470   1.627   0.386   4.433
 2524SOL    HW1 8471   1.707   0.444   4.451
 2524SOL    HW2 8472   1.644   0.294   4.469
 2525SOL     OW 8473   6.435   2.763   5.510
 2525SOL    HW1 8474   6.410   2.675   5.469
 2525SOL    HW2 8475   6.534   2.770   5.517
 2526SOL     OW 8476   1.689   6.841   1.452
 2526SOL    HW1 8477   1.785   6.813   1.441
 2526SOL    HW2 8478   1.635   6.802   1.377
 2527SOL     OW 8479   4.525   5.031   6.015
 2527SOL    HW1 8480   4.497   5.048   6.109
 2527SOL    HW2 8481   4.615   5.071   5.999
 2528SOL     OW 8482   4.966   5.796   6.509
 2528SOL    HW1 8483   4.904   5.814   6.434
 2528SOL    HW2 8484   4.935   5.844   6.591
 2529SOL     OW 8485   0.565   6.714   6.408
 2529SOL    HW1 8486   0.604   6.702   6.500
 2529SOL    HW2 8487   0.562   6.625   6.362
 2530SOL     OW 8488   2.437   5.630   6.481
 2530SOL    HW1 8489   2.513   5.695   6.487
 2530SOL    HW2 8490   2.451   5.556   6.546
 2531SOL     OW 8491   6.933   5.728   6.680
 2531SOL    HW1 8492   7.007   5.695   6.620
 2531SOL    HW2 8493   6.917   5.661   6.752
 2532SOL     OW 8494   5.334   6.380   1.275
 2532SOL    HW1 8495   5.284   6.466   1.288
 2532SOL    HW2 8496   5.275   6.314   1.228
 2533SOL     OW 8497   4.757   0.495   4.242
 2533SOL    HW1 8498   4.845   0.521   4.283
 2533SOL    HW2 8499   4.683   0.518   4.306
 2534SOL     OW 8500   3.892   1.261   2.694
 2534SOL    HW1 8501   3.948   1.315   2.757
 2534SOL    HW2 8502   3.911   1.288   2.600
 2535SOL     OW 8503   4.232   2.910   6.484
 2535SOL    HW1 8504   4.241   2.956   6.395
 2535SOL    HW2 8505   4.298   2.836   6.490
 2536SOL     OW 8506   1.377   1.098   0.683
 2536SOL    HW1 8507   1.329   1.122   0.767
 2536SOL    HW2 8508   1.475   1.114   0.694
 2537SOL     OW 8509   3.920   7.012   6.096
 2537SOL    HW1 8510   3.833   0.015   6.137
 2537SOL    HW2 8511   3.951   6.926   6.138
 2538SOL     OW 8512   6.444   2.988   3.430
 2538SOL    HW1 8513   6.454   3.069   3.488
 2538SOL    HW2 8514   6.488   3.005   3.342
 2539SOL     OW 8515   5.220   2.576   5.331
 2539SOL    HW1 8516   5.306   2.555   5.379
 2539SOL    HW2 8517   5.146   2.523   5.372
 2540SOL     OW 8518   2.594   1.605   1.701
 2540SOL    HW1 8519   2.550   1.541   1.764
 2540SOL    HW2 8520   2.673   1.647   1.746
 2541SOL     OW 8521   3.800   6.948   4.659
 2541SOL    HW1 8522   3.889   6.945   4.704
 2541SOL    HW2 8523   3.800   6.886   4.580
 2542SOL     OW 8524   1.869   5.386   6.494
 2542SOL    HW1 8525   1.961   5.390   6.532
 2542SOL    HW2 8526   1.808   5.445   6.546
 2543SOL     OW 8527   1.285   0.918   3.632
 2543SOL    HW1 8528   1.259   0.891   3.539
 2543SOL    HW2 8529   1.223   0.877   3.698
 2544SOL     OW 8530   1.088   5.521   7.005
 2544SOL    HW1 8531   1.060   5.600   0.036
 2544SOL    HW2 8532   1.103   5.442   0.039
 2545SOL     OW 8533   2.981   5.691   3.230
 2545SOL    HW1 8534   3.013   5.662   3.320
 2545SOL    HW2 8535   2.983   5.791   3.224
 2546SOL     OW 8536   6.655   1.464   1.072
 2546SOL    HW1 8537   6.567   1.509   1.084
 2546SOL    HW2 8538   6.672   1.401   1.148
 2547SOL     OW 8539   0.781   3.691   4.997
 2547SOL    HW1 8540   0.693   3.652   4.969
 2547SOL    HW2 8541   0.822   3.739   4.920
 2548SOL     OW 8542   0.880   0.197   4.555
 2548SOL    HW1 8543   0.797   0.169   4.507
 2548SOL    HW2 8544   0.861   0.204   4.653
 2549SOL     OW 8545   6.678   2.629   1.558
 2549SOL    HW1 8546   6.701   2.689   1.481
 2549SOL    HW2 8547   6.613   2.560   1.529
 2550SOL     OW 8548   6.048   5.780   0.466
 2550SOL    HW1 8549   5.965   5.731   0.437
 2550SOL    HW2 8550   6.057   5.864   0.412
 2551SOL     OW 8551   1.279   4.226   6.703
 2551SOL    HW1 8552   1.224   4.288   6.646
 2551SOL    HW2 8553   1.266   4.249   6.799
 2552SOL     OW 8554   1.932   5.322   3.225
 2552SOL    HW1 8555   1.966   5.383   3.154
 2552SOL    HW2 8556   1.909   5.374   3.307
 2553SOL     OW 8557   4.229   3.795   6.893
 2553SOL    HW1 8558   4.166   3.852   6.839
 2553SOL    HW2 8559   4.316   3.786   6.845
 2554SOL     OW 8560   2.206   1.475   0.270
 2554SOL    HW1 8561   2.285   1.515   0.317
 2554SOL    HW2 8562   2.178   1.392   0.317
 2555SOL     OW 8563   6.237   1.016   6.754
 2555SOL    HW1 8564   6.196   1.108   6.752
 2555SOL    HW2 8565   6.269   0.996   6.847
 2556SOL     OW 8566   3.137   5.523   0.943
 2556SOL    HW1 8567   3.060   5.530   0.880
 2556SOL    HW2 8568   3.134   5.598   1.008
 2557SOL     OW 8569   1.720   4.182   6.762
 2557SOL    HW1 8570   1.793   4.143   6.706
 2557SOL    HW2 8571   1.642   4.205   6.703
 2558SOL     OW 8572   3.809   0.291   5.717
 2558SOL    HW1 8573   3.904   0.282   5.687
 2558SOL    HW2 8574   3.783   0.387   5.718
 2559SOL     OW 8575   0.144   5.483   4.974
 2559SOL    HW1 8576   0.080   5.475   4.897
 2559SOL    HW2 8577   0.234   5.449   4.947
 2560SOL     OW 8578   6.346   1.343   6.793
 2560SOL    HW1 8579   6.410   1.266   6.792
 2560SOL    HW2 8580   6.272   1.326   6.728
 2561SOL     OW 8581   3.272   5.353   4.803
 2561SOL    HW1 8582   3.351   5.313   4.758
 2561SOL    HW2 8583   3.302   5.423   4.868
 2562SOL     OW 8584   2.508   3.931   6.712
 2562SOL    HW1 8585   2.565   3.896   6.786
 2562SOL    HW2 8586   2.564   3.983   6.648
 2563SOL     OW 8587   1.794   1.306   0.410
 2563SOL    HW1 8588   1.894   1.306   0.410
 2563SOL    HW2 8589   1.761   1.212   0.421
 2564SOL     OW 8590   1.455   6.405   1.677
 2564SOL    HW1 8591   1.455   6.456   1.763
 2564SOL    HW2 8592   1.410   6.317   1.690
 2565SOL     OW 8593   1.333   0.896   1.627
 2565SOL    HW1 8594   1.247   0.938   1.656
 2565SOL    HW2 8595   1.387   0.963   1.576
 2566SOL     OW 8596   1.839   6.664   6.187
 2566SOL    HW1 8597   1.916   6.679   6.125
 2566SOL    HW2 8598   1.862   6.593   6.253
 2567SOL     OW 8599   0.701   0.197   0.531
 2567SOL    HW1 8600   0.603   0.184   0.544
 2567SOL    HW2 8601   0.731   0.145   0.451
 2568SOL     OW 8602   5.243   3.824   0.061
 2568SOL    HW1 8603   5.341   3.840   0.065
 2568SOL    HW2 8604   5.210   3.793   0.151
 2569SOL     OW 8605   2.785   0.896   2.855
 2569SOL    HW1 8606   2.805   0.875   2.951
 2569SOL    HW2 8607   2.729   0.979   2.850
 2570SOL     OW 8608   5.308   2.473   6.247
 2570SOL    HW1 8609   5.241   2.516   6.187
 2570SOL    HW2 8610   5.263   2.403   6.303
 2571SOL     OW 8611   1.117   3.686   4.813
 2571SOL    HW1 8612   1.107   3.603   4.758
 2571SOL    HW2 8613   1.030   3.735   4.815
 2572SOL     OW 8614   1.246   4.906   3.807
 2572SOL    HW1 8615   1.241   4.881   3.710
 2572SOL    HW2 8616   1.282   4.829   3.860
 2573SOL     OW 8617   1.160   0.200   0.777
 2573SOL    HW1 8618   1.062   0.212   0.760
 2573SOL    HW2 8619   1.175   0.112   0.822
 2574SOL     OW 8620   5.842   3.485   0.613
 2574SOL    HW1 8621   5.852   3.393   0.576
 2574SOL    HW2 8622   5.809   3.546   0.542
 2575SOL     OW 8623   0.804   5.877   5.990
 2575SOL    HW1 8624   0.858   5.810   6.042
 2575SOL    HW2 8625   0.709   5.874   6.020
 2576SOL     OW 8626   4.241   5.552   4.131
 2576SOL    HW1 8627   4.207   5.478   4.189
 2576SOL    HW2 8628   4.164   5.597   4.086
 2577SOL     OW 8629   2.365   4.485   2.111
 2577SOL    HW1 8630   2.416   4.551   2.056
 2577SOL    HW2 8631   2.416   4.466   2.195
 2578SOL     OW 8632   4.123   2.060   2.745
 2578SOL    HW1 8633   4.179   2.142   2.754
 2578SOL    HW2 8634   4.027   2.086   2.735
 2579SOL     OW 8635   1.280   6.304   3.285
 2579SOL    HW1 8636   1.211   6.358   3.334
 2579SOL    HW2 8637   1.371   6.341   3.305
 2580SOL     OW 8638   2.248   1.907   5.829
 2580SOL    HW1 8639   2.160   1.870   5.858
 2580SOL    HW2 8640   2.245   1.932   5.733
 2581SOL     OW 8641   3.363   0.586   5.491
 2581SOL    HW1 8642   3.271   0.618   5.510
 2581SOL    HW2 8643   3.429   0.658   5.511
 2582SOL     OW 8644   6.781   3.288   1.959
 2582SOL    HW1 8645   6.709   3.350   1.928
 2582SOL    HW2 8646   6.741   3.202   1.989
 2583SOL     OW 8647   6.160   0.356   0.800
 2583SOL    HW1 8648   6.181   0.285   0.867
 2583SOL    HW2 8649   6.070   0.395   0.820
 2584SOL     OW 8650   3.873   4.497   6.180
 2584SOL    HW1 8651   3.954   4.471   6.127
 2584SOL    HW2 8652   3.867   4.440   6.262
 2585SOL     OW 8653   2.955   4.668   6.334
 2585SOL    HW1 8654   2.968   4.746   6.395
 2585SOL    HW2 8655   3.038   4.653   6.280
 2586SOL     OW 8656   2.812   0.838   3.676
 2586SOL    HW1 8657   2.828   0.769   3.747
 2586SOL    HW2 8658   2.717   0.867   3.679
 2587SOL     OW 8659   6.823   0.921   4.009
 2587SOL    HW1 8660   6.853   0.862   4.084
 2587SOL    HW2 8661   6.854   0.881   3.922
 2588SOL     OW 8662   4.641   0.759   6.494
 2588SOL    HW1 8663   4.655   0.786   6.398
 2588SOL    HW2 8664   4.609   0.838   6.546
 2589SOL     OW 8665   2.151   6.574   0.515
 2589SOL    HW1 8666   2.214   6.534   0.450
 2589SOL    HW2 8667   2.198   6.590   0.602
 2590SOL     OW 8668   2.557   5.368   0.159
 2590SOL    HW1 8669   2.478   5.428   0.163
 2590SOL    HW2 8670   2.609   5.374   0.244
 2591SOL     OW 8671   6.015   5.478   3.496
 2591SOL    HW1 8672   5.922   5.452   3.524
 2591SOL    HW2 8673   6.054   5.538   3.566
 2592SOL     OW 8674   2.757   3.902   0.906
 2592SOL    HW1 8675   2.790   3.822   0.856
 2592SOL    HW2 8676   2.763   3.885   1.004
 2593SOL     OW 8677   3.540   4.257   0.879
 2593SOL    HW1 8678   3.525   4.225   0.973
 2593SOL    HW2 8679   3.550   4.178   0.818
 2594SOL     OW 8680   1.920   3.130   4.695
 2594SOL    HW1 8681   1.909   3.092   4.787
 2594SOL    HW2 8682   1.890   3.063   4.627
 2595SOL     OW 8683   2.086   1.381   2.825
 2595SOL    HW1 8684   2.007   1.384   2.887
 2595SOL    HW2 8685   2.125   1.473   2.818
 2596SOL     OW 8686   1.381   1.691   0.009
 2596SOL    HW1 8687   1.401   1.618   6.968
 2596SOL    HW2 8688   1.464   1.713   0.061
 2597SOL     OW 8689   6.860   6.376   0.281
 2597SOL    HW1 8690   6.765   6.394   0.252
 2597SOL    HW2 8691   6.908   6.462   0.294
 2598SOL     OW 8692   5.919   2.402   2.589
 2598SOL    HW1 8693   5.837   2.390   2.646
 2598SOL    HW2 8694   5.893   2.443   2.502
 2599SOL     OW 8695   3.194   5.899   2.260
 2599SOL    HW1 8696   3.129   5.823   2.266
 2599SOL    HW2 8697   3.210   5.922   2.164
 2600SOL     OW 8698   5.770   3.552   4.350
 2600SOL    HW1 8699   5.803   3.572   4.257
 2600SOL    HW2 8700   5.794   3.458   4.374
 2601SOL     OW 8701   6.521   1.382   3.701
 2601SOL    HW1 8702   6.508   1.291   3.661
 2601SOL    HW2 8703   6.591   1.431   3.650
 2602SOL     OW 8704   0.964   4.356   2.743
 2602SOL    HW1 8705   1.046   4.301   2.731
 2602SOL    HW2 8706   0.949   4.413   2.662
 2603SOL     OW 8707   2.432   6.288   2.668
 2603SOL    HW1 8708   2.364   6.346   2.712
 2603SOL    HW2 8709   2.403   6.192   2.674
 2604SOL     OW 8710   4.488   2.513   3.245
 2604SOL    HW1 8711   4.502   2.490   3.342
 2604SOL    HW2 8712   4.411   2.459   3.210
 2605SOL     OW 8713   2.011   3.620   2.011
 2605SOL    HW1 8714   2.082   3.550   2.005
 2605SOL    HW2 8715   2.025   3.688   1.938
 2606SOL     OW 8716   4.873   3.845   1.322
 2606SOL    HW1 8717   4.808   3.902   1.272
 2606SOL    HW2 8718   4.966   3.880   1.308
 2607SOL     OW 8719   2.594   2.228   1.221
 2607SOL    HW1 8720   2.667   2.188   1.278
 2607SOL    HW2 8721   2.614   2.325   1.206
 2608SOL     OW 8722   2.548   4.849   5.687
 2608SOL    HW1 8723   2.504   4.939   5.692
 2608SOL    HW2 8724   2.495   4.790   5.625
 2609SOL     OW 8725   0.514   2.340   0.636
 2609SOL    HW1 8726   0.500   2.268   0.704
 2609SOL    HW2 8727   0.425   2.377   0.609
 2610SOL     OW 8728   1.658   3.957   4.837
 2610SOL    HW1 8729   1.593   3.892   4.800
 2610SOL    HW2 8730   1.722   3.910   4.899
 2611SOL     OW 8731   5.080   0.218   6.434
 2611SOL    HW1 8732   5.099   0.249   6.340
 2611SOL    HW2 8733   5.128   0.133   6.451
 2612SOL     OW 8734   6.655   0.093   6.447
 2612SOL    HW1 8735   6.611   0.026   6.388
 2612SOL    HW2 8736   6.592   0.119   6.520
 2613SOL     OW 8737   0.979   6.562   6.854
 2613SOL    HW1 8738   1.027   6.629   6.797
 2613SOL    HW2 8739   0.955   6.603   6.942
 2614SOL     OW 8740   6.048   1.912   6.980
 2614SOL    HW1 8741   6.039   1.995   0.010
 2614SOL    HW2 8742   6.056   1.937   6.883
 2615SOL     OW 8743   0.496   3.235   6.870
 2615SOL    HW1 8744   0.510   3.196   6.779
 2615SOL    HW2 8745   0.412   3.198   6.910
 2616SOL     OW 8746   1.183   1.227   4.977
 2616SOL    HW1 8747   1.259   1.164   4.961
 2616SOL    HW2 8748   1.154   1.267   4.890
 2617SOL     OW 8749   4.722   0.494   1.578
 2617SOL    HW1 8750   4.654   0.462   1.513
 2617SOL    HW2 8751   4.812   0.456   1.554
 2618SOL     OW 8752   1.421   6.660   6.327
 2618SOL    HW1 8753   1.330   6.636   6.294
 2618SOL    HW2 8754   1.419   6.754   6.363
 2619SOL     OW 8755   4.807   1.115   2.838
 2619SOL    HW1 8756   4.752   1.145   2.760
 2619SOL    HW2 8757   4.903   1.114   2.813
 2620SOL     OW 8758   6.104   1.813   1.622
 2620SOL    HW1 8759   6.082   1.891   1.681
 2620SOL    HW2 8760   6.094   1.728   1.674
 2621SOL     OW 8761   1.719   6.228   1.568
 2621SOL    HW1 8762   1.705   6.223   1.469
 2621SOL    HW2 8763   1.747   6.138   1.602
 2622SOL     OW 8764   2.752   3.886   6.840
 2622SOL    HW1 8765   2.763   3.869   6.742
 2622SOL    HW2 8766   2.840   3.914   6.880
 2623SOL     OW 8767   0.020   6.212   3.779
 2623SOL    HW1 8768   6.997   6.184   3.696
 2623SOL    HW2 8769   0.085   6.285   3.758
 2624SOL     OW 8770   0.870   1.465   5.176
 2624SOL    HW1 8771   0.969   1.462   5.169
 2624SOL    HW2 8772   0.844   1.524   5.253
 2625SOL     OW 8773   2.671   5.004   6.475
 2625SOL    HW1 8774   2.600   4.945   6.513
 2625SOL    HW2 8775   2.639   5.099   6.476
 2626SOL     OW 8776   6.941   6.544   6.885
 2626SOL    HW1 8777   6.938   6.447   6.864
 2626SOL    HW2 8778   6.848   6.578   6.903
 2627SOL     OW 8779   2.210   0.210   5.824
 2627SOL    HW1 8780   2.241   0.117   5.840
 2627SOL    HW2 8781   2.275   0.275   5.864
 2628SOL     OW 8782   0.278   4.286   1.540
 2628SOL    HW1 8783   0.299   4.189   1.531
 2628SOL    HW2 8784   0.359   4.335   1.572
 2629SOL     OW 8785   3.247   4.117   2.577
 2629SOL    HW1 8786   3.238   4.212   2.548
 2629SOL    HW2 8787   3.220   4.056   2.502
 2630SOL     OW 8788   4.146   0.732   4.454
 2630SOL    HW1 8789   4.115   0.754   4.361
 2630SOL    HW2 8790   4.080   0.670   4.497
 2631SOL     OW 8791   5.526   7.015   0.336
 2631SOL    HW1 8792   5.548   7.006   0.433
 2631SOL    HW2 8793   5.428   7.007   0.323
 2632SOL     OW 8794   6.113   5.348   2.150
 2632SOL    HW1 8795   6.099   5.349   2.051
 2632SOL    HW2 8796   6.081   5.434   2.189
 2633SOL     OW 8797   0.386   3.465   5.882
 2633SOL    HW1 8798   0.299   3.437   5.841
 2633SOL    HW2 8799   0.370   3.540   5.946
 2634SOL     OW 8800   0.742   1.485   5.466
 2634SOL    HW1 8801   0.715   1.469   5.561
 2634SOL    HW2 8802   0.826   1.540   5.464
 2635SOL     OW 8803   4.419   5.112   3.624
 2635SOL    HW1 8804   4.501   5.078   3.670
 2635SOL    HW2 8805   4.431   5.210   3.605
 2636SOL     OW 8806   3.422   6.798   6.192
 2636SOL    HW1 8807   3.455   6.812   6.286
 2636SOL    HW2 8808   3.341   6.740   6.194
 2637SOL     OW 8809   0.617   0.726   3.017
 2637SOL    HW1 8810   0.641   0.814   3.059
 2637SOL    HW2 8811   0.588   0.740   2.923
 2638SOL     OW 8812   0.826   6.664   4.273
 2638SOL    HW1 8813   0.925   6.649   4.275
 2638SOL    HW2 8814   0.804   6.739   4.210
 2639SOL     OW 8815   4.357   4.664   4.658
 2639SOL    HW1 8816   4.334   4.757   4.627
 2639SOL    HW2 8817   4.299   4.640   4.735
 2640SOL     OW 8818   2.560   0.951   3.709
 2640SOL    HW1 8819   2.577   1.017   3.783
 2640SOL    HW2 8820   2.469   0.912   3.720
 2641SOL     OW 8821   5.506   1.937   0.042
 2641SOL    HW1 8822   5.453   1.854   0.060
 2641SOL    HW2 8823   5.604   1.917   0.048
 2642SOL     OW 8824   6.791   0.216   2.604
 2642SOL    HW1 8825   6.857   0.288   2.623
 2642SOL    HW2 8826   6.699   0.248   2.626
 2643SOL     OW 8827   1.679   4.794   4.200
 2643SOL    HW1 8828   1.752   4.730   4.222
 2643SOL    HW2 8829   1.712   4.888   4.210
 2644SOL     OW 8830   5.452   5.546   4.913
 2644SOL    HW1 8831   5.513   5.619   4.883
 2644SOL    HW2 8832   5.459   5.469   4.850
 2645SOL     OW 8833   4.664   5.948   3.429
 2645SOL    HW1 8834   4.668   5.856   3.389
 2645SOL    HW2 8835   4.737   6.004   3.390
 2646SOL     OW 8836   0.850   2.567   6.338
 2646SOL    HW1 8837   0.874   2.627   6.261
 2646SOL    HW2 8838   0.868   2.616   6.424
 2647SOL     OW 8839   4.670   6.969   2.413
 2647SOL    HW1 8840   4.581   6.991   2.373
 2647SOL    HW2 8841   4.743   7.004   2.354
 2648SOL     OW 8842   0.819   6.886   6.337
 2648SOL    HW1 8843   0.726   6.879   6.372
 2648SOL    HW2 8844   0.820   6.944   6.256
 2649SOL     OW 8845   5.153   1.676   3.402
 2649SOL    HW1 8846   5.086   1.603   3.414
 2649SOL    HW2 8847   5.149   1.738   3.480
 2650SOL     OW 8848   2.735   6.908   3.711
 2650SOL    HW1 8849   2.701   6.822   3.749
 2650SOL    HW2 8850   2.657   6.966   3.687
 2651SOL     OW 8851   3.960   2.161   4.114
 2651SOL    HW1 8852   3.994   2.240   4.165
 2651SOL    HW2 8853   3.866   2.143   4.141
 2652SOL     OW 8854   5.343   3.983   5.616
 2652SOL    HW1 8855   5.430   4.013   5.653
 2652SOL    HW2 8856   5.347   3.980   5.516
 2653SOL     OW 8857   2.240   6.179   6.981
 2653SOL    HW1 8858   2.214   6.227   0.040
 2653SOL    HW2 8859   2.267   6.245   6.911
 2654SOL     OW 8860   0.188   1.013   0.876
 2654SOL    HW1 8861   0.284   1.004   0.903
 2654SOL    HW2 8862   0.154   1.102   0.906
 2655SOL     OW 8863   5.215   6.221   3.105
 2655SOL    HW1 8864   5.131   6.232   3.159
 2655SOL    HW2 8865   5.221   6.127   3.072
 2656SOL     OW 8866   4.555   5.836   4.101
 2656SOL    HW1 8867   4.585   5.881   4.017
 2656SOL    HW2 8868   4.550   5.903   4.175
 2657SOL     OW 8869   1.439   3.625   6.354
 2657SOL    HW1 8870   1.430   3.719   6.387
 2657SOL    HW2 8871   1.533   3.594   6.367
 2658SOL     OW 8872   3.965   5.382   0.272
 2658SOL    HW1 8873   3.990   5.286   0.288
 2658SOL    HW2 8874   4.046   5.439   0.275
 2659SOL     OW 8875   0.090   1.981   5.150
 2659SOL    HW1 8876   0.138   2.062   5.116
 2659SOL    HW2 8877   0.157   1.916   5.186
 2660SOL     OW 8878   0.470   1.327   1.011
 2660SOL    HW1 8879   0.450   1.332   1.109
 2660SOL    HW2 8880   0.563   1.358   0.994
 2661SOL     OW 8881   1.618   1.349   1.127
 2661SOL    HW1 8882   1.616   1.252   1.103
 2661SOL    HW2 8883   1.549   1.398   1.074
 2662SOL     OW 8884   2.702   1.904   2.050
 2662SOL    HW1 8885   2.744   1.814   2.058
 2662SOL    HW2 8886   2.605   1.894   2.026
 2663SOL     OW 8887   3.727   0.018   0.819
 2663SOL    HW1 8888   3.741   6.946   0.798
 2663SOL    HW2 8889   3.651   0.028   0.883
 2664SOL     OW 8890   4.917   3.664   5.450
 2664SOL    HW1 8891   5.012   3.643   5.427
 2664SOL    HW2 8892   4.890   3.611   5.531
 2665SOL     OW 8893   1.806   3.246   3.677
 2665SOL    HW1 8894   1.777   3.340   3.660
 2665SOL    HW2 8895   1.740   3.183   3.638
 2666SOL     OW 8896   2.131   4.162   1.530
 2666SOL    HW1 8897   2.143   4.064   1.547
 2666SOL    HW2 8898   2.209   4.196   1.478
 2667SOL     OW 8899   6.489   3.052   5.791
 2667SOL    HW1 8900   6.514   3.146   5.814
 2667SOL    HW2 8901   6.559   3.012   5.733
 2668SOL     OW 8902   6.459   0.599   3.172
 2668SOL    HW1 8903   6.494   0.517   3.126
 2668SOL    HW2 8904   6.407   0.571   3.253
 2669SOL     OW 8905   2.302   1.173   0.804
 2669SOL    HW1 8906   2.358   1.091   0.814
 2669SOL    HW2 8907   2.260   1.195   0.892
 2670SOL     OW 8908   0.160   0.138   6.617
 2670SOL    HW1 8909   0.207   0.059   6.657
 2670SOL    HW2 8910   0.077   0.107   6.571
 2671SOL     OW 8911   5.283   4.786   6.009
 2671SOL    HW1 8912   5.207   4.752   5.953
 2671SOL    HW2 8913   5.277   4.745   6.100
 2672SOL     OW 8914   2.907   1.206   1.786
 2672SOL    HW1 8915   3.005   1.187   1.776
 2672SOL    HW2 8916   2.859   1.178   1.703
 2673SOL     OW 8917   3.736   0.216   2.591
 2673SOL    HW1 8918   3.808   0.265   2.641
 2673SOL    HW2 8919   3.702   0.140   2.646
 2674SOL     OW 8920   6.932   5.850   3.075
 2674SOL    HW1 8921   6.913   5.754   3.098
 2674SOL    HW2 8922   6.988   5.853   2.993
 2675SOL     OW 8923   4.924   1.047   5.157
 2675SOL    HW1 8924   4.878   1.107   5.093
 2675SOL    HW2 8925   5.007   1.091   5.191
 2676SOL     OW 8926   3.651   4.078   3.910
 2676SOL    HW1 8927   3.668   3.998   3.968
 2676SOL    HW2 8928   3.619   4.154   3.967
 2677SOL     OW 8929   1.609   5.760   1.162
 2677SOL    HW1 8930   1.580   5.796   1.251
 2677SOL    HW2 8931   1.535   5.772   1.096
 2678SOL     OW 8932   3.602   1.792   2.571
 2678SOL    HW1 8933   3.633   1.767   2.662
 2678SOL    HW2 8934   3.591   1.709   2.515
 2679SOL     OW 8935   1.974   3.607   2.358
 2679SOL    HW1 8936   2.051   3.657   2.396
 2679SOL    HW2 8937   2.005   3.549   2.283
 2680SOL     OW 8938   5.629   2.657   0.278
 2680SOL    HW1 8939   5.588   2.570   0.253
 2680SOL    HW2 8940   5.623   2.721   0.202
 2681SOL     OW 8941   2.039   2.375   3.298
 2681SOL    HW1 8942   2.104   2.317   3.347
 2681SOL    HW2 8943   1.954   2.324   3.283
 2682SOL     OW 8944   3.544   3.708   1.766
 2682SOL    HW1 8945   3.553   3.623   1.714
 2682SOL    HW2 8946   3.624   3.720   1.825
 2683SOL     OW 8947   2.440   4.052   1.303
 2683SOL    HW1 8948   2.410   3.959   1.326
 2683SOL    HW2 8949   2.499   4.048   1.222
 2684SOL     OW 8950   6.472   0.314   3.581
 2684SOL    HW1 8951   6.493   0.236   3.521
 2684SOL    HW2 8952   6.399   0.289   3.644
 2685SOL     OW 8953   0.707   6.348   5.835
 2685SOL    HW1 8954   0.644   6.377   5.764
 2685SOL    HW2 8955   0.741   6.428   5.885
 2686SOL     OW 8956   1.543   0.691   5.732
 2686SOL    HW1 8957   1.554   0.592   5.727
 2686SOL    HW2 8958   1.630   0.735   5.710
 2687SOL     OW 8959   4.192   1.679   1.429
 2687SOL    HW1 8960   4.228   1.762   1.471
 2687SOL    HW2 8961   4.263   1.636   1.373
 2688SOL     OW 8962   4.207   2.807   0.247
 2688SOL    HW1 8963   4.196   2.795   0.148
 2688SOL    HW2 8964   4.119   2.796   0.292
 2689SOL     OW 8965   0.887   3.605   3.060
 2689SOL    HW1 8966   0.912   3.700   3.078
 2689SOL    HW2 8967   0.839   3.599   2.972
 2690SOL     OW 8968   5.257   1.351   5.517
 2690SOL    HW1 8969   5.175   1.398   5.550
 2690SOL    HW2 8970   5.239   1.253   5.512
 2691SOL     OW 8971   0.228   3.897   5.066
 2691SOL    HW1 8972   0.316   3.943   5.076
 2691SOL    HW2 8973   0.242   3.798   5.060
 2692SOL     OW 8974   2.485   5.647   1.911
 2692SOL    HW1 8975   2.548   5.570   1.893
 2692SOL    HW2 8976   2.534   5.719   1.959
 2693SOL     OW 8977   1.017   5.655   3.163
 2693SOL    HW1 8978   1.003   5.583   3.230
 2693SOL    HW2 8979   0.929   5.683   3.125
 2694SOL     OW 8980   2.492   0.504   2.276
 2694SOL    HW1 8981   2.550   0.535   2.351
 2694SOL    HW2 8982   2.437   0.580   2.242
 2695SOL     OW 8983   6.948   4.865   3.789
 2695SOL    HW1 8984   7.023   4.816   3.833
 2695SOL    HW2 8985   6.887   4.800   3.745
 2696SOL     OW 8986   4.135   4.937   6.342
 2696SOL    HW1 8987   4.156   4.999   6.417
 2696SOL    HW2 8988   4.118   4.845   6.378
 2697SOL     OW 8989   4.139   1.823   0.337
 2697SOL    HW1 8990   4.089   1.908   0.354
 2697SOL    HW2 8991   4.086   1.745   0.372
 2698SOL     OW 8992   1.419   5.625   5.883
 2698SOL    HW1 8993   1.518   5.638   5.879
 2698SOL    HW2 8994   1.398   5.530   5.905
 2699SOL     OW 8995   2.709   6.694   2.155
 2699SOL    HW1 8996   2.623   6.713   2.107
 2699SOL    HW2 8997   2.742   6.778   2.198
 2700SOL     OW 8998   4.194   1.997   1.495
 2700SOL    HW1 8999   4.161   1.948   1.575
 2700SOL    HW2 9000   4.142   2.082   1.485
 2701SOL     OW 9001   4.930   3.936   5.009
 2701SOL    HW1 9002   4.893   4.019   5.051
 2701SOL    HW2 9003   4.856   3.873   4.987
 2702SOL     OW 9004   2.485   1.237   4.779
 2702SOL    HW1 9005   2.485   1.307   4.850
 2702SOL    HW2 9006   2.577   1.229   4.740
 2703SOL     OW 9007   2.490   6.703   2.823
 2703SOL    HW1 9008   2.542   6.686   2.908
 2703SOL    HW2 9009   2.552   6.696   2.745
 2704SOL     OW 9010   4.727   0.422   3.774
 2704SOL    HW1 9011   4.814   0.453   3.736
 2704SOL    HW2 9012   4.742   0.388   3.867
 2705SOL     OW 9013   1.037   0.614   5.004
 2705SOL    HW1 9014   0.984   0.650   5.081
 2705SOL    HW2 9015   1.112   0.677   4.983
 2706SOL     OW 9016   6.973   4.407   4.048
 2706SOL    HW1 9017   7.000   4.344   4.121
 2706SOL    HW2 9018   6.889   4.455   4.075
 2707SOL     OW 9019   4.209   1.344   3.618
 2707SOL    HW1 9020   4.220   1.442   3.606
 2707SOL    HW2 9021   4.270   1.312   3.690
 2708SOL     OW 9022   5.280   3.485   5.924
 2708SOL    HW1 9023   5.218   3.414   5.958
 2708SOL    HW2 9024   5.249   3.517   5.834
 2709SOL     OW 9025   4.584   1.759   5.651
 2709SOL    HW1 9026   4.668   1.805   5.624
 2709SOL    HW2 9027   4.505   1.811   5.619
 2710SOL     OW 9028   1.264   2.800   4.200
 2710SOL    HW1 9029   1.164   2.808   4.194
 2710SOL    HW2 9030   1.289   2.704   4.204
 2711SOL     OW 9031   3.430   1.218   2.152
 2711SOL    HW1 9032   3.504   1.155   2.128
 2711SOL    HW2 9033   3.342   1.175   2.133
 2712SOL     OW 9034   5.275   6.011   2.300
 2712SOL    HW1 9035   5.222   5.936   2.260
 2712SOL    HW2 9036   5.340   6.046   2.232
 2713SOL     OW 9037   3.733   4.979   5.561
 2713SOL    HW1 9038   3.795   5.047   5.522
 2713SOL    HW2 9039   3.639   4.999   5.532
 2714SOL     OW 9040   3.031   4.233   6.085
 2714SOL    HW1 9041   2.990   4.176   6.156
 2714SOL    HW2 9042   2.980   4.222   6.000
 2715SOL     OW 9043   4.255   6.634   6.493
 2715SOL    HW1 9044   4.341   6.666   6.532
 2715SOL    HW2 9045   4.218   6.561   6.551
 2716SOL     OW 9046   4.203   0.368   2.738
 2716SOL    HW1 9047   4.278   0.434   2.742
 2716SOL    HW2 9048   4.230   0.284   2.784
 2717SOL     OW 9049   0.907   2.167   1.894
 2717SOL    HW1 9050   0.927   2.240   1.829
 2717SOL    HW2 9051   0.909   2.079   1.847
 2718SOL     OW 9052   6.457   1.570   5.554
 2718SOL    HW1 9053   6.519   1.548   5.628
 2718SOL    HW2 9054   6.438   1.487   5.501
 2719SOL     OW 9055   1.677   4.857   3.709
 2719SOL    HW1 9056   1.638   4.900   3.790
 2719SOL    HW2 9057   1.764   4.902   3.687
 2720SOL     OW 9058   1.744   5.767   6.295
 2720SOL    HW1 9059   1.835   5.727   6.289
 2720SOL    HW2 9060   1.746   5.861   6.264
 2721SOL     OW 9061   2.352   6.787   1.593
 2721SOL    HW1 9062   2.265   6.834   1.601
 2721SOL    HW2 9063   2.395   6.812   1.506
 2722SOL     OW 9064   3.828   4.785   6.559
 2722SOL    HW1 9065   3.820   4.827   6.469
 2722SOL    HW2 9066   3.740   4.747   6.587
 2723SOL     OW 9067   3.906   6.192   6.613
 2723SOL    HW1 9068   4.004   6.177   6.614
 2723SOL    HW2 9069   3.859   6.104   6.626
 2724SOL     OW 9070   6.681   5.361   1.154
 2724SOL    HW1 9071   6.658   5.388   1.060
 2724SOL    HW2 9072   6.660   5.437   1.216
 2725SOL     OW 9073   5.636   4.469   3.569
 2725SOL    HW1 9074   5.715   4.463   3.630
 2725SOL    HW2 9075   5.569   4.531   3.608
 2726SOL     OW 9076   5.959   1.357   2.607
 2726SOL    HW1 9077   5.876   1.302   2.615
 2726SOL    HW2 9078   5.962   1.425   2.680
 2727SOL     OW 9079   1.716   5.743   3.451
 2727SOL    HW1 9080   1.691   5.790   3.535
 2727SOL    HW2 9081   1.681   5.793   3.372
 2728SOL     OW 9082   4.288   5.823   6.201
 2728SOL    HW1 9083   4.368   5.879   6.222
 2728SOL    HW2 9084   4.275   5.819   6.102
 2729SOL     OW 9085   6.265   0.296   6.943
 2729SOL    HW1 9086   6.186   0.298   7.004
 2729SOL    HW2 9087   6.277   0.386   6.902
 2730SOL     OW 9088   1.637   5.706   2.718
 2730SOL    HW1 9089   1.573   5.633   2.695
 2730SOL    HW2 9090   1.729   5.680   2.689
 2731SOL     OW 9091   3.134   3.985   4.681
 2731SOL    HW1 9092   3.208   3.975   4.614
 2731SOL    HW2 9093   3.070   3.908   4.672
 2732SOL     OW 9094   5.343   0.691   1.586
 2732SOL    HW1 9095   5.357   0.669   1.489
 2732SOL    HW2 9096   5.405   0.637   1.642
 2733SOL     OW 9097   0.963   6.283   0.175
 2733SOL    HW1 9098   0.990   6.297   0.270
 2733SOL    HW2 9099   0.863   6.277   0.170
 2734SOL     OW 9100   3.806   6.074   2.456
 2734SOL    HW1 9101   3.815   5.975   2.472
 2734SOL    HW2 9102   3.850   6.124   2.530
 2735SOL     OW 9103   0.802   1.631   1.922
 2735SOL    HW1 9104   0.815   1.541   1.963
 2735SOL    HW2 9105   0.745   1.623   1.840
 2736SOL     OW 9106   5.915   3.996   2.922
 2736SOL    HW1 9107   5.918   4.066   2.993
 2736SOL    HW2 9108   5.822   3.960   2.914
 2737SOL     OW 9109   2.898   0.424   5.440
 2737SOL    HW1 9110   2.829   0.495   5.426
 2737SOL    HW2 9111   2.858   0.334   5.422
 2738SOL     OW 9112   5.153   5.685   1.355
 2738SOL    HW1 9113   5.227   5.694   1.423
 2738SOL    HW2 9114   5.072   5.646   1.399
 2739SOL     OW 9115   6.624   5.691   1.527
 2739SOL    HW1 9116   6.635   5.774   1.473
 2739SOL    HW2 9117   6.547   5.703   1.590
 2740SOL     OW 9118   0.546   5.249   3.061
 2740SOL    HW1 9119   0.578   5.223   2.970
 2740SOL    HW2 9120   0.477   5.321   3.052
 2741SOL     OW 9121   0.611   6.764   5.584
 2741SOL    HW1 9122   0.692   6.791   5.636
 2741SOL    HW2 9123   0.633   6.683   5.529
 2742SOL     OW 9124   3.277   5.665   2.552
 2742SOL    HW1 9125   3.188   5.665   2.599
 2742SOL    HW2 9126   3.262   5.673   2.454
 2743SOL     OW 9127   4.586   1.604   2.520
 2743SOL    HW1 9128   4.630   1.684   2.559
 2743SOL    HW2 9129   4.595   1.606   2.420
 2744SOL     OW 9130   3.499   4.081   2.690
 2744SOL    HW1 9131   3.408   4.090   2.649
 2744SOL    HW2 9132   3.498   4.124   2.781
 2745SOL     OW 9133   0.697   5.780   0.487
 2745SOL    HW1 9134   0.648   5.825   0.412
 2745SOL    HW2 9135   0.632   5.750   0.557
 2746SOL     OW 9136   1.913   0.965   3.540
 2746SOL    HW1 9137   1.941   1.048   3.589
 2746SOL    HW2 9138   1.892   0.987   3.445
 2747SOL     OW 9139   4.264   4.463   0.962
 2747SOL    HW1 9140   4.202   4.535   0.994
 2747SOL    HW2 9141   4.216   4.406   0.895
 2748SOL     OW 9142   3.773   0.456   0.559
 2748SOL    HW1 9143   3.783   0.385   0.629
 2748SOL    HW2 9144   3.676   0.472   0.541
 2749SOL     OW 9145   3.235   1.613   0.962
 2749SOL    HW1 9146   3.244   1.694   1.020
 2749SOL    HW2 9147   3.200   1.537   1.017
 2750SOL     OW 9148   3.009   5.827   2.930
 2750SOL    HW1 9149   2.937   5.881   2.886
 2750SOL    HW2 9150   3.042   5.875   3.011
 2751SOL     OW 9151   6.230   4.808   0.982
 2751SOL    HW1 9152   6.225   4.899   0.940
 2751SOL    HW2 9153   6.196   4.813   1.076
 2752SOL     OW 9154   4.162   5.754   6.798
 2752SOL    HW1 9155   4.120   5.663   6.800
 2752SOL    HW2 9156   4.092   5.824   6.805
 2753SOL     OW 9157   5.243   5.903   5.337
 2753SOL    HW1 9158   5.291   5.841   5.399
 2753SOL    HW2 9159   5.204   5.851   5.261
 2754SOL     OW 9160   1.171   0.077   5.620
 2754SOL    HW1 9161   1.177   0.003   5.686
 2754SOL    HW2 9162   1.163   0.164   5.669
 2755SOL     OW 9163   3.650   0.224   2.277
 2755SOL    HW1 9164   3.696   0.297   2.226
 2755SOL    HW2 9165   3.695   0.212   2.366
 2756SOL     OW 9166   4.509   6.517   0.408
 2756SOL    HW1 9167   4.565   6.575   0.467
 2756SOL    HW2 9168   4.544   6.424   0.410
 2757SOL     OW 9169   0.587   4.801   1.022
 2757SOL    HW1 9170   0.650   4.739   0.976
 2757SOL    HW2 9171   0.494   4.762   1.019
 2758SOL     OW 9172   4.778   1.033   5.557
 2758SOL    HW1 9173   4.877   1.043   5.547
 2758SOL    HW2 9174   4.734   1.043   5.468
 2759SOL     OW 9175   4.960   4.795   4.372
 2759SOL    HW1 9176   4.869   4.758   4.388
 2759SOL    HW2 9177   4.969   4.824   4.277
 2760SOL     OW 9178   1.529   6.447   3.707
 2760SOL    HW1 9179   1.473   6.365   3.698
 2760SOL    HW2 9180   1.476   6.527   3.677
 2761SOL     OW 9181   2.387   5.179   4.075
 2761SOL    HW1 9182   2.321   5.253   4.063
 2761SOL    HW2 9183   2.424   5.153   3.986
 2762SOL     OW 9184   1.629   0.758   5.021
 2762SOL    HW1 9185   1.647   0.830   4.954
 2762SOL    HW2 9186   1.691   0.681   5.005
 2763SOL     OW 9187   4.809   1.395   2.497
 2763SOL    HW1 9188   4.752   1.473   2.525
 2763SOL    HW2 9189   4.890   1.391   2.557
 2764SOL     OW 9190   5.969   0.928   1.697
 2764SOL    HW1 9191   5.941   1.017   1.732
 2764SOL    HW2 9192   6.045   0.893   1.752
 2765SOL     OW 9193   5.257   1.765   2.629
 2765SOL    HW1 9194   5.241   1.817   2.713
 2765SOL    HW2 9195   5.224   1.671   2.642
 2766SOL     OW 9196   5.985   0.171   2.792
 2766SOL    HW1 9197   6.043   0.107   2.843
 2766SOL    HW2 9198   5.900   0.185   2.843
 2767SOL     OW 9199   5.997   4.323   5.792
 2767SOL    HW1 9200   5.982   4.420   5.774
 2767SOL    HW2 9201   5.957   4.298   5.881
 2768SOL     OW 9202   6.040   1.510   6.501
 2768SOL    HW1 9203   6.089   1.484   6.418
 2768SOL    HW2 9204   5.956   1.560   6.476
 2769SOL     OW 9205   1.287   4.217   1.279
 2769SOL    HW1 9206   1.332   4.244   1.364
 2769SOL    HW2 9207   1.254   4.298   1.232
 2770SOL     OW 9208   6.462   5.821   1.749
 2770SOL    HW1 9209   6.395   5.891   1.725
 2770SOL    HW2 9210   6.493   5.836   1.843
 2771SOL     OW 9211   5.199   1.312   1.283
 2771SOL    HW1 9212   5.191   1.224   1.329
 2771SOL    HW2 9213   5.287   1.354   1.305
 2772SOL     OW 9214   3.834   2.233   6.771
 2772SOL    HW1 9215   3.744   2.257   6.807
 2772SOL    HW2 9216   3.895   2.210   6.847
 2773SOL     OW 9217   3.208   4.591   0.963
 2773SOL    HW1 9218   3.264   4.580   1.044
 2773SOL    HW2 9219   3.260   4.641   0.893
 2774SOL     OW 9220   5.556   3.331   2.350
 2774SOL    HW1 9221   5.607   3.246   2.334
 2774SOL    HW2 9222   5.464   3.308   2.384
 2775SOL     OW 9223   6.293   6.999   2.157
 2775SOL    HW1 9224   6.320   0.006   2.065
 2775SOL    HW2 9225   6.196   6.974   2.157
 2776SOL     OW 9226   3.198   6.404   6.495
 2776SOL    HW1 9227   3.128   6.391   6.425
 2776SOL    HW2 9228   3.180   6.341   6.571
 2777SOL     OW 9229   2.257   1.945   3.587
 2777SOL    HW1 9230   2.297   1.877   3.526
 2777SOL    HW2 9231   2.170   1.912   3.621
 2778SOL     OW 9232   2.178   2.431   4.265
 2778SOL    HW1 9233   2.214   2.339   4.280
 2778SOL    HW2 9234   2.246   2.485   4.215
 2779SOL     OW 9235   6.450   1.668   0.825
 2779SOL    HW1 9236   6.470   1.607   0.902
 2779SOL    HW2 9237   6.351   1.676   0.813
 2780SOL     OW 9238   4.086   6.123   0.184
 2780SOL    HW1 9239   4.022   6.147   0.112
 2780SOL    HW2 9240   4.168   6.082   0.144
 2781SOL     OW 9241   4.444   4.693   6.918
 2781SOL    HW1 9242   4.384   4.736   6.986
 2781SOL    HW2 9243   4.415   4.599   6.903
 2782SOL     OW 9244   2.831   1.189   6.045
 2782SOL    HW1 9245   2.920   1.235   6.038
 2782SOL    HW2 9246   2.837   1.099   6.002
 2783SOL     OW 9247   0.302   4.203   5.731
 2783SOL    HW1 9248   0.269   4.131   5.791
 2783SOL    HW2 9249   0.245   4.285   5.743
 2784SOL     OW 9250   2.406   2.394   1.777
 2784SOL    HW1 9251   2.468   2.469   1.800
 2784SOL    HW2 9252   2.343   2.424   1.705
 2785SOL     OW 9253   5.930   1.176   1.818
 2785SOL    HW1 9254   5.847   1.217   1.781
 2785SOL    HW2 9255   5.993   1.249   1.846
 2786SOL     OW 9256   2.874   7.007   0.154
 2786SOL    HW1 9257   2.870   0.044   0.075
 2786SOL    HW2 9258   2.943   6.937   0.139
 2787SOL     OW 9259   2.041   3.005   5.221
 2787SOL    HW1 9260   1.964   2.942   5.209
 2787SOL    HW2 9261   2.113   2.960   5.273
 2788SOL     OW 9262   0.415   4.082   6.889
 2788SOL    HW1 9263   0.464   4.070   6.802
 2788SOL    HW2 9264   0.462   4.031   6.961
 2789SOL     OW 9265   0.032   2.373   4.195
 2789SOL    HW1 9266   7.013   2.410   4.277
 2789SOL    HW2 9267   0.040   2.445   4.127
 2790SOL     OW 9268   3.314   6.240   4.151
 2790SOL    HW1 9269   3.409   6.209   4.148
 2790SOL    HW2 9270   3.284   6.267   4.059
 2791SOL     OW 9271   2.188   2.977   2.604
 2791SOL    HW1 9272   2.165   2.882   2.622
 2791SOL    HW2 9273   2.239   2.984   2.518
 2792SOL     OW 9274   1.383   2.222   4.951
 2792SOL    HW1 9275   1.439   2.141   4.931
 2792SOL    HW2 9276   1.287   2.197   4.944
 2793SOL     OW 9277   5.159   1.045   3.961
 2793SOL    HW1 9278   5.205   1.075   4.045
 2793SOL    HW2 9279   5.206   1.085   3.882
 2794SOL     OW 9280   0.717   1.240   1.631
 2794SOL    HW1 9281   0.727   1.156   1.577
 2794SOL    HW2 9282   0.703   1.318   1.569
 2795SOL     OW 9283   1.909   4.279   1.603
 2795SOL    HW1 9284   1.969   4.232   1.539
 2795SOL    HW2 9285   1.866   4.213   1.664
 2796SOL     OW 9286   5.701   4.419   2.355
 2796SOL    HW1 9287   5.778   4.453   2.302
 2796SOL    HW2 9288   5.733   4.391   2.446
 2797SOL     OW 9289   4.556   4.471   4.910
 2797SOL    HW1 9290   4.599   4.551   4.870
 2797SOL    HW2 9291   4.462   4.493   4.935
 2798SOL     OW 9292   1.783   3.538   3.629
 2798SOL    HW1 9293   1.747   3.625   3.665
 2798SOL    HW2 9294   1.877   3.551   3.598
 2799SOL     OW 9295   6.400   5.419   5.815
 2799SOL    HW1 9296   6.364   5.330   5.786
 2799SOL    HW2 9297   6.430   5.412   5.910
 2800SOL     OW 9298   2.747   1.850   6.987
 2800SOL    HW1 9299   2.827   1.830   6.931
 2800SOL    HW2 9300   2.758   1.810   0.053
 2801SOL     OW 9301   4.476   5.546   2.642
 2801SOL    HW1 9302   4.424   5.610   2.585
 2801SOL    HW2 9303   4.532   5.597   2.707
 2802SOL     OW 9304   5.969   0.962   6.418
 2802SOL    HW1 9305   6.004   1.034   6.357
 2802SOL    HW2 9306   6.040   0.936   6.483
 2803SOL     OW 9307   2.044   5.523   5.557
 2803SOL    HW1 9308   2.024   5.608   5.606
 2803SOL    HW2 9309   2.116   5.540   5.490
 2804SOL     OW 9310   0.168   4.728   2.330
 2804SOL    HW1 9311   0.262   4.709   2.358
 2804SOL    HW2 9312   0.165   4.740   2.231
 2805SOL     OW 9313   5.353   4.039   6.281
 2805SOL    HW1 9314   5.299   4.018   6.201
 2805SOL    HW2 9315   5.356   3.959   6.342
 2806SOL     OW 9316   6.734   5.317   2.834
 2806SOL    HW1 9317   6.673   5.288   2.760
 2806SOL    HW2 9318   6.703   5.275   2.920
 2807SOL     OW 9319   4.395   4.609   4.202
 2807SOL    HW1 9320   4.434   4.595   4.293
 2807SOL    HW2 9321   4.314   4.667   4.210
 2808SOL     OW 9322   4.463   5.600   3.985
 2808SOL    HW1 9323   4.383   5.571   4.036
 2808SOL    HW2 9324   4.491   5.692   4.015
 2809SOL     OW 9325   5.314   3.069   0.591
 2809SOL    HW1 9326   5.334   3.020   0.506
 2809SOL    HW2 9327   5.393   3.125   0.616
 2810SOL     OW 9328   1.556   0.425   5.775
 2810SOL    HW1 9329   1.497   0.440   5.854
 2810SOL    HW2 9330   1.500   0.407   5.694
 2811SOL     OW 9331   0.202   1.232   4.120
 2811SOL    HW1 9332   0.210   1.280   4.207
 2811SOL    HW2 9333   0.106   1.235   4.089
 2812SOL     OW 9334   5.123   3.572   2.560
 2812SOL    HW1 9335   5.123   3.537   2.466
 2812SOL    HW2 9336   5.154   3.499   2.622
 2813SOL     OW 9337   6.090   1.834   6.349
 2813SOL    HW1 9338   6.060   1.926   6.373
 2813SOL    HW2 9339   6.162   1.838   6.280
 2814SOL     OW 9340   5.057   4.480   5.097
 2814SOL    HW1 9341   5.048   4.483   5.196
 2814SOL    HW2 9342   5.136   4.424   5.072
 2815SOL     OW 9343   0.017   1.575   4.740
 2815SOL    HW1 9344   6.976   1.529   4.679
 2815SOL    HW2 9345   6.993   1.611   4.819
 2816SOL     OW 9346   5.907   6.346   3.308
 2816SOL    HW1 9347   5.841   6.296   3.252
 2816SOL    HW2 9348   5.956   6.282   3.367
 2817SOL     OW 9349   1.300   1.547   1.262
 2817SOL    HW1 9350   1.266   1.453   1.275
 2817SOL    HW2 9351   1.291   1.598   1.348
 2818SOL     OW 9352   0.775   3.699   6.184
 2818SOL    HW1 9353   0.859   3.746   6.212
 2818SOL    HW2 9354   0.734   3.656   6.264
 2819SOL     OW 9355   6.120   3.190   0.889
 2819SOL    HW1 9356   6.127   3.126   0.966
 2819SOL    HW2 9357   6.151   3.280   0.918
 2820SOL     OW 9358   5.478   2.742   4.019
 2820SOL    HW1 9359   5.538   2.787   3.953
 2820SOL    HW2 9360   5.447   2.655   3.982
 2821SOL     OW 9361   1.460   3.245   3.836
 2821SOL    HW1 9362   1.472   3.342   3.858
 2821SOL    HW2 9363   1.395   3.205   3.900
 2822SOL     OW 9364   2.943   1.923   0.387
 2822SOL    HW1 9365   2.930   1.825   0.371
 2822SOL    HW2 9366   2.854   1.968   0.388
 2823SOL     OW 9367   2.094   6.356   3.559
 2823SOL    HW1 9368   2.079   6.329   3.464
 2823SOL    HW2 9369   2.188   6.336   3.585
 2824SOL     OW 9370   3.207   1.716   4.834
 2824SOL    HW1 9371   3.153   1.786   4.787
 2824SOL    HW2 9372   3.244   1.755   4.919
 2825SOL     OW 9373   6.425   6.155   1.232
 2825SOL    HW1 9374   6.416   6.108   1.144
 2825SOL    HW2 9375   6.467   6.245   1.218
 2826SOL     OW 9376   4.531   2.595   3.925
 2826SOL    HW1 9377   4.510   2.538   4.004
 2826SOL    HW2 9378   4.453   2.597   3.863
 2827SOL     OW 9379   5.692   1.017   6.639
 2827SOL    HW1 9380   5.682   0.958   6.558
 2827SOL    HW2 9381   5.782   1.001   6.681
 2828SOL     OW 9382   3.539   1.890   6.837
 2828SOL    HW1 9383   3.611   1.852   6.779
 2828SOL    HW2 9384   3.579   1.930   6.919
 2829SOL     OW 9385   2.107   0.044   6.818
 2829SOL    HW1 9386   2.106   0.119   6.885
 2829SOL    HW2 9387   2.015   0.031   6.781
 2830SOL     OW 9388   3.201   4.011   6.646
 2830SOL    HW1 9389   3.193   3.923   6.598
 2830SOL    HW2 9390   3.259   4.073   6.593
 2831SOL     OW 9391   6.525   5.949   4.094
 2831SOL    HW1 9392   6.617   5.961   4.057
 2831SOL    HW2 9393   6.531   5.915   4.188
 2832SOL     OW 9394   0.069   0.723   1.916
 2832SOL    HW1 9395   7.022   0.782   1.880
 2832SOL    HW2 9396   0.126   0.774   1.980
 2833SOL     OW 9397   6.386   2.851   2.342
 2833SOL    HW1 9398   6.419   2.757   2.353
 2833SOL    HW2 9399   6.451   2.914   2.384
 2834SOL     OW 9400   4.125   1.005   6.107
 2834SOL    HW1 9401   4.154   1.098   6.083
 2834SOL    HW2 9402   4.065   0.970   6.035
 2835SOL     OW 9403   0.762   6.437   3.118
 2835SOL    HW1 9404   0.835   6.386   3.072
 2835SOL    HW2 9405   0.715   6.495   3.052
 2836SOL     OW 9406   6.471   0.837   1.053
 2836SOL    HW1 9407   6.533   0.914   1.068
 2836SOL    HW2 9408   6.449   0.831   0.956
 2837SOL     OW 9409   6.573   2.838   3.661
 2837SOL    HW1 9410   6.475   2.860   3.665
 2837SOL    HW2 9411   6.619   2.899   3.597
 2838SOL     OW 9412   1.578   5.008   3.970
 2838SOL    HW1 9413   1.574   4.941   4.044
 2838SOL    HW2 9414   1.504   5.075   3.981
 2839SOL     OW 9415   5.067   2.591   1.519
 2839SOL    HW1 9416   4.985   2.576   1.463
 2839SOL    HW2 9417   5.082   2.511   1.577
 2840SOL     OW 9418   6.709   2.478   5.292
 2840SOL    HW1 9419   6.735   2.486   5.388
 2840SOL    HW2 9420   6.781   2.516   5.234
 2841SOL     OW 9421   0.499   6.384   1.586
 2841SOL    HW1 9422   0.412   6.403   1.632
 2841SOL    HW2 9423   0.565   6.455   1.610
 2842SOL     OW 9424   6.095   2.929   3.000
 2842SOL    HW1 9425   6.009   2.981   3.003
 2842SOL    HW2 9426   6.168   2.988   2.965
 2843SOL     OW 9427   4.014   1.907   4.658
 2843SOL    HW1 9428   4.077   1.870   4.590
 2843SOL    HW2 9429   4.065   1.953   4.730
 2844SOL     OW 9430   0.056   4.043   5.349
 2844SOL    HW1 9431   6.984   4.022   5.331
 2844SOL    HW2 9432   0.104   4.056   5.263
 2845SOL     OW 9433   6.772   4.123   6.105
 2845SOL    HW1 9434   6.711   4.095   6.031
 2845SOL    HW2 9435   6.817   4.209   6.081
 2846SOL     OW 9436   4.827   1.037   6.324
 2846SOL    HW1 9437   4.785   1.057   6.413
 2846SOL    HW2 9438   4.824   1.119   6.267
 2847SOL     OW 9439   4.753   4.548   3.596
 2847SOL    HW1 9440   4.743   4.622   3.529
 2847SOL    HW2 9441   4.682   4.480   3.581
 2848SOL     OW 9442   1.706   6.348   5.338
 2848SOL    HW1 9443   1.616   6.305   5.325
 2848SOL    HW2 9444   1.695   6.444   5.363
 2849SOL     OW 9445   2.239   3.134   1.419
 2849SOL    HW1 9446   2.175   3.146   1.495
 2849SOL    HW2 9447   2.310   3.204   1.424
 2850SOL     OW 9448   3.553   0.861   0.437
 2850SOL    HW1 9449   3.587   0.927   0.504
 2850SOL    HW2 9450   3.545   0.771   0.480
 2851SOL     OW 9451   2.022   4.919   6.202
 2851SOL    HW1 9452   2.007   4.995   6.139
 2851SOL    HW2 9453   2.113   4.926   6.243
 2852SOL     OW 9454   0.429   3.101   6.243
 2852SOL    HW1 9455   0.377   3.161   6.304
 2852SOL    HW2 9456   0.493   3.157   6.189
 2853SOL     OW 9457   3.465   2.686   1.456
 2853SOL    HW1 9458   3.444   2.603   1.508
 2853SOL    HW2 9459   3.457   2.766   1.517
 2854SOL     OW 9460   1.054   0.751   3.720
 2854SOL    HW1 9461   1.050   0.667   3.665
 2854SOL    HW2 9462   1.079   0.728   3.814
 2855SOL     OW 9463   3.108   1.029   5.209
 2855SOL    HW1 9464   3.097   1.126   5.188
 2855SOL    HW2 9465   3.181   1.017   5.276
 2856SOL     OW 9466   2.600   1.400   5.208
 2856SOL    HW1 9467   2.591   1.453   5.292
 2856SOL    HW2 9468   2.608   1.303   5.231
 2857SOL     OW 9469   3.461   3.529   3.330
 2857SOL    HW1 9470   3.550   3.559   3.366
 2857SOL    HW2 9471   3.434   3.589   3.254
 2858SOL     OW 9472   5.700   2.413   2.758
 2858SOL    HW1 9473   5.726   2.372   2.846
 2858SOL    HW2 9474   5.617   2.369   2.725
 2859SOL     OW 9475   5.490   6.192   0.517
 2859SOL    HW1 9476   5.445   6.232   0.436
 2859SOL    HW2 9477   5.589   6.192   0.503
 2860SOL     OW 9478   4.241   2.415   1.420
 2860SOL    HW1 9479   4.252   2.411   1.520
 2860SOL    HW2 9480   4.161   2.361   1.394
 2861SOL     OW 9481   3.226   5.128   5.589
 2861SOL    HW1 9482   3.153   5.063   5.610
 2861SOL    HW2 9483   3.301   5.079   5.545
 2862SOL     OW 9484   6.243   0.425   4.548
 2862SOL    HW1 9485   6.244   0.382   4.458
 2862SOL    HW2 9486   6.334   0.462   4.568
 2863SOL     OW 9487   6.776   1.764   0.109
 2863SOL    HW1 9488   6.873   1.747   0.129
 2863SOL    HW2 9489   6.737   1.683   0.065
 2864SOL     OW 9490   3.309   1.280   0.030
 2864SOL    HW1 9491   3.334   1.200   6.999
 2864SOL    HW2 9492   3.370   1.286   0.109
 2865SOL     OW 9493   4.637   4.972   5.348
 2865SOL    HW1 9494   4.613   4.891   5.295
 2865SOL    HW2 9495   4.579   5.049   5.320
 2866SOL     OW 9496   6.907   6.888   6.539
 2866SOL    HW1 9497   6.948   6.970   6.500
 2866SOL    HW2 9498   6.821   6.868   6.491
 2867SOL     OW 9499   6.633   4.043   3.154
 2867SOL    HW1 9500   6.694   3.963   3.154
 2867SOL    HW2 9501   6.568   4.034   3.229
 2868SOL     OW 9502   1.727   4.698   5.339
 2868SOL    HW1 9503   1.644   4.729   5.387
 2868SOL    HW2 9504   1.732   4.742   5.249
 2869SOL     OW 9505   6.201   0.863   2.322
 2869SOL    HW1 9506   6.240   0.771   2.314
 2869SOL    HW2 9507   6.214   0.896   2.415
 2870SOL     OW 9508   5.076   2.153   2.299
 2870SOL    HW1 9509   5.123   2.068   2.321
 2870SOL    HW2 9510   5.041   2.149   2.205
 2871SOL     OW 9511   2.125   1.346   6.073
 2871SOL    HW1 9512   2.168   1.436   6.074
 2871SOL    HW2 9513   2.194   1.277   6.049
 2872SOL     OW 9514   2.361   6.337   4.200
 2872SOL    HW1 9515   2.384   6.336   4.298
 2872SOL    HW2 9516   2.271   6.378   4.187
 2873SOL     OW 9517   7.003   5.750   1.454
 2873SOL    HW1 9518   0.056   5.740   1.391
 2873SOL    HW2 9519   7.000   5.671   1.516
 2874SOL     OW 9520   5.885   1.614   2.985
 2874SOL    HW1 9521   5.885   1.587   3.081
 2874SOL    HW2 9522   5.862   1.711   2.978
 2875SOL     OW 9523   2.843   5.010   1.071
 2875SOL    HW1 9524   2.896   5.012   1.155
 2875SOL    HW2 9525   2.745   5.005   1.093
 2876SOL     OW 9526   0.232   1.670   2.573
 2876SOL    HW1 9527   0.230   1.651   2.671
 2876SOL    HW2 9528   0.271   1.761   2.557
 2877SOL     OW 9529   2.332   2.973   5.823
 2877SOL    HW1 9530   2.267   2.899   5.808
 2877SOL    HW2 9531   2.283   3.059   5.835
 2878SOL     OW 9532   3.345   5.078   0.278
 2878SOL    HW1 9533   3.282   5.137   0.329
 2878SOL    HW2 9534   3.314   5.071   0.183
 2879SOL     OW 9535   4.618   5.047   6.882
 2879SOL    HW1 9536   4.605   4.957   6.840
 2879SOL    HW2 9537   4.657   5.036   6.973
 2880SOL     OW 9538   1.025   6.723   1.919
 2880SOL    HW1 9539   1.107   6.716   1.863
 2880SOL    HW2 9540   1.050   6.751   2.011
 2881SOL     OW 9541   0.292   6.958   6.727
 2881SOL    HW1 9542   0.329   6.865   6.730
 2881SOL    HW2 9543   0.366   7.022   6.706
 2882SOL     OW 9544   6.722   3.220   3.602
 2882SOL    HW1 9545   6.784   3.142   3.613
 2882SOL    HW2 9546   6.716   3.271   3.688
 2883SOL     OW 9547   4.842   6.511   2.851
 2883SOL    HW1 9548   4.816   6.588   2.791
 2883SOL    HW2 9549   4.868   6.433   2.795
 2884SOL     OW 9550   1.860   5.961   3.105
 2884SOL    HW1 9551   1.780   5.903   3.118
 2884SOL    HW2 9552   1.838   6.037   3.044
 2885SOL     OW 9553   0.736   2.148   3.703
 2885SOL    HW1 9554   0.739   2.239   3.744
 2885SOL    HW2 9555   0.755   2.155   3.605
 2886SOL     OW 9556   2.442   2.835   6.068
 2886SOL    HW1 9557   2.499   2.854   6.148
 2886SOL    HW2 9558   2.433   2.918   6.013
 2887SOL     OW 9559   2.495   0.986   4.903
 2887SOL    HW1 9560   2.404   0.945   4.911
 2887SOL    HW2 9561   2.485   1.083   4.879
 2888SOL     OW 9562   6.894   5.072   6.996
 2888SOL    HW1 9563   6.983   5.030   7.015
 2888SOL    HW2 9564   6.829   5.045   0.042
 2889SOL     OW 9565   0.242   6.950   1.459
 2889SOL    HW1 9566   0.242   7.021   1.530
 2889SOL    HW2 9567   0.281   6.988   1.374
 2890SOL     OW 9568   2.822   6.845   0.562
 2890SOL    HW1 9569   2.791   6.862   0.468
 2890SOL    HW2 9570   2.896   6.909   0.584
 2891SOL     OW 9571   2.600   4.993   4.442
 2891SOL    HW1 9572   2.640   4.964   4.529
 2891SOL    HW2 9573   2.513   4.947   4.428
 2892SOL     OW 9574   4.404   4.411   5.630
 2892SOL    HW1 9575   4.432   4.329   5.679
 2892SOL    HW2 9576   4.351   4.470   5.691
 2893SOL     OW 9577   2.831   0.609   5.980
 2893SOL    HW1 9578   2.905   0.546   6.002
 2893SOL    HW2 9579   2.814   0.609   5.881
 2894SOL     OW 9580   3.419   2.673   1.024
 2894SOL    HW1 9581   3.348   2.623   1.073
 2894SOL    HW2 9582   3.434   2.630   0.934
 2895SOL     OW 9583   3.198   3.347   6.697
 2895SOL    HW1 9584   3.141   3.407   6.752
 2895SOL    HW2 9585   3.183   3.252   6.726
 2896SOL     OW 9586   2.575   5.466   0.905
 2896SOL    HW1 9587   2.544   5.555   0.873
 2896SOL    HW2 9588   2.514   5.395   0.869
 2897SOL     OW 9589   1.745   6.343   3.566
 2897SOL    HW1 9590   1.818   6.306   3.623
 2897SOL    HW2 9591   1.678   6.390   3.624
 2898SOL     OW 9592   2.582   4.936   2.854
 2898SOL    HW1 9593   2.537   5.018   2.819
 2898SOL    HW2 9594   2.520   4.857   2.842
 2899SOL     OW 9595   6.729   0.685   0.579
 2899SOL    HW1 9596   6.826   0.705   0.561
 2899SOL    HW2 9597   6.712   0.689   0.678
 2900SOL     OW 9598   2.711   5.593   6.014
 2900SOL    HW1 9599   2.808   5.572   6.026
 2900SOL    HW2 9600   2.671   5.619   6.102
 2901SOL     OW 9601   2.934   0.277   1.504
 2901SOL    HW1 9602   3.033   0.269   1.494
 2901SOL    HW2 9603   2.913   0.334   1.584
 2902SOL     OW 9604   5.651   5.470   1.840
 2902SOL    HW1 9605   5.583   5.405   1.874
 2902SOL    HW2 9606   5.711   5.497   1.915
 2903SOL     OW 9607   2.638   2.538   1.823
 2903SOL    HW1 9608   2.679   2.598   1.754
 2903SOL    HW2 9609   2.710   2.500   1.880
 2904SOL     OW 9610   1.804   3.337   4.836
 2904SOL    HW1 9611   1.847   3.261   4.789
 2904SOL    HW2 9612   1.800   3.318   4.934
 2905SOL     OW 9613   0.930   2.266   1.429
 2905SOL    HW1 9614   1.017   2.285   1.475
 2905SOL    HW2 9615   0.947   2.250   1.332
 2906SOL     OW 9616   5.265   5.969   2.573
 2906SOL    HW1 9617   5.314   5.884   2.554
 2906SOL    HW2 9618   5.250   6.019   2.487
 2907SOL     OW 9619   6.648   0.606   4.182
 2907SOL    HW1 9620   6.562   0.657   4.193
 2907SOL    HW2 9621   6.725   0.670   4.183
 2908SOL     OW 9622   4.103   6.032   5.031
 2908SOL    HW1 9623   4.128   6.084   5.112
 2908SOL    HW2 9624   4.105   6.092   4.951
 2909SOL     OW 9625   1.297   6.354   5.671
 2909SOL    HW1 9626   1.222   6.398   5.622
 2909SOL    HW2 9627   1.263   6.309   5.753
 2910SOL     OW 9628   4.842   6.409   5.714
 2910SOL    HW1 9629   4.913   6.379   5.651
 2910SOL    HW2 9630   4.840   6.348   5.793
 2911SOL     OW 9631   2.249   4.084   3.366
 2911SOL    HW1 9632   2.311   4.163   3.371
 2911SOL    HW2 9633   2.260   4.028   3.448
 2912SOL     OW 9634   2.801   5.314   0.933
 2912SOL    HW1 9635   2.761   5.227   0.959
 2912SOL    HW2 9636   2.728   5.381   0.916
 2913SOL     OW 9637   1.264   2.984   2.852
 2913SOL    HW1 9638   1.292   3.049   2.781
 2913SOL    HW2 9639   1.319   3.000   2.935
 2914SOL     OW 9640   5.029   5.317   5.358
 2914SOL    HW1 9641   5.102   5.345   5.295
 2914SOL    HW2 9642   4.983   5.236   5.322
 2915SOL     OW 9643   3.968   1.129   3.907
 2915SOL    HW1 9644   3.945   1.132   3.809
 2915SOL    HW2 9645   4.030   1.204   3.929
 2916SOL     OW 9646   4.425   5.631   4.355
 2916SOL    HW1 9647   4.373   5.692   4.295
 2916SOL    HW2 9648   4.473   5.562   4.299
 2917SOL     OW 9649   4.436   1.370   2.614
 2917SOL    HW1 9650   4.466   1.442   2.550
 2917SOL    HW2 9651   4.358   1.321   2.575
 2918SOL     OW 9652   0.513   3.399   3.983
 2918SOL    HW1 9653   0.448   3.410   4.057
 2918SOL    HW2 9654   0.465   3.399   3.895
 2919SOL     OW 9655   6.431   6.131   0.183
 2919SOL    HW1 9656   6.445   6.062   0.254
 2919SOL    HW2 9657   6.499   6.204   0.193
 2920SOL     OW 9658   4.220   2.196   3.061
 2920SOL    HW1 9659   4.310   2.175   3.098
 2920SOL    HW2 9660   4.229   2.227   2.966
 2921SOL     OW 9661   0.296   0.117   1.693
 2921SOL    HW1 9662   0.236   0.066   1.754
 2921SOL    HW2 9663   0.347   0.185   1.746
 2922SOL     OW 9664   4.106   6.299   5.670
 2922SOL    HW1 9665   4.041   6.273   5.741
 2922SOL    HW2 9666   4.161   6.375   5.701
 2923SOL     OW 9667   0.242   4.482   0.451
 2923SOL    HW1 9668   0.263   4.393   0.411
 2923SOL    HW2 9669   0.178   4.531   0.391
 2924SOL     OW 9670   5.861   0.201   5.916
 2924SOL    HW1 9671   5.798   0.278   5.919
 2924SOL    HW2 9672   5.951   0.232   5.887
 2925SOL     OW 9673   5.593   3.754   1.239
 2925SOL    HW1 9674   5.591   3.853   1.247
 2925SOL    HW2 9675   5.570   3.713   1.328
 2926SOL     OW 9676   6.907   1.584   3.895
 2926SOL    HW1 9677   6.807   1.580   3.885
 2926SOL    HW2 9678   6.931   1.634   3.978
 2927SOL     OW 9679   0.672   2.815   2.728
 2927SOL    HW1 9680   0.754   2.781   2.774
 2927SOL    HW2 9681   0.594   2.758   2.752
 2928SOL     OW 9682   5.549   6.367   1.068
 2928SOL    HW1 9683   5.461   6.365   1.116
 2928SOL    HW2 9684   5.608   6.294   1.103
 2929SOL     OW 9685   1.111   0.541   5.763
 2929SOL    HW1 9686   1.032   0.536   5.701
 2929SOL    HW2 9687   1.082   0.521   5.856
 2930SOL     OW 9688   3.689   6.167   4.989
 2930SOL    HW1 9689   3.732   6.190   4.902
 2930SOL    HW2 9690   3.697   6.068   5.004
 2931SOL     OW 9691   3.598   5.297   6.839
 2931SOL    HW1 9692   3.617   5.206   6.801
 2931SOL    HW2 9693   3.636   5.367   6.780
 2932SOL     OW 9694   1.209   4.251   2.038
 2932SOL    HW1 9695   1.197   4.344   2.073
 2932SOL    HW2 9696   1.297   4.243   1.992
 2933SOL     OW 9697   4.627   1.663   3.500
 2933SOL    HW1 9698   4.535   1.696   3.478
 2933SOL    HW2 9699   4.629   1.564   3.494
 2934SOL     OW 9700   2.658   0.733   0.320
 2934SOL    HW1 9701   2.662   0.760   0.224
 2934SOL    HW2 9702   2.576   0.773   0.362
 2935SOL     OW 9703   6.711   2.015   0.961
 2935SOL    HW1 9704   6.650   1.972   0.895
 2935SOL    HW2 9705   6.757   2.094   0.919
 2936SOL     OW 9706   3.578   6.097   1.100
 2936SOL    HW1 9707   3.506   6.166   1.088
 2936SOL    HW2 9708   3.544   6.008   1.069
 2937SOL     OW 9709   2.464   4.240   0.289
 2937SOL    HW1 9710   2.538   4.178   0.314
 2937SOL    HW2 9711   2.501   4.313   0.231
 2938SOL     OW 9712   5.206   4.987   5.550
 2938SOL    HW1 9713   5.186   4.893   5.522
 2938SOL    HW2 9714   5.134   5.020   5.610
 2939SOL     OW 9715   0.099   6.936   5.661
 2939SOL    HW1 9716   0.110   6.937   5.562
 2939SOL    HW2 9717   0.067   6.846   5.691
 2940SOL     OW 9718   4.279   0.425   5.577
 2940SOL    HW1 9719   4.311   0.474   5.496
 2940SOL    HW2 9720   4.258   0.330   5.552
 2941SOL     OW 9721   3.051   1.539   5.662
 2941SOL    HW1 9722   3.077   1.575   5.752
 2941SOL    HW2 9723   3.048   1.439   5.666
 2942SOL     OW 9724   3.694   6.227   4.717
 2942SOL    HW1 9725   3.767   6.179   4.669
 2942SOL    HW2 9726   3.606   6.187   4.692
 2943SOL     OW 9727   5.690   3.622   2.673
 2943SOL    HW1 9728   5.722   3.568   2.750
 2943SOL    HW2 9729   5.590   3.616   2.667
 2944SOL     OW 9730   4.191   6.130   6.578
 2944SOL    HW1 9731   4.279   6.147   6.535
 2944SOL    HW2 9732   4.205   6.088   6.668
 2945SOL     OW 9733   2.987   3.768   3.215
 2945SOL    HW1 9734   2.927   3.698   3.176
 2945SOL    HW2 9735   3.021   3.827   3.142
 2946SOL     OW 9736   0.162   6.016   5.892
 2946SOL    HW1 9737   0.202   6.094   5.843
 2946SOL    HW2 9738   0.072   6.040   5.926
 2947SOL     OW 9739   0.075   5.136   0.730
 2947SOL    HW1 9740   7.023   5.151   0.792
 2947SOL    HW2 9741   0.131   5.219   0.724
 2948SOL     OW 9742   5.835   4.208   5.133
 2948SOL    HW1 9743   5.833   4.292   5.079
 2948SOL    HW2 9744   5.929   4.172   5.135
 2949SOL     OW 9745   1.132   6.362   0.883
 2949SOL    HW1 9746   1.195   6.370   0.806
 2949SOL    HW2 9747   1.069   6.286   0.867
 2950SOL     OW 9748   5.304   3.734   4.472
 2950SOL    HW1 9749   5.265   3.825   4.460
 2950SOL    HW2 9750   5.282   3.678   4.392
 2951SOL     OW 9751   6.006   1.070   1.307
 2951SOL    HW1 9752   6.076   1.099   1.372
 2951SOL    HW2 9753   5.936   1.018   1.355
 2952SOL     OW 9754   1.739   3.734   2.045
 2952SOL    HW1 9755   1.743   3.828   2.080
 2952SOL    HW2 9756   1.828   3.690   2.057
 2953SOL     OW 9757   5.548   0.851   2.604
 2953SOL    HW1 9758   5.598   0.898   2.532
 2953SOL    HW2 9759   5.610   0.787   2.651
 2954SOL     OW 9760   5.929   6.139   1.519
 2954SOL    HW1 9761   5.836   6.165   1.491
 2954SOL    HW2 9762   5.928   6.044   1.551
 2955SOL     OW 9763   6.458   2.953   0.668
 2955SOL    HW1 9764   6.465   3.040   0.618
 2955SOL    HW2 9765   6.433   2.880   0.605
 2956SOL     OW 9766   6.681   5.390   2.444
 2956SOL    HW1 9767   6.631   5.448   2.380
 2956SOL    HW2 9768   6.616   5.338   2.500
 2957SOL     OW 9769   1.058   4.287   1.635
 2957SOL    HW1 9770   1.094   4.379   1.629
 2957SOL    HW2 9771   1.033   4.267   1.730
 2958SOL     OW 9772   3.563   4.664   6.546
 2958SOL    HW1 9773   3.579   4.689   6.451
 2958SOL    HW2 9774   3.530   4.570   6.552
 2959SOL     OW 9775   4.376   6.061   6.909
 2959SOL    HW1 9776   4.348   6.020   6.995
 2959SOL    HW2 9777   4.298   6.108   6.867
 2960SOL     OW 9778   2.665   1.550   6.625
 2960SOL    HW1 9779   2.628   1.551   6.718
 2960SOL    HW2 9780   2.674   1.643   6.591
 2961SOL     OW 9781   5.502   2.453   4.727
 2961SOL    HW1 9782   5.444   2.476   4.649
 2961SOL    HW2 9783   5.594   2.491   4.712
 2962SOL     OW 9784   3.626   1.257   3.241
 2962SOL    HW1 9785   3.548   1.199   3.219
 2962SOL    HW2 9786   3.664   1.295   3.156
 2963SOL     OW 9787   2.273   2.916   5.322
 2963SOL    HW1 9788   2.302   3.008   5.297
 2963SOL    HW2 9789   2.290   2.853   5.246
 2964SOL     OW 9790   3.060   5.910   0.430
 2964SOL    HW1 9791   3.072   5.983   0.498
 2964SOL    HW2 9792   2.988   5.848   0.461
 2965SOL     OW 9793   0.524   2.314   5.721
 2965SOL    HW1 9794   0.466   2.376   5.669
 2965SOL    HW2 9795   0.588   2.368   5.776
 2966SOL     OW 9796   4.615   4.351   3.337
 2966SOL    HW1 9797   4.582   4.334   3.430
 2966SOL    HW2 9798   4.537   4.359   3.275
 2967SOL     OW 9799   5.911   2.091   4.132
 2967SOL    HW1 9800   5.903   2.025   4.206
 2967SOL    HW2 9801   5.837   2.158   4.139
 2968SOL     OW 9802   6.745   4.242   3.424
 2968SOL    HW1 9803   6.801   4.181   3.369
 2968SOL    HW2 9804   6.687   4.189   3.485
 2969SOL     OW 9805   4.598   1.117   4.545
 2969SOL    HW1 9806   4.662   1.080   4.478
 2969SOL    HW2 9807   4.565   1.207   4.514
 2970SOL     OW 9808   1.095   4.718   6.509
 2970SOL    HW1 9809   1.032   4.739   6.584
 2970SOL    HW2 9810   1.055   4.647   6.451
 2971SOL     OW 9811   5.259   3.324   3.399
 2971SOL    HW1 9812   5.159   3.320   3.405
 2971SOL    HW2 9813   5.287   3.412   3.360
 2972SOL     OW 9814   0.834   4.005   6.103
 2972SOL    HW1 9815   0.871   4.039   6.189
 2972SOL    HW2 9816   0.889   3.927   6.072
 2973SOL     OW 9817   5.382   6.822   4.557
 2973SOL    HW1 9818   5.339   6.732   4.545
 2973SOL    HW2 9819   5.445   6.818   4.635
 2974SOL     OW 9820   0.546   4.018   2.476
 2974SOL    HW1 9821   0.630   4.060   2.442
 2974SOL    HW2 9822   0.469   4.045   2.418
 2975SOL     OW 9823   0.129   1.581   4.482
 2975SOL    HW1 9824   0.105   1.635   4.563
 2975SOL    HW2 9825   0.212   1.619   4.441
 2976SOL     OW 9826   3.013   6.200   1.782
 2976SOL    HW1 9827   3.035   6.263   1.707
 2976SOL    HW2 9828   3.008   6.107   1.747
 2977SOL     OW 9829   3.884   6.243   4.266
 2977SOL    HW1 9830   3.960   6.306   4.248
 2977SOL    HW2 9831   3.919   6.152   4.286
 2978SOL     OW 9832   3.811   6.122   6.928
 2978SOL    HW1 9833   3.720   6.107   6.891
 2978SOL    HW2 9834   3.807   6.190   7.001
 2979SOL     OW 9835   3.255   1.012   3.501
 2979SOL    HW1 9836   3.166   0.997   3.546
 2979SOL    HW2 9837   3.240   1.050   3.410
 2980SOL     OW 9838   6.669   6.227   3.847
 2980SOL    HW1 9839   6.619   6.166   3.786
 2980SOL    HW2 9840   6.743   6.272   3.796
 2981SOL     OW 9841   1.743   1.358   5.427
 2981SOL    HW1 9842   1.658   1.336   5.474
 2981SOL    HW2 9843   1.784   1.440   5.467
 2982SOL     OW 9844   4.911   6.839   3.172
 2982SOL    HW1 9845   4.882   6.806   3.262
 2982SOL    HW2 9846   4.932   6.936   3.178
 2983SOL     OW 9847   6.739   0.037   2.433
 2983SOL    HW1 9848   6.649   0.045   2.389
 2983SOL    HW2 9849   6.746   0.102   2.509
 2984SOL     OW 9850   5.900   5.307   1.661
 2984SOL    HW1 9851   5.815   5.302   1.715
 2984SOL    HW2 9852   5.936   5.215   1.648
 2985SOL     OW 9853   6.229   1.730   3.386
 2985SOL    HW1 9854   6.263   1.668   3.315
 2985SOL    HW2 9855   6.160   1.790   3.348
 2986SOL     OW 9856   2.291   3.716   5.301
 2986SOL    HW1 9857   2.352   3.774   5.249
 2986SOL    HW2 9858   2.323   3.621   5.297
 2987SOL     OW 9859   4.201   1.853   4.482
 2987SOL    HW1 9860   4.246   1.763   4.483
 2987SOL    HW2 9861   4.191   1.884   4.388
 2988SOL     OW 9862   0.505   0.291   1.748
 2988SOL    HW1 9863   0.542   0.235   1.674
 2988SOL    HW2 9864   0.577   0.350   1.784
 2989SOL     OW 9865   6.728   5.087   0.655
 2989SOL    HW1 9866   6.764   5.141   0.731
 2989SOL    HW2 9867   6.641   5.046   0.681
 2990SOL     OW 9868   3.207   0.166   1.162
 2990SOL    HW1 9869   3.194   0.259   1.127
 2990SOL    HW2 9870   3.293   0.162   1.214
 2991SOL     OW 9871   6.577   4.485   0.236
 2991SOL    HW1 9872   6.512   4.489   0.161
 2991SOL    HW2 9873   6.545   4.419   0.305
 2992SOL     OW 9874   4.157   4.654   6.781
 2992SOL    HW1 9875   4.158   4.753   6.776
 2992SOL    HW2 9876   4.133   4.625   6.874
 2993SOL     OW 9877   2.014   5.520   0.244
 2993SOL    HW1 9878   1.920   5.543   0.219
 2993SOL    HW2 9879   2.060   5.478   0.166
 2994SOL     OW 9880   4.070   6.440   6.996
 2994SOL    HW1 9881   4.006   6.470   0.042
 2994SOL    HW2 9882   4.114   6.519   6.954
 2995SOL     OW 9883   2.570   0.555   5.536
 2995SOL    HW1 9884   2.476   0.585   5.516
 2995SOL    HW2 9885   2.629   0.575   5.458
 2996SOL     OW 9886   4.291   5.603   5.872
 2996SOL    HW1 9887   4.216   5.575   5.812
 2996SOL    HW2 9888   4.287   5.702   5.887
 2997SOL     OW 9889   4.877   6.491   0.030
 2997SOL    HW1 9890   4.925   6.412   0.070
 2997SOL    HW2 9891   4.902   6.573   0.081
 2998SOL     OW 9892   5.871   5.311   5.273
 2998SOL    HW1 9893   5.796   5.248   5.289
 2998SOL    HW2 9894   5.889   5.365   5.355
 2999SOL     OW 9895   3.138   6.688   2.115
 2999SOL    HW1 9896   3.211   6.620   2.113
 2999SOL    HW2 9897   3.132   6.728   2.207
 3000SOL     OW 9898   1.475   2.377   4.602
 3000SOL    HW1 9899   1.412   2.407   4.674
 3000SOL    HW2 9900   1.537   2.453   4.579
 3001SOL     OW 9901   4.771   0.093   6.082
 3001SOL    HW1 9902   4.827   0.084   6.164
 3001SOL    HW2 9903   4.687   0.143   6.104
 3002SOL     OW 9904   3.290   6.993   5.857
 3002SOL    HW1 9905   3.327   0.047   5.808
 3002SOL    HW2 9906   3.269   7.019   5.952
 3003SOL     OW 9907   2.065   6.906   6.240
 3003SOL    HW1 9908   1.985   6.951   6.280
 3003SOL    HW2 9909   2.099   6.961   6.164
 3004SOL     OW 9910   6.428   3.781   5.049
 3004SOL    HW1 9911   6.450   3.790   5.147
 3004SOL    HW2 9912   6.343   3.731   5.038
 3005SOL     OW 9913   4.294   2.459   1.707
 3005SOL    HW1 9914   4.370   2.451   1.772
 3005SOL    HW2 9915   4.224   2.391   1.729
 3006SOL     OW 9916   4.949   0.664   1.045
 3006SOL    HW1 9917   4.886   0.695   1.117
 3006SOL    HW2 9918   4.994   0.743   1.003
 3007SOL     OW 9919   6.691   5.625   2.010
 3007SOL    HW1 9920   6.713   5.568   1.932
 3007SOL    HW2 9921   6.751   5.602   2.087
 3008SOL     OW 9922   4.232   5.859   5.899
 3008SOL    HW1 9923   4.158   5.794   5.917
 3008SOL    HW2 9924   4.206   5.917   5.822
 3009SOL     OW 9925   0.879   1.174   2.718
 3009SOL    HW1 9926   0.979   1.175   2.722
 3009SOL    HW2 9927   0.844   1.266   2.738
 3010SOL     OW 9928   3.122   6.756   2.648
 3010SOL    HW1 9929   3.078   6.791   2.731
 3010SOL    HW2 9930   3.116   6.657   2.648
 3011SOL     OW 9931   5.794   0.568   0.014
 3011SOL    HW1 9932   5.826   0.486   0.062
 3011SOL    HW2 9933   5.724   0.542   6.973
 3012SOL     OW 9934   0.190   4.755   2.037
 3012SOL    HW1 9935   0.176   4.852   2.015
 3012SOL    HW2 9936   0.249   4.714   1.967
 3013SOL     OW 9937   5.938   4.208   2.308
 3013SOL    HW1 9938   5.971   4.303   2.311
 3013SOL    HW2 9939   5.989   4.153   2.374
 3014SOL     OW 9940   5.278   0.574   4.939
 3014SOL    HW1 9941   5.254   0.670   4.954
 3014SOL    HW2 9942   5.206   0.515   4.975
 3015SOL     OW 9943   3.197   2.278   6.856
 3015SOL    HW1 9944   3.160   2.367   6.831
 3015SOL    HW2 9945   3.183   2.214   6.780
 3016SOL     OW 9946   3.551   5.949   3.601
 3016SOL    HW1 9947   3.619   5.875   3.602
 3016SOL    HW2 9948   3.487   5.934   3.526
 3017SOL     OW 9949   6.995   5.950   0.995
 3017SOL    HW1 9950   6.978   5.888   0.918
 3017SOL    HW2 9951   0.068   5.949   1.018
 3018SOL     OW 9952   3.787   0.126   6.334
 3018SOL    HW1 9953   3.833   0.204   6.376
 3018SOL    HW2 9954   3.719   0.159   6.269
 3019SOL     OW 9955   5.048   6.613   2.177
 3019SOL    HW1 9956   5.042   6.590   2.274
 3019SOL    HW2 9957   4.988   6.553   2.124
 3020SOL     OW 9958   1.887   1.411   1.122
 3020SOL    HW1 9959   1.924   1.427   1.214
 3020SOL    HW2 9960   1.797   1.369   1.130
 3021SOL     OW 9961   3.841   0.969   6.240
 3021SOL    HW1 9962   3.897   0.909   6.297
 3021SOL    HW2 9963   3.871   1.063   6.251
 3022SOL     OW 9964   5.547   6.933   1.857
 3022SOL    HW1 9965   5.548   6.839   1.892
 3022SOL    HW2 9966   5.612   6.941   1.782
 3023SOL     OW 9967   5.578   0.315   1.503
 3023SOL    HW1 9968   5.664   0.315   1.452
 3023SOL    HW2 9969   5.503   0.292   1.442
 3024SOL     OW 9970   3.148   6.608   6.794
 3024SOL    HW1 9971   3.132   6.586   6.890
 3024SOL    HW2 9972   3.075   6.568   6.738
 3025SOL     OW 9973   1.840   2.167   1.599
 3025SOL    HW1 9974   1.807   2.113   1.676
 3025SOL    HW2 9975   1.939   2.181   1.609
 3026SOL     OW 9976   1.740   5.057   0.639
 3026SOL    HW1 9977   1.780   4.991   0.703
 3026SOL    HW2 9978   1.812   5.113   0.599
 3027SOL     OW 9979   1.853   1.568   4.263
 3027SOL    HW1 9980   1.869   1.595   4.358
 3027SOL    HW2 9981   1.789   1.632   4.221
 3028SOL     OW 9982   1.524   0.662   4.503
 3028SOL    HW1 9983   1.464   0.591   4.466
 3028SOL    HW2 9984   1.618   0.628   4.508
 3029SOL     OW 9985   5.293   5.562   5.859
 3029SOL    HW1 9986   5.378   5.585   5.813
 3029SOL    HW2 9987   5.238   5.503   5.800
 3030SOL     OW 9988   1.192   1.449   5.704
 3030SOL    HW1 9989   1.158   1.394   5.628
 3030SOL    HW2 9990   1.180   1.546   5.682
 3031SOL     OW 9991   1.215   5.409   6.616
 3031SOL    HW1 9992   1.315   5.406   6.626
 3031SOL    HW2 9993   1.173   5.350   6.684
 3032SOL     OW 9994   4.173   0.518   5.823
 3032SOL    HW1 9995   4.187   0.453   5.898
 3032SOL    HW2 9996   4.189   0.471   5.736
 3033SOL     OW 9997   5.249   5.134   6.162
 3033SOL    HW1 9998   5.156   5.118   6.193
 3033SOL    HW2 9999   5.308   5.151   6.241
 3034SOL     OW10000   2.285   0.122   4.086
 3034SOL    HW110001   2.251   0.126   4.180
 3034SOL    HW210002   2.208   0.120   4.023
 3035SOL     OW10003   6.636   6.591   6.905
 3035SOL    HW110004   6.636   6.659   6.831
 3035SOL    HW210005   6.636   6.638   6.993
 3036SOL     OW10006   1.155   4.775   6.196
 3036SOL    HW110007   1.100   4.799   6.277
 3036SOL    HW210008   1.202   4.856   6.163
 3037SOL     OW10009   6.356   6.995   5.533
 3037SOL    HW110010   6.279   6.986   5.471
 3037SOL    HW210011   6.391   6.904   5.556
 3038SOL     OW10012   5.770   6.786   5.727
 3038SOL    HW110013   5.738   6.854   5.793
 3038SOL    HW210014   5.744   6.815   5.635
 3039SOL     OW10015   0.229   4.922   0.620
 3039SOL    HW110016   0.325   4.946   0.632
 3039SOL    HW210017   0.171   4.996   0.655
 3040SOL     OW10018   2.187   2.217   6.785
 3040SOL    HW110019   2.152   2.221   6.879
 3040SOL    HW210020   2.270   2.161   6.784
 3041SOL     OW10021   1.663   1.923   6.094
 3041SOL    HW110022   1.624   1.834   6.072
 3041SOL    HW210023   1.736   1.912   6.162
 3042SOL     OW10024   5.186   0.006   2.086
 3042SOL    HW110025   5.152   6.954   2.032
 3042SOL    HW210026   5.270   7.004   2.133
 3043SOL     OW10027   6.973   5.005   0.508
 3043SOL    HW110028   0.020   5.048   0.563
 3043SOL    HW210029   6.887   5.005   0.559
 3044SOL     OW10030   3.027   3.698   5.480
 3044SOL    HW110031   3.036   3.668   5.385
 3044SOL    HW210032   3.105   3.755   5.505
 3045SOL     OW10033   5.529   1.833   3.890
 3045SOL    HW110034   5.578   1.747   3.875
 3045SOL    HW210035   5.592   1.901   3.926
 3046SOL     OW10036   2.591   2.005   6.006
 3046SOL    HW110037   2.554   2.095   5.987
 3046SOL    HW210038   2.527   1.953   6.061
 3047SOL     OW10039   0.106   4.494   1.691
 3047SOL    HW110040   0.010   4.484   1.716
 3047SOL    HW210041   0.152   4.406   1.700
 3048SOL     OW10042   2.960   2.718   1.689
 3048SOL    HW110043   3.006   2.806   1.699
 3048SOL    HW210044   3.007   2.650   1.745
 3049SOL     OW10045   0.954   0.086   1.829
 3049SOL    HW110046   0.900   0.119   1.751
 3049SOL    HW210047   1.029   0.029   1.796
 3050SOL     OW10048   2.888   5.950   3.809
 3050SOL    HW110049   2.971   5.991   3.770
 3050SOL    HW210050   2.841   6.017   3.866
 3051SOL     OW10051   2.367   4.380   5.424
 3051SOL    HW110052   2.287   4.435   5.449
 3051SOL    HW210053   2.450   4.426   5.457
 3052SOL     OW10054   4.754   6.719   2.658
 3052SOL    HW110055   4.782   6.793   2.720
 3052SOL    HW210056   4.816   6.716   2.579
 3053SOL     OW10057   4.975   6.795   1.104
 3053SOL    HW110058   4.916   6.830   1.177
 3053SOL    HW210059   4.920   6.746   1.037
 3054SOL     OW10060   2.104   3.585   5.882
 3054SOL    HW110061   2.055   3.660   5.926
 3054SOL    HW210062   2.042   3.535   5.821
 3055SOL     OW10063   5.750   6.030   2.841
 3055SOL    HW110064   5.776   5.934   2.845
 3055SOL    HW210065   5.670   6.046   2.899
 3056SOL     OW10066   6.351   0.803   1.378
 3056SOL    HW110067   6.320   0.713   1.411
 3056SOL    HW210068   6.311   0.821   1.289
 3057SOL     OW10069   6.547   5.915   2.586
 3057SOL    HW110070   6.598   6.001   2.585
 3057SOL    HW210071   6.604   5.843   2.624
 3058SOL     OW10072   6.262   5.103   1.468
 3058SOL    HW110073   6.271   5.190   1.517
 3058SOL    HW210074   6.336   5.041   1.497
 3059SOL     OW10075   2.087   2.556   4.810
 3059SOL    HW110076   2.177   2.542   4.768
 3059SOL    HW210077   2.015   2.542   4.741
 3060SOL     OW10078   0.027   6.689   0.673
 3060SOL    HW110079   7.023   6.624   0.743
 3060SOL    HW210080   0.127   6.693   0.671
 3061SOL     OW10081   0.058   0.618   6.033
 3061SOL    HW110082   0.041   0.610   5.935
 3061SOL    HW210083   7.000   0.596   6.084
 3062SOL     OW10084   3.017   5.557   6.173
 3062SOL    HW110085   3.077   5.597   6.242
 3062SOL    HW210086   3.069   5.496   6.114
 3063SOL     OW10087   2.000   5.476   0.780
 3063SOL    HW110088   1.998   5.478   0.680
 3063SOL    HW210089   1.911   5.503   0.815
 3064SOL     OW10090   7.011   4.542   3.384
 3064SOL    HW110091   0.039   4.620   3.351
 3064SOL    HW210092   6.971   4.493   3.306
 3065SOL     OW10093   2.160   1.177   1.047
 3065SOL    HW110094   2.131   1.248   1.111
 3065SOL    HW210095   2.139   1.087   1.085
 3066SOL     OW10096   5.258   5.698   0.987
 3066SOL    HW110097   5.307   5.763   1.045
 3066SOL    HW210098   5.296   5.607   0.999
 3067SOL     OW10099   5.135   6.588   3.648
 3067SOL    HW110100   5.125   6.574   3.550
 3067SOL    HW210101   5.231   6.575   3.674
 3068SOL     OW10102   5.861   4.673   0.461
 3068SOL    HW110103   5.919   4.740   0.417
 3068SOL    HW210104   5.901   4.646   0.549
 3069SOL     OW10105   1.154   5.732   3.697
 3069SOL    HW110106   1.204   5.645   3.700
 3069SOL    HW210107   1.178   5.781   3.613
 3070SOL     OW10108   4.401   1.244   4.368
 3070SOL    HW110109   4.319   1.188   4.357
 3070SOL    HW210110   4.375   1.336   4.397
 3071SOL     OW10111   5.888   0.560   3.795
 3071SOL    HW110112   5.789   0.557   3.808
 3071SOL    HW210113   5.911   0.637   3.736
 3072SOL     OW10114   0.789   0.141   2.083
 3072SOL    HW110115   0.793   0.139   1.983
 3072SOL    HW210116   0.829   0.056   2.119
 3073SOL     OW10117   1.661   2.669   4.204
 3073SOL    HW110118   1.597   2.685   4.128
 3073SOL    HW210119   1.734   2.608   4.174
 3074SOL     OW10120   4.914   3.485   5.965
 3074SOL    HW110121   4.834   3.536   5.996
 3074SOL    HW210122   4.994   3.514   6.017
 3075SOL     OW10123   0.611   5.818   1.426
 3075SOL    HW110124   0.652   5.908   1.412
 3075SOL    HW210125   0.623   5.790   1.521
 3076SOL     OW10126   0.559   0.265   4.853
 3076SOL    HW110127   0.595   0.210   4.929
 3076SOL    HW210128   0.592   0.359   4.861
 3077SOL     OW10129   5.272   4.470   3.745
 3077SOL    HW110130   5.176   4.489   3.763
 3077SOL    HW210131   5.303   4.396   3.804
 3078SOL     OW10132   2.476   3.158   0.531
 3078SOL    HW110133   2.425   3.098   0.593
 3078SOL    HW210134   2.421   3.175   0.449
 3079SOL     OW10135   5.786   2.957   6.419
 3079SOL    HW110136   5.739   3.029   6.470
 3079SOL    HW210137   5.753   2.868   6.450
 3080SOL     OW10138   5.729   5.883   1.003
 3080SOL    HW110139   5.676   5.948   1.057
 3080SOL    HW210140   5.823   5.880   1.038
 3081SOL     OW10141   6.679   5.208   5.854
 3081SOL    HW110142   6.712   5.115   5.841
 3081SOL    HW210143   6.598   5.224   5.797
 3082SOL     OW10144   2.001   0.215   2.633
 3082SOL    HW110145   1.956   0.127   2.648
 3082SOL    HW210146   2.083   0.201   2.578
 3083SOL     OW10147   3.277   0.839   2.110
 3083SOL    HW110148   3.271   0.860   2.013
 3083SOL    HW210149   3.315   0.748   2.123
 3084SOL     OW10150   4.680   6.440   4.434
 3084SOL    HW110151   4.636   6.374   4.374
 3084SOL    HW210152   4.610   6.497   4.478
 3085SOL     OW10153   0.702   6.081   1.436
 3085SOL    HW110154   0.773   6.135   1.390
 3085SOL    HW210155   0.612   6.119   1.413
 3086SOL     OW10156   5.848   1.612   4.018
 3086SOL    HW110157   5.898   1.542   4.068
 3086SOL    HW210158   5.902   1.641   3.939
 3087SOL     OW10159   5.765   3.223   2.728
 3087SOL    HW110160   5.685   3.254   2.781
 3087SOL    HW210161   5.790   3.294   2.662
 3088SOL     OW10162   2.945   4.107   5.882
 3088SOL    HW110163   2.986   4.122   5.792
 3088SOL    HW210164   2.977   4.020   5.919
 3089SOL     OW10165   2.135   2.501   0.663
 3089SOL    HW110166   2.183   2.466   0.744
 3089SOL    HW210167   2.070   2.572   0.691
 3090SOL     OW10168   0.722   1.358   1.246
 3090SOL    HW110169   0.707   1.421   1.322
 3090SOL    HW210170   0.817   1.364   1.216
 3091SOL     OW10171   2.657   0.316   0.798
 3091SOL    HW110172   2.604   0.234   0.776
 3091SOL    HW210173   2.613   0.396   0.757
 3092SOL     OW10174   3.938   6.219   0.914
 3092SOL    HW110175   3.867   6.204   0.845
 3092SOL    HW210176   3.941   6.142   0.977
 3093SOL     OW10177   5.108   5.736   3.569
 3093SOL    HW110178   5.151   5.751   3.658
 3093SOL    HW210179   5.092   5.824   3.524
 3094SOL     OW10180   3.419   4.948   5.488
 3094SOL    HW110181   3.415   4.968   5.390
 3094SOL    HW210182   3.451   4.855   5.501
 3095SOL     OW10183   2.612   4.630   4.386
 3095SOL    HW110184   2.688   4.680   4.427
 3095SOL    HW210185   2.580   4.560   4.450
 3096SOL     OW10186   0.176   0.754   5.178
 3096SOL    HW110187   0.105   0.711   5.122
 3096SOL    HW210188   0.134   0.796   5.259
 3097SOL     OW10189   1.776   2.913   0.296
 3097SOL    HW110190   1.699   2.869   0.342
 3097SOL    HW210191   1.743   2.986   0.236
 3098SOL     OW10192   4.169   2.200   0.579
 3098SOL    HW110193   4.175   2.287   0.530
 3098SOL    HW210194   4.127   2.131   0.520
 3099SOL     OW10195   1.297   5.968   4.904
 3099SOL    HW110196   1.273   6.064   4.915
 3099SOL    HW210197   1.226   5.911   4.944
 3100SOL     OW10198   6.314   5.841   0.187
 3100SOL    HW110199   6.396   5.875   0.234
 3100SOL    HW210200   6.232   5.869   0.237
 3101SOL     OW10201   4.341   6.820   1.081
 3101SOL    HW110202   4.433   6.853   1.057
 3101SOL    HW210203   4.273   6.887   1.052
 3102SOL     OW10204   0.946   5.460   0.625
 3102SOL    HW110205   0.937   5.552   0.663
 3102SOL    HW210206   1.040   5.428   0.637
 3103SOL     OW10207   4.174   3.850   1.886
 3103SOL    HW110208   4.099   3.893   1.834
 3103SOL    HW210209   4.248   3.917   1.898
 3104SOL     OW10210   6.731   5.020   3.758
 3104SOL    HW110211   6.821   4.980   3.778
 3104SOL    HW210212   6.664   4.946   3.749
 3105SOL     OW10213   6.472   6.111   3.649
 3105SOL    HW110214   6.443   6.197   3.691
 3105SOL    HW210215   6.415   6.093   3.569
 3106SOL     OW10216   6.737   3.093   4.448
 3106SOL    HW110217   6.657   3.050   4.405
 3106SOL    HW210218   6.814   3.093   4.383
 3107SOL     OW10219   2.784   0.242   3.542
 3107SOL    HW110220   2.797   0.149   3.509
 3107SOL    HW210221   2.758   0.241   3.638
 3108SOL     OW10222   3.118   0.528   3.133
 3108SOL    HW110223   3.084   0.434   3.132
 3108SOL    HW210224   3.208   0.531   3.088
 3109SOL     OW10225   4.852   6.071   3.262
 3109SOL    HW110226   4.872   6.013   3.183
 3109SOL    HW210227   4.886   6.163   3.244
 3110SOL     OW10228   0.776   2.816   2.052
 3110SOL    HW110229   0.778   2.814   2.152
 3110SOL    HW210230   0.728   2.735   2.018
 3111SOL     OW10231   6.524   4.793   3.670
 3111SOL    HW110232   6.464   4.809   3.592
 3111SOL    HW210233   6.494   4.711   3.719
 3112SOL     OW10234   3.133   3.695   6.602
 3112SOL    HW110235   3.219   3.669   6.646
 3112SOL    HW210236   3.057   3.651   6.650
 3113SOL     OW10237   4.236   0.160   3.922
 3113SOL    HW110238   4.275   0.074   3.892
 3113SOL    HW210239   4.289   0.236   3.884
 3114SOL     OW10240   5.317   5.359   0.899
 3114SOL    HW110241   5.374   5.399   0.827
 3114SOL    HW210242   5.369   5.288   0.947
 3115SOL     OW10243   2.648   3.448   1.756
 3115SOL    HW110244   2.721   3.421   1.819
 3115SOL    HW210245   2.566   3.470   1.809
 3116SOL     OW10246   6.836   1.764   6.538
 3116SOL    HW110247   6.759   1.794   6.482
 3116SOL    HW210248   6.842   1.823   6.619
 3117SOL     OW10249   3.973   3.871   5.329
 3117SOL    HW110250   3.939   3.951   5.377
 3117SOL    HW210251   3.902   3.833   5.270
 3118SOL     OW10252   6.001   5.156   0.478
 3118SOL    HW110253   5.945   5.076   0.456
 3118SOL    HW210254   6.054   5.184   0.398
 3119SOL     OW10255   1.901   4.913   5.851
 3119SOL    HW110256   1.967   4.900   5.777
 3119SOL    HW210257   1.936   4.982   5.915
 3120SOL     OW10258   2.821   5.872   5.792
 3120SOL    HW110259   2.798   5.796   5.732
 3120SOL    HW210260   2.761   5.871   5.872
 3121SOL     OW10261   0.558   5.947   3.138
 3121SOL    HW110262   0.645   5.977   3.099
 3121SOL    HW210263   0.483   5.990   3.088
 3122SOL     OW10264   2.529   5.031   0.898
 3122SOL    HW110265   2.584   5.018   0.815
 3122SOL    HW210266   2.555   4.962   0.966
 3123SOL     OW10267   3.918   6.477   4.986
 3123SOL    HW110268   4.005   6.457   4.942
 3123SOL    HW210269   3.888   6.398   5.039
 3124SOL     OW10270   3.671   0.158   5.918
 3124SOL    HW110271   3.608   0.227   5.883
 3124SOL    HW210272   3.761   0.171   5.875
 3125SOL     OW10273   6.847   2.281   5.536
 3125SOL    HW110274   6.933   2.236   5.509
 3125SOL    HW210275   6.831   2.267   5.633
 3126SOL     OW10276   3.776   6.694   0.340
 3126SOL    HW110277   3.800   6.635   0.417
 3126SOL    HW210278   3.816   6.785   0.354
 3127SOL     OW10279   1.748   1.143   3.925
 3127SOL    HW110280   1.804   1.108   3.850
 3127SOL    HW210281   1.762   1.241   3.935
 3128SOL     OW10282   1.186   0.842   6.942
 3128SOL    HW110283   1.091   0.849   6.972
 3128SOL    HW210284   1.197   0.759   6.887
 3129SOL     OW10285   1.771   2.505   4.004
 3129SOL    HW110286   1.801   2.592   3.966
 3129SOL    HW210287   1.835   2.433   3.977
 3130SOL     OW10288   2.240   5.538   3.143
 3130SOL    HW110289   2.252   5.591   3.227
 3130SOL    HW210290   2.146   5.547   3.111
 3131SOL     OW10291   0.169   3.062   3.642
 3131SOL    HW110292   0.157   2.992   3.712
 3131SOL    HW210293   0.233   3.029   3.572
 3132SOL     OW10294   5.004   6.051   5.020
 3132SOL    HW110295   4.988   6.059   4.921
 3132SOL    HW210296   5.098   6.020   5.035
 3133SOL     OW10297   2.433   1.858   2.759
 3133SOL    HW110298   2.374   1.824   2.833
 3133SOL    HW210299   2.483   1.938   2.790
 3134SOL     OW10300   5.168   3.386   2.175
 3134SOL    HW110301   5.260   3.399   2.137
 3134SOL    HW210302   5.149   3.289   2.184
 3135SOL     OW10303   2.944   1.683   3.141
 3135SOL    HW110304   2.953   1.662   3.044
 3135SOL    HW210305   2.858   1.732   3.157
 3136SOL     OW10306   6.301   6.405   5.446
 3136SOL    HW110307   6.267   6.414   5.352
 3136SOL    HW210308   6.389   6.452   5.454
 3137SOL     OW10309   6.602   2.234   4.538
 3137SOL    HW110310   6.619   2.158   4.601
 3137SOL    HW210311   6.516   2.279   4.562
 3138SOL     OW10312   4.909   1.661   4.622
 3138SOL    HW110313   4.813   1.688   4.616
 3138SOL    HW210314   4.958   1.696   4.542
 3139SOL     OW10315   4.961   6.680   5.307
 3139SOL    HW110316   4.965   6.674   5.207
 3139SOL    HW210317   4.889   6.619   5.341
 3140SOL     OW10318   6.427   6.015   6.457
 3140SOL    HW110319   6.456   5.955   6.382
 3140SOL    HW210320   6.362   5.966   6.515
 3141SOL     OW10321   1.008   5.121   0.636
 3141SOL    HW110322   0.941   5.122   0.562
 3141SOL    HW210323   0.961   5.122   0.724
 3142SOL     OW10324   3.367   0.035   6.361
 3142SOL    HW110325   3.418   0.047   6.447
 3142SOL    HW210326   3.431   0.017   6.287
 3143SOL     OW10327   0.164   1.434   0.449
 3143SOL    HW110328   0.247   1.490   0.454
 3143SOL    HW210329   0.158   1.376   0.530
 3144SOL     OW10330   1.816   3.572   6.029
 3144SOL    HW110331   1.846   3.655   5.983
 3144SOL    HW210332   1.772   3.597   6.116
 3145SOL     OW10333   3.871   6.127   3.976
 3145SOL    HW110334   3.859   6.147   4.074
 3145SOL    HW210335   3.795   6.166   3.925
 3146SOL     OW10336   2.329   0.809   3.734
 3146SOL    HW110337   2.278   0.815   3.649
 3146SOL    HW210338   2.387   0.728   3.733
 3147SOL     OW10339   3.804   4.104   0.650
 3147SOL    HW110340   3.804   4.194   0.606
 3147SOL    HW210341   3.895   4.063   0.641
 3148SOL     OW10342   3.663   5.286   5.389
 3148SOL    HW110343   3.686   5.376   5.353
 3148SOL    HW210344   3.571   5.288   5.429
 3149SOL     OW10345   3.000   6.361   6.278
 3149SOL    HW110346   2.908   6.369   6.317
 3149SOL    HW210347   2.998   6.387   6.182
 3150SOL     OW10348   6.929   6.902   3.901
 3150SOL    HW110349   6.946   6.874   3.995
 3150SOL    HW210350   6.938   6.823   3.840
 3151SOL     OW10351   3.666   0.131   0.369
 3151SOL    HW110352   3.745   0.113   0.428
 3151SOL    HW210353   3.686   0.100   0.276
 3152SOL     OW10354   1.483   5.194   6.891
 3152SOL    HW110355   1.445   5.112   6.933
 3152SOL    HW210356   1.522   5.253   6.962
 3153SOL     OW10357   6.921   4.242   2.306
 3153SOL    HW110358   6.935   4.334   2.341
 3153SOL    HW210359   6.969   4.176   2.365
 3154SOL     OW10360   5.847   2.234   6.732
 3154SOL    HW110361   5.865   2.306   6.799
 3154SOL    HW210362   5.781   2.169   6.770
 3155SOL     OW10363   4.328   6.323   0.054
 3155SOL    HW110364   4.232   6.345   0.074
 3155SOL    HW210365   4.380   6.408   0.044
 3156SOL     OW10366   3.725   3.396   3.184
 3156SOL    HW110367   3.794   3.450   3.233
 3156SOL    HW210368   3.695   3.321   3.243
 3157SOL     OW10369   1.847   2.544   4.676
 3157SOL    HW110370   1.782   2.576   4.607
 3157SOL    HW210371   1.799   2.533   4.763
 3158SOL     OW10372   3.946   6.006   1.087
 3158SOL    HW110373   4.004   5.927   1.106
 3158SOL    HW210374   3.946   6.068   1.166
 3159SOL     OW10375   5.729   4.397   0.565
 3159SOL    HW110376   5.757   4.421   0.472
 3159SOL    HW210377   5.639   4.438   0.584
 3160SOL     OW10378   5.456   5.040   0.436
 3160SOL    HW110379   5.511   4.958   0.422
 3160SOL    HW210380   5.360   5.019   0.415
 3161SOL     OW10381   0.559   1.969   2.519
 3161SOL    HW110382   0.491   1.945   2.450
 3161SOL    HW210383   0.530   2.051   2.568
 3162SOL     OW10384   6.153   6.967   5.799
 3162SOL    HW110385   6.159   6.938   5.895
 3162SOL    HW210386   6.235   7.018   5.775
 3163SOL     OW10387   2.547   4.593   5.121
 3163SOL    HW110388   2.619   4.591   5.052
 3163SOL    HW210389   2.572   4.534   5.198
 3164SOL     OW10390   6.046   5.820   6.152
 3164SOL    HW110391   6.084   5.739   6.107
 3164SOL    HW210392   5.956   5.797   6.190
 3165SOL     OW10393   0.069   2.869   1.192
 3165SOL    HW110394   7.025   2.799   1.207
 3165SOL    HW210395   0.101   2.905   1.279
 3166SOL     OW10396   5.200   2.981   6.332
 3166SOL    HW110397   5.199   2.969   6.233
 3166SOL    HW210398   5.202   2.891   6.376
 3167SOL     OW10399   0.483   4.266   2.187
 3167SOL    HW110400   0.460   4.357   2.153
 3167SOL    HW210401   0.407   4.231   2.242
 3168SOL     OW10402   4.855   3.445   0.631
 3168SOL    HW110403   4.898   3.379   0.693
 3168SOL    HW210404   4.926   3.497   0.584
 3169SOL     OW10405   1.993   1.847   5.108
 3169SOL    HW110406   1.978   1.874   5.013
 3169SOL    HW210407   1.910   1.806   5.145
 3170SOL     OW10408   4.733   1.000   5.972
 3170SOL    HW110409   4.696   1.059   6.044
 3170SOL    HW210410   4.669   0.998   5.895
 3171SOL     OW10411   6.328   0.183   3.208
 3171SOL    HW110412   6.315   0.248   3.133
 3171SOL    HW210413   6.242   0.135   3.226
 3172SOL     OW10414   5.880   0.474   6.209
 3172SOL    HW110415   5.950   0.413   6.244
 3172SOL    HW210416   5.790   0.441   6.237
 3173SOL     OW10417   1.990   1.457   1.691
 3173SOL    HW110418   1.985   1.550   1.728
 3173SOL    HW210419   2.078   1.444   1.645
 3174SOL     OW10420   2.067   3.381   6.413
 3174SOL    HW110421   2.040   3.385   6.317
 3174SOL    HW210422   2.041   3.292   6.451
 3175SOL     OW10423   6.978   5.814   0.750
 3175SOL    HW110424   0.021   5.749   0.715
 3175SOL    HW210425   6.904   5.824   0.684
 3176SOL     OW10426   1.391   5.905   6.231
 3176SOL    HW110427   1.409   6.000   6.255
 3176SOL    HW210428   1.477   5.855   6.225
 3177SOL     OW10429   0.860   6.884   4.104
 3177SOL    HW110430   0.899   6.893   4.012
 3177SOL    HW210431   0.933   6.892   4.172
 3178SOL     OW10432   2.526   3.458   0.582
 3178SOL    HW110433   2.626   3.464   0.581
 3178SOL    HW210434   2.498   3.364   0.562
 3179SOL     OW10435   1.179   2.488   3.345
 3179SOL    HW110436   1.125   2.514   3.424
 3179SOL    HW210437   1.189   2.566   3.284
 3180SOL     OW10438   5.547   1.561   6.276
 3180SOL    HW110439   5.578   1.609   6.194
 3180SOL    HW210440   5.452   1.534   6.265
 3181SOL     OW10441   0.475   1.434   3.075
 3181SOL    HW110442   0.389   1.388   3.052
 3181SOL    HW210443   0.550   1.369   3.074
 3182SOL     OW10444   1.579   5.096   5.419
 3182SOL    HW110445   1.667   5.091   5.466
 3182SOL    HW210446   1.592   5.085   5.321
 3183SOL     OW10447   5.060   3.143   1.050
 3183SOL    HW110448   5.001   3.195   1.111
 3183SOL    HW210449   5.126   3.090   1.104
 3184SOL     OW10450   1.334   1.440   3.306
 3184SOL    HW110451   1.311   1.365   3.367
 3184SOL    HW210452   1.427   1.472   3.325
 3185SOL     OW10453   0.339   6.364   6.438
 3185SOL    HW110454   0.280   6.422   6.382
 3185SOL    HW210455   0.435   6.383   6.416
 3186SOL     OW10456   3.472   0.832   1.524
 3186SOL    HW110457   3.555   0.882   1.501
 3186SOL    HW210458   3.464   0.824   1.623
 3187SOL     OW10459   2.978   4.294   0.007
 3187SOL    HW110460   2.902   4.229   0.012
 3187SOL    HW210461   2.993   4.334   0.098
 3188SOL     OW10462   4.639   7.022   3.229
 3188SOL    HW110463   4.590   0.059   3.290
 3188SOL    HW210464   4.579   6.993   3.154
 3189SOL     OW10465   6.878   6.796   1.614
 3189SOL    HW110466   6.784   6.829   1.623
 3189SOL    HW210467   6.892   6.718   1.676
 3190SOL     OW10468   0.604   6.798   1.328
 3190SOL    HW110469   0.562   6.710   1.351
 3190SOL    HW210470   0.536   6.870   1.333
 3191SOL     OW10471   2.893   0.341   0.621
 3191SOL    HW110472   2.848   0.418   0.575
 3191SOL    HW210473   2.825   0.273   0.646
 3192SOL     OW10474   5.611   2.194   3.759
 3192SOL    HW110475   5.525   2.234   3.728
 3192SOL    HW210476   5.658   2.152   3.681
 3193SOL     OW10477   4.624   4.228   0.731
 3193SOL    HW110478   4.577   4.289   0.796
 3193SOL    HW210479   4.696   4.178   0.779
 3194SOL     OW10480   1.990   4.644   5.309
 3194SOL    HW110481   1.893   4.650   5.332
 3194SOL    HW210482   2.033   4.733   5.323
 3195SOL     OW10483   0.998   3.803   3.213
 3195SOL    HW110484   1.044   3.714   3.223
 3195SOL    HW210485   1.065   3.870   3.180
 3196SOL     OW10486   0.094   6.706   5.353
 3196SOL    HW110487   0.187   6.675   5.375
 3196SOL    HW210488   0.029   6.664   5.418
 3197SOL     OW10489   0.420   3.923   4.244
 3197SOL    HW110490   0.486   3.883   4.307
 3197SOL    HW210491   0.362   3.851   4.206
 3198SOL     OW10492   5.575   6.635   0.464
 3198SOL    HW110493   5.533   6.559   0.514
 3198SOL    HW210494   5.591   6.711   0.526
 3199SOL     OW10495   3.475   1.519   3.080
 3199SOL    HW110496   3.535   1.515   3.000
 3199SOL    HW210497   3.473   1.612   3.116
 3200SOL     OW10498   0.248   2.054   0.553
 3200SOL    HW110499   0.234   2.029   0.457
 3200SOL    HW210500   0.223   1.977   0.612
 3201SOL     OW10501   4.725   4.177   2.932
 3201SOL    HW110502   4.715   4.144   2.838
 3201SOL    HW210503   4.644   4.229   2.958
 3202SOL     OW10504   1.059   5.918   1.994
 3202SOL    HW110505   0.984   5.962   1.946
 3202SOL    HW210506   1.037   5.821   2.008
 3203SOL     OW10507   4.805   0.426   1.110
 3203SOL    HW110508   4.839   0.414   1.203
 3203SOL    HW210509   4.846   0.507   1.069
 3204SOL     OW10510   6.359   6.123   2.001
 3204SOL    HW110511   6.265   6.142   1.972
 3204SOL    HW210512   6.421   6.191   1.961
 3205SOL     OW10513   0.827   4.066   3.328
 3205SOL    HW110514   0.736   4.106   3.316
 3205SOL    HW210515   0.887   4.097   3.255
 3206SOL     OW10516   1.703   6.496   0.460
 3206SOL    HW110517   1.715   6.399   0.482
 3206SOL    HW210518   1.757   6.551   0.523
 3207SOL     OW10519   0.680   1.225   2.398
 3207SOL    HW110520   0.626   1.154   2.355
 3207SOL    HW210521   0.624   1.276   2.463
 3208SOL     OW10522   6.337   0.707   4.757
 3208SOL    HW110523   6.241   0.692   4.731
 3208SOL    HW210524   6.354   0.664   4.845
 3209SOL     OW10525   2.140   0.007   2.848
 3209SOL    HW110526   2.201   0.069   2.898
 3209SOL    HW210527   2.048   0.012   2.887
 3210SOL     OW10528   0.422   4.928   2.116
 3210SOL    HW110529   0.473   5.000   2.164
 3210SOL    HW210530   0.459   4.839   2.142
 3211SOL     OW10531   1.139   3.826   2.746
 3211SOL    HW110532   1.158   3.736   2.786
 3211SOL    HW210533   1.224   3.866   2.711
 3212SOL     OW10534   5.032   3.092   5.431
 3212SOL    HW110535   5.053   3.185   5.462
 3212SOL    HW210536   5.117   3.042   5.415
 3213SOL     OW10537   4.853   6.983   1.347
 3213SOL    HW110538   4.774   0.017   1.332
 3213SOL    HW210539   4.874   6.979   1.445
 3214SOL     OW10540   4.062   4.185   6.304
 3214SOL    HW110541   3.974   4.142   6.281
 3214SOL    HW210542   4.121   4.118   6.349
 3215SOL     OW10543   6.109   1.229   0.284
 3215SOL    HW110544   6.135   1.134   0.302
 3215SOL    HW210545   6.066   1.234   0.194
 3216SOL     OW10546   6.365   6.616   4.887
 3216SOL    HW110547   6.460   6.647   4.884
 3216SOL    HW210548   6.337   6.585   4.796
 3217SOL     OW10549   6.895   4.209   0.149
 3217SOL    HW110550   6.888   4.241   0.243
 3217SOL    HW210551   6.975   4.149   0.141
 3218SOL     OW10552   3.435   1.531   1.954
 3218SOL    HW110553   3.465   1.612   1.904
 3218SOL    HW210554   3.360   1.555   2.015
 3219SOL     OW10555   0.088   6.562   4.015
 3219SOL    HW110556   0.174   6.613   4.022
 3219SOL    HW210557   0.095   6.479   4.071
 3220SOL     OW10558   5.463   2.753   6.308
 3220SOL    HW110559   5.532   2.713   6.368
 3220SOL    HW210560   5.380   2.697   6.309
 3221SOL     OW10561   3.751   0.677   2.494
 3221SOL    HW110562   3.819   0.604   2.503
 3221SOL    HW210563   3.779   0.756   2.548
 3222SOL     OW10564   6.261   3.983   2.093
 3222SOL    HW110565   6.333   3.918   2.114
 3222SOL    HW210566   6.180   3.962   2.149
 3223SOL     OW10567   2.468   4.660   3.864
 3223SOL    HW110568   2.442   4.580   3.919
 3223SOL    HW210569   2.430   4.743   3.905
 3224SOL     OW10570   3.145   5.866   1.511
 3224SOL    HW110571   3.205   5.859   1.431
 3224SOL    HW210572   3.052   5.885   1.481
 3225SOL     OW10573   1.796   2.892   1.144
 3225SOL    HW110574   1.808   2.801   1.183
 3225SOL    HW210575   1.729   2.943   1.198
 3226SOL     OW10576   0.353   0.551   3.845
 3226SOL    HW110577   0.266   0.598   3.830
 3226SOL    HW210578   0.420   0.616   3.880
 3227SOL     OW10579   2.082   1.764   5.351
 3227SOL    HW110580   2.181   1.753   5.348
 3227SOL    HW210581   2.047   1.776   5.258
 3228SOL     OW10582   4.982   3.237   4.414
 3228SOL    HW110583   4.922   3.283   4.478
 3228SOL    HW210584   4.970   3.276   4.323
 3229SOL     OW10585   4.683   1.672   5.323
 3229SOL    HW110586   4.687   1.649   5.421
 3229SOL    HW210587   4.774   1.700   5.292
 3230SOL     OW10588   1.521   0.505   4.203
 3230SOL    HW110589   1.557   0.458   4.284
 3230SOL    HW210590   1.490   0.436   4.136
 3231SOL     OW10591   4.796   5.008   0.108
 3231SOL    HW110592   4.802   4.908   0.108
 3231SOL    HW210593   4.766   5.040   0.197
 3232SOL     OW10594   2.029   4.232   3.277
 3232SOL    HW110595   2.087   4.157   3.309
 3232SOL    HW210596   2.026   4.304   3.346
 3233SOL     OW10597   1.627   3.971   0.067
 3233SOL    HW110598   1.702   4.021   0.023
 3233SOL    HW210599   1.659   3.931   0.153
 3234SOL     OW10600   6.453   2.398   5.116
 3234SOL    HW110601   6.384   2.457   5.074
 3234SOL    HW210602   6.539   2.407   5.066
 3235SOL     OW10603   5.157   0.927   2.305
 3235SOL    HW110604   5.247   0.925   2.262
 3235SOL    HW210605   5.096   0.986   2.251
 3236SOL     OW10606   0.093   3.012   1.430
 3236SOL    HW110607   0.017   3.064   1.390
 3236SOL    HW210608   0.069   2.985   1.523
 3237SOL     OW10609   3.104   6.369   4.735
 3237SOL    HW110610   3.192   6.414   4.720
 3237SOL    HW210611   3.056   6.359   4.648
 3238SOL     OW10612   6.305   6.223   6.341
 3238SOL    HW110613   6.208   6.200   6.347
 3238SOL    HW210614   6.354   6.179   6.417
 3239SOL     OW10615   0.649   6.261   5.302
 3239SOL    HW110616   0.736   6.308   5.291
 3239SOL    HW210617   0.662   6.180   5.359
 3240SOL     OW10618   0.223   2.160   5.003
 3240SOL    HW110619   0.180   2.239   4.958
 3240SOL    HW210620   0.262   2.100   4.934
 3241SOL     OW10621   4.676   6.817   5.372
 3241SOL    HW110622   4.748   6.868   5.325
 3241SOL    HW210623   4.712   6.729   5.403
 3242SOL     OW10624   3.214   6.841   0.617
 3242SOL    HW110625   3.301   6.874   0.581
 3242SOL    HW210626   3.152   6.918   0.630
 3243SOL     OW10627   3.367   5.421   1.183
 3243SOL    HW110628   3.452   5.369   1.185
 3243SOL    HW210629   3.325   5.413   1.093
 3244SOL     OW10630   1.046   6.492   5.590
 3244SOL    HW110631   0.984   6.414   5.603
 3244SOL    HW210632   1.041   6.523   5.495
 3245SOL     OW10633   3.173   1.913   5.922
 3245SOL    HW110634   3.168   1.821   5.883
 3245SOL    HW210635   3.265   1.950   5.908
 3246SOL     OW10636   5.610   6.550   4.023
 3246SOL    HW110637   5.562   6.466   4.001
 3246SOL    HW210638   5.625   6.603   3.940
 3247SOL     OW10639   6.332   2.990   5.359
 3247SOL    HW110640   6.247   2.939   5.372
 3247SOL    HW210641   6.409   2.936   5.392
 3248SOL     OW10642   5.220   3.815   2.658
 3248SOL    HW110643   5.160   3.864   2.722
 3248SOL    HW210644   5.173   3.735   2.622
 3249SOL     OW10645   3.175   4.730   5.673
 3249SOL    HW110646   3.149   4.640   5.706
 3249SOL    HW210647   3.162   4.798   5.745
 3250SOL     OW10648   4.673   5.514   1.578
 3250SOL    HW110649   4.701   5.438   1.636
 3250SOL    HW210650   4.717   5.506   1.488
 3251SOL     OW10651   3.784   0.559   3.575
 3251SOL    HW110652   3.830   0.613   3.645
 3251SOL    HW210653   3.686   0.558   3.593
 3252SOL     OW10654   3.405   2.090   3.387
 3252SOL    HW110655   3.334   2.128   3.447
 3252SOL    HW210656   3.362   2.052   3.305
 3253SOL     OW10657   4.964   4.281   1.220
 3253SOL    HW110658   4.999   4.361   1.269
 3253SOL    HW210659   4.875   4.256   1.256
 3254SOL     OW10660   6.140   4.043   2.429
 3254SOL    HW110661   6.089   4.055   2.514
 3254SOL    HW210662   6.167   3.947   2.418
 3255SOL     OW10663   4.255   5.310   0.924
 3255SOL    HW110664   4.235   5.405   0.904
 3255SOL    HW210665   4.245   5.293   1.022
 3256SOL     OW10666   6.131   6.473   5.831
 3256SOL    HW110667   6.184   6.417   5.768
 3256SOL    HW210668   6.116   6.564   5.790
 3257SOL     OW10669   1.982   1.770   1.042
 3257SOL    HW110670   1.975   1.674   1.070
 3257SOL    HW210671   2.012   1.775   0.947
 3258SOL     OW10672   4.718   6.761   1.679
 3258SOL    HW110673   4.645   6.715   1.628
 3258SOL    HW210674   4.775   6.692   1.724
 3259SOL     OW10675   6.125   6.203   3.340
 3259SOL    HW110676   6.108   6.196   3.242
 3259SOL    HW210677   6.198   6.141   3.366
 3260SOL     OW10678   1.598   1.672   0.774
 3260SOL    HW110679   1.564   1.761   0.802
 3260SOL    HW210680   1.662   1.682   0.698
 3261SOL     OW10681   4.538   6.752   3.661
 3261SOL    HW110682   4.619   6.699   3.688
 3261SOL    HW210683   4.552   6.791   3.570
 3262SOL     OW10684   3.610   1.523   4.020
 3262SOL    HW110685   3.531   1.485   3.974
 3262SOL    HW210686   3.680   1.547   3.952
 3263SOL     OW10687   3.770   4.977   2.931
 3263SOL    HW110688   3.754   4.999   3.027
 3263SOL    HW210689   3.815   4.888   2.924
 3264SOL     OW10690   4.873   4.859   5.921
 3264SOL    HW110691   4.808   4.909   5.863
 3264SOL    HW210692   4.941   4.923   5.957
 3265SOL     OW10693   5.275   6.914   6.232
 3265SOL    HW110694   5.214   6.938   6.156
 3265SOL    HW210695   5.369   6.911   6.199
 3266SOL     OW10696   1.212   2.679   6.716
 3266SOL    HW110697   1.291   2.631   6.678
 3266SOL    HW210698   1.219   2.777   6.697
 3267SOL     OW10699   5.023   3.180   1.782
 3267SOL    HW110700   4.954   3.112   1.758
 3267SOL    HW210701   5.013   3.205   1.878
 3268SOL     OW10702   1.733   4.913   6.619
 3268SOL    HW110703   1.809   4.956   6.570
 3268SOL    HW210704   1.759   4.820   6.645
 3269SOL     OW10705   4.717   3.656   0.694
 3269SOL    HW110706   4.651   3.628   0.763
 3269SOL    HW210707   4.766   3.576   0.659
 3270SOL     OW10708   0.266   5.162   3.884
 3270SOL    HW110709   0.325   5.083   3.904
 3270SOL    HW210710   0.180   5.152   3.934
 3271SOL     OW10711   4.775   0.320   2.111
 3271SOL    HW110712   4.869   0.330   2.145
 3271SOL    HW210713   4.778   0.289   2.016
 3272SOL     OW10714   4.827   6.630   6.580
 3272SOL    HW110715   4.873   6.660   6.664
 3272SOL    HW210716   4.882   6.654   6.501
 3273SOL     OW10717   1.040   0.869   3.168
 3273SOL    HW110718   0.964   0.804   3.170
 3273SOL    HW210719   1.115   0.830   3.115
 3274SOL     OW10720   2.885   1.513   6.455
 3274SOL    HW110721   2.808   1.503   6.518
 3274SOL    HW210722   2.954   1.573   6.497
 3275SOL     OW10723   4.359   1.036   7.016
 3275SOL    HW110724   4.276   1.058   0.042
 3275SOL    HW210725   4.336   0.977   6.938
 3276SOL     OW10726   2.006   6.099   0.228
 3276SOL    HW110727   2.023   6.036   0.152
 3276SOL    HW210728   1.914   6.083   0.264
 3277SOL     OW10729   6.827   6.245   6.355
 3277SOL    HW110730   6.859   6.338   6.375
 3277SOL    HW210731   6.729   6.248   6.332
 3278SOL     OW10732   0.927   0.913   7.008
 3278SOL    HW110733   0.941   0.997   0.036
 3278SOL    HW210734   0.861   0.854   0.030
 3279SOL     OW10735   1.888   6.435   0.903
 3279SOL    HW110736   1.795   6.424   0.868
 3279SOL    HW210737   1.915   6.353   0.954
 3280SOL     OW10738   2.705   6.403   4.352
 3280SOL    HW110739   2.667   6.495   4.345
 3280SOL    HW210740   2.684   6.352   4.268
 3281SOL     OW10741   2.299   6.014   0.606
 3281SOL    HW110742   2.391   5.974   0.608
 3281SOL    HW210743   2.297   6.089   0.540
 3282SOL     OW10744   2.092   5.286   2.497
 3282SOL    HW110745   2.025   5.285   2.572
 3282SOL    HW210746   2.053   5.333   2.418
 3283SOL     OW10747   2.315   6.727   3.748
 3283SOL    HW110748   2.229   6.688   3.714
 3283SOL    HW210749   2.374   6.654   3.782
 3284SOL     OW10750   1.151   4.972   5.638
 3284SOL    HW110751   1.163   5.017   5.726
 3284SOL    HW210752   1.111   5.037   5.573
 3285SOL     OW10753   0.300   2.691   4.086
 3285SOL    HW110754   0.384   2.729   4.048
 3285SOL    HW210755   0.228   2.696   4.017
 3286SOL     OW10756   4.470   4.552   6.417
 3286SOL    HW110757   4.491   4.521   6.325
 3286SOL    HW210758   4.550   4.599   6.456
 3287SOL     OW10759   0.243   3.556   1.591
 3287SOL    HW110760   0.307   3.624   1.555
 3287SOL    HW210761   0.184   3.598   1.660
 3288SOL     OW10762   0.974   0.109   6.560
 3288SOL    HW110763   1.047   0.161   6.604
 3288SOL    HW210764   1.007   0.016   6.540
 3289SOL     OW10765   1.371   6.225   4.351
 3289SOL    HW110766   1.357   6.239   4.253
 3289SOL    HW210767   1.331   6.302   4.401
 3290SOL     OW10768   0.078   4.806   3.314
 3290SOL    HW110769   0.148   4.878   3.309
 3290SOL    HW210770   0.034   4.796   3.225
 3291SOL     OW10771   1.662   0.522   2.198
 3291SOL    HW110772   1.643   0.522   2.100
 3291SOL    HW210773   1.755   0.487   2.214
 3292SOL     OW10774   0.800   5.455   4.938
 3292SOL    HW110775   0.712   5.501   4.932
 3292SOL    HW210776   0.828   5.449   5.034
 3293SOL     OW10777   6.007   0.948   3.237
 3293SOL    HW110778   6.061   0.869   3.209
 3293SOL    HW210779   5.952   0.924   3.317
 3294SOL     OW10780   0.368   6.834   1.064
 3294SOL    HW110781   0.449   6.795   1.020
 3294SOL    HW210782   0.300   6.762   1.079
 3295SOL     OW10783   2.129   2.283   6.231
 3295SOL    HW110784   2.102   2.313   6.140
 3295SOL    HW210785   2.205   2.338   6.263
 3296SOL     OW10786   0.701   6.686   2.494
 3296SOL    HW110787   0.684   6.716   2.400
 3296SOL    HW210788   0.728   6.765   2.549
 3297SOL     OW10789   3.089   1.319   5.942
 3297SOL    HW110790   3.164   1.271   5.898
 3297SOL    HW210791   3.125   1.394   5.997
 3298SOL     OW10792   6.972   4.500   2.361
 3298SOL    HW110793   6.967   4.600   2.362
 3298SOL    HW210794   0.042   4.471   2.351
 3299SOL     OW10795   0.932   1.601   4.625
 3299SOL    HW110796   1.028   1.577   4.612
 3299SOL    HW210797   0.920   1.650   4.711
 3300SOL     OW10798   6.995   0.042   5.198
 3300SOL    HW110799   0.061   0.080   5.181
 3300SOL    HW210800   6.953   0.089   5.275
 3301SOL     OW10801   6.795   3.631   2.143
 3301SOL    HW110802   6.796   3.731   2.138
 3301SOL    HW210803   6.859   3.600   2.213
 3302SOL     OW10804   0.889   6.405   5.249
 3302SOL    HW110805   0.943   6.326   5.218
 3302SOL    HW210806   0.950   6.481   5.269
 3303SOL     OW10807   2.907   3.486   4.224
 3303SOL    HW110808   2.881   3.418   4.294
 3303SOL    HW210809   3.004   3.505   4.231
 3304SOL     OW10810   1.399   0.641   3.399
 3304SOL    HW110811   1.365   0.547   3.406
 3304SOL    HW210812   1.476   0.643   3.335
 3305SOL     OW10813   0.543   3.040   0.487
 3305SOL    HW110814   0.460   3.037   0.544
 3305SOL    HW210815   0.536   3.117   0.424
 3306SOL     OW10816   1.048   2.521   2.283
 3306SOL    HW110817   1.012   2.605   2.243
 3306SOL    HW210818   1.052   2.450   2.213
 3307SOL     OW10819   0.869   6.960   0.626
 3307SOL    HW110820   0.801   6.906   0.575
 3307SOL    HW210821   0.893   0.017   0.573
 3308SOL     OW10822   5.337   6.174   0.938
 3308SOL    HW110823   5.306   6.265   0.964
 3308SOL    HW210824   5.347   6.169   0.839
 3309SOL     OW10825   1.619   4.741   2.523
 3309SOL    HW110826   1.694   4.790   2.479
 3309SOL    HW210827   1.653   4.694   2.605
 3310SOL     OW10828   1.657   6.940   2.195
 3310SOL    HW110829   1.628   0.000   2.239
 3310SOL    HW210830   1.723   6.961   2.122
 3311SOL     OW10831   3.763   5.910   0.858
 3311SOL    HW110832   3.677   5.943   0.820
 3311SOL    HW210833   3.779   5.954   0.946
 3312SOL     OW10834   2.012   2.839   6.342
 3312SOL    HW110835   1.996   2.935   6.317
 3312SOL    HW210836   1.924   2.796   6.364
 3313SOL     OW10837   6.299   6.293   4.952
 3313SOL    HW110838   6.229   6.334   4.893
 3313SOL    HW210839   6.375   6.357   4.963
 3314SOL     OW10840   0.917   4.341   6.745
 3314SOL    HW110841   0.854   4.418   6.759
 3314SOL    HW210842   0.874   4.257   6.777
 3315SOL     OW10843   6.720   2.855   3.236
 3315SOL    HW110844   6.653   2.921   3.201
 3315SOL    HW210845   6.672   2.780   3.281
 3316SOL     OW10846   4.285   1.366   0.140
 3316SOL    HW110847   4.367   1.393   0.090
 3316SOL    HW210848   4.302   1.373   0.239
 3317SOL     OW10849   3.987   2.459   1.300
 3317SOL    HW110850   3.920   2.386   1.287
 3317SOL    HW210851   3.982   2.492   1.394
 3318SOL     OW10852   2.537   5.359   5.469
 3318SOL    HW110853   2.635   5.377   5.460
 3318SOL    HW210854   2.503   5.401   5.553
 3319SOL     OW10855   6.609   6.418   6.718
 3319SOL    HW110856   6.633   6.466   6.802
 3319SOL    HW210857   6.515   6.385   6.724
 3320SOL     OW10858   0.778   0.555   0.820
 3320SOL    HW110859   0.797   0.642   0.774
 3320SOL    HW210860   0.679   0.544   0.830
 3321SOL     OW10861   3.730   3.767   3.984
 3321SOL    HW110862   3.760   3.739   3.892
 3321SOL    HW210863   3.809   3.800   4.036
 3322SOL     OW10864   4.217   2.161   1.855
 3322SOL    HW110865   4.166   2.080   1.884
 3322SOL    HW210866   4.276   2.136   1.778
 3323SOL     OW10867   2.049   4.733   0.193
 3323SOL    HW110868   2.004   4.714   0.106
 3323SOL    HW210869   1.985   4.776   0.256
 3324SOL     OW10870   6.338   3.350   1.403
 3324SOL    HW110871   6.359   3.327   1.498
 3324SOL    HW210872   6.318   3.447   1.396
 3325SOL     OW10873   0.922   4.927   5.982
 3325SOL    HW110874   1.015   4.962   5.972
 3325SOL    HW210875   0.917   4.870   6.064
 3326SOL     OW10876   5.495   0.452   2.384
 3326SOL    HW110877   5.556   0.518   2.341
 3326SOL    HW210878   5.499   0.366   2.334
 3327SOL     OW10879   4.736   6.063   2.093
 3327SOL    HW110880   4.722   6.102   2.002
 3327SOL    HW210881   4.816   6.105   2.135
 3328SOL     OW10882   6.305   6.553   4.295
 3328SOL    HW110883   6.306   6.607   4.380
 3328SOL    HW210884   6.224   6.576   4.242
 3329SOL     OW10885   5.949   0.763   6.189
 3329SOL    HW110886   5.959   0.817   6.273
 3329SOL    HW210887   5.964   0.666   6.210
 3330SOL     OW10888   6.728   6.793   2.725
 3330SOL    HW110889   6.731   6.697   2.752
 3330SOL    HW210890   6.715   6.799   2.626
 3331SOL     OW10891   1.921   3.875   2.510
 3331SOL    HW110892   2.007   3.834   2.480
 3331SOL    HW210893   1.940   3.951   2.572
 3332SOL     OW10894   3.636   5.418   0.557
 3332SOL    HW110895   3.670   5.430   0.463
 3332SOL    HW210896   3.681   5.340   0.599
 3333SOL     OW10897   1.857   3.483   0.997
 3333SOL    HW110898   1.857   3.517   0.902
 3333SOL    HW210899   1.905   3.396   1.001
 3334SOL     OW10900   0.938   2.293   2.153
 3334SOL    HW110901   0.869   2.255   2.215
 3334SOL    HW210902   0.927   2.252   2.062
 3335SOL     OW10903   3.438   4.320   5.575
 3335SOL    HW110904   3.505   4.393   5.584
 3335SOL    HW210905   3.376   4.323   5.654
 3336SOL     OW10906   3.920   5.921   5.806
 3336SOL    HW110907   3.966   5.872   5.880
 3336SOL    HW210908   3.913   6.018   5.829
 3337SOL     OW10909   3.812   2.954   3.887
 3337SOL    HW110910   3.748   3.008   3.832
 3337SOL    HW210911   3.865   2.894   3.827
 3338SOL     OW10912   2.733   3.325   1.526
 3338SOL    HW110913   2.666   3.316   1.452
 3338SOL    HW210914   2.692   3.374   1.603
 3339SOL     OW10915   0.700   6.647   6.694
 3339SOL    HW110916   0.783   6.672   6.643
 3339SOL    HW210917   0.725   6.607   6.782
 3340SOL     OW10918   4.390   1.645   6.412
 3340SOL    HW110919   4.462   1.578   6.393
 3340SOL    HW210920   4.316   1.600   6.463
 3341SOL     OW10921   1.402   3.953   1.194
 3341SOL    HW110922   1.432   3.987   1.105
 3341SOL    HW210923   1.323   4.007   1.225
 3342SOL     OW10924   5.883   0.413   2.350
 3342SOL    HW110925   5.889   0.473   2.271
 3342SOL    HW210926   5.971   0.411   2.398
 3343SOL     OW10927   3.372   5.443   0.836
 3343SOL    HW110928   3.284   5.467   0.877
 3343SOL    HW210929   3.395   5.510   0.765
 3344SOL     OW10930   1.373   3.244   2.025
 3344SOL    HW110931   1.425   3.195   1.954
 3344SOL    HW210932   1.338   3.330   1.987
 3345SOL     OW10933   5.354   5.355   1.177
 3345SOL    HW110934   5.265   5.394   1.152
 3345SOL    HW210935   5.343   5.300   1.260
 3346SOL     OW10936   1.341   0.773   0.321
 3346SOL    HW110937   1.249   0.782   0.283
 3346SOL    HW210938   1.392   0.705   0.269
 3347SOL     OW10939   1.099   3.930   5.478
 3347SOL    HW110940   1.193   3.928   5.444
 3347SOL    HW210941   1.096   3.979   5.566
 3348SOL     OW10942   3.458   4.211   6.059
 3348SOL    HW110943   3.372   4.164   6.039
 3348SOL    HW210944   3.463   4.232   6.156
 3349SOL     OW10945   1.477   5.486   1.608
 3349SOL    HW110946   1.563   5.484   1.658
 3349SOL    HW210947   1.423   5.404   1.630
 3350SOL     OW10948   2.086   4.736   4.927
 3350SOL    HW110949   2.157   4.683   4.973
 3350SOL    HW210950   2.052   4.685   4.848
 3351SOL     OW10951   5.202   0.234   1.945
 3351SOL    HW110952   5.264   0.224   1.867
 3351SOL    HW210953   5.203   0.150   2.000
 3352SOL     OW10954   5.415   1.507   6.931
 3352SOL    HW110955   5.512   1.496   6.954
 3352SOL    HW210956   5.360   1.495   7.014
 3353SOL     OW10957   4.305   1.256   6.431
 3353SOL    HW110958   4.286   1.240   6.528
 3353SOL    HW210959   4.297   1.354   6.412
 3354SOL     OW10960   2.256   3.211   0.272
 3354SOL    HW110961   2.263   3.139   0.202
 3354SOL    HW210962   2.342   3.262   0.275
 3355SOL     OW10963   1.364   0.973   4.569
 3355SOL    HW110964   1.323   0.970   4.478
 3355SOL    HW210965   1.393   0.882   4.596
 3356SOL     OW10966   2.860   0.646   6.256
 3356SOL    HW110967   2.813   0.560   6.279
 3356SOL    HW210968   2.857   0.659   6.157
 3357SOL     OW10969   3.063   3.652   3.451
 3357SOL    HW110970   3.011   3.684   3.530
 3357SOL    HW210971   3.035   3.702   3.369
 3358SOL     OW10972   0.129   1.833   1.342
 3358SOL    HW110973   0.162   1.834   1.437
 3358SOL    HW210974   0.031   1.811   1.342
 3359SOL     OW10975   1.290   6.979   4.011
 3359SOL    HW110976   1.335   6.901   4.054
 3359SOL    HW210977   1.191   6.964   4.010
 3360SOL     OW10978   1.570   5.264   4.546
 3360SOL    HW110979   1.635   5.325   4.500
 3360SOL    HW210980   1.579   5.275   4.645
 3361SOL     OW10981   6.636   6.601   4.359
 3361SOL    HW110982   6.709   6.609   4.291
 3361SOL    HW210983   6.581   6.685   4.359
 3362SOL     OW10984   4.041   0.452   4.471
 3362SOL    HW110985   4.055   0.423   4.566
 3362SOL    HW210986   4.095   0.395   4.410
 3363SOL     OW10987   5.360   4.158   0.109
 3363SOL    HW110988   5.320   4.179   0.198
 3363SOL    HW210989   5.289   4.125   0.047
 3364SOL     OW10990   1.960   3.525   1.503
 3364SOL    HW110991   1.871   3.482   1.490
 3364SOL    HW210992   1.971   3.550   1.599
 3365SOL     OW10993   1.227   2.578   2.782
 3365SOL    HW110994   1.232   2.666   2.733
 3365SOL    HW210995   1.319   2.553   2.813
 3366SOL     OW10996   6.092   2.623   4.314
 3366SOL    HW110997   6.079   2.631   4.413
 3366SOL    HW210998   6.070   2.530   4.286
 3367SOL     OW10999   3.662   3.081   3.709
 3367SOL    HW111000   3.562   3.077   3.702
 3367SOL    HW211001   3.703   3.014   3.647
 3368SOL     OW11002   2.461   1.314   3.479
 3368SOL    HW111003   2.497   1.354   3.564
 3368SOL    HW211004   2.382   1.258   3.500
 3369SOL     OW11005   5.099   2.971   1.303
 3369SOL    HW111006   5.010   2.935   1.331
 3369SOL    HW211007   5.118   3.055   1.354
 3370SOL     OW11008   1.276   5.464   3.031
 3370SOL    HW111009   1.325   5.479   2.945
 3370SOL    HW211010   1.186   5.507   3.027
 3371SOL     OW11011   2.645   3.182   1.242
 3371SOL    HW111012   2.648   3.099   1.187
 3371SOL    HW211013   2.735   3.227   1.239
 3372SOL     OW11014   5.777   2.805   3.604
 3372SOL    HW111015   5.860   2.859   3.620
 3372SOL    HW211016   5.798   2.727   3.545
 3373SOL     OW11017   0.123   4.508   0.688
 3373SOL    HW111018   0.029   4.490   0.659
 3373SOL    HW211019   0.181   4.518   0.607
 3374SOL     OW11020   1.143   5.862   4.153
 3374SOL    HW111021   1.173   5.791   4.217
 3374SOL    HW211022   1.090   5.931   4.202
 3375SOL     OW11023   0.463   6.350   6.028
 3375SOL    HW111024   0.497   6.386   5.941
 3375SOL    HW211025   0.528   6.284   6.065
 3376SOL     OW11026   3.261   3.510   4.826
 3376SOL    HW111027   3.295   3.510   4.920
 3376SOL    HW211028   3.274   3.420   4.786
 3377SOL     OW11029   6.674   5.197   4.260
 3377SOL    HW111030   6.715   5.251   4.187
 3377SOL    HW211031   6.729   5.206   4.343
 3378SOL     OW11032   0.997   5.701   0.779
 3378SOL    HW111033   0.910   5.751   0.778
 3378SOL    HW211034   1.051   5.727   0.699
 3379SOL     OW11035   5.908   4.188   4.264
 3379SOL    HW111036   5.961   4.266   4.228
 3379SOL    HW211037   5.878   4.208   4.357
 3380SOL     OW11038   1.775   5.172   1.686
 3380SOL    HW111039   1.761   5.127   1.774
 3380SOL    HW211040   1.771   5.271   1.698
 3381SOL     OW11041   2.984   3.847   5.965
 3381SOL    HW111042   3.036   3.832   5.881
 3381SOL    HW211043   2.923   3.770   5.982
 3382SOL     OW11044   6.949   3.863   6.820
 3382SOL    HW111045   6.902   3.926   6.758
 3382SOL    HW211046   6.925   3.884   6.914
 3383SOL     OW11047   3.126   5.777   0.744
 3383SOL    HW111048   3.058   5.846   0.717
 3383SOL    HW211049   3.081   5.688   0.752
 3384SOL     OW11050   2.773   2.899   6.515
 3384SOL    HW111051   2.865   2.865   6.495
 3384SOL    HW211052   2.753   2.887   6.612
 3385SOL     OW11053   5.922   2.824   4.730
 3385SOL    HW111054   5.895   2.884   4.655
 3385SOL    HW211055   5.962   2.879   4.803
 3386SOL     OW11056   0.722   6.224   4.736
 3386SOL    HW111057   0.772   6.154   4.684
 3386SOL    HW211058   0.786   6.288   4.777
 3387SOL     OW11059   6.243   0.265   2.697
 3387SOL    HW111060   6.300   0.190   2.730
 3387SOL    HW211061   6.166   0.228   2.646
 3388SOL     OW11062   0.589   3.913   0.634
 3388SOL    HW111063   0.593   3.892   0.731
 3388SOL    HW211064   0.676   3.888   0.591
 3389SOL     OW11065   6.647   5.380   6.260
 3389SOL    HW111066   6.710   5.345   6.190
 3389SOL    HW211067   6.674   5.472   6.286
 3390SOL     OW11068   3.107   5.216   0.650
 3390SOL    HW111069   3.173   5.142   0.655
 3390SOL    HW211070   3.023   5.190   0.699
 3391SOL     OW11071   5.043   3.888   5.313
 3391SOL    HW111072   5.131   3.918   5.351
 3391SOL    HW211073   4.969   3.927   5.367
 3392SOL     OW11074   5.329   6.333   5.705
 3392SOL    HW111075   5.343   6.423   5.665
 3392SOL    HW211076   5.414   6.302   5.748
 3393SOL     OW11077   3.433   0.007   0.431
 3393SOL    HW111078   3.453   6.980   0.514
 3393SOL    HW211079   3.517   0.046   0.394
 3394SOL     OW11080   2.966   5.206   1.302
 3394SOL    HW111081   3.040   5.217   1.368
 3394SOL    HW211082   2.914   5.291   1.296
 3395SOL     OW11083   1.855   6.652   3.090
 3395SOL    HW111084   1.821   6.742   3.114
 3395SOL    HW211085   1.955   6.656   3.079
 3396SOL     OW11086   4.832   0.429   4.767
 3396SOL    HW111087   4.769   0.372   4.819
 3396SOL    HW211088   4.781   0.499   4.717
 3397SOL     OW11089   2.552   6.312   1.029
 3397SOL    HW111090   2.565   6.213   1.021
 3397SOL    HW211091   2.455   6.334   1.016
 3398SOL     OW11092   6.786   1.038   6.431
 3398SOL    HW111093   6.809   1.134   6.449
 3398SOL    HW211094   6.689   1.031   6.408
 3399SOL     OW11095   0.070   6.528   2.123
 3399SOL    HW111096   0.019   6.469   2.185
 3399SOL    HW211097   0.056   6.624   2.150
 3400SOL     OW11098   3.497   2.703   5.462
 3400SOL    HW111099   3.494   2.609   5.496
 3400SOL    HW211100   3.585   2.719   5.417
 3401SOL     OW11101   0.014   2.871   4.333
 3401SOL    HW111102   0.088   2.916   4.383
 3401SOL    HW211103   6.991   2.939   4.277
 3402SOL     OW11104   5.522   3.287   0.389
 3402SOL    HW111105   5.429   3.317   0.369
 3402SOL    HW211106   5.540   3.298   0.486
 3403SOL     OW11107   5.711   6.140   4.852
 3403SOL    HW111108   5.763   6.225   4.853
 3403SOL    HW211109   5.645   6.143   4.777
 3404SOL     OW11110   5.121   5.232   3.230
 3404SOL    HW111111   5.200   5.179   3.262
 3404SOL    HW211112   5.039   5.175   3.232
 3405SOL     OW11113   4.231   6.236   0.934
 3405SOL    HW111114   4.221   6.244   1.033
 3405SOL    HW211115   4.156   6.286   0.890
 3406SOL     OW11116   3.625   5.296   1.158
 3406SOL    HW111117   3.687   5.352   1.213
 3406SOL    HW211118   3.676   5.248   1.088
 3407SOL     OW11119   1.549   2.827   0.461
 3407SOL    HW111120   1.519   2.827   0.557
 3407SOL    HW211121   1.485   2.879   0.406
 3408SOL     OW11122   4.252   6.502   4.047
 3408SOL    HW111123   4.218   6.520   3.955
 3408SOL    HW211124   4.316   6.424   4.044
 3409SOL     OW11125   4.580   2.119   0.054
 3409SOL    HW111126   4.582   2.218   0.069
 3409SOL    HW211127   4.486   2.091   0.033
 3410SOL     OW11128   6.873   0.437   2.325
 3410SOL    HW111129   6.943   0.508   2.335
 3410SOL    HW211130   6.909   0.349   2.356
 3411SOL     OW11131   5.676   3.141   5.926
 3411SOL    HW111132   5.749   3.152   5.994
 3411SOL    HW211133   5.625   3.057   5.945
 3412SOL     OW11134   5.616   2.862   3.804
 3412SOL    HW111135   5.664   2.938   3.847
 3412SOL    HW211136   5.673   2.823   3.732
 3413SOL     OW11137   0.407   2.630   0.904
 3413SOL    HW111138   0.385   2.711   0.959
 3413SOL    HW211139   0.450   2.561   0.962
 3414SOL     OW11140   3.970   3.276   1.927
 3414SOL    HW111141   4.011   3.214   1.860
 3414SOL    HW211142   4.043   3.327   1.973
 3415SOL     OW11143   2.293   1.203   6.430
 3415SOL    HW111144   2.383   1.247   6.428
 3415SOL    HW211145   2.246   1.220   6.343
 3416SOL     OW11146   5.630   6.698   6.066
 3416SOL    HW111147   5.627   6.772   6.133
 3416SOL    HW211148   5.547   6.700   6.011
 3417SOL     OW11149   5.758   0.354   2.637
 3417SOL    HW111150   5.822   0.278   2.627
 3417SOL    HW211151   5.680   0.340   2.575
 3418SOL     OW11152   4.195   6.001   0.793
 3418SOL    HW111153   4.114   6.014   0.736
 3418SOL    HW211154   4.215   6.085   0.844
 3419SOL     OW11155   3.059   4.798   5.204
 3419SOL    HW111156   3.003   4.854   5.143
 3419SOL    HW211157   3.038   4.701   5.189
 3420SOL     OW11158   3.999   1.060   2.038
 3420SOL    HW111159   4.012   1.031   1.943
 3420SOL    HW211160   3.949   0.989   2.088
 3421SOL     OW11161   0.051   1.895   4.672
 3421SOL    HW111162   0.143   1.857   4.670
 3421SOL    HW211163   7.009   1.821   4.679
 3422SOL     OW11164   3.569   5.767   2.122
 3422SOL    HW111165   3.494   5.769   2.188
 3422SOL    HW211166   3.637   5.699   2.151
 3423SOL     OW11167   2.162   4.461   5.957
 3423SOL    HW111168   2.116   4.452   5.869
 3423SOL    HW211169   2.144   4.552   5.995
 3424SOL     OW11170   5.221   0.214   2.408
 3424SOL    HW111171   5.321   0.218   2.400
 3424SOL    HW211172   5.191   0.276   2.480
 3425SOL     OW11173   5.892   3.147   6.094
 3425SOL    HW111174   5.918   3.051   6.107
 3425SOL    HW211175   5.924   3.201   6.172
 3426SOL     OW11176   6.671   5.376   6.907
 3426SOL    HW111177   6.577   5.363   6.937
 3426SOL    HW211178   6.703   5.294   6.859
 3427SOL     OW11179   1.956   1.357   6.382
 3427SOL    HW111180   1.962   1.366   6.282
 3427SOL    HW211181   1.970   1.261   6.407
 3428SOL     OW11182   5.042   0.579   4.651
 3428SOL    HW111183   5.029   0.657   4.713
 3428SOL    HW211184   5.095   0.508   4.697
 3429SOL     OW11185   4.054   6.528   0.783
 3429SOL    HW111186   4.095   6.587   0.853
 3429SOL    HW211187   4.126   6.476   0.737
 3430SOL     OW11188   3.084   4.579   6.720
 3430SOL    HW111189   3.080   4.653   6.787
 3430SOL    HW211190   3.157   4.598   6.655
 3431SOL     OW11191   0.939   4.435   3.021
 3431SOL    HW111192   1.035   4.453   3.044
 3431SOL    HW211193   0.934   4.396   2.929
 3432SOL     OW11194   0.346   5.214   6.853
 3432SOL    HW111195   0.357   5.254   6.944
 3432SOL    HW211196   0.256   5.237   6.817
 3433SOL     OW11197   1.044   0.622   0.313
 3433SOL    HW111198   0.945   0.606   0.305
 3433SOL    HW211199   1.076   0.584   0.399
 3434SOL     OW11200   3.993   2.206   2.128
 3434SOL    HW111201   4.038   2.119   2.111
 3434SOL    HW211202   3.910   2.212   2.073
 3435SOL     OW11203   2.078   2.844   1.203
 3435SOL    HW111204   2.108   2.921   1.260
 3435SOL    HW211205   1.993   2.868   1.157
 3436SOL     OW11206   3.928   6.189   5.905
 3436SOL    HW111207   3.921   6.183   6.005
 3436SOL    HW211208   3.864   6.257   5.872
 3437SOL     OW11209   1.655   6.689   0.142
 3437SOL    HW111210   1.576   6.645   0.100
 3437SOL    HW211211   1.723   6.620   0.167
 3438SOL     OW11212   1.933   4.368   0.445
 3438SOL    HW111213   1.884   4.306   0.384
 3438SOL    HW211214   1.994   4.426   0.391
 3439SOL     OW11215   2.694   5.819   0.720
 3439SOL    HW111216   2.696   5.892   0.652
 3439SOL    HW211217   2.765   5.751   0.699
 3440SOL     OW11218   3.534   3.848   5.727
 3440SOL    HW111219   3.497   3.869   5.817
 3440SOL    HW211220   3.588   3.764   5.732
 3441SOL     OW11221   6.503   5.134   4.988
 3441SOL    HW111222   6.487   5.097   4.896
 3441SOL    HW211223   6.416   5.143   5.036
 3442SOL     OW11224   1.462   2.415   0.528
 3442SOL    HW111225   1.369   2.433   0.558
 3442SOL    HW211226   1.477   2.316   0.519
 3443SOL     OW11227   0.647   5.872   2.662
 3443SOL    HW111228   0.580   5.802   2.636
 3443SOL    HW211229   0.602   5.961   2.668
 3444SOL     OW11230   0.644   4.290   6.100
 3444SOL    HW111231   0.583   4.315   6.025
 3444SOL    HW211232   0.591   4.245   6.173
 3445SOL     OW11233   5.493   5.365   4.689
 3445SOL    HW111234   5.535   5.417   4.614
 3445SOL    HW211235   5.457   5.279   4.653
 3446SOL     OW11236   4.970   1.956   0.001
 3446SOL    HW111237   4.902   1.951   6.952
 3446SOL    HW211238   4.984   1.865   0.039
 3447SOL     OW11239   4.794   1.536   6.111
 3447SOL    HW111240   4.781   1.589   6.195
 3447SOL    HW211241   4.866   1.579   6.057
 3448SOL     OW11242   0.927   4.847   5.397
 3448SOL    HW111243   0.947   4.945   5.397
 3448SOL    HW211244   0.888   4.821   5.486
 3449SOL     OW11245   1.309   3.716   5.021
 3449SOL    HW111246   1.301   3.674   4.930
 3449SOL    HW211247   1.286   3.813   5.015
 3450SOL     OW11248   2.754   6.923   2.309
 3450SOL    HW111249   2.673   6.981   2.318
 3450SOL    HW211250   2.820   6.945   2.381
 3451SOL     OW11251   2.080   2.399   0.185
 3451SOL    HW111252   2.079   2.321   0.122
 3451SOL    HW211253   2.098   2.366   0.278
 3452SOL     OW11254   4.560   1.154   6.415
 3452SOL    HW111255   4.468   1.189   6.401
 3452SOL    HW211256   4.588   1.170   6.510
 3453SOL     OW11257   4.690   6.368   6.053
 3453SOL    HW111258   4.773   6.323   6.021
 3453SOL    HW211259   4.684   6.460   6.013
 3454SOL     OW11260   1.177   2.778   2.619
 3454SOL    HW111261   1.118   2.805   2.543
 3454SOL    HW211262   1.192   2.857   2.679
 3455SOL     OW11263   0.693   4.430   5.872
 3455SOL    HW111264   0.670   4.514   5.921
 3455SOL    HW211265   0.667   4.440   5.776
 3456SOL     OW11266   4.252   5.307   3.287
 3456SOL    HW111267   4.258   5.208   3.304
 3456SOL    HW211268   4.176   5.325   3.225
 3457SOL     OW11269   4.069   4.519   6.987
 3457SOL    HW111270   4.120   4.433   6.980
 3457SOL    HW211271   3.976   4.501   7.017
 3458SOL     OW11272   4.652   2.094   1.004
 3458SOL    HW111273   4.593   2.016   1.028
 3458SOL    HW211274   4.735   2.060   0.960
 3459SOL     OW11275   6.469   6.550   2.467
 3459SOL    HW111276   6.506   6.493   2.541
 3459SOL    HW211277   6.475   6.500   2.381
 3460SOL     OW11278   3.872   1.324   5.436
 3460SOL    HW111279   3.830   1.400   5.386
 3460SOL    HW211280   3.824   1.311   5.523
 3461SOL     OW11281   4.827   4.125   3.764
 3461SOL    HW111282   4.888   4.151   3.689
 3461SOL    HW211283   4.783   4.208   3.801
 3462SOL     OW11284   0.919   5.109   6.496
 3462SOL    HW111285   0.842   5.144   6.442
 3462SOL    HW211286   0.980   5.056   6.438
 3463SOL     OW11287   5.762   3.946   0.459
 3463SOL    HW111288   5.795   3.997   0.538
 3463SOL    HW211289   5.822   3.964   0.381
 3464SOL     OW11290   0.235   4.331   3.774
 3464SOL    HW111291   0.136   4.337   3.784
 3464SOL    HW211292   0.263   4.374   3.688
 3465SOL     OW11293   0.567   3.123   2.082
 3465SOL    HW111294   0.638   3.071   2.036
 3465SOL    HW211295   0.483   3.121   2.027
 3466SOL     OW11296   6.356   3.750   3.514
 3466SOL    HW111297   6.390   3.659   3.539
 3466SOL    HW211298   6.262   3.742   3.480
 3467SOL     OW11299   1.535   2.634   6.292
 3467SOL    HW111300   1.590   2.702   6.340
 3467SOL    HW211301   1.500   2.674   6.207
 3468SOL     OW11302   4.534   5.986   1.764
 3468SOL    HW111303   4.503   6.048   1.837
 3468SOL    HW211304   4.633   5.976   1.769
 3469SOL     OW11305   5.198   4.624   0.573
 3469SOL    HW111306   5.158   4.690   0.637
 3469SOL    HW211307   5.135   4.609   0.497
 3470SOL     OW11308   5.991   5.075   1.467
 3470SOL    HW111309   5.952   5.023   1.542
 3470SOL    HW211310   6.085   5.101   1.489
 3471SOL     OW11311   4.277   6.747   4.564
 3471SOL    HW111312   4.191   6.790   4.538
 3471SOL    HW211313   4.278   6.729   4.663
 3472SOL     OW11314   4.384   0.665   4.560
 3472SOL    HW111315   4.299   0.672   4.508
 3472SOL    HW211316   4.407   0.754   4.599
 3473SOL     OW11317   4.591   6.430   3.834
 3473SOL    HW111318   4.586   6.394   3.741
 3473SOL    HW211319   4.522   6.386   3.891
 3474SOL     OW11320   4.316   4.883   0.364
 3474SOL    HW111321   4.287   4.867   0.458
 3474SOL    HW211322   4.385   4.815   0.338
 3475SOL     OW11323   1.546   5.109   5.121
 3475SOL    HW111324   1.534   5.208   5.112
 3475SOL    HW211325   1.470   5.062   5.077
 3476SOL     OW11326   4.029   1.936   3.626
 3476SOL    HW111327   4.121   1.948   3.587
 3476SOL    HW211328   4.027   1.974   3.719
 3477SOL     OW11329   5.122   5.310   2.314
 3477SOL    HW111330   5.149   5.261   2.232
 3477SOL    HW211331   5.024   5.328   2.312
 3478SOL     OW11332   3.628   4.299   0.416
 3478SOL    HW111333   3.625   4.314   0.317
 3478SOL    HW211334   3.537   4.314   0.455
 3479SOL     OW11335   1.811   0.459   0.632
 3479SOL    HW111336   1.809   0.429   0.537
 3479SOL    HW211337   1.738   0.414   0.683
 3480SOL     OW11338   1.443   6.758   4.463
 3480SOL    HW111339   1.467   6.693   4.536
 3480SOL    HW211340   1.408   6.707   4.384
 3481SOL     OW11341   2.379   5.554   0.180
 3481SOL    HW111342   2.300   5.511   0.135
 3481SOL    HW211343   2.346   5.622   0.245
 3482SOL     OW11344   0.181   2.613   1.186
 3482SOL    HW111345   0.181   2.703   1.142
 3482SOL    HW211346   0.262   2.604   1.244
 3483SOL     OW11347   4.012   1.075   0.895
 3483SOL    HW111348   3.920   1.037   0.895
 3483SOL    HW211349   4.058   1.054   0.808
 3484SOL     OW11350   3.421   4.111   3.356
 3484SOL    HW111351   3.383   4.137   3.445
 3484SOL    HW211352   3.349   4.108   3.288
 3485SOL     OW11353   6.067   2.160   5.154
 3485SOL    HW111354   5.985   2.143   5.099
 3485SOL    HW211355   6.146   2.173   5.094
 3486SOL     OW11356   5.769   0.765   3.476
 3486SOL    HW111357   5.708   0.818   3.535
 3486SOL    HW211358   5.860   0.762   3.517
 3487SOL     OW11359   1.293   6.975   0.862
 3487SOL    HW111360   1.248   6.999   0.947
 3487SOL    HW211361   1.283   6.877   0.846
 3488SOL     OW11362   6.031   3.776   4.510
 3488SOL    HW111363   6.035   3.841   4.586
 3488SOL    HW211364   5.955   3.801   4.449
 3489SOL     OW11365   2.651   5.669   6.887
 3489SOL    HW111366   2.552   5.664   6.893
 3489SOL    HW211367   2.684   5.749   6.937
 3490SOL     OW11368   4.710   4.016   0.446
 3490SOL    HW111369   4.768   4.082   0.493
 3490SOL    HW211370   4.708   4.037   0.348
 3491SOL     OW11371   5.757   2.695   5.020
 3491SOL    HW111372   5.770   2.768   5.087
 3491SOL    HW211373   5.765   2.733   4.927
 3492SOL     OW11374   6.333   4.770   6.740
 3492SOL    HW111375   6.416   4.724   6.710
 3492SOL    HW211376   6.295   4.821   6.663
 3493SOL     OW11377   6.471   4.543   1.358
 3493SOL    HW111378   6.531   4.498   1.425
 3493SOL    HW211379   6.523   4.563   1.275
 3494SOL     OW11380   3.052   6.154   1.024
 3494SOL    HW111381   3.026   6.237   1.075
 3494SOL    HW211382   2.987   6.081   1.045
 3495SOL     OW11383   5.872   4.585   6.402
 3495SOL    HW111384   5.919   4.533   6.331
 3495SOL    HW211385   5.786   4.540   6.426
 3496SOL     OW11386   0.811   5.525   0.995
 3496SOL    HW111387   0.739   5.491   0.934
 3496SOL    HW211388   0.788   5.617   1.026
 3497SOL     OW11389   4.021   6.976   4.792
 3497SOL    HW111390   4.026   6.903   4.860
 3497SOL    HW211391   4.108   0.001   4.791
 3498SOL     OW11392   1.051   1.636   0.223
 3498SOL    HW111393   1.090   1.558   0.273
 3498SOL    HW211394   1.095   1.643   0.134
 3499SOL     OW11395   6.907   4.002   4.181
 3499SOL    HW111396   6.874   4.055   4.259
 3499SOL    HW211397   6.839   4.002   4.109
 3500SOL     OW11398   5.741   2.923   0.999
 3500SOL    HW111399   5.784   3.012   1.014
 3500SOL    HW211400   5.759   2.893   0.905
 3501SOL     OW11401   0.707   4.781   3.095
 3501SOL    HW111402   0.685   4.684   3.080
 3501SOL    HW211403   0.665   4.812   3.180
 3502SOL     OW11404   0.766   5.116   1.663
 3502SOL    HW111405   0.776   5.040   1.598
 3502SOL    HW211406   0.671   5.122   1.692
 3503SOL     OW11407   3.669   6.941   3.664
 3503SOL    HW111408   3.647   0.012   3.650
 3503SOL    HW211409   3.653   6.917   3.760
 3504SOL     OW11410   2.019   3.139   2.349
 3504SOL    HW111411   1.940   3.187   2.310
 3504SOL    HW211412   2.001   3.117   2.445
 3505SOL     OW11413   4.754   6.582   4.730
 3505SOL    HW111414   4.697   6.637   4.791
 3505SOL    HW211415   4.741   6.613   4.636
 3506SOL     OW11416   6.667   4.754   2.090
 3506SOL    HW111417   6.762   4.728   2.107
 3506SOL    HW211418   6.637   4.820   2.158
 3507SOL     OW11419   6.808   0.111   6.154
 3507SOL    HW111420   6.887   0.162   6.121
 3507SOL    HW211421   6.732   0.174   6.170
 3508SOL     OW11422   6.489   4.367   6.751
 3508SOL    HW111423   6.569   4.309   6.765
 3508SOL    HW211424   6.417   4.315   6.707
 3509SOL     OW11425   5.384   6.587   6.982
 3509SOL    HW111426   5.324   6.581   0.037
 3509SOL    HW211427   5.479   6.574   7.010
 3510SOL     OW11428   1.939   1.254   1.875
 3510SOL    HW111429   2.031   1.222   1.896
 3510SOL    HW211430   1.944   1.325   1.804
 3511SOL     OW11431   0.983   0.744   4.522
 3511SOL    HW111432   0.933   0.700   4.596
 3511SOL    HW211433   1.019   0.832   4.554
 3512SOL     OW11434   4.158   3.214   1.118
 3512SOL    HW111435   4.111   3.239   1.202
 3512SOL    HW211436   4.157   3.114   1.107
 3513SOL     OW11437   5.975   4.313   1.014
 3513SOL    HW111438   6.033   4.319   0.932
 3513SOL    HW211439   6.032   4.303   1.095
 3514SOL     OW11440   2.345   6.006   2.110
 3514SOL    HW111441   2.249   5.995   2.134
 3514SOL    HW211442   2.392   6.053   2.185
 3515SOL     OW11443   3.509   5.740   3.289
 3515SOL    HW111444   3.555   5.792   3.217
 3515SOL    HW211445   3.559   5.656   3.306
 3516SOL     OW11446   1.992   0.592   0.105
 3516SOL    HW111447   1.899   0.573   0.074
 3516SOL    HW211448   2.016   0.530   0.180
 3517SOL     OW11449   0.473   0.881   6.890
 3517SOL    HW111450   0.444   0.850   6.799
 3517SOL    HW211451   0.464   0.805   6.955
 3518SOL     OW11452   4.298   3.453   6.273
 3518SOL    HW111453   4.296   3.413   6.182
 3518SOL    HW211454   4.392   3.470   6.301
 3519SOL     OW11455   3.014   0.039   0.622
 3519SOL    HW111456   2.947   0.085   0.680
 3519SOL    HW211457   3.048   0.103   0.553
 3520SOL     OW11458   3.634   4.875   1.576
 3520SOL    HW111459   3.695   4.940   1.530
 3520SOL    HW211460   3.539   4.896   1.554
 3521SOL     OW11461   6.638   1.890   5.724
 3521SOL    HW111462   6.695   1.864   5.646
 3521SOL    HW211463   6.695   1.935   5.792
 3522SOL     OW11464   2.842   0.657   0.857
 3522SOL    HW111465   2.835   0.640   0.758
 3522SOL    HW211466   2.751   0.653   0.898
 3523SOL     OW11467   2.257   4.556   5.047
 3523SOL    HW111468   2.356   4.572   5.040
 3523SOL    HW211469   2.239   4.484   5.114
 3524SOL     OW11470   2.581   1.378   3.213
 3524SOL    HW111471   2.494   1.367   3.164
 3524SOL    HW211472   2.572   1.342   3.306
 3525SOL     OW11473   1.678   3.071   3.528
 3525SOL    HW111474   1.691   2.971   3.529
 3525SOL    HW211475   1.580   3.092   3.531
 3526SOL     OW11476   3.376   6.179   3.661
 3526SOL    HW111477   3.411   6.268   3.633
 3526SOL    HW211478   3.448   6.110   3.647
 3527SOL     OW11479   5.633   3.610   0.034
 3527SOL    HW111480   5.572   3.682   0.067
 3527SOL    HW211481   5.719   3.651   0.003
 3528SOL     OW11482   1.972   0.061   4.581
 3528SOL    HW111483   1.876   0.078   4.559
 3528SOL    HW211484   2.027   0.137   4.545
 3529SOL     OW11485   3.716   5.456   0.311
 3529SOL    HW111486   3.812   5.434   0.293
 3529SOL    HW211487   3.669   5.476   0.225
 3530SOL     OW11488   1.925   5.754   2.926
 3530SOL    HW111489   1.934   5.773   2.828
 3530SOL    HW211490   1.867   5.824   2.968
 3531SOL     OW11491   5.140   4.902   0.139
 3531SOL    HW111492   5.211   4.969   0.115
 3531SOL    HW211493   5.128   4.901   0.238
 3532SOL     OW11494   2.275   6.366   1.032
 3532SOL    HW111495   2.197   6.375   1.093
 3532SOL    HW211496   2.244   6.365   0.937
 3533SOL     OW11497   1.242   0.866   3.378
 3533SOL    HW111498   1.269   0.771   3.394
 3533SOL    HW211499   1.172   0.869   3.306
 3534SOL     OW11500   5.215   6.624   4.837
 3534SOL    HW111501   5.173   6.636   4.747
 3534SOL    HW211502   5.245   6.713   4.872
 3535SOL     OW11503   4.727   6.320   6.923
 3535SOL    HW111504   4.786   6.380   6.977
 3535SOL    HW211505   4.662   6.374   6.870
 3536SOL     OW11506   1.302   3.484   2.465
 3536SOL    HW111507   1.313   3.403   2.523
 3536SOL    HW211508   1.341   3.466   2.375
 3537SOL     OW11509   2.966   5.166   1.655
 3537SOL    HW111510   2.873   5.198   1.634
 3537SOL    HW211511   2.971   5.067   1.641
 3538SOL     OW11512   4.056   0.877   3.635
 3538SOL    HW111513   4.009   0.803   3.684
 3538SOL    HW211514   4.155   0.869   3.650
 3539SOL     OW11515   4.793   5.455   4.982
 3539SOL    HW111516   4.812   5.519   5.057
 3539SOL    HW211517   4.694   5.448   4.970
 3540SOL     OW11518   3.783   4.921   6.287
 3540SOL    HW111519   3.730   4.993   6.331
 3540SOL    HW211520   3.844   4.962   6.219
 3541SOL     OW11521   0.534   2.768   2.491
 3541SOL    HW111522   0.592   2.812   2.561
 3541SOL    HW211523   0.540   2.669   2.501
 3542SOL     OW11524   5.762   1.846   7.022
 3542SOL    HW111525   5.746   1.750   0.022
 3542SOL    HW211526   5.859   1.859   7.000
 3543SOL     OW11527   0.108   2.443   3.605
 3543SOL    HW111528   0.163   2.434   3.688
 3543SOL    HW211529   0.143   2.381   3.535
 3544SOL     OW11530   2.532   4.537   6.497
 3544SOL    HW111531   2.577   4.601   6.434
 3544SOL    HW211532   2.537   4.444   6.460
 3545SOL     OW11533   3.450   6.696   0.970
 3545SOL    HW111534   3.546   6.681   0.995
 3545SOL    HW211535   3.423   6.789   0.995
 3546SOL     OW11536   6.215   4.595   1.615
 3546SOL    HW111537   6.250   4.520   1.672
 3546SOL    HW211538   6.237   4.577   1.519
 3547SOL     OW11539   0.669   3.694   4.064
 3547SOL    HW111540   0.695   3.712   3.969
 3547SOL    HW211541   0.584   3.641   4.066
 3548SOL     OW11542   6.745   0.469   5.676
 3548SOL    HW111543   6.678   0.538   5.703
 3548SOL    HW211544   6.836   0.497   5.706
 3549SOL     OW11545   1.927   6.305   6.669
 3549SOL    HW111546   1.834   6.276   6.646
 3549SOL    HW211547   1.925   6.395   6.712
 3550SOL     OW11548   6.081   2.152   6.243
 3550SOL    HW111549   6.046   2.189   6.329
 3550SOL    HW211550   6.174   2.186   6.227
 3551SOL     OW11551   5.720   1.362   5.370
 3551SOL    HW111552   5.786   1.431   5.403
 3551SOL    HW211553   5.627   1.398   5.378
 3552SOL     OW11554   0.117   0.248   3.304
 3552SOL    HW111555   0.043   0.186   3.280
 3552SOL    HW211556   0.144   0.233   3.399
 3553SOL     OW11557   6.121   6.063   6.068
 3553SOL    HW111558   6.121   5.970   6.105
 3553SOL    HW211559   6.194   6.072   6.000
 3554SOL     OW11560   4.871   4.523   6.836
 3554SOL    HW111561   4.918   4.437   6.854
 3554SOL    HW211562   4.932   4.599   6.856
 3555SOL     OW11563   2.741   1.037   5.008
 3555SOL    HW111564   2.732   1.074   5.101
 3555SOL    HW211565   2.651   1.007   4.976
 3556SOL     OW11566   6.457   0.746   0.502
 3556SOL    HW111567   6.549   0.714   0.524
 3556SOL    HW211568   6.462   0.820   0.435
 3557SOL     OW11569   4.861   6.571   1.796
 3557SOL    HW111570   4.890   6.484   1.755
 3557SOL    HW211571   4.929   6.601   1.863
 3558SOL     OW11572   4.267   5.690   2.478
 3558SOL    HW111573   4.278   5.638   2.394
 3558SOL    HW211574   4.175   5.676   2.514
 3559SOL     OW11575   3.576   6.785   6.441
 3559SOL    HW111576   3.674   6.770   6.429
 3559SOL    HW211577   3.530   6.698   6.455
 3560SOL     OW11578   2.405   6.108   4.528
 3560SOL    HW111579   2.369   6.098   4.621
 3560SOL    HW211580   2.473   6.038   4.511
 3561SOL     OW11581   4.088   2.927   5.644
 3561SOL    HW111582   4.171   2.975   5.613
 3561SOL    HW211583   4.113   2.855   5.708
 3562SOL     OW11584   2.466   1.388   0.759
 3562SOL    HW111585   2.433   1.452   0.690
 3562SOL    HW211586   2.425   1.298   0.744
 3563SOL     OW11587   0.260   2.403   6.938
 3563SOL    HW111588   0.322   2.464   6.889
 3563SOL    HW211589   0.306   2.316   6.955
 3564SOL     OW11590   6.499   3.737   2.563
 3564SOL    HW111591   6.408   3.776   2.545
 3564SOL    HW211592   6.510   3.722   2.661
 3565SOL     OW11593   4.588   6.208   5.145
 3565SOL    HW111594   4.640   6.225   5.228
 3565SOL    HW211595   4.637   6.247   5.066
 3566SOL     OW11596   0.967   0.901   5.632
 3566SOL    HW111597   0.980   0.855   5.720
 3566SOL    HW211598   1.055   0.920   5.590
 3567SOL     OW11599   6.970   4.743   6.966
 3567SOL    HW111600   0.037   4.746   6.925
 3567SOL    HW211601   6.970   4.679   0.018
 3568SOL     OW11602   4.161   3.888   5.584
 3568SOL    HW111603   4.081   3.943   5.606
 3568SOL    HW211604   4.152   3.852   5.491
 3569SOL     OW11605   1.533   0.401   3.480
 3569SOL    HW111606   1.450   0.431   3.528
 3569SOL    HW211607   1.611   0.410   3.541
 3570SOL     OW11608   5.992   1.867   4.702
 3570SOL    HW111609   5.965   1.941   4.640
 3570SOL    HW211610   5.917   1.801   4.709
 3571SOL     OW11611   5.886   5.691   4.398
 3571SOL    HW111612   5.950   5.712   4.472
 3571SOL    HW211613   5.915   5.738   4.315
 3572SOL     OW11614   6.124   7.008   5.393
 3572SOL    HW111615   6.068   0.024   5.466
 3572SOL    HW211616   6.160   0.055   5.334
 3573SOL     OW11617   0.235   2.088   1.150
 3573SOL    HW111618   0.164   2.095   1.220
 3573SOL    HW211619   0.205   2.135   1.067
 3574SOL     OW11620   6.180   3.767   6.718
 3574SOL    HW111621   6.206   3.678   6.756
 3574SOL    HW211622   6.109   3.754   6.649
 3575SOL     OW11623   6.454   6.662   1.864
 3575SOL    HW111624   6.398   6.671   1.946
 3575SOL    HW211625   6.395   6.652   1.784
 3576SOL     OW11626   6.995   0.300   6.897
 3576SOL    HW111627   6.975   0.279   6.993
 3576SOL    HW211628   7.005   0.214   6.846
 3577SOL     OW11629   2.339   4.390   6.982
 3577SOL    HW111630   2.287   4.440   0.027
 3577SOL    HW211631   2.370   4.453   6.912
 3578SOL     OW11632   3.711   4.529   1.634
 3578SOL    HW111633   3.616   4.497   1.626
 3578SOL    HW211634   3.770   4.451   1.655
 3579SOL     OW11635   1.791   3.890   5.391
 3579SOL    HW111636   1.853   3.969   5.386
 3579SOL    HW211637   1.698   3.920   5.371
 3580SOL     OW11638   6.474   2.617   0.689
 3580SOL    HW111639   6.403   2.623   0.759
 3580SOL    HW211640   6.501   2.521   0.677
 3581SOL     OW11641   6.994   0.915   3.399
 3581SOL    HW111642   6.957   0.823   3.410
 3581SOL    HW211643   0.001   0.948   3.488
 3582SOL     OW11644   0.261   0.105   5.755
 3582SOL    HW111645   0.192   0.043   5.718
 3582SOL    HW211646   0.308   0.061   5.831
 3583SOL     OW11647   0.949   5.519   1.600
 3583SOL    HW111648   0.935   5.534   1.502
 3583SOL    HW211649   0.888   5.580   1.652
 3584SOL     OW11650   5.748   0.698   5.469
 3584SOL    HW111651   5.691   0.671   5.391
 3584SOL    HW211652   5.798   0.618   5.503
 3585SOL     OW11653   2.170   4.869   3.360
 3585SOL    HW111654   2.262   4.892   3.330
 3585SOL    HW211655   2.169   4.857   3.460
 3586SOL     OW11656   0.861   1.124   6.223
 3586SOL    HW111657   0.814   1.116   6.311
 3586SOL    HW211658   0.805   1.179   6.161
 3587SOL     OW11659   3.446   6.538   6.493
 3587SOL    HW111660   3.366   6.479   6.485
 3587SOL    HW211661   3.447   6.582   6.583
 3588SOL     OW11662   2.688   2.322   5.733
 3588SOL    HW111663   2.718   2.404   5.682
 3588SOL    HW211664   2.672   2.247   5.668
 3589SOL     OW11665   3.514   6.684   4.440
 3589SOL    HW111666   3.421   6.664   4.410
 3589SOL    HW211667   3.516   6.694   4.539
 3590SOL     OW11668   1.114   5.663   6.574
 3590SOL    HW111669   1.152   5.740   6.523
 3590SOL    HW211670   1.172   5.583   6.563
 3591SOL     OW11671   5.111   1.883   5.012
 3591SOL    HW111672   5.031   1.939   5.034
 3591SOL    HW211673   5.185   1.942   4.978
 3592SOL     OW11674   5.719   1.979   1.829
 3592SOL    HW111675   5.774   1.971   1.912
 3592SOL    HW211676   5.629   1.939   1.845
 3593SOL     OW11677   1.125   5.602   4.583
 3593SOL    HW111678   1.100   5.527   4.645
 3593SOL    HW211679   1.080   5.686   4.612
 3594SOL     OW11680   4.251   1.464   4.485
 3594SOL    HW111681   4.181   1.434   4.421
 3594SOL    HW211682   4.234   1.424   4.575
 3595SOL     OW11683   2.182   6.294   5.692
 3595SOL    HW111684   2.122   6.227   5.736
 3595SOL    HW211685   2.127   6.365   5.648
 3596SOL     OW11686   0.348   3.451   3.380
 3596SOL    HW111687   0.299   3.520   3.327
 3596SOL    HW211688   0.315   3.360   3.355
 3597SOL     OW11689   4.023   0.195   4.100
 3597SOL    HW111690   4.087   0.161   4.032
 3597SOL    HW211691   4.070   0.260   4.160
 3598SOL     OW11692   1.594   0.252   6.928
 3598SOL    HW111693   1.649   0.330   6.898
 3598SOL    HW211694   1.654   0.179   6.960
 3599SOL     OW11695   6.651   1.938   4.410
 3599SOL    HW111696   6.654   1.843   4.377
 3599SOL    HW211697   6.642   2.000   4.332
 3600SOL     OW11698   6.350   0.184   1.288
 3600SOL    HW111699   6.286   0.122   1.335
 3600SOL    HW211700   6.342   0.275   1.327
 3601SOL     OW11701   5.854   3.975   5.826
 3601SOL    HW111702   5.898   3.902   5.775
 3601SOL    HW211703   5.921   4.021   5.884
 3602SOL     OW11704   2.795   2.085   1.363
 3602SOL    HW111705   2.885   2.102   1.321
 3602SOL    HW211706   2.748   2.013   1.312
 3603SOL     OW11707   4.360   4.937   4.520
 3603SOL    HW111708   4.279   4.991   4.497
 3603SOL    HW211709   4.428   4.945   4.447
 3604SOL     OW11710   6.307   4.082   3.382
 3604SOL    HW111711   6.388   4.026   3.395
 3604SOL    HW211712   6.279   4.079   3.286
 3605SOL     OW11713   6.315   2.408   6.575
 3605SOL    HW111714   6.247   2.470   6.535
 3605SOL    HW211715   6.304   2.316   6.537
 3606SOL     OW11716   2.082   3.952   3.189
 3606SOL    HW111717   2.119   3.943   3.096
 3606SOL    HW211718   2.154   3.984   3.250
 3607SOL     OW11719   4.215   6.990   6.815
 3607SOL    HW111720   4.119   6.974   6.839
 3607SOL    HW211721   4.228   6.976   6.717
 3608SOL     OW11722   0.885   2.909   3.162
 3608SOL    HW111723   0.923   2.909   3.069
 3608SOL    HW211724   0.931   2.980   3.216
 3609SOL     OW11725   6.932   0.114   4.130
 3609SOL    HW111726   7.001   0.077   4.193
 3609SOL    HW211727   6.871   0.041   4.101
 3610SOL     OW11728   1.442   5.384   6.032
 3610SOL    HW111729   1.412   5.304   6.085
 3610SOL    HW211730   1.536   5.369   6.000
 3611SOL     OW11731   4.492   5.392   5.330
 3611SOL    HW111732   4.524   5.328   5.260
 3611SOL    HW211733   4.482   5.483   5.289
 3612SOL     OW11734   1.948   6.183   1.024
 3612SOL    HW111735   1.982   6.128   0.947
 3612SOL    HW211736   1.950   6.129   1.107
 3613SOL     OW11737   4.980   5.078   5.689
 3613SOL    HW111738   4.996   5.052   5.784
 3613SOL    HW211739   4.952   5.173   5.684
 3614SOL     OW11740   3.372   2.927   4.589
 3614SOL    HW111741   3.399   2.920   4.493
 3614SOL    HW211742   3.275   2.908   4.597
 3615SOL     OW11743   5.595   6.422   6.136
 3615SOL    HW111744   5.667   6.354   6.121
 3615SOL    HW211745   5.616   6.505   6.084
 3616SOL     OW11746   6.184   0.748   4.426
 3616SOL    HW111747   6.179   0.728   4.524
 3616SOL    HW211748   6.098   0.791   4.397
 3617SOL     OW11749   0.169   0.761   6.912
 3617SOL    HW111750   0.193   0.665   6.924
 3617SOL    HW211751   0.202   0.792   6.823
 3618SOL     OW11752   2.648   5.905   6.021
 3618SOL    HW111753   2.576   5.856   6.070
 3618SOL    HW211754   2.655   5.998   6.056
 3619SOL     OW11755   5.117   3.655   3.472
 3619SOL    HW111756   5.034   3.602   3.487
 3619SOL    HW211757   5.116   3.692   3.379
 3620SOL     OW11758   6.097   1.491   5.118
 3620SOL    HW111759   6.137   1.550   5.188
 3620SOL    HW211760   6.075   1.546   5.038
 3621SOL     OW11761   1.680   3.041   5.526
 3621SOL    HW111762   1.748   3.114   5.531
 3621SOL    HW211763   1.724   2.953   5.542
 3622SOL     OW11764   0.675   3.724   1.312
 3622SOL    HW111765   0.687   3.705   1.215
 3622SOL    HW211766   0.662   3.638   1.362
 3623SOL     OW11767   6.947   4.952   4.152
 3623SOL    HW111768   6.847   4.950   4.157
 3623SOL    HW211769   6.985   4.942   4.244
 3624SOL     OW11770   2.328   0.864   1.867
 3624SOL    HW111771   2.303   0.769   1.881
 3624SOL    HW211772   2.327   0.885   1.769
 3625SOL     OW11773   1.073   3.192   4.222
 3625SOL    HW111774   0.992   3.134   4.232
 3625SOL    HW211775   1.047   3.279   4.181
 3626SOL     OW11776   2.693   4.249   5.591
 3626SOL    HW111777   2.792   4.231   5.586
 3626SOL    HW211778   2.671   4.327   5.532
 3627SOL     OW11779   3.211   3.321   4.016
 3627SOL    HW111780   3.281   3.390   4.030
 3627SOL    HW211781   3.165   3.337   3.928
 3628SOL     OW11782   3.289   5.700   4.175
 3628SOL    HW111783   3.332   5.785   4.146
 3628SOL    HW211784   3.330   5.624   4.126
 3629SOL     OW11785   5.394   3.117   5.285
 3629SOL    HW111786   5.390   3.196   5.223
 3629SOL    HW211787   5.398   3.149   5.379
 3630SOL     OW11788   5.538   1.031   4.975
 3630SOL    HW111789   5.518   1.078   5.061
 3630SOL    HW211790   5.564   1.099   4.906
 3631SOL     OW11791   2.121   1.103   4.037
 3631SOL    HW111792   2.194   1.135   4.097
 3631SOL    HW211793   2.087   1.180   3.982
 3632SOL     OW11794   4.226   6.821   6.171
 3632SOL    HW111795   4.126   6.831   6.175
 3632SOL    HW211796   4.251   6.730   6.205
 3633SOL     OW11797   1.248   2.954   5.366
 3633SOL    HW111798   1.264   3.049   5.342
 3633SOL    HW211799   1.168   2.948   5.426
 3634SOL     OW11800   3.139   4.919   5.848
 3634SOL    HW111801   3.177   4.904   5.939
 3634SOL    HW211802   3.068   4.989   5.853
 3635SOL     OW11803   1.830   1.296   4.979
 3635SOL    HW111804   1.827   1.333   5.072
 3635SOL    HW211805   1.751   1.328   4.927
 3636SOL     OW11806   1.330   6.023   0.356
 3636SOL    HW111807   1.299   6.031   0.261
 3636SOL    HW211808   1.356   5.929   0.375
 3637SOL     OW11809   4.847   0.888   1.578
 3637SOL    HW111810   4.832   0.986   1.564
 3637SOL    HW211811   4.943   0.872   1.602
 3638SOL     OW11812   6.369   4.806   3.448
 3638SOL    HW111813   6.285   4.861   3.442
 3638SOL    HW211814   6.349   4.713   3.419
 3639SOL     OW11815   2.727   6.039   0.258
 3639SOL    HW111816   2.695   5.948   0.232
 3639SOL    HW211817   2.662   6.108   0.226
 3640SOL     OW11818   2.091   6.906   1.581
 3640SOL    HW111819   2.049   6.858   1.504
 3640SOL    HW211820   2.117   6.998   1.553
 3641SOL     OW11821   2.491   0.652   4.569
 3641SOL    HW111822   2.471   0.555   4.551
 3641SOL    HW211823   2.413   0.693   4.617
 3642SOL     OW11824   5.777   6.778   2.276
 3642SOL    HW111825   5.802   6.783   2.179
 3642SOL    HW211826   5.859   6.763   2.331
 3643SOL     OW11827   3.916   5.257   5.514
 3643SOL    HW111828   3.920   5.347   5.556
 3643SOL    HW211829   3.832   5.249   5.460
 3644SOL     OW11830   6.762   0.162   1.238
 3644SOL    HW111831   6.844   0.106   1.224
 3644SOL    HW211832   6.765   0.204   1.328
 3645SOL     OW11833   3.660   6.054   2.803
 3645SOL    HW111834   3.600   6.105   2.864
 3645SOL    HW211835   3.712   6.118   2.746
 3646SOL     OW11836   6.791   5.481   4.670
 3646SOL    HW111837   6.881   5.438   4.675
 3646SOL    HW211838   6.801   5.579   4.651
 3647SOL     OW11839   2.711   2.695   1.026
 3647SOL    HW111840   2.741   2.601   1.037
 3647SOL    HW211841   2.789   2.752   0.998
 3648SOL     OW11842   3.240   6.461   3.346
 3648SOL    HW111843   3.183   6.499   3.418
 3648SOL    HW211844   3.301   6.532   3.310
 3649SOL     OW11845   3.137   3.411   2.386
 3649SOL    HW111846   3.055   3.355   2.370
 3649SOL    HW211847   3.182   3.380   2.470
 3650SOL     OW11848   5.499   6.981   1.353
 3650SOL    HW111849   5.424   6.977   1.419
 3650SOL    HW211850   5.461   6.991   1.260
 3651SOL     OW11851   1.362   6.077   2.231
 3651SOL    HW111852   1.264   6.094   2.241
 3651SOL    HW211853   1.376   5.983   2.201
 3652SOL     OW11854   4.715   5.355   3.048
 3652SOL    HW111855   4.628   5.403   3.058
 3652SOL    HW211856   4.707   5.263   3.087
 3653SOL     OW11857   6.200   3.121   4.684
 3653SOL    HW111858   6.175   3.048   4.747
 3653SOL    HW211859   6.300   3.125   4.675
 3654SOL     OW11860   1.274   6.699   1.615
 3654SOL    HW111861   1.328   6.641   1.555
 3654SOL    HW211862   1.333   6.741   1.684
 3655SOL     OW11863   6.834   1.208   3.553
 3655SOL    HW111864   6.842   1.225   3.455
 3655SOL    HW211865   6.924   1.213   3.596
 3656SOL     OW11866   2.722   1.720   2.853
 3656SOL    HW111867   2.692   1.709   2.948
 3656SOL    HW211868   2.643   1.745   2.796
 3657SOL     OW11869   4.770   5.034   2.519
 3657SOL    HW111870   4.728   5.045   2.429
 3657SOL    HW211871   4.791   5.124   2.557
 3658SOL     OW11872   1.857   5.415   5.795
 3658SOL    HW111873   1.779   5.372   5.840
 3658SOL    HW211874   1.941   5.393   5.845
 3659SOL     OW11875   1.318   3.460   0.394
 3659SOL    HW111876   1.406   3.499   0.421
 3659SOL    HW211877   1.326   3.361   0.385
 3660SOL     OW11878   4.035   4.979   1.013
 3660SOL    HW111879   3.975   5.058   1.018
 3660SOL    HW211880   4.118   4.996   1.067
 3661SOL     OW11881   5.035   1.665   1.485
 3661SOL    HW111882   4.985   1.745   1.516
 3661SOL    HW211883   5.116   1.694   1.434
 3662SOL     OW11884   2.358   5.960   4.769
 3662SOL    HW111885   2.458   5.967   4.764
 3662SOL    HW211886   2.332   5.870   4.805
 3663SOL     OW11887   1.424   3.489   5.463
 3663SOL    HW111888   1.433   3.521   5.557
 3663SOL    HW211889   1.350   3.540   5.418
 3664SOL     OW11890   3.606   7.020   2.126
 3664SOL    HW111891   3.621   0.081   2.174
 3664SOL    HW211892   3.514   7.020   2.085
 3665SOL     OW11893   1.949   0.721   5.376
 3665SOL    HW111894   2.043   0.740   5.401
 3665SOL    HW211895   1.947   0.651   5.304
 3666SOL     OW11896   0.777   4.631   4.017
 3666SOL    HW111897   0.867   4.647   3.976
 3666SOL    HW211898   0.740   4.545   3.984
 3667SOL     OW11899   0.665   1.451   6.431
 3667SOL    HW111900   0.747   1.468   6.376
 3667SOL    HW211901   0.632   1.359   6.414
 3668SOL     OW11902   1.625   5.664   2.145
 3668SOL    HW111903   1.704   5.649   2.086
 3668SOL    HW211904   1.544   5.682   2.089
 3669SOL     OW11905   5.610   1.563   3.872
 3669SOL    HW111906   5.543   1.501   3.913
 3669SOL    HW211907   5.699   1.552   3.917
 3670SOL     OW11908   2.143   5.497   6.582
 3670SOL    HW111909   2.213   5.481   6.512
 3670SOL    HW211910   2.114   5.410   6.621
 3671SOL     OW11911   1.762   0.721   3.440
 3671SOL    HW111912   1.755   0.720   3.539
 3671SOL    HW211913   1.837   0.662   3.411
 3672SOL     OW11914   6.492   0.013   0.673
 3672SOL    HW111915   6.397   0.035   0.695
 3672SOL    HW211916   6.543   7.021   0.758
 3673SOL     OW11917   4.283   0.543   6.872
 3673SOL    HW111918   4.365   0.526   6.817
 3673SOL    HW211919   4.208   0.568   6.811
 3674SOL     OW11920   1.333   6.434   0.700
 3674SOL    HW111921   1.293   6.523   0.681
 3674SOL    HW211922   1.300   6.367   0.633
 3675SOL     OW11923   1.872   2.177   4.523
 3675SOL    HW111924   1.827   2.173   4.612
 3675SOL    HW211925   1.965   2.214   4.534
 3676SOL     OW11926   1.802   4.890   2.731
 3676SOL    HW111927   1.883   4.854   2.687
 3676SOL    HW211928   1.818   4.900   2.829
 3677SOL     OW11929   6.653   6.824   3.708
 3677SOL    HW111930   6.688   6.779   3.790
 3677SOL    HW211931   6.575   6.882   3.733
 3678SOL     OW11932   1.616   1.645   3.571
 3678SOL    HW111933   1.709   1.643   3.534
 3678SOL    HW211934   1.557   1.697   3.509
 3679SOL     OW11935   6.936   0.740   1.620
 3679SOL    HW111936   7.024   0.784   1.605
 3679SOL    HW211937   6.950   0.642   1.639
 3680SOL     OW11938   6.015   4.622   4.934
 3680SOL    HW111939   6.081   4.572   4.990
 3680SOL    HW211940   5.989   4.707   4.981
 3681SOL     OW11941   5.389   6.300   4.836
 3681SOL    HW111942   5.343   6.211   4.827
 3681SOL    HW211943   5.408   6.318   4.932
 3682SOL     OW11944   0.539   2.455   6.419
 3682SOL    HW111945   0.638   2.445   6.420
 3682SOL    HW211946   0.499   2.402   6.494
 3683SOL     OW11947   5.355   6.153   3.740
 3683SOL    HW111948   5.393   6.094   3.668
 3683SOL    HW211949   5.265   6.119   3.766
 3684SOL     OW11950   1.966   3.239   0.965
 3684SOL    HW111951   1.917   3.158   0.936
 3684SOL    HW211952   2.009   3.222   1.054
 3685SOL     OW11953   6.519   6.978   6.765
 3685SOL    HW111954   6.610   6.939   6.767
 3685SOL    HW211955   6.470   6.954   6.849
 3686SOL     OW11956   6.776   4.360   1.527
 3686SOL    HW111957   6.764   4.332   1.432
 3686SOL    HW211958   6.845   4.302   1.571
 3687SOL     OW11959   3.513   1.310   0.205
 3687SOL    HW111960   3.608   1.307   0.174
 3687SOL    HW211961   3.511   1.343   0.300
 3688SOL     OW11962   6.704   3.241   0.197
 3688SOL    HW111963   6.780   3.189   0.159
 3688SOL    HW211964   6.730   3.280   0.286
 3689SOL     OW11965   3.169   6.884   3.462
 3689SOL    HW111966   3.069   6.890   3.467
 3689SOL    HW211967   3.203   6.831   3.540
 3690SOL     OW11968   4.322   5.892   5.201
 3690SOL    HW111969   4.303   5.950   5.280
 3690SOL    HW211970   4.319   5.948   5.117
 3691SOL     OW11971   3.246   2.869   6.274
 3691SOL    HW111972   3.187   2.876   6.194
 3691SOL    HW211973   3.285   2.959   6.295
 3692SOL     OW11974   0.783   0.057   6.124
 3692SOL    HW111975   0.848   0.111   6.178
 3692SOL    HW211976   0.705   0.115   6.098
 3693SOL     OW11977   2.017   1.396   3.328
 3693SOL    HW111978   2.072   1.371   3.408
 3693SOL    HW211979   1.972   1.314   3.292
 3694SOL     OW11980   2.319   5.291   2.658
 3694SOL    HW111981   2.269   5.258   2.739
 3694SOL    HW211982   2.254   5.304   2.583
 3695SOL     OW11983   1.355   2.799   1.124
 3695SOL    HW111984   1.378   2.895   1.109
 3695SOL    HW211985   1.416   2.742   1.068
 3696SOL     OW11986   3.225   5.790   6.055
 3696SOL    HW111987   3.280   5.769   6.136
 3696SOL    HW211988   3.274   5.763   5.973
 3697SOL     OW11989   5.356   0.317   3.962
 3697SOL    HW111990   5.261   0.329   3.989
 3697SOL    HW211991   5.416   0.340   4.038
 3698SOL     OW11992   3.346   0.309   6.174
 3698SOL    HW111993   3.436   0.267   6.179
 3698SOL    HW211994   3.288   0.256   6.112
 3699SOL     OW11995   1.191   4.515   2.107
 3699SOL    HW111996   1.250   4.560   2.174
 3699SOL    HW211997   1.123   4.580   2.074
 3700SOL     OW11998   0.380   0.411   3.220
 3700SOL    HW111999   0.389   0.493   3.277
 3700SOL    HW212000   0.326   0.342   3.267
 3701SOL     OW12001   5.425   0.549   3.432
 3701SOL    HW112002   5.415   0.608   3.512
 3701SOL    HW212003   5.380   0.592   3.353
 3702SOL     OW12004   4.944   0.778   6.341
 3702SOL    HW112005   4.903   0.866   6.314
 3702SOL    HW212006   4.874   0.707   6.337
 3703SOL     OW12007   4.007   4.845   0.429
 3703SOL    HW112008   3.987   4.796   0.344
 3703SOL    HW212009   4.091   4.808   0.470
 3704SOL     OW12010   2.591   0.097   2.120
 3704SOL    HW112011   2.563   0.179   2.070
 3704SOL    HW212012   2.634   0.033   2.056
 3705SOL     OW12013   5.890   1.095   4.436
 3705SOL    HW112014   5.981   1.134   4.425
 3705SOL    HW212015   5.823   1.150   4.386
 3706SOL     OW12016   2.490   2.430   3.351
 3706SOL    HW112017   2.488   2.465   3.445
 3706SOL    HW212018   2.441   2.493   3.291
 3707SOL     OW12019   4.281   2.253   5.471
 3707SOL    HW112020   4.273   2.154   5.460
 3707SOL    HW212021   4.221   2.284   5.544
 3708SOL     OW12022   6.246   6.942   6.330
 3708SOL    HW112023   6.293   6.864   6.371
 3708SOL    HW212024   6.282   6.958   6.238
 3709SOL     OW12025   5.127   0.729   0.275
 3709SOL    HW112026   5.170   0.688   0.195
 3709SOL    HW212027   5.149   0.827   0.277
 3710SOL     OW12028   0.194   4.815   0.153
 3710SOL    HW112029   0.136   4.744   0.194
 3710SOL    HW212030   0.217   4.789   0.059
 3711SOL     OW12031   7.023   5.138   2.239
 3711SOL    HW112032   0.065   5.088   2.185
 3711SOL    HW212033   6.983   5.212   2.184
 3712SOL     OW12034   1.514   0.334   0.431
 3712SOL    HW112035   1.578   0.281   0.487
 3712SOL    HW212036   1.420   0.314   0.459
 3713SOL     OW12037   3.548   4.926   5.945
 3713SOL    HW112038   3.500   5.001   5.899
 3713SOL    HW212039   3.647   4.935   5.928
 3714SOL     OW12040   4.727   1.406   5.497
 3714SOL    HW112041   4.780   1.334   5.451
 3714SOL    HW212042   4.656   1.441   5.435
 3715SOL     OW12043   5.703   4.282   3.888
 3715SOL    HW112044   5.643   4.238   3.820
 3715SOL    HW212045   5.651   4.299   3.972
 3716SOL     OW12046   0.838   1.578   4.107
 3716SOL    HW112047   0.804   1.485   4.091
 3716SOL    HW212048   0.909   1.576   4.178
 3717SOL     OW12049   6.421   0.497   0.335
 3717SOL    HW112050   6.432   0.527   0.240
 3717SOL    HW212051   6.444   0.573   0.396
 3718SOL     OW12052   0.866   5.372   0.269
 3718SOL    HW112053   0.836   5.295   0.326
 3718SOL    HW212054   0.798   5.445   0.272
 3719SOL     OW12055   3.757   4.809   7.022
 3719SOL    HW112056   3.672   4.846   0.036
 3719SOL    HW212057   3.772   4.848   6.931
 3720SOL     OW12058   0.069   1.525   5.827
 3720SOL    HW112059   0.130   1.458   5.870
 3720SOL    HW212060   0.007   1.562   5.895
 3721SOL     OW12061   4.572   3.724   0.266
 3721SOL    HW112062   4.550   3.763   0.355
 3721SOL    HW212063   4.491   3.727   0.208
 3722SOL     OW12064   5.668   6.217   1.467
 3722SOL    HW112065   5.582   6.172   1.443
 3722SOL    HW212066   5.664   6.313   1.441
 3723SOL     OW12067   4.621   1.137   0.465
 3723SOL    HW112068   4.705   1.180   0.434
 3723SOL    HW212069   4.583   1.080   0.392
 3724SOL     OW12070   0.069   4.875   5.676
 3724SOL    HW112071   0.142   4.863   5.608
 3724SOL    HW212072   7.009   4.837   5.641
 3725SOL     OW12073   6.488   6.009   0.745
 3725SOL    HW112074   6.559   5.941   0.763
 3725SOL    HW212075   6.441   6.031   0.831
 3726SOL     OW12076   5.963   3.329   1.239
 3726SOL    HW112077   6.058   3.356   1.224
 3726SOL    HW212078   5.905   3.410   1.245
 3727SOL     OW12079   2.591   2.745   5.278
 3727SOL    HW112080   2.570   2.839   5.251
 3727SOL    HW212081   2.565   2.731   5.374
 3728SOL     OW12082   0.715   3.539   6.896
 3728SOL    HW112083   0.668   3.531   6.808
 3728SOL    HW212084   0.757   3.451   6.919
 3729SOL     OW12085   0.683   2.482   3.273
 3729SOL    HW112086   0.716   2.427   3.196
 3729SOL    HW212087   0.730   2.570   3.274
 3730SOL     OW12088   2.154   0.399   0.810
 3730SOL    HW112089   2.088   0.325   0.799
 3730SOL    HW212090   2.232   0.365   0.862
 3731SOL     OW12091   3.164   5.947   6.364
 3731SOL    HW112092   3.116   5.974   6.281
 3731SOL    HW212093   3.220   6.023   6.396
 3732SOL     OW12094   1.920   3.666   4.554
 3732SOL    HW112095   1.996   3.601   4.545
 3732SOL    HW212096   1.956   3.759   4.556
 3733SOL     OW12097   3.463   3.093   0.848
 3733SOL    HW112098   3.513   3.081   0.934
 3733SOL    HW212099   3.396   3.019   0.838
 3734SOL     OW12100   5.160   6.916   3.865
 3734SOL    HW112101   5.187   7.002   3.822
 3734SOL    HW212102   5.231   6.847   3.848
 3735SOL     OW12103   3.356   2.017   1.650
 3735SOL    HW112104   3.299   2.089   1.691
 3735SOL    HW212105   3.402   1.966   1.722
 3736SOL     OW12106   5.134   1.091   5.783
 3736SOL    HW112107   5.225   1.131   5.777
 3736SOL    HW212108   5.106   1.057   5.693
 3737SOL     OW12109   3.478   6.441   3.847
 3737SOL    HW112110   3.479   6.397   3.758
 3737SOL    HW212111   3.471   6.540   3.835
 3738SOL     OW12112   0.166   0.202   4.479
 3738SOL    HW112113   0.253   0.153   4.475
 3738SOL    HW212114   0.091   0.136   4.487
 3739SOL     OW12115   1.089   3.262   2.027
 3739SOL    HW112116   1.189   3.264   2.020
 3739SOL    HW212117   1.060   3.321   2.102
 3740SOL     OW12118   5.571   0.469   6.883
 3740SOL    HW112119   5.520   0.407   6.943
 3740SOL    HW212120   5.587   0.425   6.795
 3741SOL     OW12121   3.407   2.151   6.963
 3741SOL    HW112122   3.491   2.199   6.938
 3741SOL    HW212123   3.335   2.175   6.898
 3742SOL     OW12124   3.284   3.453   5.467
 3742SOL    HW112125   3.340   3.386   5.515
 3742SOL    HW212126   3.303   3.544   5.505
 3743SOL     OW12127   1.250   5.814   6.000
 3743SOL    HW112128   1.325   5.768   5.953
 3743SOL    HW212129   1.283   5.856   6.084
 3744SOL     OW12130   6.729   5.295   3.313
 3744SOL    HW112131   6.826   5.295   3.289
 3744SOL    HW212132   6.709   5.375   3.370
 3745SOL     OW12133   5.334   6.021   1.791
 3745SOL    HW112134   5.257   6.048   1.850
 3745SOL    HW212135   5.381   6.102   1.758
 3746SOL     OW12136   4.333   1.469   1.776
 3746SOL    HW112137   4.348   1.444   1.681
 3746SOL    HW212138   4.283   1.396   1.823
 3747SOL     OW12139   2.455   0.140   0.736
 3747SOL    HW112140   2.393   0.178   0.667
 3747SOL    HW212141   2.481   0.047   0.709
 3748SOL     OW12142   5.461   0.720   1.974
 3748SOL    HW112143   5.396   0.647   1.955
 3748SOL    HW212144   5.541   0.683   2.021
 3749SOL     OW12145   1.917   0.373   3.986
 3749SOL    HW112146   1.925   0.470   4.008
 3749SOL    HW212147   1.826   0.354   3.950
 3750SOL     OW12148   0.233   4.317   6.411
 3750SOL    HW112149   0.256   4.288   6.504
 3750SOL    HW212150   0.187   4.405   6.414
 3751SOL     OW12151   1.489   4.098   1.463
 3751SOL    HW112152   1.440   4.062   1.385
 3751SOL    HW212153   1.542   4.025   1.506
 3752SOL     OW12154   5.199   6.121   6.975
 3752SOL    HW112155   5.259   6.079   0.019
 3752SOL    HW212156   5.130   6.177   7.021
 3753SOL     OW12157   0.376   7.022   3.302
 3753SOL    HW112158   0.458   0.054   3.291
 3753SOL    HW212159   0.367   6.996   3.398
 3754SOL     OW12160   2.373   1.577   1.421
 3754SOL    HW112161   2.377   1.663   1.472
 3754SOL    HW212162   2.462   1.556   1.382
 3755SOL     OW12163   3.148   5.490   4.606
 3755SOL    HW112164   3.219   5.525   4.545
 3755SOL    HW212165   3.190   5.435   4.678
 3756SOL     OW12166   1.536   0.056   1.024
 3756SOL    HW112167   1.621   0.025   1.067
 3756SOL    HW212168   1.493   7.005   0.975
 3757SOL     OW12169   0.433   4.201   1.144
 3757SOL    HW112170   0.473   4.230   1.057
 3757SOL    HW212171   0.497   4.220   1.219
 3758SOL     OW12172   1.892   6.779   4.007
 3758SOL    HW112173   1.895   6.789   4.106
 3758SOL    HW212174   1.827   6.707   3.983
 3759SOL     OW12175   5.649   0.203   4.262
 3759SOL    HW112176   5.568   0.148   4.244
 3759SOL    HW212177   5.730   0.153   4.232
 3760SOL     OW12178   0.943   0.998   2.921
 3760SOL    HW112179   1.007   1.049   2.978
 3760SOL    HW212180   0.910   1.057   2.847
 3761SOL     OW12181   4.221   1.980   5.491
 3761SOL    HW112182   4.164   1.922   5.549
 3761SOL    HW212183   4.314   1.982   5.527
 3762SOL     OW12184   0.572   3.007   3.848
 3762SOL    HW112185   0.632   3.077   3.810
 3762SOL    HW212186   0.511   2.973   3.777
 3763SOL     OW12187   0.606   5.313   6.645
 3763SOL    HW112188   0.700   5.298   6.676
 3763SOL    HW212189   0.544   5.301   6.722
 3764SOL     OW12190   2.816   1.121   2.535
 3764SOL    HW112191   2.819   1.177   2.617
 3764SOL    HW212192   2.729   1.135   2.488
 3765SOL     OW12193   5.513   2.607   2.835
 3765SOL    HW112194   5.434   2.592   2.776
 3765SOL    HW212195   5.593   2.561   2.797
 3766SOL     OW12196   1.291   2.883   2.304
 3766SOL    HW112197   1.280   2.915   2.210
 3766SOL    HW212198   1.202   2.877   2.348
 3767SOL     OW12199   1.570   5.911   5.943
 3767SOL    HW112200   1.561   5.827   5.997
 3767SOL    HW212201   1.606   5.888   5.852
 3768SOL     OW12202   1.680   6.578   2.744
 3768SOL    HW112203   1.641   6.648   2.803
 3768SOL    HW212204   1.640   6.584   2.653
 3769SOL     OW12205   5.316   5.619   4.048
 3769SOL    HW112206   5.381   5.605   4.123
 3769SOL    HW212207   5.262   5.536   4.035
 3770SOL     OW12208   2.918   0.830   1.691
 3770SOL    HW112209   2.833   0.857   1.648
 3770SOL    HW212210   2.947   0.741   1.655
 3771SOL     OW12211   6.886   5.928   5.503
 3771SOL    HW112212   6.918   5.909   5.596
 3771SOL    HW212213   6.800   5.880   5.486
 3772SOL     OW12214   1.391   6.255   2.033
 3772SOL    HW112215   1.460   6.218   1.971
 3772SOL    HW212216   1.395   6.205   2.120
 3773SOL     OW12217   4.998   5.027   6.930
 3773SOL    HW112218   5.071   4.960   6.937
 3773SOL    HW212219   4.945   5.029   7.015
 3774SOL     OW12220   6.603   4.703   1.777
 3774SOL    HW112221   6.600   4.636   1.703
 3774SOL    HW212222   6.541   4.675   1.850
 3775SOL     OW12223   5.122   5.153   4.824
 3775SOL    HW112224   5.160   5.221   4.761
 3775SOL    HW212225   5.074   5.199   4.898
 3776SOL     OW12226   4.408   3.205   6.502
 3776SOL    HW112227   4.334   3.189   6.437
 3776SOL    HW212228   4.491   3.233   6.452
 3777SOL     OW12229   2.935   5.191   3.836
 3777SOL    HW112230   2.928   5.093   3.858
 3777SOL    HW212231   2.848   5.223   3.800
 3778SOL     OW12232   3.126   4.888   6.827
 3778SOL    HW112233   3.050   4.932   6.779
 3778SOL    HW212234   3.211   4.902   6.776
 3779SOL     OW12235   6.694   4.718   6.853
 3779SOL    HW112236   6.652   4.782   6.918
 3779SOL    HW212237   6.793   4.719   6.865
 3780SOL     OW12238   6.072   3.292   1.767
 3780SOL    HW112239   6.076   3.202   1.723
 3780SOL    HW212240   6.064   3.363   1.697
 3781SOL     OW12241   1.396   6.700   5.685
 3781SOL    HW112242   1.476   6.751   5.654
 3781SOL    HW212243   1.422   6.642   5.762
 3782SOL     OW12244   4.201   5.315   0.529
 3782SOL    HW112245   4.200   5.255   0.449
 3782SOL    HW212246   4.246   5.268   0.605
 3783SOL     OW12247   4.575   5.276   5.092
 3783SOL    HW112248   4.610   5.198   5.039
 3783SOL    HW212249   4.552   5.351   5.029
 3784SOL     OW12250   5.192   2.889   5.410
 3784SOL    HW112251   5.159   2.797   5.386
 3784SOL    HW212252   5.262   2.881   5.481
 3785SOL     OW12253   1.026   2.498   2.942
 3785SOL    HW112254   1.072   2.432   3.001
 3785SOL    HW212255   1.090   2.530   2.871
 3786SOL     OW12256   1.710   3.548   4.692
 3786SOL    HW112257   1.754   3.474   4.744
 3786SOL    HW212258   1.780   3.605   4.649
 3787SOL     OW12259   5.473   6.319   3.916
 3787SOL    HW112260   5.381   6.333   3.951
 3787SOL    HW212261   5.471   6.246   3.847
 3788SOL     OW12262   5.138   3.058   5.888
 3788SOL    HW112263   5.071   3.107   5.833
 3788SOL    HW212264   5.095   3.027   5.973
 3789SOL     OW12265   2.095   3.253   1.214
 3789SOL    HW112266   2.154   3.200   1.276
 3789SOL    HW212267   2.137   3.341   1.196
 3790SOL     OW12268   0.859   6.775   1.557
 3790SOL    HW112269   0.791   6.807   1.492
 3790SOL    HW212270   0.935   6.732   1.508
 3791SOL     OW12271   4.947   0.779   4.830
 3791SOL    HW112272   4.946   0.873   4.795
 3791SOL    HW212273   4.892   0.774   4.914
 3792SOL     OW12274   6.624   0.312   4.112
 3792SOL    HW112275   6.605   0.396   4.060
 3792SOL    HW212276   6.702   0.329   4.173
 3793SOL     OW12277   4.021   4.562   0.736
 3793SOL    HW112278   3.944   4.575   0.674
 3793SOL    HW212279   4.087   4.499   0.696
 3794SOL     OW12280   1.654   5.035   6.022
 3794SOL    HW112281   1.559   5.022   6.050
 3794SOL    HW212282   1.695   4.947   6.000
 3795SOL     OW12283   3.063   6.249   0.750
 3795SOL    HW112284   3.051   6.347   0.737
 3795SOL    HW212285   3.066   6.228   0.848
 3796SOL     OW12286   5.059   1.297   6.998
 3796SOL    HW112287   5.134   1.230   6.997
 3796SOL    HW212288   4.978   1.257   6.955
 3797SOL     OW12289   0.170   3.296   1.299
 3797SOL    HW112290   0.230   3.374   1.280
 3797SOL    HW212291   0.183   3.267   1.394
 3798SOL     OW12292   1.116   5.288   3.793
 3798SOL    HW112293   1.034   5.318   3.842
 3798SOL    HW212294   1.169   5.226   3.852
 3799SOL     OW12295   0.397   0.902   3.609
 3799SOL    HW112296   0.427   0.932   3.700
 3799SOL    HW212297   0.477   0.886   3.551
 3800SOL     OW12298   5.451   2.539   3.201
 3800SOL    HW112299   5.514   2.463   3.187
 3800SOL    HW212300   5.503   2.621   3.227
 3801SOL     OW12301   6.024   0.952   0.612
 3801SOL    HW112302   6.035   0.864   0.660
 3801SOL    HW212303   6.109   1.003   0.618
 3802SOL     OW12304   6.481   3.321   1.886
 3802SOL    HW112305   6.445   3.402   1.933
 3802SOL    HW212306   6.473   3.242   1.946
 3803SOL     OW12307   4.450   3.834   5.324
 3803SOL    HW112308   4.405   3.917   5.356
 3803SOL    HW212309   4.382   3.766   5.298
 3804SOL     OW12310   3.880   6.494   3.677
 3804SOL    HW112311   3.833   6.429   3.617
 3804SOL    HW212312   3.875   6.586   3.637
 3805SOL     OW12313   2.450   2.262   6.575
 3805SOL    HW112314   2.459   2.183   6.636
 3805SOL    HW212315   2.409   2.338   6.625
 3806SOL     OW12316   2.214   5.061   1.589
 3806SOL    HW112317   2.286   5.029   1.528
 3806SOL    HW212318   2.204   4.998   1.666
 3807SOL     OW12319   1.304   4.184   3.623
 3807SOL    HW112320   1.282   4.106   3.565
 3807SOL    HW212321   1.231   4.251   3.618
 3808SOL     OW12322   2.708   6.477   6.097
 3808SOL    HW112323   2.627   6.529   6.068
 3808SOL    HW212324   2.731   6.409   6.027
 3809SOL     OW12325   5.373   1.771   1.677
 3809SOL    HW112326   5.314   1.846   1.646
 3809SOL    HW212327   5.415   1.795   1.764
 3810SOL     OW12328   4.770   2.354   2.925
 3810SOL    HW112329   4.700   2.313   2.866
 3810SOL    HW212330   4.765   2.313   3.016
 3811SOL     OW12331   6.818   6.066   5.109
 3811SOL    HW112332   6.799   6.112   5.196
 3811SOL    HW212333   6.896   6.108   5.065
 3812SOL     OW12334   4.270   5.939   0.110
 3812SOL    HW112335   4.280   5.865   0.043
 3812SOL    HW212336   4.247   5.900   0.199
 3813SOL     OW12337   5.805   3.957   0.029
 3813SOL    HW112338   5.789   4.051   7.022
 3813SOL    HW212339   5.847   3.960   0.120
 3814SOL     OW12340   0.269   0.253   4.845
 3814SOL    HW112341   0.236   0.333   4.794
 3814SOL    HW212342   0.368   0.259   4.858
 3815SOL     OW12343   5.796   3.587   6.013
 3815SOL    HW112344   5.797   3.686   6.006
 3815SOL    HW212345   5.713   3.551   5.971
 3816SOL     OW12346   6.525   6.340   0.963
 3816SOL    HW112347   6.613   6.308   0.928
 3816SOL    HW212348   6.537   6.376   1.055
 3817SOL     OW12349   4.295   3.633   1.540
 3817SOL    HW112350   4.362   3.687   1.591
 3817SOL    HW212351   4.223   3.693   1.507
 3818SOL     OW12352   5.528   6.395   2.403
 3818SOL    HW112353   5.550   6.299   2.424
 3818SOL    HW212354   5.588   6.454   2.457
 3819SOL     OW12355   6.305   3.496   3.211
 3819SOL    HW112356   6.313   3.589   3.176
 3819SOL    HW212357   6.331   3.494   3.307
 3820SOL     OW12358   3.489   6.501   5.678
 3820SOL    HW112359   3.428   6.516   5.601
 3820SOL    HW212360   3.437   6.467   5.756
 3821SOL     OW12361   1.691   0.140   0.561
 3821SOL    HW112362   1.718   0.044   0.556
 3821SOL    HW212363   1.702   0.173   0.655
 3822SOL     OW12364   4.866   0.009   2.250
 3822SOL    HW112365   4.942   6.986   2.294
 3822SOL    HW212366   4.891   0.104   2.233
 3823SOL     OW12367   5.313   6.483   5.426
 3823SOL    HW112368   5.361   6.516   5.507
 3823SOL    HW212369   5.345   6.391   5.404
 3824SOL     OW12370   2.366   2.856   0.526
 3824SOL    HW112371   2.308   2.776   0.512
 3824SOL    HW212372   2.318   2.923   0.582
 3825SOL     OW12373   0.274   5.163   5.844
 3825SOL    HW112374   0.198   5.102   5.865
 3825SOL    HW212375   0.319   5.133   5.760
 3826SOL     OW12376   5.318   3.548   3.252
 3826SOL    HW112377   5.318   3.570   3.154
 3826SOL    HW212378   5.281   3.625   3.303
 3827SOL     OW12379   0.040   1.674   6.901
 3827SOL    HW112380   0.053   1.652   6.998
 3827SOL    HW212381   0.074   1.766   6.883
 3828SOL     OW12382   4.053   3.604   3.997
 3828SOL    HW112383   4.076   3.543   4.073
 3828SOL    HW212384   3.968   3.573   3.955
 3829SOL     OW12385   0.603   3.485   1.734
 3829SOL    HW112386   0.701   3.467   1.732
 3829SOL    HW212387   0.554   3.402   1.709
 3830SOL     OW12388   5.851   0.379   3.292
 3830SOL    HW112389   5.794   0.458   3.272
 3830SOL    HW212390   5.813   0.328   3.369
 3831SOL     OW12391   4.749   2.222   3.157
 3831SOL    HW112392   4.765   2.292   3.226
 3831SOL    HW212393   4.784   2.134   3.189
 3832SOL     OW12394   6.577   0.784   3.631
 3832SOL    HW112395   6.646   0.855   3.648
 3832SOL    HW212396   6.618   0.694   3.649
 3833SOL     OW12397   1.844   2.808   5.192
 3833SOL    HW112398   1.867   2.723   5.144
 3833SOL    HW212399   1.745   2.811   5.208
 3834SOL     OW12400   5.101   4.690   0.976
 3834SOL    HW112401   5.071   4.726   1.064
 3834SOL    HW212402   5.061   4.600   0.961
 3835SOL     OW12403   4.248   5.609   5.434
 3835SOL    HW112404   4.341   5.579   5.456
 3835SOL    HW212405   4.190   5.600   5.514
 3836SOL     OW12406   6.628   6.191   4.942
 3836SOL    HW112407   6.644   6.150   5.032
 3836SOL    HW212408   6.681   6.275   4.933
 3837SOL     OW12409   4.209   4.784   6.088
 3837SOL    HW112410   4.191   4.799   6.185
 3837SOL    HW212411   4.280   4.715   6.077
 3838SOL     OW12412   6.960   0.391   4.088
 3838SOL    HW112413   6.958   0.291   4.097
 3838SOL    HW212414   6.997   0.430   4.172
 3839SOL     OW12415   5.076   0.640   3.603
 3839SOL    HW112416   5.035   0.711   3.661
 3839SOL    HW212417   5.053   0.550   3.640
 3840SOL     OW12418   3.380   1.052   6.622
 3840SOL    HW112419   3.296   1.102   6.603
 3840SOL    HW212420   3.444   1.063   6.546
 3841SOL     OW12421   5.884   4.421   3.714
 3841SOL    HW112422   5.836   4.342   3.753
 3841SOL    HW212423   5.871   4.501   3.773
 3842SOL     OW12424   2.111   4.122   5.741
 3842SOL    HW112425   2.185   4.064   5.706
 3842SOL    HW212426   2.074   4.081   5.824
 3843SOL     OW12427   5.158   2.260   6.346
 3843SOL    HW112428   5.141   2.254   6.445
 3843SOL    HW212429   5.076   2.292   6.300
 3844SOL     OW12430   6.892   0.553   1.225
 3844SOL    HW112431   6.897   0.500   1.141
 3844SOL    HW212432   6.797   0.561   1.254
 3845SOL     OW12433   1.766   5.793   0.692
 3845SOL    HW112434   1.767   5.771   0.790
 3845SOL    HW212435   1.859   5.788   0.656
 3846SOL     OW12436   0.393   3.284   2.595
 3846SOL    HW112437   0.396   3.344   2.515
 3846SOL    HW212438   0.405   3.189   2.565
 3847SOL     OW12439   0.279   1.903   6.408
 3847SOL    HW112440   0.374   1.897   6.438
 3847SOL    HW212441   0.247   1.998   6.417
 3848SOL     OW12442   6.225   4.178   1.831
 3848SOL    HW112443   6.255   4.132   1.915
 3848SOL    HW212444   6.155   4.122   1.786
 3849SOL     OW12445   6.953   4.863   6.129
 3849SOL    HW112446   0.012   4.860   6.183
 3849SOL    HW212447   6.879   4.900   6.185
 3850SOL     OW12448   2.950   2.435   1.449
 3850SOL    HW112449   3.002   2.409   1.531
 3850SOL    HW212450   2.861   2.389   1.451
 3851SOL     OW12451   0.406   6.287   2.799
 3851SOL    HW112452   0.444   6.380   2.799
 3851SOL    HW212453   0.307   6.291   2.792
 3852SOL     OW12454   1.679   0.122   4.499
 3852SOL    HW112455   1.728   0.097   4.416
 3852SOL    HW212456   1.595   0.068   4.506
 3853SOL     OW12457   3.126   0.662   3.614
 3853SOL    HW112458   3.040   0.612   3.615
 3853SOL    HW212459   3.155   0.677   3.519
 3854SOL     OW12460   0.044   2.336   1.692
 3854SOL    HW112461   0.053   2.418   1.749
 3854SOL    HW212462   0.111   2.268   1.720
 3855SOL     OW12463   3.507   6.841   6.904
 3855SOL    HW112464   3.451   6.907   6.955
 3855SOL    HW212465   3.593   6.885   6.878
 3856SOL     OW12466   0.389   2.698   6.306
 3856SOL    HW112467   0.428   2.632   6.371
 3856SOL    HW212468   0.422   2.678   6.214
 3857SOL     OW12469   2.262   0.246   6.179
 3857SOL    HW112470   2.281   0.255   6.277
 3857SOL    HW212471   2.166   0.269   6.161
 3858SOL     OW12472   4.801   1.096   4.345
 3858SOL    HW112473   4.894   1.102   4.381
 3858SOL    HW212474   4.783   1.175   4.286
 3859SOL     OW12475   5.831   6.734   1.635
 3859SOL    HW112476   5.762   6.662   1.648
 3859SOL    HW212477   5.786   6.817   1.603
 3860SOL     OW12478   1.707   6.808   4.339
 3860SOL    HW112479   1.621   6.807   4.391
 3860SOL    HW212480   1.735   6.902   4.322
 3861SOL     OW12481   2.630   5.179   1.736
 3861SOL    HW112482   2.595   5.272   1.749
 3861SOL    HW212483   2.622   5.154   1.639
 3862SOL     OW12484   1.800   0.621   4.542
 3862SOL    HW112485   1.810   0.606   4.444
 3862SOL    HW212486   1.891   0.627   4.585
 3863SOL     OW12487   3.164   0.388   0.655
 3863SOL    HW112488   3.197   0.343   0.572
 3863SOL    HW212489   3.066   0.373   0.665
 3864SOL     OW12490   1.955   0.314   4.800
 3864SOL    HW112491   1.953   0.324   4.899
 3864SOL    HW212492   1.869   0.273   4.769
 3865SOL     OW12493   4.581   1.177   0.747
 3865SOL    HW112494   4.516   1.248   0.775
 3865SOL    HW212495   4.595   1.181   0.648
 3866SOL     OW12496   2.737   1.859   6.292
 3866SOL    HW112497   2.773   1.948   6.262
 3866SOL    HW212498   2.775   1.787   6.234
 3867SOL     OW12499   0.317   2.954   1.856
 3867SOL    HW112500   0.368   3.039   1.863
 3867SOL    HW212501   0.261   2.942   1.938
 3868SOL     OW12502   4.530   0.756   0.332
 3868SOL    HW112503   4.548   0.852   0.308
 3868SOL    HW212504   4.578   0.697   0.268
 3869SOL     OW12505   4.707   1.717   4.068
 3869SOL    HW112506   4.660   1.705   3.980
 3869SOL    HW212507   4.660   1.788   4.121
 3870SOL     OW12508   0.231   0.894   4.928
 3870SOL    HW112509   0.203   0.843   5.009
 3870SOL    HW212510   0.179   0.979   4.922
 3871SOL     OW12511   2.576   5.915   4.431
 3871SOL    HW112512   2.621   5.835   4.470
 3871SOL    HW212513   2.490   5.887   4.388
 3872SOL     OW12514   3.089   3.538   5.272
 3872SOL    HW112515   3.158   3.506   5.336
 3872SOL    HW212516   3.134   3.576   5.191
 3873SOL     OW12517   4.400   1.822   0.427
 3873SOL    HW112518   4.324   1.811   0.364
 3873SOL    HW212519   4.459   1.896   0.396
 3874SOL     OW12520   2.148   1.221   0.345
 3874SOL    HW112521   2.161   1.124   0.326
 3874SOL    HW212522   2.156   1.237   0.443
 3875SOL     OW12523   1.151   2.166   6.231
 3875SOL    HW112524   1.153   2.249   6.175
 3875SOL    HW212525   1.232   2.111   6.213
 3876SOL     OW12526   3.847   5.265   2.357
 3876SOL    HW112527   3.771   5.292   2.416
 3876SOL    HW212528   3.856   5.166   2.357
 3877SOL     OW12529   0.026   2.092   6.397
 3877SOL    HW112530   0.017   2.001   6.356
 3877SOL    HW212531   0.083   2.149   6.337
 3878SOL     OW12532   5.390   0.866   4.524
 3878SOL    HW112533   5.296   0.835   4.509
 3878SOL    HW212534   5.448   0.787   4.544
 3879SOL     OW12535   5.689   5.411   0.386
 3879SOL    HW112536   5.749   5.417   0.306
 3879SOL    HW212537   5.740   5.375   0.464
 3880SOL     OW12538   4.637   4.282   3.882
 3880SOL    HW112539   4.613   4.190   3.913
 3880SOL    HW212540   4.704   4.322   3.945
 3881SOL     OW12541   1.009   3.371   6.865
 3881SOL    HW112542   1.007   3.391   6.962
 3881SOL    HW212543   1.025   3.273   6.851
 3882SOL     OW12544   0.604   2.109   6.244
 3882SOL    HW112545   0.531   2.098   6.177
 3882SOL    HW212546   0.680   2.049   6.221
 3883SOL     OW12547   4.804   5.778   3.646
 3883SOL    HW112548   4.883   5.720   3.665
 3883SOL    HW212549   4.825   5.839   3.569
 3884SOL     OW12550   0.291   3.991   1.983
 3884SOL    HW112551   0.218   3.988   2.052
 3884SOL    HW212552   0.378   4.012   2.027
 3885SOL     OW12553   5.261   5.622   2.973
 3885SOL    HW112554   5.248   5.657   2.881
 3885SOL    HW212555   5.200   5.670   3.036
 3886SOL     OW12556   2.731   6.292   5.875
 3886SOL    HW112557   2.773   6.213   5.829
 3886SOL    HW212558   2.654   6.325   5.820
 3887SOL     OW12559   1.168   6.335   2.541
 3887SOL    HW112560   1.154   6.239   2.519
 3887SOL    HW212561   1.232   6.343   2.618
 3888SOL     OW12562   5.530   4.891   3.827
 3888SOL    HW112563   5.617   4.923   3.790
 3888SOL    HW212564   5.458   4.957   3.803
 3889SOL     OW12565   5.465   3.941   0.643
 3889SOL    HW112566   5.396   3.869   0.658
 3889SOL    HW212567   5.549   3.917   0.691
 3890SOL     OW12568   5.421   3.244   4.550
 3890SOL    HW112569   5.437   3.195   4.465
 3890SOL    HW212570   5.430   3.342   4.534
 3891SOL     OW12571   5.396   5.670   3.464
 3891SOL    HW112572   5.303   5.704   3.470
 3891SOL    HW212573   5.422   5.629   3.552
 3892SOL     OW12574   7.010   2.440   1.334
 3892SOL    HW112575   0.022   2.378   1.403
 3892SOL    HW212576   0.059   2.493   1.293
 3893SOL     OW12577   3.903   3.959   2.850
 3893SOL    HW112578   3.985   3.955   2.793
 3893SOL    HW212579   3.927   3.940   2.945
 3894SOL     OW12580   4.622   0.678   5.654
 3894SOL    HW112581   4.538   0.663   5.707
 3894SOL    HW212582   4.681   0.598   5.664
 3895SOL     OW12583   0.974   0.402   4.178
 3895SOL    HW112584   1.048   0.445   4.229
 3895SOL    HW212585   0.966   0.445   4.088
 3896SOL     OW12586   1.118   1.521   6.471
 3896SOL    HW112587   1.156   1.524   6.563
 3896SOL    HW212588   1.023   1.491   6.475
 3897SOL     OW12589   4.078   6.460   1.566
 3897SOL    HW112590   4.016   6.426   1.495
 3897SOL    HW212591   4.030   6.463   1.653
 3898SOL     OW12592   3.737   2.966   1.145
 3898SOL    HW112593   3.744   2.870   1.118
 3898SOL    HW212594   3.651   2.981   1.193
 3899SOL     OW12595   3.327   0.316   5.544
 3899SOL    HW112596   3.419   0.285   5.571
 3899SOL    HW212597   3.328   0.415   5.530
 3900SOL     OW12598   4.886   3.666   3.152
 3900SOL    HW112599   4.792   3.695   3.137
 3900SOL    HW212600   4.947   3.718   3.092
 3901SOL     OW12601   2.621   0.330   6.925
 3901SOL    HW112602   2.530   0.327   6.965
 3901SOL    HW212603   2.618   0.383   6.840
 3902SOL     OW12604   5.929   2.784   2.558
 3902SOL    HW112605   5.933   2.708   2.494
 3902SOL    HW212606   6.021   2.806   2.589
 3903SOL     OW12607   3.251   4.402   6.179
 3903SOL    HW112608   3.207   4.482   6.137
 3903SOL    HW212609   3.189   4.323   6.172
 3904SOL     OW12610   1.359   0.658   0.586
 3904SOL    HW112611   1.431   0.613   0.639
 3904SOL    HW212612   1.393   0.678   0.494
 3905SOL     OW12613   6.616   6.017   5.356
 3905SOL    HW112614   6.662   5.953   5.295
 3905SOL    HW212615   6.536   6.056   5.309
 3906SOL     OW12616   6.637   6.586   4.792
 3906SOL    HW112617   6.584   6.536   4.725
 3906SOL    HW212618   6.682   6.664   4.748
 3907SOL     OW12619   6.623   1.710   3.686
 3907SOL    HW112620   6.527   1.697   3.660
 3907SOL    HW212621   6.682   1.657   3.625
 3908SOL     OW12622   2.011   3.369   6.146
 3908SOL    HW112623   1.945   3.434   6.107
 3908SOL    HW212624   2.101   3.384   6.104
 3909SOL     OW12625   5.893   5.122   3.778
 3909SOL    HW112626   5.893   5.117   3.678
 3909SOL    HW212627   5.799   5.125   3.812
 3910SOL     OW12628   4.030   3.810   2.583
 3910SOL    HW112629   3.969   3.867   2.528
 3910SOL    HW212630   4.121   3.850   2.584
 3911SOL     OW12631   6.569   2.253   5.632
 3911SOL    HW112632   6.630   2.250   5.711
 3911SOL    HW212633   6.619   2.224   5.550
 3912SOL     OW12634   5.383   2.710   6.900
 3912SOL    HW112635   5.449   2.701   6.975
 3912SOL    HW212636   5.388   2.803   6.863
 3913SOL     OW12637   0.825   6.639   1.223
 3913SOL    HW112638   0.906   6.647   1.282
 3913SOL    HW212639   0.757   6.707   1.250
 3914SOL     OW12640   3.243   5.331   5.806
 3914SOL    HW112641   3.327   5.381   5.828
 3914SOL    HW212642   3.266   5.252   5.750
 3915SOL     OW12643   6.824   6.147   1.386
 3915SOL    HW112644   6.858   6.074   1.327
 3915SOL    HW212645   6.845   6.236   1.344
 3916SOL     OW12646   0.934   0.104   3.041
 3916SOL    HW112647   0.883   0.046   3.104
 3916SOL    HW212648   0.884   0.111   2.954
 3917SOL     OW12649   1.807   0.386   0.338
 3917SOL    HW112650   1.884   0.384   0.273
 3917SOL    HW212651   1.749   0.306   0.324
 3918SOL     OW12652   5.589   3.313   0.655
 3918SOL    HW112653   5.568   3.245   0.725
 3918SOL    HW212654   5.683   3.302   0.625
 3919SOL     OW12655   3.521   6.833   0.604
 3919SOL    HW112656   3.620   6.842   0.614
 3919SOL    HW212657   3.496   6.736   0.597
 3920SOL     OW12658   1.966   1.642   6.757
 3920SOL    HW112659   2.017   1.622   6.674
 3920SOL    HW212660   1.967   1.741   6.774
 3921SOL     OW12661   1.665   3.726   1.745
 3921SOL    HW112662   1.640   3.630   1.749
 3921SOL    HW212663   1.735   3.746   1.813
 3922SOL     OW12664   1.229   4.683   1.179
 3922SOL    HW112665   1.199   4.590   1.197
 3922SOL    HW212666   1.150   4.742   1.162
 3923SOL     OW12667   6.658   0.242   0.590
 3923SOL    HW112668   6.630   0.336   0.609
 3923SOL    HW212669   6.593   0.179   0.632
 3924SOL     OW12670   6.828   5.164   4.754
 3924SOL    HW112671   6.831   5.174   4.854
 3924SOL    HW212672   6.782   5.079   4.730
 3925SOL     OW12673   1.454   4.844   2.287
 3925SOL    HW112674   1.519   4.857   2.362
 3925SOL    HW212675   1.373   4.899   2.303
 3926SOL     OW12676   3.656   5.010   2.640
 3926SOL    HW112677   3.656   5.012   2.740
 3926SOL    HW212678   3.577   4.958   2.608
 3927SOL     OW12679   0.820   3.466   6.019
 3927SOL    HW112680   0.845   3.542   6.079
 3927SOL    HW212681   0.787   3.390   6.074
 3928SOL     OW12682   5.446   5.686   6.223
 3928SOL    HW112683   5.484   5.764   6.273
 3928SOL    HW212684   5.475   5.601   6.267
 3929SOL     OW12685   1.105   2.188   4.969
 3929SOL    HW112686   1.090   2.159   5.064
 3929SOL    HW212687   1.072   2.118   4.907
 3930SOL     OW12688   2.277   1.614   3.793
 3930SOL    HW112689   2.281   1.527   3.841
 3930SOL    HW212690   2.369   1.653   3.785
 3931SOL     OW12691   5.287   0.493   1.921
 3931SOL    HW112692   5.209   0.552   1.939
 3931SOL    HW212693   5.256   0.399   1.905
 3932SOL     OW12694   1.829   1.664   3.836
 3932SOL    HW112695   1.917   1.619   3.822
 3932SOL    HW212696   1.757   1.594   3.847
 3933SOL     OW12697   0.641   6.963   5.326
 3933SOL    HW112698   0.608   6.884   5.275
 3933SOL    HW212699   0.590   6.970   5.412
 3934SOL     OW12700   5.368   6.925   0.027
 3934SOL    HW112701   5.389   6.833   7.019
 3934SOL    HW212702   5.452   6.975   0.044
 3935SOL     OW12703   4.730   0.237   0.801
 3935SOL    HW112704   4.700   0.318   0.851
 3935SOL    HW212705   4.821   0.254   0.763
 3936SOL     OW12706   0.398   4.780   3.184
 3936SOL    HW112707   0.362   4.732   3.104
 3936SOL    HW212708   0.435   4.715   3.249
 3937SOL     OW12709   0.458   1.360   2.527
 3937SOL    HW112710   0.430   1.441   2.475
 3937SOL    HW212711   0.484   1.388   2.620
 3938SOL     OW12712   0.033   2.216   2.399
 3938SOL    HW112713   0.036   2.261   2.310
 3938SOL    HW212714   6.999   2.267   2.461
 3939SOL     OW12715   2.625   1.894   1.677
 3939SOL    HW112716   2.722   1.869   1.671
 3939SOL    HW212717   2.616   1.981   1.726
 3940SOL     OW12718   4.311   3.394   1.424
 3940SOL    HW112719   4.227   3.346   1.400
 3940SOL    HW212720   4.289   3.472   1.483
 3941SOL     OW12721   4.930   4.043   6.826
 3941SOL    HW112722   4.944   3.951   6.789
 3941SOL    HW212723   4.839   4.076   6.801
 3942SOL     OW12724   6.763   6.871   6.775
 3942SOL    HW112725   6.806   6.901   6.691
 3942SOL    HW212726   6.820   6.896   6.853
 3943SOL     OW12727   0.019   3.370   4.645
 3943SOL    HW112728   0.033   3.328   4.555
 3943SOL    HW212729   6.966   3.433   4.640
 3944SOL     OW12730   5.074   2.528   4.813
 3944SOL    HW112731   5.111   2.487   4.730
 3944SOL    HW212732   5.149   2.563   4.869
 3945SOL     OW12733   7.005   0.762   0.618
 3945SOL    HW112734   0.016   0.851   0.592
 3945SOL    HW212735   0.017   0.735   0.707
 3946SOL     OW12736   4.234   4.749   2.970
 3946SOL    HW112737   4.247   4.772   2.873
 3946SOL    HW212738   4.322   4.725   3.010
 3947SOL     OW12739   5.954   5.382   6.695
 3947SOL    HW112740   5.882   5.445   6.725
 3947SOL    HW212741   6.043   5.428   6.702
 3948SOL     OW12742   6.342   4.128   0.874
 3948SOL    HW112743   6.410   4.056   0.890
 3948SOL    HW212744   6.318   4.172   0.961
 3949SOL     OW12745   5.637   6.161   3.434
 3949SOL    HW112746   5.700   6.148   3.358
 3949SOL    HW212747   5.687   6.156   3.520
 3950SOL     OW12748   1.448   6.030   0.630
 3950SOL    HW112749   1.451   5.930   0.627
 3950SOL    HW212750   1.359   6.062   0.598
 3951SOL     OW12751   5.338   0.079   1.776
 3951SOL    HW112752   5.428   0.041   1.798
 3951SOL    HW212753   5.270   0.005   1.776
 3952SOL     OW12754   5.789   2.227   0.098
 3952SOL    HW112755   5.720   2.245   0.028
 3952SOL    HW212756   5.745   2.197   0.183
 3953SOL     OW12757   3.473   4.124   2.971
 3953SOL    HW112758   3.545   4.143   3.037
 3953SOL    HW212759   3.384   4.132   3.016
 3954SOL     OW12760   4.104   4.925   5.748
 3954SOL    HW112761   4.065   4.852   5.805
 3954SOL    HW212762   4.187   4.959   5.791
 3955SOL     OW12763   4.005   1.036   4.683
 3955SOL    HW112764   4.035   0.956   4.735
 3955SOL    HW212765   3.922   1.012   4.631
 3956SOL     OW12766   1.896   1.404   1.426
 3956SOL    HW112767   1.798   1.390   1.444
 3956SOL    HW212768   1.946   1.405   1.512
 3957SOL     OW12769   3.991   0.534   4.936
 3957SOL    HW112770   4.066   0.580   4.984
 3957SOL    HW212771   4.029   0.469   4.870
 3958SOL     OW12772   5.826   0.498   5.926
 3958SOL    HW112773   5.898   0.563   5.900
 3958SOL    HW212774   5.833   0.478   6.024
 3959SOL     OW12775   4.453   5.560   0.293
 3959SOL    HW112776   4.545   5.591   0.317
 3959SOL    HW212777   4.426   5.600   0.205
 3960SOL     OW12778   5.425   2.256   4.578
 3960SOL    HW112779   5.464   2.166   4.562
 3960SOL    HW212780   5.442   2.283   4.673
 3961SOL     OW12781   5.706   6.624   3.757
 3961SOL    HW112782   5.680   6.597   3.664
 3961SOL    HW212783   5.797   6.590   3.777
 3962SOL     OW12784   0.343   5.834   5.266
 3962SOL    HW112785   0.368   5.930   5.276
 3962SOL    HW212786   0.265   5.813   5.325
 3963SOL     OW12787   4.368   6.817   1.883
 3963SOL    HW112788   4.411   6.771   1.961
 3963SOL    HW212789   4.387   6.767   1.799
 3964SOL     OW12790   5.446   3.296   3.135
 3964SOL    HW112791   5.400   3.343   3.210
 3964SOL    HW212792   5.523   3.243   3.172
 3965SOL     OW12793   4.849   3.916   4.477
 3965SOL    HW112794   4.873   3.825   4.510
 3965SOL    HW212795   4.851   3.980   4.554
 3966SOL     OW12796   2.640   6.163   6.442
 3966SOL    HW112797   2.674   6.084   6.392
 3966SOL    HW212798   2.544   6.149   6.466
 3967SOL     OW12799   2.024   4.574   3.132
 3967SOL    HW112800   2.098   4.555   3.197
 3967SOL    HW212801   2.022   4.503   3.062
 3968SOL     OW12802   3.771   6.770   0.760
 3968SOL    HW112803   3.798   6.707   0.688
 3968SOL    HW212804   3.755   6.720   0.845
 3969SOL     OW12805   0.676   5.255   2.819
 3969SOL    HW112806   0.734   5.337   2.813
 3969SOL    HW212807   0.716   5.182   2.764
 3970SOL     OW12808   4.959   6.230   2.630
 3970SOL    HW112809   5.028   6.233   2.557
 3970SOL    HW212810   4.869   6.211   2.589
 3971SOL     OW12811   2.357   5.952   3.411
 3971SOL    HW112812   2.377   6.047   3.385
 3971SOL    HW212813   2.424   5.891   3.368
 3972SOL     OW12814   2.072   3.763   0.207
 3972SOL    HW112815   2.083   3.847   0.153
 3972SOL    HW212816   2.137   3.694   0.175
 3973SOL     OW12817   1.712   5.345   0.746
 3973SOL    HW112818   1.637   5.280   0.739
 3973SOL    HW212819   1.752   5.340   0.837
 3974SOL     OW12820   2.207   0.937   4.925
 3974SOL    HW112821   2.133   0.875   4.949
 3974SOL    HW212822   2.169   1.029   4.908
 3975SOL     OW12823   5.948   2.452   6.414
 3975SOL    HW112824   6.001   2.536   6.423
 3975SOL    HW212825   5.999   2.376   6.453
 3976SOL     OW12826   1.954   5.298   1.988
 3976SOL    HW112827   2.012   5.356   1.930
 3976SOL    HW212828   2.011   5.247   2.051
 3977SOL     OW12829   1.273   3.611   6.612
 3977SOL    HW112830   1.350   3.564   6.653
 3977SOL    HW212831   1.263   3.583   6.517
 3978SOL     OW12832   6.774   4.452   3.626
 3978SOL    HW112833   6.764   4.390   3.549
 3978SOL    HW212834   6.697   4.440   3.689
 3979SOL     OW12835   3.843   0.031   6.583
 3979SOL    HW112836   3.942   0.016   6.581
 3979SOL    HW212837   3.813   0.071   6.496
 3980SOL     OW12838   5.578   6.278   5.818
 3980SOL    HW112839   5.653   6.258   5.881
 3980SOL    HW212840   5.533   6.193   5.791
 3981SOL     OW12841   4.419   6.600   0.181
 3981SOL    HW112842   4.497   6.643   0.135
 3981SOL    HW212843   4.443   6.583   0.277
 3982SOL     OW12844   3.210   6.292   3.127
 3982SOL    HW112845   3.212   6.312   3.225
 3982SOL    HW212846   3.297   6.253   3.099
 3983SOL     OW12847   3.593   6.078   4.204
 3983SOL    HW112848   3.602   6.148   4.133
 3983SOL    HW212849   3.682   6.060   4.246
 3984SOL     OW12850   6.447   2.425   2.841
 3984SOL    HW112851   6.358   2.437   2.798
 3984SOL    HW212852   6.519   2.453   2.777
 3985SOL     OW12853   3.856   5.152   6.651
 3985SOL    HW112854   3.801   5.072   6.677
 3985SOL    HW212855   3.904   5.187   6.731
 3986SOL     OW12856   4.956   0.776   2.473
 3986SOL    HW112857   4.917   0.686   2.452
 3986SOL    HW212858   5.024   0.799   2.404
 3987SOL     OW12859   3.420   5.155   4.627
 3987SOL    HW112860   3.431   5.151   4.528
 3987SOL    HW212861   3.463   5.075   4.669
 3988SOL     OW12862   4.000   5.835   0.527
 3988SOL    HW112863   4.001   5.772   0.606
 3988SOL    HW212864   3.963   5.923   0.556
 3989SOL     OW12865   5.711   2.120   0.327
 3989SOL    HW112866   5.637   2.059   0.355
 3989SOL    HW212867   5.758   2.155   0.409
 3990SOL     OW12868   6.431   1.644   2.467
 3990SOL    HW112869   6.488   1.719   2.434
 3990SOL    HW212870   6.449   1.562   2.414
 3991SOL     OW12871   6.876   0.721   3.123
 3991SOL    HW112872   6.862   0.668   3.206
 3991SOL    HW212873   6.910   0.662   3.050
 3992SOL     OW12874   2.995   1.493   1.096
 3992SOL    HW112875   3.047   1.508   1.180
 3992SOL    HW212876   2.919   1.558   1.092
 3993SOL     OW12877   1.269   3.094   1.541
 3993SOL    HW112878   1.337   3.100   1.614
 3993SOL    HW212879   1.278   3.006   1.493
 3994SOL     OW12880   2.651   6.095   4.818
 3994SOL    HW112881   2.633   6.143   4.732
 3994SOL    HW212882   2.743   6.057   4.816
 3995SOL     OW12883   1.621   2.353   5.038
 3995SOL    HW112884   1.533   2.319   5.006
 3995SOL    HW212885   1.664   2.284   5.096
 3996SOL     OW12886   6.913   6.505   4.657
 3996SOL    HW112887   6.886   6.425   4.604
 3996SOL    HW212888   6.836   6.535   4.714
 3997SOL     OW12889   4.686   0.626   4.652
 3997SOL    HW112890   4.756   0.691   4.621
 3997SOL    HW212891   4.612   0.623   4.585
 3998SOL     OW12892   4.761   2.037   3.516
 3998SOL    HW112893   4.819   1.996   3.446
 3998SOL    HW212894   4.802   2.122   3.548
 3999SOL     OW12895   5.239   2.257   4.323
 3999SOL    HW112896   5.247   2.356   4.309
 3999SOL    HW212897   5.304   2.210   4.265
 4000SOL     OW12898   4.175   6.799   4.060
 4000SOL    HW112899   4.087   6.827   4.023
 4000SOL    HW212900   4.165   6.711   4.108
 4001SOL     OW12901   1.055   2.203   4.348
 4001SOL    HW112902   1.085   2.252   4.429
 4001SOL    HW212903   1.085   2.251   4.266
 4002SOL     OW12904   2.432   4.008   1.699
 4002SOL    HW112905   2.373   3.988   1.620
 4002SOL    HW212906   2.510   3.945   1.699
 4003SOL     OW12907   3.883   1.871   5.234
 4003SOL    HW112908   3.976   1.903   5.216
 4003SOL    HW212909   3.832   1.868   5.148
 4004SOL     OW12910   6.855   1.606   5.304
 4004SOL    HW112911   6.841   1.670   5.228
 4004SOL    HW212912   6.950   1.609   5.333
 4005SOL     OW12913   6.285   5.232   5.385
 4005SOL    HW112914   6.363   5.177   5.356
 4005SOL    HW212915   6.311   5.329   5.383
 4006SOL     OW12916   3.754   5.723   2.519
 4006SOL    HW112917   3.757   5.760   2.612
 4006SOL    HW212918   3.726   5.627   2.521
 4007SOL     OW12919   6.638   1.892   6.399
 4007SOL    HW112920   6.543   1.867   6.417
 4007SOL    HW212921   6.648   1.991   6.410
 4008SOL     OW12922   2.645   2.349   5.039
 4008SOL    HW112923   2.705   2.354   5.119
 4008SOL    HW212924   2.602   2.438   5.025
 4009SOL     OW12925   3.330   3.491   2.915
 4009SOL    HW112926   3.406   3.540   2.958
 4009SOL    HW212927   3.255   3.481   2.981
 4010SOL     OW12928   1.570   2.811   6.645
 4010SOL    HW112929   1.646   2.756   6.679
 4010SOL    HW212930   1.606   2.889   6.594
 4011SOL     OW12931   1.056   2.685   1.134
 4011SOL    HW112932   0.962   2.649   1.135
 4011SOL    HW212933   1.078   2.717   1.041
 4012SOL     OW12934   6.099   2.873   3.695
 4012SOL    HW112935   6.176   2.837   3.643
 4012SOL    HW212936   6.095   2.828   3.784
 4013SOL     OW12937   4.463   2.176   3.185
 4013SOL    HW112938   4.539   2.231   3.150
 4013SOL    HW212939   4.477   2.158   3.282
 4014SOL     OW12940   5.598   6.328   2.134
 4014SOL    HW112941   5.567   6.347   2.227
 4014SOL    HW212942   5.667   6.256   2.136
 4015SOL     OW12943   4.814   3.393   6.813
 4015SOL    HW112944   4.773   3.302   6.800
 4015SOL    HW212945   4.867   3.393   6.898
 4016SOL     OW12946   3.196   6.073   5.079
 4016SOL    HW112947   3.252   5.995   5.106
 4016SOL    HW212948   3.249   6.157   5.092
 4017SOL     OW12949   6.112   6.635   0.091
 4017SOL    HW112950   6.122   6.729   0.121
 4017SOL    HW212951   6.063   6.582   0.161
 4018SOL     OW12952   2.239   6.182   0.355
 4018SOL    HW112953   2.258   6.275   0.324
 4018SOL    HW212954   2.154   6.150   0.312
 4019SOL     OW12955   5.003   5.477   3.171
 4019SOL    HW112956   5.060   5.395   3.178
 4019SOL    HW212957   4.987   5.498   3.075
 4020SOL     OW12958   4.951   2.096   5.141
 4020SOL    HW112959   4.955   2.073   5.239
 4020SOL    HW212960   4.856   2.114   5.116
 4021SOL     OW12961   4.244   4.492   0.264
 4021SOL    HW112962   4.175   4.560   0.239
 4021SOL    HW212963   4.335   4.530   0.249
 4022SOL     OW12964   5.567   0.785   0.859
 4022SOL    HW112965   5.608   0.706   0.814
 4022SOL    HW212966   5.491   0.819   0.804
 4023SOL     OW12967   0.187   0.360   5.673
 4023SOL    HW112968   0.225   0.278   5.714
 4023SOL    HW212969   0.149   0.339   5.583
 4024SOL     OW12970   4.494   4.549   4.441
 4024SOL    HW112971   4.537   4.460   4.459
 4024SOL    HW212972   4.455   4.585   4.526
 4025SOL     OW12973   1.262   4.008   3.303
 4025SOL    HW112974   1.199   3.963   3.367
 4025SOL    HW212975   1.355   3.977   3.322
 4026SOL     OW12976   4.846   0.084   4.908
 4026SOL    HW112977   4.851   0.012   4.838
 4026SOL    HW212978   4.912   0.156   4.886
 4027SOL     OW12979   4.073   4.947   2.185
 4027SOL    HW112980   4.045   4.968   2.092
 4027SOL    HW212981   3.992   4.945   2.244
 4028SOL     OW12982   2.715   6.195   3.412
 4028SOL    HW112983   2.725   6.099   3.438
 4028SOL    HW212984   2.743   6.254   3.488
 4029SOL     OW12985   1.687   3.836   3.780
 4029SOL    HW112986   1.721   3.793   3.864
 4029SOL    HW212987   1.589   3.853   3.789
 4030SOL     OW12988   1.133   1.625   6.007
 4030SOL    HW112989   1.231   1.609   5.992
 4030SOL    HW212990   1.101   1.566   6.080
 4031SOL     OW12991   5.933   5.798   4.099
 4031SOL    HW112992   5.983   5.815   4.014
 4031SOL    HW212993   5.849   5.747   4.080
 4032SOL     OW12994   4.144   6.808   4.993
 4032SOL    HW112995   4.055   6.767   5.014
 4032SOL    HW212996   4.168   6.872   5.066
 4033SOL     OW12997   3.293   3.516   5.813
 4033SOL    HW112998   3.235   3.594   5.839
 4033SOL    HW212999   3.389   3.540   5.824
 4034SOL     OW13000   5.884   2.994   4.944
 4034SOL    HW113001   5.900   3.090   4.923
 4034SOL    HW213002   5.790   2.982   4.976
 4035SOL     OW13003   0.482   5.184   1.443
 4035SOL    HW113004   0.561   5.133   1.410
 4035SOL    HW213005   0.510   5.278   1.465
 4036SOL     OW13006   6.714   6.295   2.685
 4036SOL    HW113007   6.625   6.267   2.720
 4036SOL    HW213008   6.720   6.276   2.587
 4037SOL     OW13009   6.885   4.009   6.322
 4037SOL    HW113010   6.806   3.956   6.356
 4037SOL    HW213011   6.855   4.068   6.247
 4038SOL     OW13012   6.593   5.103   3.491
 4038SOL    HW113013   6.652   5.092   3.571
 4038SOL    HW213014   6.644   5.150   3.419
 4039SOL     OW13015   3.652   6.062   1.358
 4039SOL    HW113016   3.749   6.036   1.365
 4039SOL    HW213017   3.635   6.103   1.269
 4040SOL     OW13018   3.418   6.367   0.514
 4040SOL    HW113019   3.402   6.352   0.612
 4040SOL    HW213020   3.344   6.326   0.461
 4041SOL     OW13021   1.028   6.560   2.814
 4041SOL    HW113022   1.056   6.469   2.845
 4041SOL    HW213023   1.067   6.629   2.874
 4042SOL     OW13024   5.977   5.993   2.120
 4042SOL    HW113025   5.989   5.893   2.122
 4042SOL    HW213026   6.042   6.032   2.055
 4043SOL     OW13027   6.372   3.941   1.624
 4043SOL    HW113028   6.301   3.921   1.557
 4043SOL    HW213029   6.338   3.919   1.716
 4044SOL     OW13030   5.974   5.608   3.256
 4044SOL    HW113031   5.983   5.540   3.329
 4044SOL    HW213032   6.060   5.614   3.205
 4045SOL     OW13033   2.323   4.708   5.839
 4045SOL    HW113034   2.228   4.736   5.852
 4045SOL    HW213035   2.378   4.739   5.917
 4046SOL     OW13036   0.222   3.251   0.615
 4046SOL    HW113037   0.153   3.204   0.670
 4046SOL    HW213038   0.313   3.217   0.640
 4047SOL     OW13039   2.909   3.821   2.536
 4047SOL    HW113040   2.919   3.743   2.474
 4047SOL    HW213041   2.823   3.868   2.516
 4048SOL     OW13042   4.652   2.524   0.862
 4048SOL    HW113043   4.693   2.490   0.946
 4048SOL    HW213044   4.563   2.565   0.882
 4049SOL     OW13045   6.799   0.376   5.959
 4049SOL    HW113046   6.816   0.431   6.041
 4049SOL    HW213047   6.876   0.386   5.896
 4050SOL     OW13048   2.552   0.979   1.635
 4050SOL    HW113049   2.580   0.895   1.589
 4050SOL    HW213050   2.561   0.968   1.734
 4051SOL     OW13051   1.151   4.022   0.960
 4051SOL    HW113052   1.232   4.059   0.915
 4051SOL    HW213053   1.152   3.923   0.953
 4052SOL     OW13054   1.490   6.806   1.271
 4052SOL    HW113055   1.412   6.783   1.329
 4052SOL    HW213056   1.519   6.725   1.221
 4053SOL     OW13057   3.300   5.283   3.602
 4053SOL    HW113058   3.234   5.217   3.565
 4053SOL    HW213059   3.314   5.357   3.535
 4054SOL     OW13060   5.266   1.661   6.583
 4054SOL    HW113061   5.197   1.629   6.648
 4054SOL    HW213062   5.261   1.607   6.499
 4055SOL     OW13063   4.917   2.711   0.523
 4055SOL    HW113064   4.892   2.806   0.505
 4055SOL    HW213065   4.838   2.661   0.558
 4056SOL     OW13066   4.451   2.701   0.932
 4056SOL    HW113067   4.390   2.755   0.874
 4056SOL    HW213068   4.398   2.628   0.976
 4057SOL     OW13069   6.329   2.458   0.176
 4057SOL    HW113070   6.287   2.437   0.087
 4057SOL    HW213071   6.260   2.499   0.236
 4058SOL     OW13072   1.188   1.814   4.330
 4058SOL    HW113073   1.243   1.866   4.265
 4058SOL    HW213074   1.091   1.828   4.311
 4059SOL     OW13075   6.614   2.029   5.298
 4059SOL    HW113076   6.710   2.041   5.325
 4059SOL    HW213077   6.581   1.941   5.333
 4060SOL     OW13078   3.345   5.772   5.809
 4060SOL    HW113079   3.409   5.839   5.847
 4060SOL    HW213080   3.292   5.814   5.735
 4061SOL     OW13081   2.330   2.871   1.395
 4061SOL    HW113082   2.411   2.851   1.339
 4061SOL    HW213083   2.315   2.970   1.396
 4062SOL     OW13084   3.599   6.422   2.463
 4062SOL    HW113085   3.656   6.448   2.541
 4062SOL    HW213086   3.507   6.399   2.495
 4063SOL     OW13087   2.368   5.070   6.499
 4063SOL    HW113088   2.313   5.009   6.442
 4063SOL    HW213089   2.419   5.016   6.566
 4064SOL     OW13090   5.894   0.062   4.255
 4064SOL    HW113091   5.917   0.153   4.289
 4064SOL    HW213092   5.934   0.049   4.164
 4065SOL     OW13093   0.077   4.527   6.415
 4065SOL    HW113094   0.006   4.542   6.484
 4065SOL    HW213095   0.092   4.611   6.364
 4066SOL     OW13096   6.060   5.462   1.514
 4066SOL    HW113097   6.132   5.416   1.463
 4066SOL    HW213098   6.009   5.394   1.568
 4067SOL     OW13099   5.678   1.271   1.739
 4067SOL    HW113100   5.614   1.288   1.814
 4067SOL    HW213101   5.628   1.249   1.656
 4068SOL     OW13102   5.427   1.574   4.832
 4068SOL    HW113103   5.452   1.508   4.762
 4068SOL    HW213104   5.346   1.626   4.803
 4069SOL     OW13105   0.001   6.356   0.660
 4069SOL    HW113106   6.938   6.335   0.616
 4069SOL    HW213107   0.057   6.411   0.597
 4070SOL     OW13108   0.278   3.641   3.185
 4070SOL    HW113109   0.378   3.638   3.182
 4070SOL    HW213110   0.241   3.596   3.103
 4071SOL     OW13111   2.884   0.638   3.859
 4071SOL    HW113112   2.902   0.542   3.839
 4071SOL    HW213113   2.971   0.686   3.873
 4072SOL     OW13114   1.161   0.035   3.687
 4072SOL    HW113115   1.226   0.101   3.724
 4072SOL    HW213116   1.207   7.001   3.620
 4073SOL     OW13117   2.208   5.181   1.845
 4073SOL    HW113118   2.194   5.277   1.866
 4073SOL    HW213119   2.182   5.163   1.750
 4074SOL     OW13120   0.426   2.770   0.098
 4074SOL    HW113121   0.367   2.689   0.100
 4074SOL    HW213122   0.370   2.852   0.105
 4075SOL     OW13123   5.345   0.309   3.522
 4075SOL    HW113124   5.398   0.385   3.484
 4075SOL    HW213125   5.252   0.311   3.485
 4076SOL     OW13126   2.140   2.470   2.675
 4076SOL    HW113127   2.203   2.497   2.602
 4076SOL    HW213128   2.137   2.542   2.744
 4077SOL     OW13129   3.782   0.980   0.644
 4077SOL    HW113130   3.798   0.914   0.718
 4077SOL    HW213131   3.827   0.948   0.561
 4078SOL     OW13132   4.910   3.725   2.612
 4078SOL    HW113133   4.983   3.658   2.618
 4078SOL    HW213134   4.883   3.736   2.516
 4079SOL     OW13135   5.863   0.370   4.322
 4079SOL    HW113136   5.897   0.417   4.240
 4079SOL    HW213137   5.772   0.334   4.304
 4080SOL     OW13138   3.720   2.864   3.577
 4080SOL    HW113139   3.712   2.901   3.484
 4080SOL    HW213140   3.639   2.810   3.599
 4081SOL     OW13141   2.825   2.024   6.706
 4081SOL    HW113142   2.738   2.060   6.739
 4081SOL    HW213143   2.857   2.079   6.629
 4082SOL     OW13144   0.913   2.187   5.768
 4082SOL    HW113145   0.979   2.113   5.780
 4082SOL    HW213146   0.955   2.274   5.792
 4083SOL     OW13147   6.325   5.381   2.751
 4083SOL    HW113148   6.246   5.403   2.807
 4083SOL    HW213149   6.311   5.415   2.658
 4084SOL     OW13150   4.995   0.248   1.772
 4084SOL    HW113151   5.077   0.243   1.829
 4084SOL    HW213152   4.972   0.344   1.755
 4085SOL     OW13153   2.404   4.362   2.915
 4085SOL    HW113154   2.501   4.385   2.930
 4085SOL    HW213155   2.368   4.315   2.996
 4086SOL     OW13156   5.900   4.978   5.535
 4086SOL    HW113157   5.826   5.039   5.562
 4086SOL    HW213158   5.875   4.929   5.451
 4087SOL     OW13159   1.975   0.932   1.784
 4087SOL    HW113160   2.007   0.939   1.878
 4087SOL    HW213161   1.876   0.948   1.781
 4088SOL     OW13162   0.232   1.664   5.588
 4088SOL    HW113163   0.278   1.575   5.589
 4088SOL    HW213164   0.217   1.695   5.681
 4089SOL     OW13165   1.270   0.916   2.581
 4089SOL    HW113166   1.233   0.996   2.627
 4089SOL    HW213167   1.368   0.930   2.564
 4090SOL     OW13168   3.029   2.491   5.980
 4090SOL    HW113169   3.029   2.547   5.897
 4090SOL    HW213170   3.121   2.489   6.019
 4091SOL     OW13171   3.081   6.024   2.686
 4091SOL    HW113172   3.061   6.074   2.602
 4091SOL    HW213173   3.073   6.085   2.764
 4092SOL     OW13174   5.801   1.850   5.748
 4092SOL    HW113175   5.790   1.846   5.847
 4092SOL    HW213176   5.887   1.805   5.723
 4093SOL     OW13177   5.620   4.038   3.128
 4093SOL    HW113178   5.620   3.991   3.040
 4093SOL    HW213179   5.531   4.079   3.145
 4094SOL     OW13180   7.010   6.904   0.505
 4094SOL    HW113181   6.999   6.996   0.542
 4094SOL    HW213182   0.016   6.842   0.578
 4095SOL     OW13183   1.957   5.454   0.511
 4095SOL    HW113184   1.858   5.468   0.509
 4095SOL    HW213185   1.994   5.469   0.419
 4096SOL     OW13186   0.501   0.344   6.525
 4096SOL    HW113187   0.589   0.383   6.554
 4096SOL    HW213188   0.457   0.407   6.461
 4097SOL     OW13189   0.695   3.995   5.417
 4097SOL    HW113190   0.598   3.973   5.409
 4097SOL    HW213191   0.715   4.079   5.366
 4098SOL     OW13192   1.110   6.108   2.209
 4098SOL    HW113193   1.079   6.034   2.148
 4098SOL    HW213194   1.032   6.141   2.263
 4099SOL     OW13195   6.771   3.424   5.339
 4099SOL    HW113196   6.843   3.428   5.270
 4099SOL    HW213197   6.681   3.420   5.294
 4100SOL     OW13198   2.469   0.858   3.201
 4100SOL    HW113199   2.533   0.859   3.278
 4100SOL    HW213200   2.501   0.922   3.131
 4101SOL     OW13201   6.471   5.784   6.330
 4101SOL    HW113202   6.406   5.713   6.300
 4101SOL    HW213203   6.563   5.758   6.302
 4102SOL     OW13204   1.135   5.762   0.556
 4102SOL    HW113205   1.077   5.769   0.475
 4102SOL    HW213206   1.188   5.677   0.552
 4103SOL     OW13207   2.672   5.397   3.006
 4103SOL    HW113208   2.585   5.391   3.055
 4103SOL    HW213209   2.741   5.341   3.052
 4104SOL     OW13210   1.320   6.032   5.194
 4104SOL    HW113211   1.302   5.948   5.244
 4104SOL    HW213212   1.384   6.014   5.119
 4105SOL     OW13213   3.798   6.532   2.156
 4105SOL    HW113214   3.721   6.470   2.166
 4105SOL    HW213215   3.831   6.529   2.062
 4106SOL     OW13216   1.562   0.129   2.320
 4106SOL    HW113217   1.607   0.126   2.409
 4106SOL    HW213218   1.524   0.220   2.305
 4107SOL     OW13219   1.631   1.183   0.870
 4107SOL    HW113220   1.621   1.268   0.817
 4107SOL    HW213221   1.727   1.154   0.868
 4108SOL     OW13222   6.394   6.708   5.608
 4108SOL    HW113223   6.440   6.657   5.534
 4108SOL    HW213224   6.306   6.666   5.628
 4109SOL     OW13225   4.927   6.393   4.747
 4109SOL    HW113226   4.858   6.464   4.734
 4109SOL    HW213227   4.998   6.403   4.677
 4110SOL     OW13228   4.340   3.217   0.265
 4110SOL    HW113229   4.400   3.145   0.300
 4110SOL    HW213230   4.389   3.304   0.264
 4111SOL     OW13231   5.265   4.947   4.182
 4111SOL    HW113232   5.166   4.933   4.180
 4111SOL    HW213233   5.310   4.861   4.207
 4112SOL     OW13234   4.484   5.815   4.568
 4112SOL    HW113235   4.482   5.739   4.502
 4112SOL    HW213236   4.563   5.873   4.549
 4113SOL     OW13237   4.696   5.046   4.965
 4113SOL    HW113238   4.664   4.953   4.950
 4113SOL    HW213239   4.782   5.060   4.917
 4114SOL     OW13240   0.186   0.795   2.136
 4114SOL    HW113241   0.219   0.701   2.149
 4114SOL    HW213242   0.220   0.852   2.210
 4115SOL     OW13243   4.077   5.841   4.165
 4115SOL    HW113244   4.034   5.761   4.124
 4115SOL    HW213245   4.167   5.856   4.123
 4116SOL     OW13246   6.093   3.334   3.246
 4116SOL    HW113247   6.173   3.394   3.255
 4116SOL    HW213248   6.119   3.240   3.267
 4117SOL     OW13249   7.012   1.143   3.094
 4117SOL    HW113250   6.978   1.191   3.175
 4117SOL    HW213251   0.023   1.053   3.121
 4118SOL     OW13252   1.626   0.439   1.250
 4118SOL    HW113253   1.576   0.518   1.285
 4118SOL    HW213254   1.561   0.367   1.225
 4119SOL     OW13255   0.168   0.788   4.682
 4119SOL    HW113256   0.213   0.817   4.767
 4119SOL    HW213257   0.091   0.728   4.705
 4120SOL     OW13258   1.998   0.650   6.372
 4120SOL    HW113259   2.073   0.703   6.412
 4120SOL    HW213260   2.033   0.562   6.340
 4121SOL     OW13261   6.474   0.916   1.995
 4121SOL    HW113262   6.482   0.856   2.075
 4121SOL    HW213263   6.378   0.939   1.980
 4122SOL     OW13264   1.202   5.161   2.834
 4122SOL    HW113265   1.259   5.079   2.844
 4122SOL    HW213266   1.127   5.156   2.900
 4123SOL     OW13267   5.517   4.443   1.426
 4123SOL    HW113268   5.542   4.384   1.503
 4123SOL    HW213269   5.423   4.425   1.399
 4124SOL     OW13270   6.453   6.895   0.007
 4124SOL    HW113271   6.506   6.820   0.047
 4124SOL    HW213272   6.487   6.982   0.043
 4125SOL     OW13273   0.053   2.969   6.856
 4125SOL    HW113274   0.057   3.036   6.930
 4125SOL    HW213275   6.983   2.961   6.824
 4126SOL     OW13276   1.387   3.877   4.262
 4126SOL    HW113277   1.339   3.964   4.277
 4126SOL    HW213278   1.338   3.804   4.308
 4127SOL     OW13279   5.383   2.193   4.062
 4127SOL    HW113280   5.421   2.285   4.066
 4127SOL    HW213281   5.455   2.126   4.084
 4128SOL     OW13282   6.598   2.449   6.081
 4128SOL    HW113283   6.634   2.497   6.000
 4128SOL    HW213284   6.566   2.359   6.053
 4129SOL     OW13285   3.172   1.291   1.172
 4129SOL    HW113286   3.106   1.323   1.104
 4129SOL    HW213287   3.168   1.349   1.253
 4130SOL     OW13288   5.772   2.548   0.637
 4130SOL    HW113289   5.821   2.584   0.557
 4130SOL    HW213290   5.692   2.605   0.656
 4131SOL     OW13291   4.819   6.404   3.978
 4131SOL    HW113292   4.887   6.475   3.994
 4131SOL    HW213293   4.733   6.446   3.951
 4132SOL     OW13294   6.712   4.268   2.988
 4132SOL    HW113295   6.695   4.178   3.028
 4132SOL    HW213296   6.626   4.309   2.960
 4133SOL     OW13297   5.399   6.338   3.345
 4133SOL    HW113298   5.465   6.268   3.371
 4133SOL    HW213299   5.445   6.411   3.294
 4134SOL     OW13300   1.506   3.673   1.393
 4134SOL    HW113301   1.543   3.763   1.416
 4134SOL    HW213302   1.575   3.619   1.346
 4135SOL     OW13303   6.190   1.359   1.069
 4135SOL    HW113304   6.230   1.269   1.090
 4135SOL    HW213305   6.113   1.376   1.130
 4136SOL     OW13306   0.724   4.441   0.584
 4136SOL    HW113307   0.675   4.413   0.501
 4136SOL    HW213308   0.729   4.365   0.648
 4137SOL     OW13309   0.320   3.067   5.836
 4137SOL    HW113310   0.400   3.127   5.830
 4137SOL    HW213311   0.318   3.023   5.926
 4138SOL     OW13312   4.984   6.903   6.586
 4138SOL    HW113313   5.058   6.964   6.558
 4138SOL    HW213314   4.996   6.813   6.544
 4139SOL     OW13315   1.611   4.455   2.261
 4139SOL    HW113316   1.515   4.484   2.257
 4139SOL    HW213317   1.621   4.382   2.327
 4140SOL     OW13318   2.283   6.803   6.797
 4140SOL    HW113319   2.220   6.878   6.816
 4140SOL    HW213320   2.377   6.833   6.813
 4141SOL     OW13321   5.323   0.635   6.032
 4141SOL    HW113322   5.245   0.600   6.083
 4141SOL    HW213323   5.291   0.690   5.954
 4142SOL     OW13324   6.313   5.716   1.265
 4142SOL    HW113325   6.261   5.712   1.180
 4142SOL    HW213326   6.407   5.746   1.246
 4143SOL     OW13327   5.701   3.933   6.398
 4143SOL    HW113328   5.794   3.917   6.364
 4143SOL    HW213329   5.638   3.868   6.357
 4144SOL     OW13330   4.121   0.397   1.499
 4144SOL    HW113331   4.132   0.476   1.438
 4144SOL    HW213332   4.190   0.400   1.571
 4145SOL     OW13333   5.450   0.380   1.248
 4145SOL    HW113334   5.481   0.470   1.216
 4145SOL    HW213335   5.415   0.327   1.170
 4146SOL     OW13336   4.115   0.003   1.923
 4146SOL    HW113337   4.124   6.948   1.984
 4146SOL    HW213338   4.189   0.002   1.856
 4147SOL     OW13339   4.199   4.919   6.741
 4147SOL    HW113340   4.161   5.008   6.765
 4147SOL    HW213341   4.260   4.928   6.663
 4148SOL     OW13342   2.723   1.445   6.078
 4148SOL    HW113343   2.733   1.347   6.096
 4148SOL    HW213344   2.672   1.458   5.993
 4149SOL     OW13345   1.293   3.508   5.940
 4149SOL    HW113346   1.345   3.538   5.860
 4149SOL    HW213347   1.259   3.416   5.925
 4150SOL     OW13348   5.680   1.339   0.483
 4150SOL    HW113349   5.639   1.289   0.559
 4150SOL    HW213350   5.779   1.342   0.494
 4151SOL     OW13351   2.559   5.656   4.856
 4151SOL    HW113352   2.503   5.623   4.932
 4151SOL    HW213353   2.652   5.671   4.888
 4152SOL     OW13354   3.154   3.748   1.053
 4152SOL    HW113355   3.156   3.819   0.983
 4152SOL    HW213356   3.088   3.773   1.124
 4153SOL     OW13357   6.928   5.583   2.157
 4153SOL    HW113358   7.014   5.614   2.116
 4153SOL    HW213359   6.936   5.588   2.257
 4154SOL     OW13360   0.265   6.853   3.837
 4154SOL    HW113361   0.275   6.784   3.909
 4154SOL    HW213362   0.228   6.810   3.754
 4155SOL     OW13363   6.556   0.734   2.217
 4155SOL    HW113364   6.606   0.786   2.286
 4155SOL    HW213365   6.597   0.643   2.208
 4156SOL     OW13366   0.550   4.753   5.481
 4156SOL    HW113367   0.588   4.843   5.504
 4156SOL    HW213368   0.615   4.704   5.424
 4157SOL     OW13369   4.872   5.920   0.801
 4157SOL    HW113370   4.971   5.931   0.812
 4157SOL    HW213371   4.854   5.846   0.736
 4158SOL     OW13372   0.587   2.695   0.533
 4158SOL    HW113373   0.528   2.775   0.523
 4158SOL    HW213374   0.670   2.720   0.582
 4159SOL     OW13375   3.366   0.791   4.238
 4159SOL    HW113376   3.424   0.858   4.192
 4159SOL    HW213377   3.401   0.699   4.222
 4160SOL     OW13378   1.566   6.681   6.090
 4160SOL    HW113379   1.517   6.656   6.174
 4160SOL    HW213380   1.664   6.674   6.106
 4161SOL     OW13381   3.374   2.993   3.312
 4161SOL    HW113382   3.432   2.957   3.239
 4161SOL    HW213383   3.411   3.081   3.343
 4162SOL     OW13384   5.412   6.067   1.397
 4162SOL    HW113385   5.339   6.017   1.351
 4162SOL    HW213386   5.373   6.128   1.466
 4163SOL     OW13387   3.908   5.619   1.633
 4163SOL    HW113388   3.938   5.671   1.713
 4163SOL    HW213389   3.811   5.596   1.642
 4164SOL     OW13390   5.401   1.887   6.453
 4164SOL    HW113391   5.405   1.922   6.546
 4164SOL    HW213392   5.310   1.850   6.434
 4165SOL     OW13393   3.790   1.609   4.280
 4165SOL    HW113394   3.835   1.520   4.284
 4165SOL    HW213395   3.766   1.630   4.185
 4166SOL     OW13396   6.080   2.228   1.590
 4166SOL    HW113397   6.129   2.310   1.620
 4166SOL    HW213398   6.006   2.208   1.653
 4167SOL     OW13399   3.639   5.409   4.477
 4167SOL    HW113400   3.616   5.367   4.565
 4167SOL    HW213401   3.717   5.470   4.489
 4168SOL     OW13402   5.473   4.580   0.222
 4168SOL    HW113403   5.518   4.519   0.157
 4168SOL    HW213404   5.461   4.533   0.309
 4169SOL     OW13405   5.261   3.507   6.851
 4169SOL    HW113406   5.335   3.573   6.837
 4169SOL    HW213407   5.299   3.420   6.884
 4170SOL     OW13408   0.837   2.547   5.160
 4170SOL    HW113409   0.808   2.512   5.249
 4170SOL    HW213410   0.807   2.642   5.151
 4171SOL     OW13411   0.532   1.683   6.026
 4171SOL    HW113412   0.502   1.628   5.948
 4171SOL    HW213413   0.477   1.662   6.106
 4172SOL     OW13414   2.701   2.364   6.490
 4172SOL    HW113415   2.623   2.303   6.504
 4172SOL    HW213416   2.785   2.311   6.486
 4173SOL     OW13417   4.842   1.816   5.562
 4173SOL    HW113418   4.904   1.832   5.485
 4173SOL    HW213419   4.880   1.744   5.621
 4174SOL     OW13420   3.747   6.464   4.542
 4174SOL    HW113421   3.670   6.464   4.477
 4174SOL    HW213422   3.751   6.375   4.587
 4175SOL     OW13423   1.369   4.757   6.564
 4175SOL    HW113424   1.273   4.744   6.541
 4175SOL    HW213425   1.408   4.670   6.594
 4176SOL     OW13426   4.937   6.966   5.590
 4176SOL    HW113427   4.984   6.916   5.662
 4176SOL    HW213428   4.991   6.964   5.506
 4177SOL     OW13429   4.196   5.155   2.740
 4177SOL    HW113430   4.282   5.136   2.694
 4177SOL    HW213431   4.214   5.191   2.831
 4178SOL     OW13432   3.523   6.155   1.607
 4178SOL    HW113433   3.560   6.104   1.529
 4178SOL    HW213434   3.478   6.238   1.574
 4179SOL     OW13435   4.512   2.631   0.003
 4179SOL    HW113436   4.582   2.695   0.036
 4179SOL    HW213437   4.436   2.631   0.067
 4180SOL     OW13438   3.846   3.695   0.352
 4180SOL    HW113439   3.926   3.641   0.381
 4180SOL    HW213440   3.820   3.668   0.260
 4181SOL     OW13441   5.826   6.476   5.644
 4181SOL    HW113442   5.751   6.432   5.694
 4181SOL    HW213443   5.857   6.557   5.695
 4182SOL     OW13444   0.712   6.036   5.509
 4182SOL    HW113445   0.666   5.954   5.472
 4182SOL    HW213446   0.743   6.017   5.602
 4183SOL     OW13447   4.544   2.239   0.471
 4183SOL    HW113448   4.576   2.237   0.566
 4183SOL    HW213449   4.614   2.281   0.413
 4184SOL     OW13450   3.300   5.583   3.207
 4184SOL    HW113451   3.230   5.643   3.168
 4184SOL    HW213452   3.387   5.632   3.212
 4185SOL     OW13453   4.816   3.663   3.417
 4185SOL    HW113454   4.812   3.759   3.446
 4185SOL    HW213455   4.842   3.659   3.320
 4186SOL     OW13456   1.811   5.490   6.948
 4186SOL    HW113457   1.730   5.498   7.006
 4186SOL    HW213458   1.854   5.401   6.962
 4187SOL     OW13459   2.345   3.926   5.785
 4187SOL    HW113460   2.358   3.864   5.708
 4187SOL    HW213461   2.433   3.963   5.814
 4188SOL     OW13462   4.661   0.054   6.988
 4188SOL    HW113463   4.739   0.078   0.021
 4188SOL    HW213464   4.677   0.083   6.894
 4189SOL     OW13465   4.647   5.108   3.123
 4189SOL    HW113466   4.601   5.054   3.193
 4189SOL    HW213467   4.606   5.089   3.034
 4190SOL     OW13468   6.118   6.791   1.597
 4190SOL    HW113469   6.020   6.774   1.586
 4190SOL    HW213470   6.163   6.784   1.508
 4191SOL     OW13471   4.416   3.379   6.710
 4191SOL    HW113472   4.348   3.376   6.783
 4191SOL    HW213473   4.397   3.308   6.643
 4192SOL     OW13474   1.704   3.565   6.428
 4192SOL    HW113475   1.728   3.646   6.375
 4192SOL    HW213476   1.718   3.483   6.373
 4193SOL     OW13477   0.235   0.509   6.956
 4193SOL    HW113478   0.184   0.471   0.009
 4193SOL    HW213479   0.239   0.441   6.883
 4194SOL     OW13480   5.452   1.258   6.195
 4194SOL    HW113481   5.401   1.339   6.166
 4194SOL    HW213482   5.504   1.280   6.278
 4195SOL     OW13483   2.692   6.909   0.944
 4195SOL    HW113484   2.658   6.955   1.025
 4195SOL    HW213485   2.767   6.962   0.904
 4196SOL     OW13486   6.861   2.258   3.034
 4196SOL    HW113487   6.788   2.192   3.019
 4196SOL    HW213488   6.931   2.248   2.963
 4197SOL     OW13489   3.382   1.059   0.285
 4197SOL    HW113490   3.448   1.131   0.264
 4197SOL    HW213491   3.427   0.970   0.281
 4198SOL     OW13492   6.222   1.954   2.269
 4198SOL    HW113493   6.287   1.999   2.209
 4198SOL    HW213494   6.213   2.005   2.354
 4199SOL     OW13495   0.567   3.584   6.670
 4199SOL    HW113496   0.627   3.566   6.592
 4199SOL    HW213497   0.478   3.542   6.653
 4200SOL     OW13498   4.584   1.653   3.806
 4200SOL    HW113499   4.571   1.554   3.818
 4200SOL    HW213500   4.660   1.669   3.743
 4201SOL     OW13501   6.066   6.706   4.701
 4201SOL    HW113502   5.981   6.654   4.704
 4201SOL    HW213503   6.056   6.783   4.638
 4202SOL     OW13504   4.559   4.066   1.668
 4202SOL    HW113505   4.646   4.114   1.656
 4202SOL    HW213506   4.502   4.117   1.732
 4203SOL     OW13507   5.656   4.504   5.733
 4203SOL    HW113508   5.738   4.548   5.772
 4203SOL    HW213509   5.619   4.439   5.798
 4204SOL     OW13510   1.676   4.046   6.209
 4204SOL    HW113511   1.695   4.031   6.112
 4204SOL    HW213512   1.583   4.079   6.220
 4205SOL     OW13513   4.562   6.752   6.478
 4205SOL    HW113514   4.565   6.758   6.378
 4205SOL    HW213515   4.631   6.688   6.510
 4206SOL     OW13516   2.178   1.801   3.933
 4206SOL    HW113517   2.190   1.780   4.030
 4206SOL    HW213518   2.215   1.727   3.878
 4207SOL     OW13519   1.446   2.345   2.426
 4207SOL    HW113520   1.402   2.433   2.411
 4207SOL    HW213521   1.488   2.344   2.517
 4208SOL     OW13522   2.292   2.440   3.771
 4208SOL    HW113523   2.285   2.534   3.805
 4208SOL    HW213524   2.262   2.377   3.842
 4209SOL     OW13525   6.816   6.084   1.767
 4209SOL    HW113526   6.871   6.017   1.818
 4209SOL    HW213527   6.809   6.055   1.671
 4210SOL     OW13528   2.932   4.309   5.320
 4210SOL    HW113529   2.923   4.389   5.260
 4210SOL    HW213530   2.941   4.339   5.415
 4211SOL     OW13531   3.758   2.720   5.350
 4211SOL    HW113532   3.793   2.807   5.385
 4211SOL    HW213533   3.808   2.644   5.391
 4212SOL     OW13534   0.184   2.139   2.950
 4212SOL    HW113535   0.247   2.213   2.970
 4212SOL    HW213536   0.203   2.062   3.011
 4213SOL     OW13537   3.818   0.245   3.931
 4213SOL    HW113538   3.896   0.227   3.991
 4213SOL    HW213539   3.846   0.235   3.835
 4214SOL     OW13540   6.566   5.767   3.168
 4214SOL    HW113541   6.504   5.783   3.092
 4214SOL    HW213542   6.523   5.705   3.234
 4215SOL     OW13543   5.972   0.180   6.230
 4215SOL    HW113544   6.022   0.210   6.150
 4215SOL    HW213545   6.036   0.162   6.305
 4216SOL     OW13546   2.342   5.263   2.205
 4216SOL    HW113547   2.245   5.246   2.188
 4216SOL    HW213548   2.355   5.360   2.228
 4217SOL     OW13549   1.445   0.258   3.245
 4217SOL    HW113550   1.487   0.324   3.308
 4217SOL    HW213551   1.433   0.171   3.292
 4218SOL     OW13552   2.412   1.202   1.630
 4218SOL    HW113553   2.455   1.112   1.627
 4218SOL    HW213554   2.395   1.234   1.537
 4219SOL     OW13555   3.832   4.802   3.362
 4219SOL    HW113556   3.912   4.811   3.421
 4219SOL    HW213557   3.749   4.816   3.415
 4220SOL     OW13558   6.373   2.077   1.113
 4220SOL    HW113559   6.386   2.021   1.031
 4220SOL    HW213560   6.324   2.161   1.089
 4221SOL     OW13561   0.409   6.113   0.640
 4221SOL    HW113562   0.384   6.209   0.643
 4221SOL    HW213563   0.415   6.077   0.733
 4222SOL     OW13564   4.941   3.296   4.146
 4222SOL    HW113565   4.875   3.297   4.071
 4222SOL    HW213566   4.963   3.390   4.172
 4223SOL     OW13567   3.410   3.716   3.151
 4223SOL    HW113568   3.381   3.790   3.211
 4223SOL    HW213569   3.425   3.750   3.058
 4224SOL     OW13570   4.716   4.703   4.340
 4224SOL    HW113571   4.634   4.649   4.359
 4224SOL    HW213572   4.690   4.788   4.296
 4225SOL     OW13573   1.096   1.956   5.839
 4225SOL    HW113574   1.065   1.918   5.926
 4225SOL    HW213575   1.181   2.006   5.853
 4226SOL     OW13576   0.357   5.382   4.757
 4226SOL    HW113577   0.288   5.375   4.685
 4226SOL    HW213578   0.386   5.291   4.785
 4227SOL     OW13579   4.972   5.319   1.978
 4227SOL    HW113580   5.018   5.245   2.026
 4227SOL    HW213581   5.006   5.323   1.884
 4228SOL     OW13582   1.292   4.586   3.890
 4228SOL    HW113583   1.326   4.492   3.885
 4228SOL    HW213584   1.314   4.624   3.980
 4229SOL     OW13585   5.627   5.814   5.221
 4229SOL    HW113586   5.631   5.714   5.229
 4229SOL    HW213587   5.583   5.852   5.302
 4230SOL     OW13588   6.683   1.358   1.332
 4230SOL    HW113589   6.763   1.316   1.376
 4230SOL    HW213590   6.606   1.294   1.336
 4231SOL     OW13591   0.267   0.700   6.178
 4231SOL    HW113592   0.198   0.670   6.114
 4231SOL    HW213593   0.350   0.727   6.128
 4232SOL     OW13594   1.498   4.791   4.440
 4232SOL    HW113595   1.493   4.891   4.432
 4232SOL    HW213596   1.541   4.753   4.358
 4233SOL     OW13597   5.283   5.469   2.464
 4233SOL    HW113598   5.258   5.439   2.556
 4233SOL    HW213599   5.218   5.431   2.398
 4234SOL     OW13600   3.465   5.156   5.769
 4234SOL    HW113601   3.471   5.228   5.700
 4234SOL    HW213602   3.421   5.075   5.729
 4235SOL     OW13603   6.923   5.867   6.365
 4235SOL    HW113604   7.006   5.914   6.337
 4235SOL    HW213605   6.858   5.933   6.403
 4236SOL     OW13606   0.036   5.540   2.945
 4236SOL    HW113607   0.071   5.602   3.015
 4236SOL    HW213608   6.965   5.563   2.924
 4237SOL     OW13609   0.084   4.725   3.940
 4237SOL    HW113610   0.154   4.756   4.004
 4237SOL    HW213611   0.042   4.641   3.974
 4238SOL     OW13612   2.811   6.036   2.502
 4238SOL    HW113613   2.753   6.107   2.542
 4238SOL    HW213614   2.874   6.079   2.437
 4239SOL     OW13615   4.421   1.010   3.887
 4239SOL    HW113616   4.340   1.046   3.934
 4239SOL    HW213617   4.487   0.977   3.955
 4240SOL     OW13618   5.668   6.954   1.587
 4240SOL    HW113619   5.631   6.955   1.494
 4240SOL    HW213620   5.676   0.023   1.620
 4241SOL     OW13621   6.426   4.062   0.147
 4241SOL    HW113622   6.400   4.110   0.063
 4241SOL    HW213623   6.381   4.107   0.225
 4242SOL     OW13624   2.914   2.173   3.243
 4242SOL    HW113625   3.012   2.171   3.224
 4242SOL    HW213626   2.899   2.200   3.338
 4243SOL     OW13627   4.485   1.507   2.868
 4243SOL    HW113628   4.473   1.496   2.769
 4243SOL    HW213629   4.580   1.486   2.893
 4244SOL     OW13630   3.219   2.972   5.076
 4244SOL    HW113631   3.274   2.972   4.993
 4244SOL    HW213632   3.267   2.922   5.148
 4245SOL     OW13633   5.902   0.317   0.118
 4245SOL    HW113634   5.841   0.261   0.173
 4245SOL    HW213635   5.965   0.367   0.178
 4246SOL     OW13636   6.851   4.015   6.625
 4246SOL    HW113637   6.867   4.094   6.566
 4246SOL    HW213638   6.790   3.950   6.579
 4247SOL     OW13639   0.648   5.857   5.063
 4247SOL    HW113640   0.655   5.948   5.023
 4247SOL    HW213641   0.736   5.832   5.104
 4248SOL     OW13642   2.316   3.880   6.351
 4248SOL    HW113643   2.281   3.792   6.380
 4248SOL    HW213644   2.242   3.947   6.349
 4249SOL     OW13645   5.323   3.952   5.352
 4249SOL    HW113646   5.293   3.986   5.263
 4249SOL    HW213647   5.413   3.911   5.344
 4250SOL     OW13648   1.387   4.273   3.283
 4250SOL    HW113649   1.352   4.194   3.333
 4250SOL    HW213650   1.473   4.249   3.239
 4251SOL     OW13651   5.071   4.633   0.310
 4251SOL    HW113652   5.088   4.646   0.212
 4251SOL    HW213653   5.015   4.708   0.344
 4252SOL     OW13654   0.201   5.664   5.763
 4252SOL    HW113655   0.248   5.741   5.806
 4252SOL    HW213656   0.234   5.578   5.802
 4253SOL     OW13657   3.837   6.249   2.674
 4253SOL    HW113658   3.816   6.340   2.638
 4253SOL    HW213659   3.935   6.240   2.688
 4254SOL     OW13660   2.975   4.038   1.679
 4254SOL    HW113661   2.882   4.054   1.645
 4254SOL    HW213662   2.971   4.000   1.771
 4255SOL     OW13663   0.477   2.008   4.256
 4255SOL    HW113664   0.398   1.982   4.200
 4255SOL    HW213665   0.449   2.077   4.322
 4256SOL     OW13666   1.654   0.983   2.016
 4256SOL    HW113667   1.696   1.059   2.065
 4256SOL    HW213668   1.659   0.999   1.918
 4257SOL     OW13669   4.289   2.243   4.868
 4257SOL    HW113670   4.278   2.326   4.922
 4257SOL    HW213671   4.280   2.264   4.770
 4258SOL     OW13672   5.098   6.726   2.878
 4258SOL    HW113673   5.045   6.808   2.898
 4258SOL    HW213674   5.085   6.659   2.952
 4259SOL     OW13675   1.651   3.180   0.935
 4259SOL    HW113676   1.709   3.102   0.955
 4259SOL    HW213677   1.706   3.252   0.891
 4260SOL     OW13678   3.867   5.849   3.925
 4260SOL    HW113679   3.893   5.941   3.955
 4260SOL    HW213680   3.776   5.828   3.960
 4261SOL     OW13681   1.420   1.522   2.837
 4261SOL    HW113682   1.423   1.457   2.760
 4261SOL    HW213683   1.362   1.599   2.813
 4262SOL     OW13684   6.689   6.751   6.409
 4262SOL    HW113685   6.739   6.753   6.323
 4262SOL    HW213686   6.647   6.661   6.421
 4263SOL     OW13687   4.153   5.126   6.532
 4263SOL    HW113688   4.076   5.101   6.591
 4263SOL    HW213689   4.178   5.222   6.548
 4264SOL     OW13690   0.135   0.612   1.345
 4264SOL    HW113691   0.110   0.540   1.409
 4264SOL    HW213692   0.053   0.654   1.307
 4265SOL     OW13693   1.106   2.604   0.185
 4265SOL    HW113694   1.026   2.545   0.189
 4265SOL    HW213695   1.121   2.636   0.092
 4266SOL     OW13696   3.137   4.565   1.391
 4266SOL    HW113697   3.054   4.516   1.366
 4266SOL    HW213698   3.137   4.581   1.490
 4267SOL     OW13699   2.040   3.994   5.955
 4267SOL    HW113700   2.028   4.055   6.033
 4267SOL    HW213701   2.117   3.933   5.973
 4268SOL     OW13702   1.701   0.708   0.356
 4268SOL    HW113703   1.622   0.646   0.356
 4268SOL    HW213704   1.785   0.653   0.360
 4269SOL     OW13705   2.906   4.082   0.757
 4269SOL    HW113706   2.945   4.120   0.841
 4269SOL    HW213707   2.880   3.987   0.772
 4270SOL     OW13708   3.906   2.687   6.251
 4270SOL    HW113709   3.824   2.633   6.268
 4270SOL    HW213710   3.926   2.745   6.330
 4271SOL     OW13711   1.285   0.267   0.524
 4271SOL    HW113712   1.207   0.233   0.472
 4271SOL    HW213713   1.278   0.237   0.619
 4272SOL     OW13714   7.018   4.095   3.613
 4272SOL    HW113715   0.026   4.179   3.569
 4272SOL    HW213716   6.974   4.119   3.700
 4273SOL     OW13717   5.526   6.081   4.338
 4273SOL    HW113718   5.609   6.098   4.391
 4273SOL    HW213719   5.528   6.137   4.255
 4274SOL     OW13720   1.764   0.342   3.646
 4274SOL    HW113721   1.848   0.316   3.598
 4274SOL    HW213722   1.786   0.380   3.735
 4275SOL     OW13723   1.205   0.380   6.449
 4275SOL    HW113724   1.165   0.360   6.359
 4275SOL    HW213725   1.170   0.468   6.481
 4276SOL     OW13726   2.039   4.606   2.261
 4276SOL    HW113727   1.963   4.671   2.257
 4276SOL    HW213728   2.083   4.601   2.171
 4277SOL     OW13729   1.050   5.412   4.790
 4277SOL    HW113730   0.968   5.408   4.848
 4277SOL    HW213731   1.094   5.322   4.789
 4278SOL     OW13732   1.155   6.803   5.770
 4278SOL    HW113733   1.234   6.781   5.713
 4278SOL    HW213734   1.138   6.727   5.833
 4279SOL     OW13735   3.328   6.042   4.401
 4279SOL    HW113736   3.410   6.007   4.354
 4279SOL    HW213737   3.252   6.044   4.336
 4280SOL     OW13738   4.915   3.029   3.792
 4280SOL    HW113739   4.935   3.105   3.731
 4280SOL    HW213740   5.001   2.987   3.822
 4281SOL     OW13741   2.539   4.040   5.354
 4281SOL    HW113742   2.505   4.134   5.344
 4281SOL    HW213743   2.487   3.979   5.295
 4282SOL     OW13744   0.832   3.059   0.671
 4282SOL    HW113745   0.927   3.053   0.701
 4282SOL    HW213746   0.793   2.967   0.665
 4283SOL     OW13747   2.489   0.315   4.519
 4283SOL    HW113748   2.589   0.311   4.510
 4283SOL    HW213749   2.460   0.249   4.588
 4284SOL     OW13750   6.524   1.699   2.978
 4284SOL    HW113751   6.510   1.662   2.886
 4284SOL    HW213752   6.459   1.774   2.993
 4285SOL     OW13753   0.898   6.543   4.687
 4285SOL    HW113754   0.940   6.632   4.668
 4285SOL    HW213755   0.840   6.516   4.610
 4286SOL     OW13756   5.575   5.715   6.889
 4286SOL    HW113757   5.628   5.772   6.952
 4286SOL    HW213758   5.503   5.668   6.939
 4287SOL     OW13759   3.876   6.338   5.521
 4287SOL    HW113760   3.908   6.399   5.448
 4287SOL    HW213761   3.952   6.314   5.581
 4288SOL     OW13762   1.586   6.382   3.165
 4288SOL    HW113763   1.552   6.289   3.152
 4288SOL    HW213764   1.647   6.406   3.089
 4289SOL     OW13765   6.397   3.623   0.281
 4289SOL    HW113766   6.413   3.525   0.271
 4289SOL    HW213767   6.380   3.663   0.191
 4290SOL     OW13768   2.356   1.649   3.008
 4290SOL    HW113769   2.269   1.629   3.053
 4290SOL    HW213770   2.354   1.613   2.914
 4291SOL     OW13771   6.872   4.621   1.397
 4291SOL    HW113772   6.962   4.639   1.359
 4291SOL    HW213773   6.853   4.523   1.396
 4292SOL     OW13774   5.591   5.726   5.999
 4292SOL    HW113775   5.566   5.676   5.917
 4292SOL    HW213776   5.530   5.700   6.074
 4293SOL     OW13777   0.171   2.537   6.084
 4293SOL    HW113778   0.186   2.627   6.045
 4293SOL    HW213779   0.139   2.546   6.179
 4294SOL     OW13780   5.047   2.412   5.864
 4294SOL    HW113781   4.974   2.387   5.801
 4294SOL    HW213782   5.093   2.494   5.831
 4295SOL     OW13783   3.761   6.354   5.180
 4295SOL    HW113784   3.681   6.397   5.221
 4295SOL    HW213785   3.733   6.273   5.128
 4296SOL     OW13786   2.621   1.437   2.216
 4296SOL    HW113787   2.710   1.394   2.228
 4296SOL    HW213788   2.579   1.453   2.305
 4297SOL     OW13789   5.909   1.018   6.985
 4297SOL    HW113790   5.884   0.979   6.897
 4297SOL    HW213791   5.895   0.951   0.033
 4298SOL     OW13792   2.640   5.142   1.451
 4298SOL    HW113793   2.568   5.191   1.401
 4298SOL    HW213794   2.730   5.175   1.420
 4299SOL     OW13795   1.093   4.686   5.893
 4299SOL    HW113796   1.064   4.680   5.989
 4299SOL    HW213797   1.138   4.774   5.878
 4300SOL     OW13798   5.714   7.001   5.940
 4300SOL    HW113799   5.773   6.935   5.989
 4300SOL    HW213800   5.754   0.068   5.948
 4301SOL     OW13801   2.387   1.185   0.527
 4301SOL    HW113802   2.407   1.272   0.482
 4301SOL    HW213803   2.305   1.196   0.584
 4302SOL     OW13804   0.924   6.871   6.848
 4302SOL    HW113805   0.997   6.923   6.893
 4302SOL    HW213806   0.877   6.814   6.916
 4303SOL     OW13807   6.968   4.222   1.652
 4303SOL    HW113808   0.020   4.232   1.715
 4303SOL    HW213809   6.981   4.140   1.595
 4304SOL     OW13810   3.322   2.884   5.309
 4304SOL    HW113811   3.278   2.839   5.387
 4304SOL    HW213812   3.411   2.841   5.292
 4305SOL     OW13813   5.883   1.122   4.779
 4305SOL    HW113814   5.901   1.146   4.874
 4305SOL    HW213815   5.856   1.204   4.728
 4306SOL     OW13816   5.861   5.827   6.594
 4306SOL    HW113817   5.933   5.797   6.531
 4306SOL    HW213818   5.837   5.751   6.655
 4307SOL     OW13819   5.293   3.529   0.392
 4307SOL    HW113820   5.283   3.443   0.343
 4307SOL    HW213821   5.244   3.601   0.343
 4308SOL     OW13822   3.962   6.563   5.393
 4308SOL    HW113823   3.888   6.630   5.398
 4308SOL    HW213824   4.038   6.593   5.451
 4309SOL     OW13825   1.482   1.111   1.439
 4309SOL    HW113826   1.470   1.076   1.346
 4309SOL    HW213827   1.481   1.211   1.437
 4310SOL     OW13828   1.615   0.817   2.777
 4310SOL    HW113829   1.575   0.729   2.753
 4310SOL    HW213830   1.599   0.883   2.704
 4311SOL     OW13831   1.663   5.840   4.399
 4311SOL    HW113832   1.644   5.752   4.356
 4311SOL    HW213833   1.761   5.861   4.391
 4312SOL     OW13834   1.295   5.637   1.446
 4312SOL    HW113835   1.262   5.577   1.372
 4312SOL    HW213836   1.322   5.581   1.525
 4313SOL     OW13837   4.647   0.571   1.822
 4313SOL    HW113838   4.610   0.499   1.882
 4313SOL    HW213839   4.672   0.531   1.734
 4314SOL     OW13840   5.416   3.618   2.617
 4314SOL    HW113841   5.382   3.531   2.653
 4314SOL    HW213842   5.347   3.689   2.633
 4315SOL     OW13843   2.376   1.362   2.109
 4315SOL    HW113844   2.302   1.386   2.172
 4315SOL    HW213845   2.464   1.389   2.149
 4316SOL     OW13846   0.545   0.678   2.017
 4316SOL    HW113847   0.629   0.626   2.027
 4316SOL    HW213848   0.567   0.775   2.004
 4317SOL     OW13849   4.051   0.440   3.875
 4317SOL    HW113850   4.046   0.341   3.890
 4317SOL    HW213851   4.000   0.487   3.947
 4318SOL     OW13852   6.779   2.708   4.172
 4318SOL    HW113853   6.735   2.716   4.262
 4318SOL    HW213854   6.762   2.791   4.120
 4319SOL     OW13855   2.729   3.175   5.731
 4319SOL    HW113856   2.758   3.162   5.825
 4319SOL    HW213857   2.663   3.250   5.726
 4320SOL     OW13858   0.547   5.757   3.334
 4320SOL    HW113859   0.535   5.820   3.258
 4320SOL    HW213860   0.587   5.672   3.301
 4321SOL     OW13861   0.514   0.785   4.667
 4321SOL    HW113862   0.457   0.704   4.682
 4321SOL    HW213863   0.514   0.841   4.750
 4322SOL     OW13864   6.013   1.166   0.897
 4322SOL    HW113865   5.992   1.209   0.984
 4322SOL    HW213866   6.104   1.125   0.901
 4323SOL     OW13867   7.006   2.152   3.775
 4323SOL    HW113868   6.940   2.215   3.734
 4323SOL    HW213869   7.012   2.070   3.718
 4324SOL     OW13870   6.048   2.987   6.481
 4324SOL    HW113871   6.099   3.071   6.462
 4324SOL    HW213872   5.954   2.997   6.449
 4325SOL     OW13873   1.957   1.533   5.432
 4325SOL    HW113874   1.952   1.516   5.530
 4325SOL    HW213875   2.012   1.615   5.415
 4326SOL     OW13876   6.397   2.534   5.339
 4326SOL    HW113877   6.406   2.487   5.251
 4326SOL    HW213878   6.488   2.541   5.381
 4327SOL     OW13879   5.228   0.535   3.249
 4327SOL    HW113880   5.193   0.626   3.270
 4327SOL    HW213881   5.240   0.526   3.150
 4328SOL     OW13882   5.164   5.295   0.571
 4328SOL    HW113883   5.096   5.282   0.499
 4328SOL    HW213884   5.221   5.375   0.549
 4329SOL     OW13885   4.753   1.725   6.313
 4329SOL    HW113886   4.740   1.681   6.402
 4329SOL    HW213887   4.714   1.817   6.316
 4330SOL     OW13888   0.538   0.669   6.667
 4330SOL    HW113889   0.497   0.632   6.583
 4330SOL    HW213890   0.615   0.612   6.694
 4331SOL     OW13891   5.136   2.639   0.050
 4331SOL    HW113892   5.183   2.702   0.112
 4331SOL    HW213893   5.193   2.624   6.993
 4332SOL     OW13894   5.390   3.609   1.777
 4332SOL    HW113895   5.316   3.669   1.810
 4332SOL    HW213896   5.362   3.564   1.693
 4333SOL     OW13897   5.890   1.547   5.473
 4333SOL    HW113898   5.919   1.584   5.561
 4333SOL    HW213899   5.970   1.531   5.415
 4334SOL     OW13900   4.515   0.287   1.843
 4334SOL    HW113901   4.475   0.271   1.933
 4334SOL    HW213902   4.599   0.233   1.834
 4335SOL     OW13903   3.662   4.476   5.689
 4335SOL    HW113904   3.727   4.546   5.662
 4335SOL    HW213905   3.707   4.408   5.747
 4336SOL     OW13906   1.589   6.009   5.031
 4336SOL    HW113907   1.570   5.910   5.028
 4336SOL    HW213908   1.578   6.048   4.940
 4337SOL     OW13909   0.748   4.845   0.148
 4337SOL    HW113910   0.760   4.886   0.058
 4337SOL    HW213911   0.775   4.749   0.144
 4338SOL     OW13912   6.180   5.982   3.661
 4338SOL    HW113913   6.179   5.951   3.566
 4338SOL    HW213914   6.198   6.080   3.664
 4339SOL     OW13915   6.370   1.198   6.422
 4339SOL    HW113916   6.428   1.134   6.372
 4339SOL    HW213917   6.407   1.291   6.412
 4340SOL     OW13918   4.925   3.189   2.045
 4340SOL    HW113919   4.906   3.241   2.128
 4340SOL    HW213920   4.851   3.123   2.029
 4341SOL     OW13921   0.806   3.794   6.846
 4341SOL    HW113922   0.896   3.764   6.813
 4341SOL    HW213923   0.748   3.714   6.862
 4342SOL     OW13924   6.959   1.888   2.885
 4342SOL    HW113925   6.921   1.802   2.852
 4342SOL    HW213926   0.018   1.909   2.835
 4343SOL     OW13927   2.286   1.971   1.299
 4343SOL    HW113928   2.328   1.936   1.382
 4343SOL    HW213929   2.309   2.068   1.289
 4344SOL     OW13930   2.228   4.118   2.798
 4344SOL    HW113931   2.227   4.127   2.699
 4344SOL    HW213932   2.293   4.183   2.837
 4345SOL     OW13933   2.366   1.209   5.987
 4345SOL    HW113934   2.398   1.277   5.921
 4345SOL    HW213935   2.442   1.183   6.047
 4346SOL     OW13936   0.130   3.130   1.100
 4346SOL    HW113937   0.183   3.194   1.156
 4346SOL    HW213938   0.109   3.048   1.154
 4347SOL     OW13939   5.968   6.154   2.765
 4347SOL    HW113940   5.928   6.160   2.674
 4347SOL    HW213941   5.902   6.112   2.827
 4348SOL     OW13942   1.070   3.999   6.695
 4348SOL    HW113943   1.062   3.900   6.709
 4348SOL    HW213944   1.166   4.022   6.678
 4349SOL     OW13945   0.202   0.339   2.062
 4349SOL    HW113946   0.256   0.256   2.067
 4349SOL    HW213947   0.244   0.410   2.118
 4350SOL     OW13948   4.739   0.714   3.415
 4350SOL    HW113949   4.693   0.747   3.497
 4350SOL    HW213950   4.797   0.636   3.439
 4351SOL     OW13951   2.765   6.047   0.550
 4351SOL    HW113952   2.741   6.049   0.453
 4351SOL    HW213953   2.731   6.130   0.594
 4352SOL     OW13954   6.206   1.209   2.686
 4352SOL    HW113955   6.282   1.250   2.637
 4352SOL    HW213956   6.120   1.254   2.660
 4353SOL     OW13957   2.779   5.629   1.603
 4353SOL    HW113958   2.785   5.721   1.564
 4353SOL    HW213959   2.871   5.598   1.629
 4354SOL     OW13960   1.928   0.775   1.354
 4354SOL    HW113961   1.966   0.768   1.446
 4354SOL    HW213962   1.837   0.815   1.359
 4355SOL     OW13963   4.830   0.872   0.944
 4355SOL    HW113964   4.746   0.834   0.905
 4355SOL    HW213965   4.811   0.906   1.036
 4356SOL     OW13966   3.620   4.417   0.158
 4356SOL    HW113967   3.599   4.505   0.200
 4356SOL    HW213968   3.552   4.396   0.087
 4357SOL     OW13969   6.672   0.710   6.785
 4357SOL    HW113970   6.721   0.763   6.715
 4357SOL    HW213971   6.739   0.662   6.842
 4358SOL     OW13972   6.237   1.102   1.141
 4358SOL    HW113973   6.152   1.085   1.190
 4358SOL    HW213974   6.270   1.018   1.099
 4359SOL     OW13975   6.330   2.605   4.007
 4359SOL    HW113976   6.338   2.512   3.971
 4359SOL    HW213977   6.383   2.612   4.092
 4360SOL     OW13978   2.258   3.446   1.144
 4360SOL    HW113979   2.357   3.436   1.134
 4360SOL    HW213980   2.231   3.539   1.119
 4361SOL     OW13981   5.451   1.509   2.233
 4361SOL    HW113982   5.528   1.457   2.198
 4361SOL    HW213983   5.427   1.477   2.325
 4362SOL     OW13984   5.388   4.178   3.150
 4362SOL    HW113985   5.341   4.126   3.079
 4362SOL    HW213986   5.389   4.275   3.126
 4363SOL     OW13987   5.426   0.975   6.237
 4363SOL    HW113988   5.421   1.074   6.223
 4363SOL    HW213989   5.368   0.949   6.314
 4364SOL     OW13990   3.499   4.023   5.033
 4364SOL    HW113991   3.434   3.977   4.973
 4364SOL    HW213992   3.449   4.066   5.108
 4365SOL     OW13993   3.558   1.522   0.745
 4365SOL    HW113994   3.569   1.433   0.790
 4365SOL    HW213995   3.532   1.508   0.650
 4366SOL     OW13996   5.211   5.047   1.138
 4366SOL    HW113997   5.278   5.074   1.208
 4366SOL    HW213998   5.259   5.005   1.061
 4367SOL     OW13999   0.339   6.822   0.398
 4367SOL    HW114000   0.312   6.841   0.492
 4367SOL    HW214001   0.306   6.895   0.339
 4368SOL     OW14002   4.806   4.054   1.944
 4368SOL    HW114003   4.868   4.124   1.979
 4368SOL    HW214004   4.715   4.094   1.929
 4369SOL     OW14005   3.255   5.858   1.769
 4369SOL    HW114006   3.164   5.869   1.810
 4369SOL    HW214007   3.249   5.871   1.670
 4370SOL     OW14008   5.808   4.291   2.592
 4370SOL    HW114009   5.860   4.207   2.578
 4370SOL    HW214010   5.812   4.317   2.689
 4371SOL     OW14011   0.300   2.251   2.284
 4371SOL    HW114012   0.239   2.304   2.226
 4371SOL    HW214013   0.298   2.288   2.377
 4372SOL     OW14014   4.537   0.174   3.410
 4372SOL    HW114015   4.505   0.132   3.495
 4372SOL    HW214016   4.559   0.270   3.428
 4373SOL     OW14017   6.796   1.707   6.213
 4373SOL    HW114018   6.724   1.767   6.248
 4373SOL    HW214019   6.773   1.612   6.233
 4374SOL     OW14020   3.461   1.427   1.301
 4374SOL    HW114021   3.490   1.394   1.212
 4374SOL    HW214022   3.422   1.352   1.354
 4375SOL     OW14023   3.679   6.429   4.267
 4375SOL    HW114024   3.745   6.355   4.279
 4375SOL    HW214025   3.721   6.501   4.212
 4376SOL     OW14026   6.646   2.097   4.044
 4376SOL    HW114027   6.728   2.074   3.991
 4376SOL    HW214028   6.646   2.194   4.066
 4377SOL     OW14029   6.531   5.007   6.177
 4377SOL    HW114030   6.477   5.072   6.123
 4377SOL    HW214031   6.538   4.920   6.127
 4378SOL     OW14032   2.590   1.484   3.687
 4378SOL    HW114033   2.607   1.579   3.713
 4378SOL    HW214034   2.619   1.423   3.762
 4379SOL     OW14035   3.108   1.725   5.486
 4379SOL    HW114036   3.093   1.820   5.512
 4379SOL    HW214037   3.080   1.665   5.561
 4380SOL     OW14038   0.330   1.954   2.367
 4380SOL    HW114039   0.331   2.054   2.364
 4380SOL    HW214040   0.266   1.919   2.299
 4381SOL     OW14041   1.740   6.014   6.472
 4381SOL    HW114042   1.737   6.007   6.572
 4381SOL    HW214043   1.835   6.006   6.441
 4382SOL     OW14044   0.507   4.920   4.494
 4382SOL    HW114045   0.513   4.841   4.432
 4382SOL    HW214046   0.599   4.948   4.521
 4383SOL     OW14047   6.337   3.708   0.031
 4383SOL    HW114048   6.425   3.720   7.009
 4383SOL    HW214049   6.275   3.656   6.997
 4384SOL     OW14050   5.702   0.074   3.911
 4384SOL    HW114051   5.654   7.022   3.954
 4384SOL    HW214052   5.636   0.140   3.875
 4385SOL     OW14053   4.702   1.817   5.894
 4385SOL    HW114054   4.772   1.751   5.921
 4385SOL    HW214055   4.656   1.785   5.812
 4386SOL     OW14056   2.110   3.632   4.972
 4386SOL    HW114057   2.165   3.588   5.043
 4386SOL    HW214058   2.013   3.627   4.998
 4387SOL     OW14059   5.790   1.920   0.695
 4387SOL    HW114060   5.773   2.004   0.643
 4387SOL    HW214061   5.707   1.865   0.698
 4388SOL     OW14062   4.951   4.240   0.114
 4388SOL    HW114063   5.010   4.169   0.153
 4388SOL    HW214064   4.979   4.258   0.020
 4389SOL     OW14065   1.201   2.723   0.570
 4389SOL    HW114066   1.215   2.624   0.576
 4389SOL    HW214067   1.148   2.745   0.488
 4390SOL     OW14068   0.046   1.262   0.656
 4390SOL    HW114069   0.139   1.275   0.693
 4390SOL    HW214070   7.014   1.216   0.724
 4391SOL     OW14071   1.169   5.970   0.738
 4391SOL    HW114072   1.185   5.922   0.824
 4391SOL    HW214073   1.205   5.916   0.662
 4392SOL     OW14074   0.810   3.243   5.717
 4392SOL    HW114075   0.795   3.261   5.620
 4392SOL    HW214076   0.875   3.309   5.754
 4393SOL     OW14077   5.076   0.659   1.960
 4393SOL    HW114078   5.125   0.744   1.978
 4393SOL    HW214079   4.983   0.666   1.995
 4394SOL     OW14080   1.175   0.027   2.630
 4394SOL    HW114081   1.092   0.057   2.584
 4394SOL    HW214082   1.222   0.106   2.670
 4395SOL     OW14083   1.653   4.656   2.020
 4395SOL    HW114084   1.632   4.569   2.064
 4395SOL    HW214085   1.583   4.676   1.952
 4396SOL     OW14086   3.138   1.250   2.740
 4396SOL    HW114087   3.156   1.294   2.652
 4396SOL    HW214088   3.200   1.288   2.809
 4397SOL     OW14089   3.290   1.503   4.664
 4397SOL    HW114090   3.269   1.409   4.691
 4397SOL    HW214091   3.245   1.567   4.727
 4398SOL     OW14092   1.855   3.232   5.441
 4398SOL    HW114093   1.834   3.330   5.450
 4398SOL    HW214094   1.880   3.212   5.347
 4399SOL     OW14095   2.463   6.369   1.916
 4399SOL    HW114096   2.441   6.375   1.819
 4399SOL    HW214097   2.543   6.310   1.929
 4400SOL     OW14098   1.892   5.741   4.609
 4400SOL    HW114099   1.827   5.807   4.645
 4400SOL    HW214100   1.953   5.786   4.544
 4401SOL     OW14101   3.403   6.670   6.729
 4401SOL    HW114102   3.324   6.618   6.762
 4401SOL    HW214103   3.431   6.737   6.798
 4402SOL     OW14104   2.202   0.584   3.012
 4402SOL    HW114105   2.143   0.504   3.010
 4402SOL    HW214106   2.154   0.662   2.973
 4403SOL     OW14107   0.520   5.165   1.841
 4403SOL    HW114108   0.566   5.151   1.929
 4403SOL    HW214109   0.443   5.227   1.853
 4404SOL     OW14110   0.106   6.822   6.008
 4404SOL    HW114111   0.060   6.801   5.922
 4404SOL    HW214112   0.173   6.751   6.029
 4405SOL     OW14113   1.929   5.408   2.252
 4405SOL    HW114114   1.921   5.374   2.158
 4405SOL    HW214115   1.850   5.464   2.274
 4406SOL     OW14116   5.866   4.162   2.050
 4406SOL    HW114117   5.912   4.164   2.139
 4406SOL    HW214118   5.837   4.068   2.029
 4407SOL     OW14119   6.301   6.539   1.222
 4407SOL    HW114120   6.332   6.577   1.136
 4407SOL    HW214121   6.204   6.514   1.215
 4408SOL     OW14122   4.092   0.852   0.165
 4408SOL    HW114123   4.101   0.759   0.130
 4408SOL    HW214124   4.160   0.869   0.236
 4409SOL     OW14125   3.197   0.704   3.350
 4409SOL    HW114126   3.190   0.622   3.294
 4409SOL    HW214127   3.266   0.765   3.311
 4410SOL     OW14128   0.142   0.347   1.007
 4410SOL    HW114129   0.228   0.298   1.019
 4410SOL    HW214130   0.080   0.325   1.082
 4411SOL     OW14131   4.410   4.707   5.341
 4411SOL    HW114132   4.412   4.746   5.433
 4411SOL    HW214133   4.385   4.778   5.275
 4412SOL     OW14134   4.490   6.364   1.845
 4412SOL    HW114135   4.431   6.443   1.862
 4412SOL    HW214136   4.455   6.313   1.767
 4413SOL     OW14137   4.871   5.150   3.976
 4413SOL    HW114138   4.863   5.169   3.878
 4413SOL    HW214139   4.812   5.212   4.027
 4414SOL     OW14140   5.617   3.938   1.668
 4414SOL    HW114141   5.525   3.933   1.629
 4414SOL    HW214142   5.643   4.033   1.682
 4415SOL     OW14143   1.710   3.377   1.500
 4415SOL    HW114144   1.758   3.318   1.435
 4415SOL    HW214145   1.612   3.361   1.493
 4416SOL     OW14146   5.017   2.590   3.360
 4416SOL    HW114147   5.001   2.673   3.413
 4416SOL    HW214148   4.943   2.525   3.375
 4417SOL     OW14149   0.146   4.221   1.806
 4417SOL    HW114150   0.244   4.200   1.812
 4417SOL    HW214151   0.111   4.247   1.896
 4418SOL     OW14152   6.741   0.198   5.595
 4418SOL    HW114153   6.714   0.124   5.656
 4418SOL    HW214154   6.726   0.286   5.639
 4419SOL     OW14155   6.378   5.450   6.722
 4419SOL    HW114156   6.411   5.381   6.787
 4419SOL    HW214157   6.387   5.415   6.629
 4420SOL     OW14158   3.676   1.635   1.090
 4420SOL    HW114159   3.676   1.680   1.001
 4420SOL    HW214160   3.653   1.702   1.161
 4421SOL     OW14161   1.976   3.151   0.367
 4421SOL    HW114162   2.065   3.128   0.329
 4421SOL    HW214163   1.964   3.103   0.454
 4422SOL     OW14164   6.383   3.161   6.220
 4422SOL    HW114165   6.461   3.125   6.272
 4422SOL    HW214166   6.416   3.223   6.150
 4423SOL     OW14167   6.568   4.116   5.086
 4423SOL    HW114168   6.488   4.118   5.026
 4423SOL    HW214169   6.599   4.021   5.096
 4424SOL     OW14170   4.901   5.943   3.005
 4424SOL    HW114171   4.947   5.934   2.917
 4424SOL    HW214172   4.867   5.854   3.034
 4425SOL     OW14173   0.758   5.761   1.164
 4425SOL    HW114174   0.676   5.730   1.212
 4425SOL    HW214175   0.823   5.800   1.229
 4426SOL     OW14176   0.646   0.690   4.433
 4426SOL    HW114177   0.713   0.623   4.465
 4426SOL    HW214178   0.614   0.745   4.510
 4427SOL     OW14179   2.113   5.637   2.213
 4427SOL    HW114180   2.204   5.615   2.176
 4427SOL    HW214181   2.064   5.552   2.234
 4428SOL     OW14182   6.322   5.212   3.084
 4428SOL    HW114183   6.278   5.292   3.042
 4428SOL    HW214184   6.254   5.141   3.101
 4429SOL     OW14185   3.196   6.530   3.757
 4429SOL    HW114186   3.147   6.562   3.676
 4429SOL    HW214187   3.252   6.604   3.794
 4430SOL     OW14188   5.923   3.764   5.084
 4430SOL    HW114189   5.847   3.827   5.101
 4430SOL    HW214190   5.960   3.732   5.171
 4431SOL     OW14191   4.151   6.440   4.636
 4431SOL    HW114192   4.094   6.489   4.570
 4431SOL    HW214193   4.187   6.504   4.703
 4432SOL     OW14194   0.642   3.557   5.760
 4432SOL    HW114195   0.696   3.526   5.839
 4432SOL    HW214196   0.546   3.561   5.785
 4433SOL     OW14197   0.797   1.386   4.358
 4433SOL    HW114198   0.758   1.373   4.267
 4433SOL    HW214199   0.864   1.314   4.377
 4434SOL     OW14200   6.994   0.451   1.918
 4434SOL    HW114201   0.037   0.393   1.964
 4434SOL    HW214202   7.021   0.547   1.926
 4435SOL     OW14203   2.417   4.357   0.811
 4435SOL    HW114204   2.506   4.312   0.809
 4435SOL    HW214205   2.358   4.319   0.740
 4436SOL     OW14206   4.473   2.429   2.171
 4436SOL    HW114207   4.381   2.392   2.186
 4436SOL    HW214208   4.519   2.440   2.259
 4437SOL     OW14209   6.462   4.410   7.022
 4437SOL    HW114210   6.492   4.415   6.926
 4437SOL    HW214211   6.374   4.362   0.001
 4438SOL     OW14212   4.300   0.972   4.881
 4438SOL    HW114213   4.224   0.909   4.898
 4438SOL    HW214214   4.270   1.066   4.894
 4439SOL     OW14215   2.513   6.183   3.047
 4439SOL    HW114216   2.490   6.245   3.122
 4439SOL    HW214217   2.482   6.090   3.070
 4440SOL     OW14218   1.532   4.491   5.926
 4440SOL    HW114219   1.461   4.519   5.991
 4440SOL    HW214220   1.534   4.556   5.850
 4441SOL     OW14221   0.010   2.337   0.970
 4441SOL    HW114222   0.084   2.373   0.914
 4441SOL    HW214223   6.973   2.412   0.995
 4442SOL     OW14224   1.710   5.109   0.210
 4442SOL    HW114225   1.774   5.161   0.154
 4442SOL    HW214226   1.705   5.015   0.177
 4443SOL     OW14227   0.497   5.797   5.848
 4443SOL    HW114228   0.470   5.877   5.795
 4443SOL    HW214229   0.509   5.822   5.944
 4444SOL     OW14230   5.723   5.185   1.001
 4444SOL    HW114231   5.749   5.281   0.990
 4444SOL    HW214232   5.751   5.134   0.919
 4445SOL     OW14233   1.273   4.350   0.243
 4445SOL    HW114234   1.272   4.266   0.297
 4445SOL    HW214235   1.293   4.328   0.148
 4446SOL     OW14236   4.521   1.657   1.600
 4446SOL    HW114237   4.495   1.583   1.663
 4446SOL    HW214238   4.551   1.737   1.653
 4447SOL     OW14239   4.026   5.741   6.026
 4447SOL    HW114240   3.955   5.670   6.020
 4447SOL    HW214241   4.048   5.758   6.122
 4448SOL     OW14242   3.284   6.316   1.916
 4448SOL    HW114243   3.315   6.368   1.996
 4448SOL    HW214244   3.350   6.244   1.896
 4449SOL     OW14245   3.457   1.646   5.738
 4449SOL    HW114246   3.418   1.615   5.652
 4449SOL    HW214247   3.556   1.657   5.728
 4450SOL     OW14248   2.376   6.499   0.367
 4450SOL    HW114249   2.433   6.568   0.323
 4450SOL    HW214250   2.431   6.449   0.435
 4451SOL     OW14251   4.570   5.302   3.305
 4451SOL    HW114252   4.474   5.304   3.276
 4451SOL    HW214253   4.618   5.229   3.256
 4452SOL     OW14254   5.119   5.419   4.155
 4452SOL    HW114255   5.190   5.350   4.170
 4452SOL    HW214256   5.097   5.424   4.058
 4453SOL     OW14257   6.784   4.654   0.750
 4453SOL    HW114258   6.842   4.727   0.785
 4453SOL    HW214259   6.707   4.694   0.699
 4454SOL     OW14260   1.395   2.605   0.262
 4454SOL    HW114261   1.301   2.574   0.242
 4454SOL    HW214262   1.439   2.540   0.324
 4455SOL     OW14263   1.886   0.542   4.305
 4455SOL    HW114264   1.851   0.588   4.224
 4455SOL    HW214265   1.986   0.548   4.307
 4456SOL     OW14266   2.254   6.074   4.074
 4456SOL    HW114267   2.315   6.149   4.097
 4456SOL    HW214268   2.162   6.095   4.105
 4457SOL     OW14269   1.620   2.031   4.478
 4457SOL    HW114270   1.673   2.106   4.438
 4457SOL    HW214271   1.524   2.058   4.482
 4458SOL     OW14272   1.242   3.136   6.346
 4458SOL    HW114273   1.221   3.039   6.351
 4458SOL    HW214274   1.171   3.183   6.294
 4459SOL     OW14275   0.860   3.236   2.857
 4459SOL    HW114276   0.761   3.219   2.855
 4459SOL    HW214277   0.904   3.184   2.784
 4460SOL     OW14278   6.901   2.728   4.504
 4460SOL    HW114279   6.871   2.811   4.551
 4460SOL    HW214280   6.966   2.752   4.432
 4461SOL     OW14281   1.877   0.745   0.659
 4461SOL    HW114282   1.831   0.660   0.633
 4461SOL    HW214283   1.862   0.763   0.756
 4462SOL     OW14284   6.248   4.403   2.618
 4462SOL    HW114285   6.327   4.432   2.565
 4462SOL    HW214286   6.180   4.477   2.620
 4463SOL     OW14287   5.456   1.707   0.336
 4463SOL    HW114288   5.385   1.723   0.268
 4463SOL    HW214289   5.435   1.624   0.387
 4464SOL     OW14290   0.599   3.970   1.445
 4464SOL    HW114291   0.609   3.878   1.406
 4464SOL    HW214292   0.666   3.982   1.519
 4465SOL     OW14293   3.811   5.231   2.089
 4465SOL    HW114294   3.745   5.158   2.072
 4465SOL    HW214295   3.817   5.250   2.187
 4466SOL     OW14296   0.379   3.037   2.471
 4466SOL    HW114297   0.409   3.113   2.415
 4466SOL    HW214298   0.427   2.954   2.443
 4467SOL     OW14299   5.372   4.807   2.004
 4467SOL    HW114300   5.340   4.814   2.099
 4467SOL    HW214301   5.421   4.721   1.992
 4468SOL     OW14302   1.468   3.282   1.248
 4468SOL    HW114303   1.442   3.315   1.339
 4468SOL    HW214304   1.405   3.320   1.180
 4469SOL     OW14305   2.118   5.491   1.427
 4469SOL    HW114306   2.035   5.438   1.446
 4469SOL    HW214307   2.112   5.529   1.335
 4470SOL     OW14308   0.937   0.127   2.530
 4470SOL    HW114309   0.935   0.224   2.506
 4470SOL    HW214310   0.861   0.106   2.592
 4471SOL     OW14311   0.916   0.209   6.316
 4471SOL    HW114312   0.984   0.277   6.289
 4471SOL    HW214313   0.944   0.168   6.403
 4472SOL     OW14314   1.847   2.998   0.897
 4472SOL    HW114315   1.804   2.951   0.974
 4472SOL    HW214316   1.916   2.939   0.856
 4473SOL     OW14317   0.319   3.374   4.857
 4473SOL    HW114318   0.417   3.356   4.866
 4473SOL    HW214319   0.293   3.363   4.761
 4474SOL     OW14320   2.758   6.163   1.251
 4474SOL    HW114321   2.675   6.146   1.198
 4474SOL    HW214322   2.814   6.231   1.204
 4475SOL     OW14323   0.939   3.733   0.399
 4475SOL    HW114324   0.925   3.747   0.497
 4475SOL    HW214325   0.854   3.704   0.357
 4476SOL     OW14326   5.524   1.234   3.629
 4476SOL    HW114327   5.454   1.214   3.560
 4476SOL    HW214328   5.585   1.305   3.595
 4477SOL     OW14329   0.150   1.155   4.934
 4477SOL    HW114330   0.143   1.172   5.032
 4477SOL    HW214331   0.204   1.227   4.891
 4478SOL     OW14332   1.684   0.592   1.900
 4478SOL    HW114333   1.750   0.638   1.958
 4478SOL    HW214334   1.649   0.656   1.831
 4479SOL     OW14335   2.176   2.566   6.868
 4479SOL    HW114336   2.138   2.474   6.862
 4479SOL    HW214337   2.257   2.572   6.810
 4480SOL     OW14338   0.695   6.773   3.167
 4480SOL    HW114339   0.707   6.720   3.251
 4480SOL    HW214340   0.715   6.715   3.088
 4481SOL     OW14341   1.786   3.486   5.464
 4481SOL    HW114342   1.861   3.551   5.450
 4481SOL    HW214343   1.712   3.531   5.515
 4482SOL     OW14344   1.927   0.263   1.432
 4482SOL    HW114345   1.850   0.200   1.444
 4482SOL    HW214346   1.943   0.313   1.518
 4483SOL     OW14347   1.570   3.592   0.404
 4483SOL    HW114348   1.618   3.678   0.385
 4483SOL    HW214349   1.629   3.515   0.378
 4484SOL     OW14350   2.875   0.804   6.906
 4484SOL    HW114351   2.822   0.720   6.891
 4484SOL    HW214352   2.970   0.780   6.925
 4485SOL     OW14353   0.050   3.470   4.914
 4485SOL    HW114354   0.147   3.444   4.918
 4485SOL    HW214355   0.016   3.455   4.821
 4486SOL     OW14356   4.981   4.433   3.760
 4486SOL    HW114357   4.993   4.340   3.725
 4486SOL    HW214358   4.950   4.492   3.685
 4487SOL     OW14359   0.543   3.075   6.623
 4487SOL    HW114360   0.447   3.058   6.598
 4487SOL    HW214361   0.585   2.990   6.653
 4488SOL     OW14362   6.925   3.713   3.404
 4488SOL    HW114363   6.845   3.656   3.386
 4488SOL    HW214364   6.985   3.667   3.470
 4489SOL     OW14365   3.320   6.025   6.612
 4489SOL    HW114366   3.407   5.978   6.631
 4489SOL    HW214367   3.337   6.099   6.546
 4490SOL     OW14368   5.333   1.594   2.001
 4490SOL    HW114369   5.380   1.571   2.087
 4490SOL    HW214370   5.389   1.563   1.924
 4491SOL     OW14371   1.043   3.378   3.021
 4491SOL    HW114372   0.981   3.456   3.029
 4491SOL    HW214373   0.992   3.298   2.988
 4492SOL     OW14374   6.556   1.078   2.612
 4492SOL    HW114375   6.513   1.023   2.684
 4492SOL    HW214376   6.573   1.170   2.647
 4493SOL     OW14377   5.050   1.606   5.683
 4493SOL    HW114378   5.111   1.614   5.604
 4493SOL    HW214379   5.033   1.509   5.702
 4494SOL     OW14380   1.660   0.804   2.289
 4494SOL    HW114381   1.669   0.866   2.211
 4494SOL    HW214382   1.688   0.712   2.262
 4495SOL     OW14383   3.905   6.454   1.029
 4495SOL    HW114384   3.991   6.503   1.012
 4495SOL    HW214385   3.903   6.370   0.974
 4496SOL     OW14386   2.686   6.385   5.510
 4496SOL    HW114387   2.622   6.321   5.551
 4496SOL    HW214388   2.769   6.390   5.565
 4497SOL     OW14389   4.199   0.575   6.120
 4497SOL    HW114390   4.216   0.672   6.100
 4497SOL    HW214391   4.151   0.567   6.208
 4498SOL     OW14392   0.671   5.071   4.718
 4498SOL    HW114393   0.617   5.146   4.680
 4498SOL    HW214394   0.630   5.041   4.804
 4499SOL     OW14395   6.184   0.952   2.618
 4499SOL    HW114396   6.191   1.049   2.643
 4499SOL    HW214397   6.140   0.902   2.692
 4500SOL     OW14398   3.687   6.321   0.460
 4500SOL    HW114399   3.695   6.312   0.361
 4500SOL    HW214400   3.591   6.340   0.484
 4501SOL     OW14401   5.677   0.696   2.282
 4501SOL    HW114402   5.743   0.652   2.343
 4501SOL    HW214403   5.696   0.794   2.279
 4502SOL     OW14404   0.829   3.797   6.574
 4502SOL    HW114405   0.813   3.792   6.673
 4502SOL    HW214406   0.842   3.892   6.547
 4503SOL     OW14407   3.590   1.574   2.220
 4503SOL    HW114408   3.581   1.523   2.134
 4503SOL    HW214409   3.672   1.631   2.215
 4504SOL     OW14410   0.782   2.268   3.420
 4504SOL    HW114411   0.730   2.346   3.385
 4504SOL    HW214412   0.879   2.291   3.424
 4505SOL     OW14413   6.295   2.644   3.626
 4505SOL    HW114414   6.376   2.627   3.682
 4505SOL    HW214415   6.296   2.584   3.546
 4506SOL     OW14416   4.002   3.977   6.770
 4506SOL    HW114417   4.032   4.053   6.713
 4506SOL    HW214418   3.965   4.013   6.856
 4507SOL     OW14419   5.956   2.149   3.352
 4507SOL    HW114420   5.957   2.049   3.349
 4507SOL    HW214421   5.986   2.185   3.264
 4508SOL     OW14422   6.462   4.981   0.698
 4508SOL    HW114423   6.394   5.030   0.753
 4508SOL    HW214424   6.482   5.035   0.616
 4509SOL     OW14425   5.447   2.179   2.231
 4509SOL    HW114426   5.463   2.266   2.277
 4509SOL    HW214427   5.349   2.170   2.210
 4510SOL     OW14428   4.441   1.660   4.431
 4510SOL    HW114429   4.391   1.577   4.456
 4510SOL    HW214430   4.498   1.641   4.351
 4511SOL     OW14431   0.022   4.991   6.708
 4511SOL    HW114432   0.017   5.008   6.807
 4511SOL    HW214433   6.969   5.034   6.663
 4512SOL     OW14434   3.351   3.182   5.547
 4512SOL    HW114435   3.315   3.207   5.637
 4512SOL    HW214436   3.281   3.133   5.496
 4513SOL     OW14437   0.164   0.521   0.467
 4513SOL    HW114438   0.162   0.458   0.544
 4513SOL    HW214439   0.136   0.612   0.498
 4514SOL     OW14440   4.610   5.018   6.407
 4514SOL    HW114441   4.644   4.934   6.364
 4514SOL    HW214442   4.687   5.080   6.424
 4515SOL     OW14443   3.984   0.784   6.400
 4515SOL    HW114444   4.064   0.845   6.396
 4515SOL    HW214445   4.009   0.694   6.364
 4516SOL     OW14446   3.266   2.537   6.103
 4516SOL    HW114447   3.266   2.559   6.005
 4516SOL    HW214448   3.266   2.622   6.156
 4517SOL     OW14449   4.320   0.412   4.647
 4517SOL    HW114450   4.328   0.510   4.627
 4517SOL    HW214451   4.363   0.359   4.573
 4518SOL     OW14452   0.272   6.848   0.725
 4518SOL    HW114453   0.327   6.841   0.808
 4518SOL    HW214454   0.245   6.943   0.711
 4519SOL     OW14455   4.645   6.487   6.714
 4519SOL    HW114456   4.717   6.520   6.654
 4519SOL    HW214457   4.577   6.437   6.661
 4520SOL     OW14458   4.844   4.894   5.536
 4520SOL    HW114459   4.900   4.967   5.575
 4520SOL    HW214460   4.769   4.934   5.483
 4521SOL     OW14461   4.392   2.403   3.721
 4521SOL    HW114462   4.445   2.374   3.800
 4521SOL    HW214463   4.299   2.367   3.728
 4522SOL     OW14464   5.669   3.618   3.310
 4522SOL    HW114465   5.601   3.587   3.375
 4522SOL    HW214466   5.759   3.582   3.336
 4523SOL     OW14467   0.029   3.349   6.243
 4523SOL    HW114468   0.065   3.305   6.161
 4523SOL    HW214469   0.096   3.417   6.277
 4524SOL     OW14470   2.159   3.807   2.152
 4524SOL    HW114471   2.142   3.723   2.102
 4524SOL    HW214472   2.198   3.876   2.090
 4525SOL     OW14473   3.722   2.527   5.764
 4525SOL    HW114474   3.707   2.430   5.746
 4525SOL    HW214475   3.690   2.550   5.856
 4526SOL     OW14476   1.458   0.425   5.499
 4526SOL    HW114477   1.490   0.360   5.430
 4526SOL    HW214478   1.466   0.518   5.463
 4527SOL     OW14479   0.266   1.291   3.004
 4527SOL    HW114480   0.228   1.330   2.921
 4527SOL    HW214481   0.216   1.208   3.028
 4528SOL     OW14482   5.091   1.096   4.405
 4528SOL    HW114483   5.121   1.002   4.418
 4528SOL    HW214484   5.097   1.145   4.492
 4529SOL     OW14485   2.325   2.018   3.875
 4529SOL    HW114486   2.291   1.924   3.883
 4529SOL    HW214487   2.335   2.042   3.778
 4530SOL     OW14488   3.652   5.554   6.412
 4530SOL    HW114489   3.677   5.514   6.500
 4530SOL    HW214490   3.734   5.574   6.360
 4531SOL     OW14491   1.657   6.639   5.379
 4531SOL    HW114492   1.579   6.702   5.379
 4531SOL    HW214493   1.719   6.664   5.454
 4532SOL     OW14494   6.600   1.006   2.346
 4532SOL    HW114495   6.505   1.018   2.315
 4532SOL    HW214496   6.608   1.034   2.441
 4533SOL     OW14497   2.803   6.482   1.408
 4533SOL    HW114498   2.836   6.575   1.419
 4533SOL    HW214499   2.714   6.483   1.363
 4534SOL     OW14500   5.675   1.258   4.377
 4534SOL    HW114501   5.710   1.344   4.415
 4534SOL    HW214502   5.649   1.272   4.281
 4535SOL     OW14503   1.694   0.612   0.049
 4535SOL    HW114504   1.716   0.703   0.085
 4535SOL    HW214505   1.665   0.553   0.124
 4536SOL     OW14506   3.816   1.238   5.987
 4536SOL    HW114507   3.815   1.209   6.083
 4536SOL    HW214508   3.910   1.250   5.956
 4537SOL     OW14509   3.513   3.244   3.348
 4537SOL    HW114510   3.464   3.246   3.435
 4537SOL    HW214511   3.510   3.335   3.306
 4538SOL     OW14512   0.858   2.288   0.424
 4538SOL    HW114513   0.896   2.327   0.341
 4538SOL    HW214514   0.882   2.345   0.503
 4539SOL     OW14515   1.502   5.857   4.748
 4539SOL    HW114516   1.564   5.933   4.730
 4539SOL    HW214517   1.427   5.889   4.806
 4540SOL     OW14518   1.578   1.730   0.188
 4540SOL    HW114519   1.561   1.642   0.231
 4540SOL    HW214520   1.675   1.738   0.164
 4541SOL     OW14521   3.871   3.550   0.096
 4541SOL    HW114522   3.822   3.574   0.012
 4541SOL    HW214523   3.837   3.463   0.131
 4542SOL     OW14524   0.492   1.621   6.509
 4542SOL    HW114525   0.527   1.715   6.516
 4542SOL    HW214526   0.568   1.559   6.492
 4543SOL     OW14527   4.214   1.860   0.917
 4543SOL    HW114528   4.292   1.802   0.895
 4543SOL    HW214529   4.228   1.951   0.879
 4544SOL     OW14530   4.711   6.642   0.573
 4544SOL    HW114531   4.665   6.727   0.599
 4544SOL    HW214532   4.786   6.624   0.637
 4545SOL     OW14533   2.977   2.645   5.745
 4545SOL    HW114534   2.972   2.740   5.713
 4545SOL    HW214535   2.890   2.599   5.725
 4546SOL     OW14536   4.125   0.285   6.285
 4546SOL    HW114537   4.080   0.202   6.252
 4546SOL    HW214538   4.193   0.260   6.354
 4547SOL     OW14539   0.392   0.238   0.126
 4547SOL    HW114540   0.449   0.249   0.044
 4547SOL    HW214541   0.431   0.165   0.183
 4548SOL     OW14542   3.094   1.303   2.026
 4548SOL    HW114543   3.123   1.391   2.064
 4548SOL    HW214544   3.115   1.230   2.092
 4549SOL     OW14545   6.949   3.128   4.225
 4549SOL    HW114546   0.009   3.171   4.193
 4549SOL    HW214547   6.884   3.124   4.149
 4550SOL     OW14548   1.772   5.785   5.411
 4550SOL    HW114549   1.756   5.806   5.314
 4550SOL    HW214550   1.759   5.687   5.426
 4551SOL     OW14551   3.430   2.303   6.034
 4551SOL    HW114552   3.482   2.289   6.118
 4551SOL    HW214553   3.351   2.361   6.054
 4552SOL     OW14554   4.782   0.886   6.741
 4552SOL    HW114555   4.841   0.812   6.710
 4552SOL    HW214556   4.715   0.849   6.806
 4553SOL     OW14557   0.620   6.059   0.451
 4553SOL    HW114558   0.539   6.083   0.506
 4553SOL    HW214559   0.597   5.983   0.390
 4554SOL     OW14560   5.900   0.126   3.179
 4554SOL    HW114561   5.821   0.065   3.179
 4554SOL    HW214562   5.870   0.220   3.196
 4555SOL     OW14563   0.884   0.791   1.649
 4555SOL    HW114564   0.943   0.839   1.584
 4555SOL    HW214565   0.790   0.824   1.640
 4556SOL     OW14566   5.310   4.273   3.946
 4556SOL    HW114567   5.377   4.288   4.019
 4556SOL    HW214568   5.218   4.268   3.986
 4557SOL     OW14569   6.694   4.683   4.368
 4557SOL    HW114570   6.687   4.764   4.310
 4557SOL    HW214571   6.603   4.654   4.396
 4558SOL     OW14572   1.192   3.950   4.882
 4558SOL    HW114573   1.149   3.863   4.860
 4558SOL    HW214574   1.249   3.979   4.806
 4559SOL     OW14575   0.170   2.828   3.858
 4559SOL    HW114576   0.207   2.763   3.792
 4559SOL    HW214577   0.070   2.821   3.859
 4560SOL     OW14578   6.157   4.767   2.886
 4560SOL    HW114579   6.075   4.818   2.911
 4560SOL    HW214580   6.234   4.798   2.941
 4561SOL     OW14581   4.264   2.315   4.100
 4561SOL    HW114582   4.309   2.240   4.052
 4561SOL    HW214583   4.333   2.374   4.142
 4562SOL     OW14584   3.885   1.338   0.429
 4562SOL    HW114585   3.846   1.339   0.521
 4562SOL    HW214586   3.826   1.286   0.368
 4563SOL     OW14587   0.797   3.972   1.636
 4563SOL    HW114588   0.844   3.918   1.566
 4563SOL    HW214589   0.838   3.954   1.725
 4564SOL     OW14590   2.102   4.369   2.358
 4564SOL    HW114591   2.042   4.317   2.298
 4564SOL    HW214592   2.098   4.466   2.334
 4565SOL     OW14593   1.595   0.019   5.603
 4565SOL    HW114594   1.602   0.077   5.683
 4565SOL    HW214595   1.634   6.954   5.623
 4566SOL     OW14596   6.894   3.851   3.086
 4566SOL    HW114597   6.921   3.932   3.034
 4566SOL    HW214598   6.971   3.787   3.092
 4567SOL     OW14599   7.016   6.629   6.635
 4567SOL    HW114600   6.996   6.614   6.732
 4567SOL    HW214601   7.000   6.724   6.612
 4568SOL     OW14602   0.933   5.402   3.954
 4568SOL    HW114603   0.917   5.387   4.052
 4568SOL    HW214604   0.964   5.496   3.940
 4569SOL     OW14605   1.634   2.005   2.880
 4569SOL    HW114606   1.604   2.035   2.970
 4569SOL    HW214607   1.556   1.972   2.827
 4570SOL     OW14608   5.114   5.470   1.156
 4570SOL    HW114609   5.084   5.505   1.067
 4570SOL    HW214610   5.134   5.546   1.217
 4571SOL     OW14611   2.360   3.782   5.559
 4571SOL    HW114612   2.316   3.753   5.475
 4571SOL    HW214613   2.458   3.796   5.543
 4572SOL     OW14614   4.105   3.157   1.727
 4572SOL    HW114615   4.061   3.078   1.686
 4572SOL    HW214616   4.202   3.138   1.741
 4573SOL     OW14617   2.213   4.659   0.593
 4573SOL    HW114618   2.250   4.673   0.685
 4573SOL    HW214619   2.281   4.614   0.536
 4574SOL     OW14620   4.534   1.006   1.995
 4574SOL    HW114621   4.578   1.048   1.915
 4574SOL    HW214622   4.592   1.019   2.075
 4575SOL     OW14623   6.959   1.009   5.238
 4575SOL    HW114624   7.024   1.081   5.262
 4575SOL    HW214625   6.959   0.939   5.309
 4576SOL     OW14626   3.476   3.895   6.703
 4576SOL    HW114627   3.413   3.923   6.775
 4576SOL    HW214628   3.466   3.797   6.686
 4577SOL     OW14629   0.613   1.558   1.748
 4577SOL    HW114630   0.651   1.511   1.669
 4577SOL    HW214631   0.554   1.633   1.718
 4578SOL     OW14632   1.919   0.726   3.040
 4578SOL    HW114633   1.863   0.796   2.995
 4578SOL    HW214634   1.867   0.641   3.047
 4579SOL     OW14635   4.520   0.640   3.806
 4579SOL    HW114636   4.567   0.727   3.821
 4579SOL    HW214637   4.584   0.574   3.768
 4580SOL     OW14638   0.605   1.203   0.684
 4580SOL    HW114639   0.524   1.164   0.730
 4580SOL    HW214640   0.687   1.161   0.721
 4581SOL     OW14641   2.600   0.501   1.007
 4581SOL    HW114642   2.562   0.592   0.994
 4581SOL    HW214643   2.634   0.466   0.919
 4582SOL     OW14644   6.958   0.710   3.605
 4582SOL    HW114645   7.015   0.783   3.643
 4582SOL    HW214646   6.993   0.621   3.635
 4583SOL     OW14647   2.094   6.872   0.143
 4583SOL    HW114648   2.020   6.911   0.197
 4583SOL    HW214649   2.180   6.919   0.166
 4584SOL     OW14650   0.265   2.011   4.031
 4584SOL    HW114651   0.209   1.960   4.096
 4584SOL    HW214652   0.302   1.949   3.962
 4585SOL     OW14653   1.812   3.098   2.867
 4585SOL    HW114654   1.852   3.020   2.819
 4585SOL    HW214655   1.844   3.099   2.962
 4586SOL     OW14656   6.444   4.686   6.207
 4586SOL    HW114657   6.419   4.609   6.266
 4586SOL    HW214658   6.373   4.756   6.212
 4587SOL     OW14659   4.209   4.156   5.772
 4587SOL    HW114660   4.156   4.192   5.696
 4587SOL    HW214661   4.297   4.122   5.739
 4588SOL     OW14662   3.023   4.274   6.487
 4588SOL    HW114663   2.985   4.281   6.579
 4588SOL    HW214664   3.123   4.271   6.492
 4589SOL     OW14665   5.680   6.460   2.669
 4589SOL    HW114666   5.612   6.398   2.707
 4589SOL    HW214667   5.738   6.411   2.604
 4590SOL     OW14668   2.804   5.402   1.351
 4590SOL    HW114669   2.735   5.410   1.279
 4590SOL    HW214670   2.797   5.480   1.414
 4591SOL     OW14671   2.677   0.766   4.740
 4591SOL    HW114672   2.627   0.846   4.773
 4591SOL    HW214673   2.617   0.710   4.682
 4592SOL     OW14674   2.518   1.782   3.862
 4592SOL    HW114675   2.611   1.768   3.896
 4592SOL    HW214676   2.491   1.877   3.876
 4593SOL     OW14677   1.292   6.427   4.536
 4593SOL    HW114678   1.371   6.429   4.597
 4593SOL    HW214679   1.209   6.450   4.587
 4594SOL     OW14680   1.951   6.262   4.313
 4594SOL    HW114681   1.949   6.340   4.376
 4594SOL    HW214682   2.002   6.187   4.355
 4595SOL     OW14683   5.809   2.082   6.351
 4595SOL    HW114684   5.888   2.082   6.291
 4595SOL    HW214685   5.725   2.089   6.296
 4596SOL     OW14686   1.142   1.100   2.285
 4596SOL    HW114687   1.225   1.132   2.330
 4596SOL    HW214688   1.084   1.053   2.352
 4597SOL     OW14689   2.451   5.732   0.787
 4597SOL    HW114690   2.394   5.785   0.848
 4597SOL    HW214691   2.540   5.777   0.777
 4598SOL     OW14692   0.718   3.683   0.212
 4598SOL    HW114693   0.720   3.622   0.134
 4598SOL    HW214694   0.624   3.695   0.244
 4599SOL     OW14695   3.555   6.688   2.342
 4599SOL    HW114696   3.581   6.598   2.378
 4599SOL    HW214697   3.538   6.682   2.244
 4600SOL     OW14698   6.911   6.520   6.414
 4600SOL    HW114699   6.887   6.583   6.340
 4600SOL    HW214700   6.946   6.572   6.492
 4601SOL     OW14701   1.796   0.487   5.907
 4601SOL    HW114702   1.741   0.445   5.834
 4601SOL    HW214703   1.782   0.586   5.905
 4602SOL     OW14704   3.596   1.630   6.759
 4602SOL    HW114705   3.497   1.641   6.749
 4602SOL    HW214706   3.616   1.586   6.847
 4603SOL     OW14707   3.857   6.848   1.238
 4603SOL    HW114708   3.908   6.774   1.282
 4603SOL    HW214709   3.874   6.934   1.287
 4604SOL     OW14710   0.198   6.726   3.589
 4604SOL    HW114711   0.268   6.655   3.588
 4604SOL    HW214712   0.149   6.726   3.502
 4605SOL     OW14713   4.210   0.866   1.388
 4605SOL    HW114714   4.150   0.936   1.348
 4605SOL    HW214715   4.305   0.892   1.372
 4606SOL     OW14716   0.020   6.678   4.976
 4606SOL    HW114717   6.969   6.731   5.015
 4606SOL    HW214718   0.033   6.594   5.028
 4607SOL     OW14719   2.341   1.717   0.838
 4607SOL    HW114720   2.368   1.700   0.933
 4607SOL    HW214721   2.255   1.768   0.837
 4608SOL     OW14722   6.889   2.977   4.641
 4608SOL    HW114723   6.832   3.040   4.588
 4608SOL    HW214724   6.900   3.012   4.734
 4609SOL     OW14725   5.112   5.151   6.571
 4609SOL    HW114726   5.119   5.249   6.593
 4609SOL    HW214727   5.019   5.119   6.590
 4610SOL     OW14728   4.916   5.266   0.439
 4610SOL    HW114729   4.868   5.307   0.516
 4610SOL    HW214730   4.858   5.196   0.397
 4611SOL     OW14731   0.099   1.433   6.388
 4611SOL    HW114732   0.192   1.394   6.383
 4611SOL    HW214733   0.103   1.522   6.434
 4612SOL     OW14734   2.473   1.265   2.611
 4612SOL    HW114735   2.485   1.227   2.519
 4612SOL    HW214736   2.534   1.218   2.675
 4613SOL     OW14737   1.353   5.307   1.885
 4613SOL    HW114738   1.401   5.250   1.819
 4613SOL    HW214739   1.307   5.249   1.953
 4614SOL     OW14740   0.091   4.299   3.465
 4614SOL    HW114741   0.184   4.318   3.498
 4614SOL    HW214742   0.038   4.384   3.464
 4615SOL     OW14743   1.321   4.434   6.398
 4615SOL    HW114744   1.234   4.440   6.447
 4615SOL    HW214745   1.395   4.467   6.456
 4616SOL     OW14746   1.335   3.790   6.136
 4616SOL    HW114747   1.316   3.750   6.226
 4616SOL    HW214748   1.255   3.775   6.076
 4617SOL     OW14749   6.838   3.288   3.346
 4617SOL    HW114750   6.916   3.230   3.323
 4617SOL    HW214751   6.786   3.247   3.421
 4618SOL     OW14752   2.359   3.306   5.605
 4618SOL    HW114753   2.389   3.246   5.531
 4618SOL    HW214754   2.320   3.389   5.566
 4619SOL     OW14755   4.485   6.001   6.228
 4619SOL    HW114756   4.442   6.026   6.141
 4619SOL    HW214757   4.581   6.028   6.226
 4620SOL     OW14758   0.842   4.204   1.467
 4620SOL    HW114759   0.906   4.254   1.526
 4620SOL    HW214760   0.831   4.111   1.501
 4621SOL     OW14761   3.197   0.523   2.790
 4621SOL    HW114762   3.288   0.486   2.809
 4621SOL    HW214763   3.195   0.560   2.697
 4622SOL     OW14764   5.189   0.075   0.580
 4622SOL    HW114765   5.202   7.002   0.567
 4622SOL    HW214766   5.278   0.120   0.586
 4623SOL     OW14767   3.121   4.841   2.512
 4623SOL    HW114768   3.067   4.764   2.477
 4623SOL    HW214769   3.076   4.926   2.488
 4624SOL     OW14770   4.979   1.495   1.688
 4624SOL    HW114771   4.891   1.537   1.709
 4624SOL    HW214772   5.026   1.550   1.619
 4625SOL     OW14773   1.338   6.167   1.664
 4625SOL    HW114774   1.304   6.105   1.735
 4625SOL    HW214775   1.290   6.150   1.578
 4626SOL     OW14776   4.194   3.404   2.018
 4626SOL    HW114777   4.268   3.337   2.021
 4626SOL    HW214778   4.211   3.470   1.946
 4627SOL     OW14779   5.530   0.222   4.905
 4627SOL    HW114780   5.597   0.149   4.888
 4627SOL    HW214781   5.575   0.298   4.952
 4628SOL     OW14782   6.042   4.484   2.903
 4628SOL    HW114783   6.022   4.536   2.986
 4628SOL    HW214784   6.119   4.528   2.855
 4629SOL     OW14785   1.569   5.441   0.078
 4629SOL    HW114786   1.480   5.487   0.072
 4629SOL    HW214787   1.570   5.382   0.158
 4630SOL     OW14788   2.014   3.750   1.399
 4630SOL    HW114789   1.998   3.659   1.437
 4630SOL    HW214790   2.002   3.747   1.299
 4631SOL     OW14791   6.513   0.887   3.178
 4631SOL    HW114792   6.608   0.917   3.182
 4631SOL    HW214793   6.508   0.789   3.200
 4632SOL     OW14794   2.932   4.844   3.444
 4632SOL    HW114795   2.953   4.823   3.349
 4632SOL    HW214796   3.016   4.847   3.497
 4633SOL     OW14797   4.516   2.477   4.526
 4633SOL    HW114798   4.557   2.508   4.612
 4633SOL    HW214799   4.535   2.543   4.454
 4634SOL     OW14800   3.774   3.024   4.670
 4634SOL    HW114801   3.860   3.019   4.720
 4634SOL    HW214802   3.698   3.005   4.733
 4635SOL     OW14803   4.748   6.105   2.413
 4635SOL    HW114804   4.769   6.021   2.463
 4635SOL    HW214805   4.653   6.132   2.432
 4636SOL     OW14806   1.504   6.156   6.224
 4636SOL    HW114807   1.477   6.185   6.132
 4636SOL    HW214808   1.495   6.234   6.287
 4637SOL     OW14809   2.166   2.236   3.083
 4637SOL    HW114810   2.110   2.296   3.141
 4637SOL    HW214811   2.238   2.194   3.138
 4638SOL     OW14812   3.754   4.896   0.513
 4638SOL    HW114813   3.717   4.982   0.477
 4638SOL    HW214814   3.841   4.875   0.468
 4639SOL     OW14815   3.802   2.024   1.712
 4639SOL    HW114816   3.792   2.117   1.677
 4639SOL    HW214817   3.711   1.982   1.722
 4640SOL     OW14818   6.031   3.018   0.679
 4640SOL    HW114819   6.074   3.079   0.746
 4640SOL    HW214820   6.045   2.923   0.706
 4641SOL     OW14821   1.736   5.513   4.606
 4641SOL    HW114822   1.775   5.605   4.611
 4641SOL    HW214823   1.744   5.469   4.695
 4642SOL     OW14824   6.169   1.329   5.634
 4642SOL    HW114825   6.145   1.244   5.680
 4642SOL    HW214826   6.148   1.406   5.694
 4643SOL     OW14827   0.398   1.567   0.413
 4643SOL    HW114828   0.438   1.652   0.446
 4643SOL    HW214829   0.420   1.554   0.316
 4644SOL     OW14830   0.877   0.283   0.719
 4644SOL    HW114831   0.834   0.243   0.638
 4644SOL    HW214832   0.841   0.376   0.734
 4645SOL     OW14833   6.196   2.171   4.907
 4645SOL    HW114834   6.157   2.262   4.894
 4645SOL    HW214835   6.193   2.121   4.820
 4646SOL     OW14836   2.184   3.897   2.952
 4646SOL    HW114837   2.136   3.823   2.905
 4646SOL    HW214838   2.217   3.963   2.884
 4647SOL     OW14839   1.976   6.201   1.944
 4647SOL    HW114840   2.019   6.280   1.901
 4647SOL    HW214841   1.896   6.231   1.998
 4648SOL     OW14842   3.010   1.158   4.471
 4648SOL    HW114843   3.029   1.256   4.462
 4648SOL    HW214844   2.926   1.136   4.421
 4649SOL     OW14845   5.996   1.780   0.558
 4649SOL    HW114846   5.923   1.801   0.624
 4649SOL    HW214847   5.962   1.716   0.490
 4650SOL     OW14848   4.583   5.797   1.252
 4650SOL    HW114849   4.617   5.705   1.236
 4650SOL    HW214850   4.561   5.808   1.349
 4651SOL     OW14851   0.412   3.938   6.355
 4651SOL    HW114852   0.436   4.031   6.324
 4651SOL    HW214853   0.337   3.903   6.299
 4652SOL     OW14854   0.078   0.223   5.459
 4652SOL    HW114855   0.139   0.150   5.428
 4652SOL    HW214856   0.005   0.184   5.515
 4653SOL     OW14857   7.012   5.565   1.042
 4653SOL    HW114858   7.004   5.475   1.083
 4653SOL    HW214859   0.034   5.557   0.954
 4654SOL     OW14860   0.885   1.134   5.744
 4654SOL    HW114861   0.900   1.054   5.686
 4654SOL    HW214862   0.796   1.125   5.790
 4655SOL     OW14863   5.357   3.340   2.688
 4655SOL    HW114864   5.265   3.309   2.714
 4655SOL    HW214865   5.418   3.333   2.767
 4656SOL     OW14866   6.314   1.088   2.185
 4656SOL    HW114867   6.273   1.102   2.094
 4656SOL    HW214868   6.278   1.004   2.225
 4657SOL     OW14869   3.726   1.549   2.876
 4657SOL    HW114870   3.791   1.626   2.885
 4657SOL    HW214871   3.714   1.528   2.779
 4658SOL     OW14872   1.421   1.956   6.399
 4658SOL    HW114873   1.389   1.929   6.308
 4658SOL    HW214874   1.487   1.889   6.432
 4659SOL     OW14875   1.932   4.410   0.716
 4659SOL    HW114876   1.998   4.483   0.734
 4659SOL    HW214877   1.943   4.377   0.622
 4660SOL     OW14878   0.684   5.319   3.769
 4660SOL    HW114879   0.675   5.220   3.759
 4660SOL    HW214880   0.764   5.340   3.825
 4661SOL     OW14881   0.915   1.858   5.644
 4661SOL    HW114882   0.894   1.779   5.701
 4661SOL    HW214883   0.997   1.903   5.680
 4662SOL     OW14884   2.668   0.201   6.109
 4662SOL    HW114885   2.578   0.243   6.120
 4662SOL    HW214886   2.687   0.187   6.012
 4663SOL     OW14887   1.030   6.758   0.484
 4663SOL    HW114888   0.946   6.703   0.490
 4663SOL    HW214889   1.013   6.848   0.523
 4664SOL     OW14890   5.819   6.915   6.215
 4664SOL    HW114891   5.879   6.836   6.204
 4664SOL    HW214892   5.873   6.999   6.218
 4665SOL     OW14893   0.351   0.430   2.935
 4665SOL    HW114894   0.364   0.405   3.031
 4665SOL    HW214895   0.283   0.502   2.928
 4666SOL     OW14896   1.588   2.712   5.989
 4666SOL    HW114897   1.590   2.614   5.970
 4666SOL    HW214898   1.493   2.745   5.983
 4667SOL     OW14899   6.351   3.252   0.739
 4667SOL    HW114900   6.313   3.338   0.704
 4667SOL    HW214901   6.305   3.228   0.825
 4668SOL     OW14902   4.636   2.235   4.582
 4668SOL    HW114903   4.597   2.309   4.527
 4668SOL    HW214904   4.571   2.159   4.586
 4669SOL     OW14905   5.113   6.945   6.955
 4669SOL    HW114906   5.074   6.865   7.002
 4669SOL    HW214907   5.210   6.951   6.975
 4670SOL     OW14908   0.312   3.459   6.650
 4670SOL    HW114909   0.253   3.420   6.721
 4670SOL    HW214910   0.256   3.494   6.575
 4671SOL     OW14911   7.002   2.743   1.998
 4671SOL    HW114912   6.960   2.817   1.946
 4671SOL    HW214913   6.933   2.699   2.056
 4672SOL     OW14914   2.764   3.606   6.954
 4672SOL    HW114915   2.752   3.633   0.025
 4672SOL    HW214916   2.697   3.654   6.897
 4673SOL     OW14917   6.026   0.696   0.731
 4673SOL    HW114918   6.084   0.681   0.651
 4673SOL    HW214919   6.076   0.671   0.814
 4674SOL     OW14920   1.118   3.065   0.671
 4674SOL    HW114921   1.154   3.104   0.756
 4674SOL    HW214922   1.181   2.995   0.637
 4675SOL     OW14923   1.739   5.548   6.666
 4675SOL    HW114924   1.762   5.520   6.759
 4675SOL    HW214925   1.771   5.642   6.650
 4676SOL     OW14926   0.498   5.926   4.618
 4676SOL    HW114927   0.410   5.937   4.573
 4676SOL    HW214928   0.519   5.829   4.627
 4677SOL     OW14929   3.931   6.545   0.198
 4677SOL    HW114930   4.026   6.560   0.225
 4677SOL    HW214931   3.871   6.602   0.253
 4678SOL     OW14932   2.218   4.420   0.385
 4678SOL    HW114933   2.176   4.356   0.450
 4678SOL    HW214934   2.300   4.459   0.427
 4679SOL     OW14935   2.396   6.521   5.804
 4679SOL    HW114936   2.489   6.550   5.827
 4679SOL    HW214937   2.343   6.510   5.888
 4680SOL     OW14938   1.157   4.703   0.065
 4680SOL    HW114939   1.108   4.780   0.023
 4680SOL    HW214940   1.158   4.626   0.002
 4681SOL     OW14941   6.429   5.723   5.198
 4681SOL    HW114942   6.371   5.728   5.116
 4681SOL    HW214943   6.511   5.777   5.184
 4682SOL     OW14944   2.731   6.270   0.750
 4682SOL    HW114945   2.698   6.358   0.715
 4682SOL    HW214946   2.720   6.268   0.849
 4683SOL     OW14947   0.322   4.647   2.961
 4683SOL    HW114948   0.235   4.630   2.915
 4683SOL    HW214949   0.346   4.568   3.017
 4684SOL     OW14950   1.587   1.389   5.190
 4684SOL    HW114951   1.670   1.396   5.247
 4684SOL    HW214952   1.574   1.293   5.164
 4685SOL     OW14953   5.022   4.859   5.168
 4685SOL    HW114954   5.110   4.906   5.173
 4685SOL    HW214955   5.000   4.840   5.072
 4686SOL     OW14956   4.848   6.113   0.285
 4686SOL    HW114957   4.909   6.069   0.351
 4686SOL    HW214958   4.817   6.046   0.218
 4687SOL     OW14959   5.073   6.703   4.599
 4687SOL    HW114960   5.021   6.638   4.544
 4687SOL    HW214961   5.082   6.789   4.549
 4688SOL     OW14962   0.401   1.701   0.741
 4688SOL    HW114963   0.464   1.706   0.663
 4688SOL    HW214964   0.311   1.735   0.713
 4689SOL     OW14965   1.875   4.750   5.090
 4689SOL    HW114966   1.876   4.656   5.126
 4689SOL    HW214967   1.953   4.762   5.028
 4690SOL     OW14968   1.250   1.506   0.395
 4690SOL    HW114969   1.232   1.409   0.412
 4690SOL    HW214970   1.337   1.532   0.437
 4691SOL     OW14971   3.999   4.686   0.190
 4691SOL    HW114972   3.958   4.598   0.213
 4691SOL    HW214973   4.009   4.692   0.090
 4692SOL     OW14974   0.630   5.837   3.573
 4692SOL    HW114975   0.576   5.820   3.491
 4692SOL    HW214976   0.708   5.895   3.551
 4693SOL     OW14977   0.619   0.554   3.289
 4693SOL    HW114978   0.580   0.518   3.204
 4693SOL    HW214979   0.564   0.631   3.322
 4694SOL     OW14980   1.344   1.113   5.695
 4694SOL    HW114981   1.305   1.160   5.775
 4694SOL    HW214982   1.441   1.094   5.712
 4695SOL     OW14983   3.120   3.080   2.420
 4695SOL    HW114984   3.025   3.097   2.394
 4695SOL    HW214985   3.166   3.028   2.349
 4696SOL     OW14986   5.941   3.217   0.186
 4696SOL    HW114987   5.946   3.265   0.098
 4696SOL    HW214988   5.870   3.147   0.181
 4697SOL     OW14989   1.306   5.956   6.672
 4697SOL    HW114990   1.380   5.904   6.714
 4697SOL    HW214991   1.280   6.032   6.732
 4698SOL     OW14992   6.195   2.897   2.558
 4698SOL    HW114993   6.233   2.989   2.568
 4698SOL    HW214994   6.253   2.844   2.495
 4699SOL     OW14995   6.756   6.725   3.204
 4699SOL    HW114996   6.835   6.724   3.142
 4699SOL    HW214997   6.740   6.818   3.236
 4700SOL     OW14998   5.576   6.541   0.167
 4700SOL    HW114999   5.671   6.514   0.147
 4700SOL    HW215000   5.570   6.572   0.262
 4701SOL     OW15001   0.732   0.716   0.075
 4701SOL    HW115002   0.745   0.674   0.165
 4701SOL    HW215003   0.642   0.691   0.039
 4702SOL     OW15004   2.728   3.710   0.220
 4702SOL    HW115005   2.788   3.668   0.288
 4702SOL    HW215006   2.641   3.734   0.262
 4703SOL     OW15007   0.865   1.206   1.852
 4703SOL    HW115008   0.799   1.213   1.777
 4703SOL    HW215009   0.869   1.111   1.883
 4704SOL     OW15010   4.658   6.850   0.122
 4704SOL    HW115011   4.611   6.862   0.209
 4704SOL    HW215012   4.634   6.926   0.061
 4705SOL     OW15013   3.262   4.081   4.413
 4705SOL    HW115014   3.340   4.106   4.470
 4705SOL    HW215015   3.289   4.084   4.317
 4706SOL     OW15016   4.925   5.069   0.763
 4706SOL    HW115017   5.021   5.095   0.752
 4706SOL    HW215018   4.902   5.068   0.861
 4707SOL     OW15019   2.978   5.653   1.240
 4707SOL    HW115020   3.035   5.574   1.260
 4707SOL    HW215021   3.029   5.737   1.257
 4708SOL     OW15022   1.909   3.235   2.607
 4708SOL    HW115023   1.855   3.316   2.585
 4708SOL    HW215024   1.872   3.191   2.689
 4709SOL     OW15025   2.650   4.366   0.522
 4709SOL    HW115026   2.688   4.302   0.456
 4709SOL    HW215027   2.716   4.439   0.540
 4710SOL     OW15028   4.611   2.965   1.328
 4710SOL    HW115029   4.660   3.052   1.331
 4710SOL    HW215030   4.529   2.975   1.271
 4711SOL     OW15031   2.643   0.038   3.100
 4711SOL    HW115032   2.621   6.983   3.156
 4711SOL    HW215033   2.625   0.017   3.004
 4712SOL     OW15034   1.506   4.189   6.570
 4712SOL    HW115035   1.421   4.205   6.620
 4712SOL    HW215036   1.485   4.177   6.473
 4713SOL     OW15037   1.767   5.570   0.905
 4713SOL    HW115038   1.667   5.569   0.897
 4713SOL    HW215039   1.797   5.497   0.966
 4714SOL     OW15040   3.843   2.024   0.744
 4714SOL    HW115041   3.877   1.930   0.748
 4714SOL    HW215042   3.786   2.036   0.663
 4715SOL     OW15043   4.892   3.716   4.677
 4715SOL    HW115044   4.975   3.705   4.733
 4715SOL    HW215045   4.824   3.768   4.729
 4716SOL     OW15046   2.428   4.935   0.149
 4716SOL    HW115047   2.432   4.853   0.092
 4716SOL    HW215048   2.521   4.967   0.169
 4717SOL     OW15049   1.945   5.200   3.899
 4717SOL    HW115050   2.007   5.133   3.940
 4717SOL    HW215051   1.905   5.161   3.816
 4718SOL     OW15052   5.633   1.137   6.998
 4718SOL    HW115053   5.724   1.098   6.986
 4718SOL    HW215054   5.642   1.232   0.006
 4719SOL     OW15055   4.735   3.228   1.678
 4719SOL    HW115056   4.688   3.179   1.752
 4719SOL    HW215057   4.722   3.179   1.592
 4720SOL     OW15058   3.001   1.059   3.894
 4720SOL    HW115059   3.050   1.069   3.981
 4720SOL    HW215060   2.951   1.143   3.874
 4721SOL     OW15061   1.299   1.652   1.014
 4721SOL    HW115062   1.248   1.738   1.006
 4721SOL    HW215063   1.295   1.619   1.108
 4722SOL     OW15064   3.101   0.790   2.369
 4722SOL    HW115065   3.159   0.854   2.319
 4722SOL    HW215066   3.158   0.729   2.424
 4723SOL     OW15067   3.033   0.358   5.852
 4723SOL    HW115068   3.029   0.432   5.785
 4723SOL    HW215069   2.947   0.306   5.851
 4724SOL     OW15070   4.675   4.610   1.370
 4724SOL    HW115071   4.748   4.560   1.417
 4724SOL    HW215072   4.598   4.548   1.353
 4725SOL     OW15073   5.729   5.070   3.287
 4725SOL    HW115074   5.706   5.081   3.190
 4725SOL    HW215075   5.699   4.980   3.319
 4726SOL     OW15076   7.019   6.193   4.982
 4726SOL    HW115077   7.012   6.230   4.890
 4726SOL    HW215078   0.088   6.163   4.999
 4727SOL     OW15079   6.122   6.009   0.884
 4727SOL    HW115080   6.093   5.990   0.977
 4727SOL    HW215081   6.138   5.923   0.836
 4728SOL     OW15082   7.024   0.986   6.865
 4728SOL    HW115083   0.046   0.899   6.884
 4728SOL    HW215084   0.059   1.062   6.890
 4729SOL     OW15085   2.875   0.649   0.440
 4729SOL    HW115086   2.884   0.716   0.514
 4729SOL    HW215087   2.796   0.674   0.383
 4730SOL     OW15088   2.315   0.577   5.505
 4730SOL    HW115089   2.258   0.497   5.523
 4730SOL    HW215090   2.298   0.610   5.412
 4731SOL     OW15091   5.147   2.055   6.735
 4731SOL    HW115092   5.091   1.997   6.676
 4731SOL    HW215093   5.155   2.145   6.693
 4732SOL     OW15094   6.916   1.321   0.001
 4732SOL    HW115095   6.993   1.257   0.007
 4732SOL    HW215096   6.933   1.388   6.954
 4733SOL     OW15097   6.707   3.395   3.810
 4733SOL    HW115098   6.702   3.358   3.902
 4733SOL    HW215099   6.779   3.464   3.805
 4734SOL     OW15100   5.316   4.465   5.949
 4734SOL    HW115101   5.254   4.540   5.926
 4734SOL    HW215102   5.410   4.492   5.925
 4735SOL     OW15103   0.284   4.059   3.875
 4735SOL    HW115104   0.383   4.056   3.883
 4735SOL    HW215105   0.255   4.152   3.852
 4736SOL     OW15106   1.998   0.034   1.128
 4736SOL    HW115107   1.999   0.133   1.144
 4736SOL    HW215108   2.045   0.013   1.042
 4737SOL     OW15109   3.467   5.162   1.851
 4737SOL    HW115110   3.393   5.228   1.836
 4737SOL    HW215111   3.432   5.070   1.837
 4738SOL     OW15112   0.142   6.336   2.801
 4738SOL    HW115113   0.125   6.422   2.753
 4738SOL    HW215114   0.134   6.350   2.899
 4739SOL     OW15115   4.405   6.687   1.640
 4739SOL    HW115116   4.356   6.603   1.664
 4739SOL    HW215117   4.421   6.689   1.541
 4740SOL     OW15118   0.562   1.981   3.832
 4740SOL    HW115119   0.618   2.062   3.817
 4740SOL    HW215120   0.616   1.910   3.878
 4741SOL     OW15121   3.873   3.556   1.551
 4741SOL    HW115122   3.791   3.509   1.583
 4741SOL    HW215123   3.954   3.506   1.581
 4742SOL     OW15124   4.189   0.708   0.636
 4742SOL    HW115125   4.272   0.679   0.589
 4742SOL    HW215126   4.200   0.693   0.734
 4743SOL     OW15127   1.642   6.254   0.614
 4743SOL    HW115128   1.590   6.169   0.606
 4743SOL    HW215129   1.603   6.310   0.688
 4744SOL     OW15130   1.757   5.741   1.584
 4744SOL    HW115131   1.720   5.670   1.645
 4744SOL    HW215132   1.742   5.714   1.489
 4745SOL     OW15133   1.834   3.522   0.052
 4745SOL    HW115134   1.851   3.547   0.147
 4745SOL    HW215135   1.784   3.596   0.007
 4746SOL     OW15136   5.209   5.713   3.808
 4746SOL    HW115137   5.138   5.643   3.799
 4746SOL    HW215138   5.256   5.700   3.895
 4747SOL     OW15139   3.172   0.566   6.597
 4747SOL    HW115140   3.209   0.652   6.632
 4747SOL    HW215141   3.118   0.521   6.669
 4748SOL     OW15142   1.843   0.002   2.017
 4748SOL    HW115143   1.845   6.983   1.927
 4748SOL    HW215144   1.935   0.029   2.043
 4749SOL     OW15145   2.063   1.789   0.796
 4749SOL    HW115146   2.005   1.774   0.716
 4749SOL    HW215147   2.082   1.887   0.804
 4750SOL     OW15148   4.573   3.374   6.077
 4750SOL    HW115149   4.474   3.390   6.076
 4750SOL    HW215150   4.622   3.461   6.083
 4751SOL     OW15151   4.747   1.573   2.916
 4751SOL    HW115152   4.833   1.575   2.865
 4751SOL    HW215153   4.683   1.638   2.876
 4752SOL     OW15154   5.905   1.614   6.883
 4752SOL    HW115155   5.986   1.617   6.825
 4752SOL    HW215156   5.825   1.643   6.831
 4753SOL     OW15157   2.755   6.432   4.820
 4753SOL    HW115158   2.798   6.508   4.772
 4753SOL    HW215159   2.822   6.386   4.878
 4754SOL     OW15160   4.583   4.312   0.197
 4754SOL    HW115161   4.587   4.381   0.124
 4754SOL    HW215162   4.629   4.347   0.278
 4755SOL     OW15163   0.768   1.425   0.714
 4755SOL    HW115164   0.758   1.453   0.810
 4755SOL    HW215165   0.715   1.341   0.699
 4756SOL     OW15166   6.896   4.056   5.602
 4756SOL    HW115167   6.843   4.136   5.574
 4756SOL    HW215168   6.969   4.040   5.536
 4757SOL     OW15169   2.298   3.576   0.154
 4757SOL    HW115170   2.236   3.585   0.077
 4757SOL    HW215171   2.347   3.489   0.149
 4758SOL     OW15172   2.345   5.353   3.418
 4758SOL    HW115173   2.274   5.284   3.403
 4758SOL    HW215174   2.305   5.444   3.405
 4759SOL     OW15175   0.427   6.294   2.370
 4759SOL    HW115176   0.404   6.391   2.376
 4759SOL    HW215177   0.526   6.283   2.380
 4760SOL     OW15178   1.794   5.894   0.993
 4760SOL    HW115179   1.730   5.826   1.028
 4760SOL    HW215180   1.742   5.973   0.958
 4761SOL     OW15181   5.036   6.798   1.969
 4761SOL    HW115182   5.040   6.740   2.051
 4761SOL    HW215183   4.943   6.834   1.958
 4762SOL     OW15184   1.759   0.502   3.049
 4762SOL    HW115185   1.664   0.533   3.042
 4762SOL    HW215186   1.783   0.449   2.968
 4763SOL     OW15187   5.569   5.718   2.033
 4763SOL    HW115188   5.653   5.665   2.043
 4763SOL    HW215189   5.561   5.783   2.109
 4764SOL     OW15190   5.001   3.315   0.207
 4764SOL    HW115191   4.997   3.393   0.146
 4764SOL    HW215192   4.938   3.328   0.283
 4765SOL     OW15193   4.098   2.181   5.935
 4765SOL    HW115194   4.071   2.085   5.926
 4765SOL    HW215195   4.093   2.225   5.845
 4766SOL     OW15196   0.900   0.959   4.367
 4766SOL    HW115197   0.936   0.879   4.416
 4766SOL    HW215198   0.817   0.991   4.413
 4767SOL     OW15199   1.863   4.902   3.418
 4767SOL    HW115200   1.957   4.878   3.392
 4767SOL    HW215201   1.861   4.928   3.515
 4768SOL     OW15202   4.781   2.458   6.247
 4768SOL    HW115203   4.834   2.389   6.196
 4768SOL    HW215204   4.843   2.523   6.289
 4769SOL     OW15205   1.554   3.288   0.541
 4769SOL    HW115206   1.496   3.239   0.476
 4769SOL    HW215207   1.637   3.235   0.558
 4770SOL     OW15208   6.811   1.536   3.597
 4770SOL    HW115209   6.860   1.492   3.522
 4770SOL    HW215210   6.869   1.538   3.679
 4771SOL     OW15211   2.022   0.174   3.794
 4771SOL    HW115212   1.973   0.219   3.869
 4771SOL    HW215213   1.979   0.085   3.776
 4772SOL     OW15214   2.822   5.198   3.189
 4772SOL    HW115215   2.767   5.121   3.221
 4772SOL    HW215216   2.861   5.246   3.267
 4773SOL     OW15217   3.163   5.100   5.027
 4773SOL    HW115218   3.215   5.186   5.020
 4773SOL    HW215219   3.169   5.050   4.941
 4774SOL     OW15220   0.911   4.145   0.955
 4774SOL    HW115221   0.996   4.097   0.936
 4774SOL    HW215222   0.869   4.107   1.038
 4775SOL     OW15223   5.700   5.549   5.143
 4775SOL    HW115224   5.709   5.583   5.049
 4775SOL    HW215225   5.785   5.568   5.193
 4776SOL     OW15226   0.151   1.469   5.097
 4776SOL    HW115227   0.209   1.495   5.020
 4776SOL    HW215228   0.061   1.442   5.064
 4777SOL     OW15229   1.460   6.746   3.386
 4777SOL    HW115230   1.486   6.650   3.398
 4777SOL    HW215231   1.458   6.792   3.475
 4778SOL     OW15232   1.729   0.472   6.838
 4778SOL    HW115233   1.684   0.521   6.764
 4778SOL    HW215234   1.721   0.525   6.923
 4779SOL     OW15235   4.987   1.049   4.784
 4779SOL    HW115236   5.031   1.132   4.819
 4779SOL    HW215237   4.898   1.072   4.745
 4780SOL     OW15238   5.003   2.949   4.483
 4780SOL    HW115239   5.033   2.935   4.577
 4780SOL    HW215240   5.015   3.045   4.458
 4781SOL     OW15241   1.096   5.093   2.112
 4781SOL    HW115242   1.012   5.147   2.100
 4781SOL    HW215243   1.072   4.996   2.118
 4782SOL     OW15244   0.678   6.260   3.913
 4782SOL    HW115245   0.668   6.230   4.008
 4782SOL    HW215246   0.629   6.197   3.853
 4783SOL     OW15247   0.236   3.560   6.295
 4783SOL    HW115248   0.231   3.657   6.272
 4783SOL    HW215249   0.331   3.534   6.310
 4784SOL     OW15250   5.398   3.320   6.957
 4784SOL    HW115251   5.466   3.332   0.004
 4784SOL    HW215252   5.339   3.242   6.979
 4785SOL     OW15253   0.480   0.041   3.980
 4785SOL    HW115254   0.493   6.970   3.957
 4785SOL    HW215255   0.521   0.061   4.069
 4786SOL     OW15256   0.646   5.525   0.278
 4786SOL    HW115257   0.570   5.473   0.239
 4786SOL    HW215258   0.640   5.620   0.248
 4787SOL     OW15259   5.045   1.315   4.875
 4787SOL    HW115260   5.118   1.342   4.938
 4787SOL    HW215261   4.967   1.279   4.927
 4788SOL     OW15262   6.593   5.745   0.794
 4788SOL    HW115263   6.672   5.737   0.855
 4788SOL    HW215264   6.525   5.676   0.818
 4789SOL     OW15265   6.344   0.678   2.931
 4789SOL    HW115266   6.393   0.649   3.013
 4789SOL    HW215267   6.268   0.616   2.913
 4790SOL     OW15268   7.000   2.329   4.518
 4790SOL    HW115269   6.903   2.314   4.499
 4790SOL    HW215270   0.024   2.241   4.514
 4791SOL     OW15271   0.791   0.077   0.267
 4791SOL    HW115272   0.709   0.038   0.223
 4791SOL    HW215273   0.866   0.080   0.201
 4792SOL     OW15274   1.131   3.954   2.309
 4792SOL    HW115275   1.146   3.873   2.365
 4792SOL    HW215276   1.178   3.944   2.221
 4793SOL     OW15277   1.026   4.113   5.020
 4793SOL    HW115278   1.093   4.044   4.992
 4793SOL    HW215279   1.061   4.163   5.100
 4794SOL     OW15280   5.029   2.076   5.722
 4794SOL    HW115281   5.103   2.125   5.768
 4794SOL    HW215282   4.944   2.086   5.774
 4795SOL     OW15283   6.730   1.437   6.183
 4795SOL    HW115284   6.757   1.360   6.240
 4795SOL    HW215285   6.637   1.422   6.149
 4796SOL     OW15286   5.033   1.331   5.709
 4796SOL    HW115287   5.050   1.250   5.765
 4796SOL    HW215288   4.954   1.316   5.650
 4797SOL     OW15289   2.233   5.137   5.870
 4797SOL    HW115290   2.298   5.107   5.801
 4797SOL    HW215291   2.282   5.163   5.953
 4798SOL     OW15292   3.453   6.065   0.204
 4798SOL    HW115293   3.479   6.136   0.138
 4798SOL    HW215294   3.482   5.976   0.170
 4799SOL     OW15295   3.902   2.982   0.305
 4799SOL    HW115296   3.927   3.032   0.222
 4799SOL    HW215297   3.964   3.008   0.379
 4800SOL     OW15298   0.916   4.382   0.227
 4800SOL    HW115299   0.990   4.399   0.292
 4800SOL    HW215300   0.891   4.468   0.182
 4801SOL     OW15301   5.132   2.199   3.366
 4801SOL    HW115302   5.164   2.273   3.425
 4801SOL    HW215303   5.195   2.121   3.374
 4802SOL     OW15304   6.920   0.542   4.578
 4802SOL    HW115305   6.922   0.591   4.665
 4802SOL    HW215306   6.883   0.451   4.592
 4803SOL     OW15307   4.867   4.077   5.432
 4803SOL    HW115308   4.886   4.059   5.528
 4803SOL    HW215309   4.830   4.170   5.423
 4804SOL     OW15310   5.378   2.163   0.601
 4804SOL    HW115311   5.345   2.135   0.691
 4804SOL    HW215312   5.356   2.092   0.533
 4805SOL     OW15313   5.651   1.609   0.140
 4805SOL    HW115314   5.612   1.663   0.214
 4805SOL    HW215315   5.648   1.512   0.163
 4806SOL     OW15316   1.233   1.750   2.832
 4806SOL    HW115317   1.178   1.706   2.902
 4806SOL    HW215318   1.178   1.767   2.751
 4807SOL     OW15319   6.782   4.447   6.477
 4807SOL    HW115320   6.845   4.438   6.554
 4807SOL    HW215321   6.739   4.359   6.458
 4808SOL     OW15322   3.599   6.101   2.285
 4808SOL    HW115323   3.665   6.082   2.359
 4808SOL    HW215324   3.508   6.075   2.315
 4809SOL     OW15325   3.042   3.668   1.603
 4809SOL    HW115326   3.036   3.618   1.517
 4809SOL    HW215327   2.950   3.691   1.635
 4810SOL     OW15328   1.808   5.046   4.253
 4810SOL    HW115329   1.854   5.091   4.330
 4810SOL    HW215330   1.875   5.028   4.181
 4811SOL     OW15331   3.658   3.245   4.548
 4811SOL    HW115332   3.590   3.206   4.485
 4811SOL    HW215333   3.719   3.172   4.579
 4812SOL     OW15334   1.968   6.340   2.593
 4812SOL    HW115335   1.869   6.351   2.581
 4812SOL    HW215336   2.009   6.310   2.507
 4813SOL     OW15337   0.701   2.757   5.059
 4813SOL    HW115338   0.648   2.730   4.979
 4813SOL    HW215339   0.717   2.856   5.056
 4814SOL     OW15340   6.476   3.192   0.527
 4814SOL    HW115341   6.395   3.182   0.470
 4814SOL    HW215342   6.448   3.206   0.622
 4815SOL     OW15343   6.161   4.453   2.201
 4815SOL    HW115344   6.227   4.379   2.201
 4815SOL    HW215345   6.188   4.522   2.267
 4816SOL     OW15346   2.913   0.559   2.549
 4816SOL    HW115347   2.939   0.603   2.463
 4816SOL    HW215348   2.893   0.463   2.532
 4817SOL     OW15349   4.333   2.473   1.011
 4817SOL    HW115350   4.382   2.474   1.099
 4817SOL    HW215351   4.240   2.438   1.025
 4818SOL     OW15352   4.525   6.592   4.196
 4818SOL    HW115353   4.472   6.513   4.228
 4818SOL    HW215354   4.499   6.672   4.250
 4819SOL     OW15355   2.859   1.066   0.271
 4819SOL    HW115356   2.785   1.095   0.331
 4819SOL    HW215357   2.824   1.003   0.202
 4820SOL     OW15358   6.588   4.043   1.695
 4820SOL    HW115359   6.495   4.008   1.685
 4820SOL    HW215360   6.629   4.057   1.605
 4821SOL     OW15361   6.796   5.927   1.537
 4821SOL    HW115362   6.791   5.996   1.466
 4821SOL    HW215363   6.856   5.852   1.508
 4822SOL     OW15364   0.981   3.684   1.639
 4822SOL    HW115365   1.003   3.724   1.550
 4822SOL    HW215366   0.929   3.600   1.626
 4823SOL     OW15367   0.794   1.334   3.348
 4823SOL    HW115368   0.830   1.422   3.318
 4823SOL    HW215369   0.748   1.289   3.271
 4824SOL     OW15370   5.713   1.908   2.553
 4824SOL    HW115371   5.752   1.982   2.498
 4824SOL    HW215372   5.614   1.908   2.545
 4825SOL     OW15373   1.210   3.380   3.949
 4825SOL    HW115374   1.213   3.394   3.850
 4825SOL    HW215375   1.237   3.287   3.971
 4826SOL     OW15376   6.888   6.662   0.224
 4826SOL    HW115377   6.972   6.641   0.174
 4826SOL    HW215378   6.882   6.761   0.241
 4827SOL     OW15379   4.972   1.921   6.593
 4827SOL    HW115380   5.024   1.865   6.529
 4827SOL    HW215381   4.899   1.865   6.633
 4828SOL     OW15382   5.245   3.824   6.518
 4828SOL    HW115383   5.269   3.826   6.615
 4828SOL    HW215384   5.290   3.745   6.475
 4829SOL     OW15385   3.832   0.064   5.191
 4829SOL    HW115386   3.761   0.110   5.244
 4829SOL    HW215387   3.898   0.132   5.158
 4830SOL     OW15388   4.510   5.494   4.943
 4830SOL    HW115389   4.474   5.527   4.857
 4830SOL    HW215390   4.473   5.548   5.018
 4831SOL     OW15391   6.139   2.419   7.010
 4831SOL    HW115392   6.130   2.355   6.934
 4831SOL    HW215393   6.151   2.511   6.974
 4832SOL     OW15394   1.945   2.605   6.141
 4832SOL    HW115395   1.897   2.649   6.217
 4832SOL    HW215396   2.039   2.638   6.138
 4833SOL     OW15397   6.042   1.431   3.502
 4833SOL    HW115398   6.086   1.435   3.413
 4833SOL    HW215399   6.038   1.336   3.533
 4834SOL     OW15400   6.143   0.417   3.174
 4834SOL    HW115401   6.196   0.443   3.254
 4834SOL    HW215402   6.048   0.400   3.200
 4835SOL     OW15403   1.883   1.364   5.902
 4835SOL    HW115404   1.962   1.357   5.962
 4835SOL    HW215405   1.799   1.365   5.958
 4836SOL     OW15406   5.736   3.133   2.298
 4836SOL    HW115407   5.755   3.139   2.200
 4836SOL    HW215408   5.811   3.084   2.343
 4837SOL     OW15409   0.557   4.324   0.933
 4837SOL    HW115410   0.496   4.386   0.884
 4837SOL    HW215411   0.632   4.296   0.873
 4838SOL     OW15412   2.673   5.361   2.389
 4838SOL    HW115413   2.760   5.403   2.411
 4838SOL    HW215414   2.661   5.277   2.442
 4839SOL     OW15415   0.519   0.072   6.596
 4839SOL    HW115416   0.614   0.060   6.625
 4839SOL    HW215417   0.496   0.169   6.597
 4840SOL     OW15418   6.499   6.534   6.200
 4840SOL    HW115419   6.530   6.499   6.289
 4840SOL    HW215420   6.444   6.616   6.213
 4841SOL     OW15421   1.982   5.808   1.359
 4841SOL    HW115422   1.920   5.731   1.344
 4841SOL    HW215423   2.063   5.776   1.408
 4842SOL     OW15424   3.253   6.433   1.275
 4842SOL    HW115425   3.271   6.528   1.302
 4842SOL    HW215426   3.262   6.425   1.176
 4843SOL     OW15427   1.440   3.437   6.695
 4843SOL    HW115428   1.430   3.349   6.648
 4843SOL    HW215429   1.535   3.450   6.722
 4844SOL     OW15430   0.891   1.699   5.324
 4844SOL    HW115431   0.986   1.724   5.343
 4844SOL    HW215432   0.849   1.770   5.268
 4845SOL     OW15433   5.815   5.565   3.801
 4845SOL    HW115434   5.907   5.545   3.835
 4845SOL    HW215435   5.815   5.652   3.752
 4846SOL     OW15436   0.469   4.996   6.731
 4846SOL    HW115437   0.401   4.965   6.664
 4846SOL    HW215438   0.432   5.072   6.784
 4847SOL     OW15439   4.790   3.054   4.851
 4847SOL    HW115440   4.702   3.088   4.885
 4847SOL    HW215441   4.780   2.958   4.825
 4848SOL     OW15442   2.558   2.533   1.481
 4848SOL    HW115443   2.622   2.459   1.500
 4848SOL    HW215444   2.591   2.617   1.523
 4849SOL     OW15445   1.707   6.345   5.948
 4849SOL    HW115446   1.779   6.331   6.016
 4849SOL    HW215447   1.636   6.275   5.959
 4850SOL     OW15448   3.798   7.000   3.396
 4850SOL    HW115449   3.774   6.930   3.329
 4850SOL    HW215450   3.714   0.015   3.433
 4851SOL     OW15451   4.946   1.355   5.245
 4851SOL    HW115452   4.949   1.442   5.197
 4851SOL    HW215453   5.024   1.299   5.219
 4852SOL     OW15454   1.779   1.990   1.823
 4852SOL    HW115455   1.687   1.994   1.861
 4852SOL    HW215456   1.782   1.922   1.750
 4853SOL     OW15457   3.581   2.032   1.480
 4853SOL    HW115458   3.499   2.025   1.536
 4853SOL    HW215459   3.606   2.128   1.469
 4854SOL     OW15460   3.710   0.456   6.944
 4854SOL    HW115461   3.762   0.380   6.905
 4854SOL    HW215462   3.640   0.421   7.006
 4855SOL     OW15463   6.563   3.002   2.480
 4855SOL    HW115464   6.490   3.061   2.516
 4855SOL    HW215465   6.645   3.057   2.465
 4856SOL     OW15466   1.172   4.215   2.629
 4856SOL    HW115467   1.161   4.237   2.532
 4856SOL    HW215468   1.228   4.132   2.637
 4857SOL     OW15469   0.420   1.309   5.762
 4857SOL    HW115470   0.391   1.265   5.847
 4857SOL    HW215471   0.420   1.408   5.774
 4858SOL     OW15472   1.742   0.686   4.103
 4858SOL    HW115473   1.730   0.784   4.085
 4858SOL    HW215474   1.662   0.650   4.150
 4859SOL     OW15475   3.631   5.877   6.203
 4859SOL    HW115476   3.717   5.922   6.179
 4859SOL    HW215477   3.600   5.910   6.293
 4860SOL     OW15478   3.822   4.411   0.546
 4860SOL    HW115479   3.768   4.479   0.596
 4860SOL    HW215480   3.762   4.359   0.486
 4861SOL     OW15481   4.613   3.820   6.617
 4861SOL    HW115482   4.553   3.899   6.606
 4861SOL    HW215483   4.573   3.755   6.682
 4862SOL     OW15484   0.456   0.101   0.946
 4862SOL    HW115485   0.515   0.022   0.959
 4862SOL    HW215486   0.476   0.169   1.016
 4863SOL     OW15487   5.055   4.606   6.512
 4863SOL    HW115488   5.092   4.519   6.479
 4863SOL    HW215489   5.122   4.650   6.572
 4864SOL     OW15490   3.377   1.275   4.118
 4864SOL    HW115491   3.371   1.230   4.028
 4864SOL    HW215492   3.310   1.349   4.122
 4865SOL     OW15493   1.547   0.234   5.322
 4865SOL    HW115494   1.490   0.151   5.317
 4865SOL    HW215495   1.587   0.252   5.232
 4866SOL     OW15496   6.653   4.209   6.410
 4866SOL    HW115497   6.705   4.227   6.327
 4866SOL    HW215498   6.558   4.191   6.387
 4867SOL     OW15499   4.625   1.211   3.061
 4867SOL    HW115500   4.557   1.139   3.071
 4867SOL    HW215501   4.685   1.189   2.984
 4868SOL     OW15502   6.789   4.563   0.493
 4868SOL    HW115503   6.829   4.597   0.578
 4868SOL    HW215504   6.805   4.630   0.420
 4869SOL     OW15505   0.779   1.616   0.487
 4869SOL    HW115506   0.747   1.548   0.553
 4869SOL    HW215507   0.868   1.652   0.517
 4870SOL     OW15508   0.235   0.173   1.202
 4870SOL    HW115509   0.316   0.115   1.205
 4870SOL    HW215510   0.228   0.226   1.287
 4871SOL     OW15511   1.355   1.245   3.565
 4871SOL    HW115512   1.373   1.158   3.609
 4871SOL    HW215513   1.263   1.277   3.590
 4872SOL     OW15514   5.701   6.704   2.810
 4872SOL    HW115515   5.786   6.755   2.794
 4872SOL    HW215516   5.694   6.629   2.744
 4873SOL     OW15517   6.623   5.633   4.896
 4873SOL    HW115518   6.560   5.680   4.834
 4873SOL    HW215519   6.694   5.588   4.842
 4874SOL     OW15520   4.867   3.076   3.288
 4874SOL    HW115521   4.808   3.044   3.362
 4874SOL    HW215522   4.887   3.000   3.226
 4875SOL     OW15523   5.945   6.370   5.141
 4875SOL    HW115524   5.896   6.367   5.228
 4875SOL    HW215525   6.027   6.426   5.151
 4876SOL     OW15526   0.336   1.429   2.115
 4876SOL    HW115527   0.434   1.409   2.128
 4876SOL    HW215528   0.296   1.453   2.204
 4877SOL     OW15529   6.430   1.485   6.387
 4877SOL    HW115530   6.480   1.505   6.472
 4877SOL    HW215531   6.473   1.533   6.311
 4878SOL     OW15532   6.415   3.276   2.301
 4878SOL    HW115533   6.386   3.210   2.232
 4878SOL    HW215534   6.468   3.349   2.257
 4879SOL     OW15535   5.235   0.789   2.998
 4879SOL    HW115536   5.181   0.845   3.060
 4879SOL    HW215537   5.194   0.791   2.907
 4880SOL     OW15538   0.282   3.006   6.586
 4880SOL    HW115539   0.256   2.912   6.610
 4880SOL    HW215540   0.218   3.042   6.519
 4881SOL     OW15541   1.672   3.020   1.572
 4881SOL    HW115542   1.760   2.974   1.583
 4881SOL    HW215543   1.609   2.989   1.643
 4882SOL     OW15544   4.669   2.281   4.177
 4882SOL    HW115545   4.750   2.339   4.167
 4882SOL    HW215546   4.685   2.212   4.247
 4883SOL     OW15547   6.280   4.170   0.347
 4883SOL    HW115548   6.182   4.183   0.336
 4883SOL    HW215549   6.321   4.254   0.382
 4884SOL     OW15550   1.454   1.340   1.592
 4884SOL    HW115551   1.542   1.297   1.612
 4884SOL    HW215552   1.467   1.439   1.584
 4885SOL     OW15553   1.402   4.475   6.898
 4885SOL    HW115554   1.373   4.407   6.965
 4885SOL    HW215555   1.323   4.526   6.865
 4886SOL     OW15556   2.940   0.766   2.166
 4886SOL    HW115557   2.993   0.794   2.247
 4886SOL    HW215558   2.847   0.802   2.173
 4887SOL     OW15559   4.613   6.252   0.381
 4887SOL    HW115560   4.547   6.208   0.320
 4887SOL    HW215561   4.703   6.210   0.369
 4888SOL     OW15562   4.425   0.688   3.113
 4888SOL    HW115563   4.338   0.655   3.151
 4888SOL    HW215564   4.430   0.788   3.123
 4889SOL     OW15565   6.443   3.220   3.586
 4889SOL    HW115566   6.397   3.199   3.672
 4889SOL    HW215567   6.542   3.222   3.602
 4890SOL     OW15568   6.662   1.742   4.837
 4890SOL    HW115569   6.747   1.732   4.889
 4890SOL    HW215570   6.585   1.752   4.900
 4891SOL     OW15571   2.548   5.527   0.411
 4891SOL    HW115572   2.478   5.456   0.413
 4891SOL    HW215573   2.505   5.616   0.426
 4892SOL     OW15574   5.226   5.017   2.968
 4892SOL    HW115575   5.231   4.951   2.893
 4892SOL    HW215576   5.315   5.023   3.013
 4893SOL     OW15577   1.222   3.188   0.871
 4893SOL    HW115578   1.263   3.236   0.794
 4893SOL    HW215579   1.231   3.243   0.954
 4894SOL     OW15580   4.696   6.092   1.394
 4894SOL    HW115581   4.601   6.114   1.412
 4894SOL    HW215582   4.702   6.000   1.354
 4895SOL     OW15583   0.253   4.235   5.436
 4895SOL    HW115584   0.282   4.215   5.529
 4895SOL    HW215585   0.171   4.181   5.414
 4896SOL     OW15586   2.901   5.201   5.066
 4896SOL    HW115587   2.838   5.127   5.088
 4896SOL    HW215588   2.995   5.167   5.065
 4897SOL     OW15589   1.770   0.968   4.892
 4897SOL    HW115590   1.814   0.998   4.977
 4897SOL    HW215591   1.831   0.987   4.815
 4898SOL     OW15592   4.842   2.010   3.879
 4898SOL    HW115593   4.874   2.102   3.904
 4898SOL    HW215594   4.913   1.943   3.902
 4899SOL     OW15595   6.225   6.471   2.025
 4899SOL    HW115596   6.147   6.492   1.966
 4899SOL    HW215597   6.255   6.554   2.072
 4900SOL     OW15598   3.825   6.048   6.181
 4900SOL    HW115599   3.775   6.134   6.175
 4900SOL    HW215600   3.910   6.062   6.232
 4901SOL     OW15601   1.377   0.737   6.590
 4901SOL    HW115602   1.344   0.735   6.496
 4901SOL    HW215603   1.383   0.833   6.621
 4902SOL     OW15604   2.899   0.130   5.633
 4902SOL    HW115605   2.876   0.158   5.540
 4902SOL    HW215606   2.974   0.065   5.631
 4903SOL     OW15607   5.229   3.445   2.964
 4903SOL    HW115608   5.265   3.396   3.043
 4903SOL    HW215609   5.149   3.397   2.928
 4904SOL     OW15610   1.729   0.573   1.505
 4904SOL    HW115611   1.760   0.493   1.454
 4904SOL    HW215612   1.651   0.614   1.458
 4905SOL     OW15613   2.275   0.192   2.994
 4905SOL    HW115614   2.347   0.231   3.053
 4905SOL    HW215615   2.189   0.240   3.011
 4906SOL     OW15616   5.160   3.755   5.031
 4906SOL    HW115617   5.149   3.680   4.965
 4906SOL    HW215618   5.160   3.718   5.124
 4907SOL     OW15619   3.929   2.648   0.027
 4907SOL    HW115620   4.006   2.596   0.063
 4907SOL    HW215621   3.963   2.725   6.998
 4908SOL     OW15622   3.502   6.983   6.606
 4908SOL    HW115623   3.569   6.980   6.680
 4908SOL    HW215624   3.523   6.912   6.539
 4909SOL     OW15625   4.997   4.900   4.075
 4909SOL    HW115626   4.921   4.848   4.036
 4909SOL    HW215627   4.987   4.997   4.051
 4910SOL     OW15628   4.033   2.341   6.593
 4910SOL    HW115629   3.967   2.395   6.540
 4910SOL    HW215630   3.984   2.289   6.663
 4911SOL     OW15631   6.521   4.120   2.510
 4911SOL    HW115632   6.428   4.087   2.524
 4911SOL    HW215633   6.577   4.099   2.590
 4912SOL     OW15634   5.705   2.649   4.689
 4912SOL    HW115635   5.775   2.715   4.714
 4912SOL    HW215636   5.656   2.682   4.608
 4913SOL     OW15637   0.637   3.911   4.600
 4913SOL    HW115638   0.708   3.980   4.585
 4913SOL    HW215639   0.627   3.855   4.517
 4914SOL     OW15640   3.867   7.013   4.174
 4914SOL    HW115641   3.829   6.992   4.084
 4914SOL    HW215642   3.933   0.063   4.166
 4915SOL     OW15643   4.050   5.655   5.610
 4915SOL    HW115644   4.021   5.738   5.563
 4915SOL    HW215645   3.969   5.606   5.644
 4916SOL     OW15646   5.146   2.086   3.780
 4916SOL    HW115647   5.227   2.130   3.741
 4916SOL    HW215648   5.083   2.156   3.815
 4917SOL     OW15649   3.859   6.746   6.485
 4917SOL    HW115650   3.873   6.688   6.565
 4917SOL    HW215651   3.863   6.842   6.511
 4918SOL     OW15652   5.684   4.974   3.620
 4918SOL    HW115653   5.712   5.063   3.584
 4918SOL    HW215654   5.632   4.924   3.551
 4919SOL     OW15655   3.387   3.760   2.003
 4919SOL    HW115656   3.439   3.710   1.935
 4919SOL    HW215657   3.401   3.859   1.991
 4920SOL     OW15658   5.890   1.571   6.170
 4920SOL    HW115659   5.977   1.522   6.178
 4920SOL    HW215660   5.864   1.607   6.259
 4921SOL     OW15661   6.869   6.526   1.678
 4921SOL    HW115662   6.773   6.529   1.649
 4921SOL    HW215663   6.880   6.460   1.752
 4922SOL     OW15664   3.840   1.784   5.897
 4922SOL    HW115665   3.746   1.755   5.914
 4922SOL    HW215666   3.873   1.836   5.976
 4923SOL     OW15667   3.697   1.701   1.570
 4923SOL    HW115668   3.783   1.651   1.572
 4923SOL    HW215669   3.707   1.784   1.515
 4924SOL     OW15670   2.230   0.614   5.248
 4924SOL    HW115671   2.317   0.583   5.210
 4924SOL    HW215672   2.167   0.637   5.174
 4925SOL     OW15673   4.952   5.564   3.438
 4925SOL    HW115674   4.970   5.567   3.340
 4925SOL    HW215675   5.012   5.629   3.484
 4926SOL     OW15676   5.780   3.038   1.765
 4926SOL    HW115677   5.731   2.983   1.697
 4926SOL    HW215678   5.715   3.093   1.817
 4927SOL     OW15679   2.627   1.500   6.925
 4927SOL    HW115680   2.600   1.590   6.957
 4927SOL    HW215681   2.550   1.436   6.936
 4928SOL     OW15682   0.079   1.968   0.286
 4928SOL    HW115683   0.042   2.002   0.200
 4928SOL    HW215684   0.030   2.010   0.363
 4929SOL     OW15685   6.977   0.200   4.794
 4929SOL    HW115686   6.933   0.171   4.879
 4929SOL    HW215687   0.051   0.197   4.805
 4930SOL     OW15688   4.955   5.544   2.635
 4930SOL    HW115689   4.998   5.461   2.597
 4930SOL    HW215690   4.892   5.582   2.568
 4931SOL     OW15691   6.541   0.161   1.087
 4931SOL    HW115692   6.628   0.180   1.133
 4931SOL    HW215693   6.465   0.183   1.148
 4932SOL     OW15694   3.303   3.400   2.622
 4932SOL    HW115695   3.227   3.378   2.683
 4932SOL    HW215696   3.381   3.432   2.676
 4933SOL     OW15697   0.912   0.492   5.581
 4933SOL    HW115698   0.955   0.428   5.518
 4933SOL    HW215699   0.896   0.579   5.535
 4934SOL     OW15700   3.382   6.860   2.647
 4934SOL    HW115701   3.362   6.924   2.573
 4934SOL    HW215702   3.297   6.822   2.683
 4935SOL     OW15703   0.518   0.968   5.182
 4935SOL    HW115704   0.539   0.882   5.136
 4935SOL    HW215705   0.426   0.965   5.220
 4936SOL     OW15706   4.900   2.025   0.926
 4936SOL    HW115707   4.884   1.967   0.846
 4936SOL    HW215708   4.997   2.045   0.934
 4937SOL     OW15709   4.315   2.929   5.366
 4937SOL    HW115710   4.240   2.863   5.361
 4937SOL    HW215711   4.278   3.022   5.361
 4938SOL     OW15712   3.745   4.251   6.661
 4938SOL    HW115713   3.739   4.151   6.654
 4938SOL    HW215714   3.775   4.288   6.573
 4939SOL     OW15715   4.581   4.302   6.466
 4939SOL    HW115716   4.565   4.266   6.374
 4939SOL    HW215717   4.591   4.401   6.462
 4940SOL     OW15718   2.451   5.809   4.018
 4940SOL    HW115719   2.458   5.752   4.099
 4940SOL    HW215720   2.396   5.763   3.949
 4941SOL     OW15721   5.909   0.443   0.858
 4941SOL    HW115722   5.872   0.437   0.951
 4941SOL    HW215723   5.885   0.531   0.818
 4942SOL     OW15724   4.606   2.876   6.099
 4942SOL    HW115725   4.631   2.814   6.025
 4942SOL    HW215726   4.645   2.843   6.185
 4943SOL     OW15727   5.657   2.999   1.298
 4943SOL    HW115728   5.575   2.993   1.242
 4943SOL    HW215729   5.737   3.013   1.239
 4944SOL     OW15730   2.274   4.022   1.917
 4944SOL    HW115731   2.354   3.999   1.861
 4944SOL    HW215732   2.303   4.069   2.000
 4945SOL     OW15733   6.895   5.968   4.427
 4945SOL    HW115734   6.945   5.997   4.345
 4945SOL    HW215735   6.957   5.916   4.486
 4946SOL     OW15736   0.123   3.933   2.181
 4946SOL    HW115737   0.023   3.940   2.173
 4946SOL    HW215738   0.149   3.836   2.187
 4947SOL     OW15739   6.572   0.409   0.874
 4947SOL    HW115740   6.571   0.321   0.923
 4947SOL    HW215741   6.588   0.482   0.939
 4948SOL     OW15742   2.561   1.147   2.380
 4948SOL    HW115743   2.551   1.185   2.288
 4948SOL    HW215744   2.558   1.047   2.376
 4949SOL     OW15745   5.338   2.602   4.920
 4949SOL    HW115746   5.321   2.536   4.993
 4949SOL    HW215747   5.407   2.566   4.858
 4950SOL     OW15748   3.507   5.000   4.980
 4950SOL    HW115749   3.552   5.002   4.891
 4950SOL    HW215750   3.562   5.050   5.047
 4951SOL     OW15751   4.212   1.811   3.999
 4951SOL    HW115752   4.259   1.846   3.918
 4951SOL    HW215753   4.126   1.769   3.972
 4952SOL     OW15754   6.960   4.528   4.424
 4952SOL    HW115755   6.871   4.546   4.383
 4952SOL    HW215756   6.949   4.479   4.510
 4953SOL     OW15757   1.374   4.576   2.324
 4953SOL    HW115758   1.417   4.666   2.323
 4953SOL    HW215759   1.367   4.543   2.418
 4954SOL     OW15760   6.015   6.082   0.628
 4954SOL    HW115761   6.058   6.056   0.715
 4954SOL    HW215762   6.086   6.089   0.557
 4955SOL     OW15763   1.686   0.905   1.313
 4955SOL    HW115764   1.740   0.981   1.347
 4955SOL    HW215765   1.652   0.926   1.221
 4956SOL     OW15766   6.098   6.740   3.697
 4956SOL    HW115767   6.052   6.727   3.609
 4956SOL    HW215768   6.197   6.738   3.683
 4957SOL     OW15769   1.949   5.853   3.706
 4957SOL    HW115770   2.010   5.867   3.784
 4957SOL    HW215771   1.997   5.877   3.621
 4958SOL     OW15772   0.106   6.585   0.083
 4958SOL    HW115773   0.200   6.552   0.077
 4958SOL    HW215774   0.052   6.547   0.008
 4959SOL     OW15775   0.453   1.767   6.779
 4959SOL    HW115776   0.395   1.720   6.713
 4959SOL    HW215777   0.540   1.791   6.736
 4960SOL     OW15778   3.893   6.971   5.793
 4960SOL    HW115779   3.912   6.876   5.768
 4960SOL    HW215780   3.889   6.980   5.892
 4961SOL     OW15781   4.897   0.797   5.570
 4961SOL    HW115782   4.903   0.734   5.647
 4961SOL    HW215783   4.840   0.875   5.595
 4962SOL     OW15784   6.628   2.306   2.157
 4962SOL    HW115785   6.711   2.335   2.107
 4962SOL    HW215786   6.553   2.369   2.135
 4963SOL     OW15787   0.044   4.675   1.203
 4963SOL    HW115788   0.057   4.609   1.129
 4963SOL    HW215789   0.131   4.691   1.249
 4964SOL     OW15790   3.725   6.694   3.299
 4964SOL    HW115791   3.814   6.706   3.345
 4964SOL    HW215792   3.740   6.677   3.202
 4965SOL     OW15793   6.938   6.239   4.512
 4965SOL    HW115794   6.902   6.147   4.526
 4965SOL    HW215795   0.009   6.233   4.486
 4966SOL     OW15796   4.178   5.159   4.456
 4966SOL    HW115797   4.237   5.221   4.510
 4966SOL    HW215798   4.149   5.206   4.372
 4967SOL     OW15799   6.052   1.978   6.722
 4967SOL    HW115800   6.088   1.885   6.711
 4967SOL    HW215801   5.966   1.986   6.672
 4968SOL     OW15802   5.542   4.357   0.040
 4968SOL    HW115803   5.484   4.291   0.089
 4968SOL    HW215804   5.596   4.308   6.996
 4969SOL     OW15805   1.345   1.924   1.089
 4969SOL    HW115806   1.424   1.911   1.150
 4969SOL    HW215807   1.262   1.932   1.144
 4970SOL     OW15808   1.875   2.669   5.792
 4970SOL    HW115809   1.973   2.662   5.810
 4970SOL    HW215810   1.826   2.676   5.879
 4971SOL     OW15811   6.696   5.286   3.877
 4971SOL    HW115812   6.665   5.192   3.867
 4971SOL    HW215813   6.772   5.289   3.942
 4972SOL     OW15814   1.737   2.246   5.236
 4972SOL    HW115815   1.826   2.201   5.247
 4972SOL    HW215816   1.720   2.306   5.314
 4973SOL     OW15817   5.575   5.230   2.953
 4973SOL    HW115818   5.603   5.208   2.859
 4973SOL    HW215819   5.496   5.291   2.950
 4974SOL     OW15820   3.905   6.601   6.721
 4974SOL    HW115821   3.930   6.683   6.773
 4974SOL    HW215822   3.859   6.536   6.783
 4975SOL     OW15823   4.091   6.320   0.394
 4975SOL    HW115824   4.061   6.239   0.343
 4975SOL    HW215825   4.073   6.402   0.341
 4976SOL     OW15826   2.790   0.887   4.004
 4976SOL    HW115827   2.880   0.921   3.977
 4976SOL    HW215828   2.737   0.864   3.923
 4977SOL     OW15829   3.237   2.470   0.611
 4977SOL    HW115830   3.273   2.532   0.541
 4977SOL    HW215831   3.205   2.386   0.567
 4978SOL     OW15832   5.872   4.245   6.556
 4978SOL    HW115833   5.942   4.175   6.541
 4978SOL    HW215834   5.909   4.318   6.613
 4979SOL     OW15835   1.755   1.821   4.385
 4979SOL    HW115836   1.802   1.793   4.468
 4979SOL    HW215837   1.699   1.902   4.403
 4980SOL     OW15838   2.272   4.592   2.991
 4980SOL    HW115839   2.176   4.605   3.016
 4980SOL    HW215840   2.285   4.500   2.954
 4981SOL     OW15841   4.960   6.283   5.187
 4981SOL    HW115842   4.947   6.225   5.106
 4981SOL    HW215843   5.037   6.346   5.171
 4982SOL     OW15844   2.654   2.281   6.868
 4982SOL    HW115845   2.674   2.355   6.803
 4982SOL    HW215846   2.717   2.286   6.945
 4983SOL     OW15847   6.179   2.926   4.882
 4983SOL    HW115848   6.112   2.893   4.948
 4983SOL    HW215849   6.268   2.886   4.902
 4984SOL     OW15850   5.126   4.085   3.247
 4984SOL    HW115851   5.203   4.117   3.192
 4984SOL    HW215852   5.054   4.154   3.247
 4985SOL     OW15853   5.506   4.144   1.976
 4985SOL    HW115854   5.600   4.112   1.968
 4985SOL    HW215855   5.485   4.164   2.072
 4986SOL     OW15856   4.470   4.608   3.119
 4986SOL    HW115857   4.552   4.642   3.164
 4986SOL    HW215858   4.494   4.567   3.031
 4987SOL     OW15859   0.769   3.437   0.705
 4987SOL    HW115860   0.845   3.471   0.760
 4987SOL    HW215861   0.795   3.350   0.663
 4988SOL     OW15862   2.005   2.087   5.237
 4988SOL    HW115863   2.046   2.094   5.328
 4988SOL    HW215864   2.025   1.997   5.198
 4989SOL     OW15865   6.904   1.140   0.827
 4989SOL    HW115866   6.845   1.217   0.802
 4989SOL    HW215867   6.924   1.143   0.924
 4990SOL     OW15868   1.589   2.426   6.010
 4990SOL    HW115869   1.625   2.344   5.965
 4990SOL    HW215870   1.590   2.413   6.109
 4991SOL     OW15871   2.822   1.704   5.153
 4991SOL    HW115872   2.814   1.624   5.093
 4991SOL    HW215873   2.853   1.782   5.099
 4992SOL     OW15874   4.723   6.754   4.506
 4992SOL    HW115875   4.637   6.759   4.455
 4992SOL    HW215876   4.796   6.796   4.452
 4993SOL     OW15877   1.763   6.147   4.181
 4993SOL    HW115878   1.719   6.101   4.257
 4993SOL    HW215879   1.849   6.189   4.211
 4994SOL     OW15880   0.344   6.570   2.867
 4994SOL    HW115881   0.362   6.640   2.799
 4994SOL    HW215882   0.269   6.599   2.926
 4995SOL     OW15883   5.763   2.876   5.272
 4995SOL    HW115884   5.665   2.895   5.260
 4995SOL    HW215885   5.812   2.962   5.283
 4996SOL     OW15886   0.629   1.608   3.502
 4996SOL    HW115887   0.630   1.532   3.567
 4996SOL    HW215888   0.678   1.686   3.541
 4997SOL     OW15889   0.391   2.445   3.850
 4997SOL    HW115890   0.301   2.403   3.864
 4997SOL    HW215891   0.445   2.438   3.934
 4998SOL     OW15892   0.893   5.665   5.643
 4998SOL    HW115893   0.930   5.572   5.634
 4998SOL    HW215894   0.793   5.662   5.634
 4999SOL     OW15895   6.167   4.556   0.698
 4999SOL    HW115896   6.073   4.556   0.733
 4999SOL    HW215897   6.228   4.595   0.766
 5000SOL     OW15898   0.077   5.132   4.426
 5000SOL    HW115899   0.026   5.047   4.435
 5000SOL    HW215900   0.170   5.112   4.396
 5001SOL     OW15901   5.096   4.214   5.295
 5001SOL    HW115902   4.999   4.232   5.276
 5001SOL    HW215903   5.152   4.254   5.224
 5002SOL     OW15904   1.880   2.716   1.475
 5002SOL    HW115905   1.850   2.667   1.556
 5002SOL    HW215906   1.902   2.810   1.499
 5003SOL     OW15907   6.682   4.925   4.216
 5003SOL    HW115908   6.674   5.021   4.240
 5003SOL    HW215909   6.626   4.906   4.135
 5004SOL     OW15910   2.129   4.698   6.058
 5004SOL    HW115911   2.070   4.760   6.110
 5004SOL    HW215912   2.225   4.714   6.083
 5005SOL     OW15913   4.741   1.813   0.498
 5005SOL    HW115914   4.655   1.834   0.452
 5005SOL    HW215915   4.811   1.878   0.469
 5006SOL     OW15916   5.457   4.535   2.272
 5006SOL    HW115917   5.539   4.502   2.319
 5006SOL    HW215918   5.473   4.539   2.174
 5007SOL     OW15919   4.563   1.048   5.329
 5007SOL    HW115920   4.605   1.135   5.302
 5007SOL    HW215921   4.569   0.984   5.252
 5008SOL     OW15922   6.366   0.807   3.465
 5008SOL    HW115923   6.439   0.794   3.532
 5008SOL    HW215924   6.279   0.822   3.512
 5009SOL     OW15925   1.858   5.665   1.994
 5009SOL    HW115926   1.936   5.621   2.039
 5009SOL    HW215927   1.875   5.763   1.987
 5010SOL     OW15928   3.558   3.391   5.910
 5010SOL    HW115929   3.610   3.316   5.870
 5010SOL    HW215930   3.490   3.354   5.974
 5011SOL     OW15931   1.451   2.163   3.657
 5011SOL    HW115932   1.471   2.251   3.615
 5011SOL    HW215933   1.536   2.111   3.667
 5012SOL     OW15934   5.612   3.055   7.001
 5012SOL    HW115935   5.708   3.034   6.981
 5012SOL    HW215936   5.605   3.149   0.010
 5013SOL     OW15937   4.589   2.282   5.606
 5013SOL    HW115938   4.515   2.283   5.673
 5013SOL    HW215939   4.583   2.363   5.547
 5014SOL     OW15940   6.863   5.577   6.896
 5014SOL    HW115941   6.805   5.497   6.912
 5014SOL    HW215942   6.843   5.647   6.964
 5015SOL     OW15943   5.536   1.982   3.273
 5015SOL    HW115944   5.609   1.982   3.340
 5015SOL    HW215945   5.447   1.982   3.319
 5016SOL     OW15946   2.449   6.159   2.294
 5016SOL    HW115947   2.414   6.253   2.288
 5016SOL    HW215948   2.408   6.113   2.372
 5017SOL     OW15949   1.094   1.980   2.048
 5017SOL    HW115950   1.043   1.939   1.973
 5017SOL    HW215951   1.116   2.074   2.026
 5018SOL     OW15952   6.802   4.724   3.615
 5018SOL    HW115953   6.707   4.754   3.622
 5018SOL    HW215954   6.805   4.632   3.576
 5019SOL     OW15955   2.088   5.169   5.532
 5019SOL    HW115956   2.033   5.179   5.449
 5019SOL    HW215957   2.184   5.157   5.507
 5020SOL     OW15958   4.068   5.467   6.815
 5020SOL    HW115959   4.036   5.377   6.846
 5020SOL    HW215960   4.124   5.457   6.733
 5021SOL     OW15961   2.036   4.390   5.742
 5021SOL    HW115962   1.945   4.396   5.782
 5021SOL    HW215963   2.063   4.294   5.735
 5022SOL     OW15964   2.411   3.692   0.538
 5022SOL    HW115965   2.421   3.702   0.439
 5022SOL    HW215966   2.461   3.610   0.569
 5023SOL     OW15967   0.224   2.983   4.488
 5023SOL    HW115968   0.169   3.029   4.557
 5023SOL    HW215969   0.306   2.944   4.531
 5024SOL     OW15970   4.871   3.504   5.697
 5024SOL    HW115971   4.776   3.477   5.683
 5024SOL    HW215972   4.894   3.499   5.794
 5025SOL     OW15973   6.393   0.740   4.222
 5025SOL    HW115974   6.392   0.838   4.202
 5025SOL    HW215975   6.358   0.725   4.315
 5026SOL     OW15976   1.048   5.886   3.296
 5026SOL    HW115977   1.045   5.792   3.263
 5026SOL    HW215978   1.136   5.927   3.271
 5027SOL     OW15979   0.893   6.066   3.797
 5027SOL    HW115980   0.952   5.988   3.819
 5027SOL    HW215981   0.797   6.039   3.804
 5028SOL     OW15982   0.771   6.872   2.701
 5028SOL    HW115983   0.855   6.862   2.649
 5028SOL    HW215984   0.777   6.953   2.759
 5029SOL     OW15985   6.796   0.926   3.663
 5029SOL    HW115986   6.811   1.025   3.654
 5029SOL    HW215987   6.875   0.877   3.626
 5030SOL     OW15988   1.560   5.781   6.856
 5030SOL    HW115989   1.531   5.803   6.949
 5030SOL    HW215990   1.503   5.708   6.819
 5031SOL     OW15991   5.439   0.730   6.867
 5031SOL    HW115992   5.495   0.648   6.876
 5031SOL    HW215993   5.392   0.729   6.779
 5032SOL     OW15994   1.752   5.572   2.387
 5032SOL    HW115995   1.695   5.655   2.387
 5032SOL    HW215996   1.799   5.564   2.475
 5033SOL     OW15997   0.805   4.138   4.575
 5033SOL    HW115998   0.821   4.159   4.671
 5033SOL    HW215999   0.782   4.221   4.525
 5034SOL     OW16000   6.555   3.650   6.183
 5034SOL    HW116001   6.634   3.617   6.236
 5034SOL    HW216002   6.506   3.571   6.145
 5035SOL     OW16003   6.789   4.294   1.264
 5035SOL    HW116004   6.707   4.292   1.208
 5035SOL    HW216005   6.867   4.262   1.211
 5036SOL     OW16006   1.546   0.961   2.482
 5036SOL    HW116007   1.593   0.890   2.430
 5036SOL    HW216008   1.608   0.999   2.551
 5037SOL     OW16009   4.863   2.863   2.742
 5037SOL    HW116010   4.962   2.855   2.746
 5037SOL    HW216011   4.835   2.947   2.789
 5038SOL     OW16012   3.102   5.428   5.553
 5038SOL    HW116013   3.131   5.376   5.633
 5038SOL    HW216014   3.141   5.386   5.471
 5039SOL     OW16015   1.748   2.482   2.530
 5039SOL    HW116016   1.712   2.574   2.517
 5039SOL    HW216017   1.768   2.441   2.441
 5040SOL     OW16018   3.000   3.258   5.836
 5040SOL    HW116019   2.980   3.210   5.750
 5040SOL    HW216020   2.994   3.356   5.822
 5041SOL     OW16021   0.037   5.268   1.112
 5041SOL    HW116022   6.994   5.230   1.176
 5041SOL    HW216023   0.125   5.279   1.158
 5042SOL     OW16024   6.103   1.575   5.792
 5042SOL    HW116025   6.008   1.542   5.791
 5042SOL    HW216026   6.146   1.550   5.878
 5043SOL     OW16027   5.226   6.361   4.028
 5043SOL    HW116028   5.213   6.339   4.125
 5043SOL    HW216029   5.150   6.418   3.997
 5044SOL     OW16030   5.770   4.897   1.892
 5044SOL    HW116031   5.730   4.818   1.938
 5044SOL    HW216032   5.868   4.882   1.880
 5045SOL     OW16033   6.209   3.392   4.996
 5045SOL    HW116034   6.236   3.304   5.035
 5045SOL    HW216035   6.163   3.376   4.908
 5046SOL     OW16036   3.878   3.326   5.862
 5046SOL    HW116037   3.807   3.261   5.890
 5046SOL    HW216038   3.968   3.288   5.884
 5047SOL     OW16039   0.438   1.834   2.052
 5047SOL    HW116040   0.506   1.787   2.108
 5047SOL    HW216041   0.346   1.809   2.082
 5048SOL     OW16042   5.701   3.661   0.980
 5048SOL    HW116043   5.665   3.707   1.061
 5048SOL    HW216044   5.719   3.729   0.909
 5049SOL     OW16045   0.888   1.851   1.383
 5049SOL    HW116046   0.977   1.896   1.378
 5049SOL    HW216047   0.816   1.919   1.389
 5050SOL     OW16048   2.003   4.191   0.117
 5050SOL    HW116049   2.101   4.193   0.133
 5050SOL    HW216050   1.955   4.166   0.202
 5051SOL     OW16051   2.558   3.574   6.360
 5051SOL    HW116052   2.505   3.501   6.402
 5051SOL    HW216053   2.513   3.605   6.276
 5052SOL     OW16054   5.859   2.928   0.486
 5052SOL    HW116055   5.894   3.008   0.534
 5052SOL    HW216056   5.921   2.851   0.500
 5053SOL     OW16057   1.590   4.070   1.034
 5053SOL    HW116058   1.618   4.161   1.065
 5053SOL    HW216059   1.670   4.012   1.023
 5054SOL     OW16060   4.245   6.080   5.716
 5054SOL    HW116061   4.208   6.167   5.683
 5054SOL    HW216062   4.255   6.016   5.640
 5055SOL     OW16063   1.531   1.240   4.172
 5055SOL    HW116064   1.526   1.195   4.082
 5055SOL    HW216065   1.522   1.339   4.159
 5056SOL     OW16066   3.275   2.257   5.780
 5056SOL    HW116067   3.339   2.276   5.855
 5056SOL    HW216068   3.305   2.176   5.730
 5057SOL     OW16069   0.156   3.900   3.200
 5057SOL    HW116070   0.211   3.819   3.180
 5057SOL    HW216071   0.105   3.886   3.285
 5058SOL     OW16072   3.516   1.810   0.458
 5058SOL    HW116073   3.469   1.855   0.382
 5058SOL    HW216074   3.570   1.733   0.423
 5059SOL     OW16075   5.000   2.305   2.731
 5059SOL    HW116076   5.082   2.334   2.681
 5059SOL    HW216077   4.937   2.382   2.738
 5060SOL     OW16078   6.978   3.724   5.210
 5060SOL    HW116079   6.947   3.639   5.165
 5060SOL    HW216080   0.053   3.726   5.212
 5061SOL     OW16081   4.165   2.823   6.142
 5061SOL    HW116082   4.079   2.787   6.177
 5061SOL    HW216083   4.224   2.747   6.113
 5062SOL     OW16084   5.205   1.306   3.349
 5062SOL    HW116085   5.226   1.379   3.413
 5062SOL    HW216086   5.288   1.254   3.328
 5063SOL     OW16087   0.658   1.474   1.486
 5063SOL    HW116088   0.743   1.527   1.485
 5063SOL    HW216089   0.581   1.534   1.466
 5064SOL     OW16090   5.600   4.676   1.295
 5064SOL    HW116091   5.573   4.584   1.325
 5064SOL    HW216092   5.624   4.674   1.198
 5065SOL     OW16093   2.199   1.649   2.112
 5065SOL    HW116094   2.203   1.598   2.198
 5065SOL    HW216095   2.214   1.746   2.131
 5066SOL     OW16096   1.581   5.167   2.405
 5066SOL    HW116097   1.511   5.238   2.415
 5066SOL    HW216098   1.626   5.177   2.316
 5067SOL     OW16099   5.647   2.908   1.568
 5067SOL    HW116100   5.652   2.931   1.471
 5067SOL    HW216101   5.555   2.927   1.603
 5068SOL     OW16102   1.529   6.246   1.085
 5068SOL    HW116103   1.614   6.271   1.132
 5068SOL    HW216104   1.541   6.159   1.037
 5069SOL     OW16105   4.723   5.422   5.875
 5069SOL    HW116106   4.656   5.400   5.804
 5069SOL    HW216107   4.677   5.466   5.952
 5070SOL     OW16108   6.022   3.616   5.688
 5070SOL    HW116109   6.031   3.559   5.770
 5070SOL    HW216110   6.112   3.650   5.661
 5071SOL     OW16111   2.266   6.207   2.891
 5071SOL    HW116112   2.233   6.298   2.917
 5071SOL    HW216113   2.357   6.192   2.928
 5072SOL     OW16114   0.870   1.380   2.058
 5072SOL    HW116115   0.879   1.315   1.983
 5072SOL    HW216116   0.883   1.333   2.145
 5073SOL     OW16117   1.610   1.191   3.346
 5073SOL    HW116118   1.526   1.139   3.335
 5073SOL    HW216119   1.592   1.288   3.329
 5074SOL     OW16120   3.155   1.916   1.449
 5074SOL    HW116121   3.230   1.954   1.504
 5074SOL    HW216122   3.099   1.857   1.506
 5075SOL     OW16123   6.473   2.695   0.427
 5075SOL    HW116124   6.494   2.653   0.516
 5075SOL    HW216125   6.468   2.623   0.358
 5076SOL     OW16126   6.996   1.006   5.764
 5076SOL    HW116127   7.004   1.005   5.863
 5076SOL    HW216128   6.995   1.100   5.731
 5077SOL     OW16129   1.040   4.072   3.808
 5077SOL    HW116130   0.993   4.028   3.884
 5077SOL    HW216131   1.051   4.006   3.733
 5078SOL     OW16132   6.163   2.276   3.565
 5078SOL    HW116133   6.109   2.315   3.639
 5078SOL    HW216134   6.146   2.177   3.559
 5079SOL     OW16135   1.496   3.729   4.753
 5079SOL    HW116136   1.433   3.726   4.676
 5079SOL    HW216137   1.571   3.665   4.738
 5080SOL     OW16138   6.497   5.589   0.123
 5080SOL    HW116139   6.430   5.580   0.049
 5080SOL    HW216140   6.566   5.657   0.098
 5081SOL     OW16141   2.408   4.794   5.281
 5081SOL    HW116142   2.403   4.763   5.376
 5081SOL    HW216143   2.436   4.717   5.222
 5082SOL     OW16144   5.584   6.505   1.708
 5082SOL    HW116145   5.510   6.572   1.713
 5082SOL    HW216146   5.643   6.515   1.789
 5083SOL     OW16147   1.955   6.883   3.778
 5083SOL    HW116148   1.902   6.833   3.710
 5083SOL    HW216149   1.964   6.828   3.861
 5084SOL     OW16150   3.815   4.701   5.671
 5084SOL    HW116151   3.780   4.780   5.621
 5084SOL    HW216152   3.836   4.729   5.765
 5085SOL     OW16153   0.423   4.512   5.562
 5085SOL    HW116154   0.336   4.505   5.513
 5085SOL    HW216155   0.474   4.591   5.528
 5086SOL     OW16156   1.101   4.751   2.857
 5086SOL    HW116157   1.089   4.713   2.765
 5086SOL    HW216158   1.150   4.838   2.851
 5087SOL     OW16159   0.420   4.892   1.794
 5087SOL    HW116160   0.413   4.991   1.792
 5087SOL    HW216161   0.421   4.861   1.889
 5088SOL     OW16162   5.111   5.199   2.563
 5088SOL    HW116163   5.190   5.219   2.621
 5088SOL    HW216164   5.125   5.237   2.472
 5089SOL     OW16165   5.382   6.230   6.043
 5089SOL    HW116166   5.463   6.269   6.086
 5089SOL    HW216167   5.335   6.300   5.990
 5090SOL     OW16168   2.535   6.895   4.515
 5090SOL    HW116169   2.536   6.974   4.576
 5090SOL    HW216170   2.512   6.813   4.568
 5091SOL     OW16171   6.631   6.674   6.025
 5091SOL    HW116172   6.593   6.631   6.107
 5091SOL    HW216173   6.559   6.692   5.960
 5092SOL     OW16174   3.981   3.898   4.099
 5092SOL    HW116175   4.025   3.811   4.078
 5092SOL    HW216176   4.003   3.924   4.193
 5093SOL     OW16177   2.649   2.107   3.236
 5093SOL    HW116178   2.594   2.159   3.169
 5093SOL    HW216179   2.746   2.128   3.222
 5094SOL     OW16180   2.222   6.153   5.034
 5094SOL    HW116181   2.221   6.249   5.061
 5094SOL    HW216182   2.284   6.141   4.957
 5095SOL     OW16183   0.355   1.173   3.512
 5095SOL    HW116184   0.336   1.087   3.559
 5095SOL    HW216185   0.327   1.249   3.570
 5096SOL     OW16186   6.510   3.315   6.044
 5096SOL    HW116187   6.517   3.317   5.944
 5096SOL    HW216188   6.597   3.343   6.084
 5097SOL     OW16189   0.657   1.140   5.846
 5097SOL    HW116190   0.583   1.192   5.802
 5097SOL    HW216191   0.642   1.138   5.945
 5098SOL     OW16192   2.912   2.443   0.271
 5098SOL    HW116193   2.931   2.427   0.368
 5098SOL    HW216194   2.884   2.538   0.258
 5099SOL     OW16195   2.087   5.777   2.424
 5099SOL    HW116196   2.169   5.774   2.482
 5099SOL    HW216197   2.107   5.732   2.337
 5100SOL     OW16198   5.428   3.362   2.103
 5100SOL    HW116199   5.487   3.340   2.181
 5100SOL    HW216200   5.473   3.430   2.045
 5101SOL     OW16201   3.424   0.639   4.666
 5101SOL    HW116202   3.338   0.630   4.616
 5101SOL    HW216203   3.411   0.607   4.760
 5102SOL     OW16204   5.728   5.015   5.075
 5102SOL    HW116205   5.704   5.091   5.014
 5102SOL    HW216206   5.823   4.989   5.060
 5103SOL     OW16207   0.593   0.611   6.310
 5103SOL    HW116208   0.627   0.533   6.257
 5103SOL    HW216209   0.500   0.592   6.340
 5104SOL     OW16210   4.136   3.551   3.272
 5104SOL    HW116211   4.168   3.456   3.268
 5104SOL    HW216212   4.109   3.573   3.366
 5105SOL     OW16213   4.215   3.347   6.902
 5105SOL    HW116214   4.208   3.427   6.961
 5105SOL    HW216215   4.220   3.264   6.957
 5106SOL     OW16216   3.468   1.562   1.578
 5106SOL    HW116217   3.552   1.616   1.579
 5106SOL    HW216218   3.449   1.530   1.485
 5107SOL     OW16219   6.234   5.357   0.715
 5107SOL    HW116220   6.157   5.419   0.731
 5107SOL    HW216221   6.206   5.264   0.737
 5108SOL     OW16222   3.999   4.513   1.124
 5108SOL    HW116223   3.957   4.473   1.043
 5108SOL    HW216224   4.021   4.609   1.106
 5109SOL     OW16225   1.642   2.749   2.786
 5109SOL    HW116226   1.720   2.807   2.761
 5109SOL    HW216227   1.612   2.771   2.879
 5110SOL     OW16228   4.293   6.690   5.288
 5110SOL    HW116229   4.371   6.685   5.351
 5110SOL    HW216230   4.307   6.623   5.214
 5111SOL     OW16231   1.721   5.627   5.732
 5111SOL    HW116232   1.756   5.721   5.724
 5111SOL    HW216233   1.797   5.564   5.746
 5112SOL     OW16234   1.376   5.703   3.169
 5112SOL    HW116235   1.336   5.622   3.127
 5112SOL    HW216236   1.428   5.754   3.101
 5113SOL     OW16237   1.954   3.852   0.725
 5113SOL    HW116238   2.015   3.828   0.650
 5113SOL    HW216239   1.961   3.949   0.745
 5114SOL     OW16240   4.495   4.427   1.305
 5114SOL    HW116241   4.411   4.405   1.354
 5114SOL    HW216242   4.477   4.499   1.237
 5115SOL     OW16243   1.671   3.863   0.316
 5115SOL    HW116244   1.685   3.901   0.407
 5115SOL    HW216245   1.752   3.810   0.289
 5116SOL     OW16246   0.308   6.847   5.177
 5116SOL    HW116247   0.296   6.787   5.255
 5116SOL    HW216248   0.234   6.831   5.111
 5117SOL     OW16249   0.049   3.094   3.239
 5117SOL    HW116250   0.024   3.007   3.282
 5117SOL    HW216251   0.034   3.087   3.140
 5118SOL     OW16252   4.001   5.706   0.043
 5118SOL    HW116253   4.019   5.744   0.133
 5118SOL    HW216254   4.040   5.614   0.037
 5119SOL     OW16255   5.885   1.637   0.372
 5119SOL    HW116256   5.786   1.657   0.369
 5119SOL    HW216257   5.899   1.541   0.395
 5120SOL     OW16258   5.218   6.161   6.670
 5120SOL    HW116259   5.219   6.191   6.765
 5120SOL    HW216260   5.212   6.240   6.610
 5121SOL     OW16261   1.417   3.175   6.595
 5121SOL    HW116262   1.347   3.149   6.528
 5121SOL    HW216263   1.501   3.124   6.576
 5122SOL     OW16264   4.726   4.691   3.184
 5122SOL    HW116265   4.801   4.631   3.158
 5122SOL    HW216266   4.736   4.717   3.280
 5123SOL     OW16267   4.904   2.573   1.854
 5123SOL    HW116268   4.873   2.518   1.932
 5123SOL    HW216269   4.920   2.667   1.884
 5124SOL     OW16270   1.050   6.181   4.672
 5124SOL    HW116271   1.048   6.219   4.764
 5124SOL    HW216272   1.135   6.131   4.658
 5125SOL     OW16273   6.465   1.980   3.915
 5125SOL    HW116274   6.456   2.042   3.836
 5125SOL    HW216275   6.544   2.008   3.970
 5126SOL     OW16276   1.935   0.934   2.262
 5126SOL    HW116277   1.911   1.021   2.219
 5126SOL    HW216278   1.855   0.896   2.308
 5127SOL     OW16279   2.007   6.067   6.814
 5127SOL    HW116280   1.982   6.152   6.768
 5127SOL    HW216281   2.067   6.088   6.892
 5128SOL     OW16282   4.911   6.942   1.604
 5128SOL    HW116283   4.858   6.859   1.619
 5128SOL    HW216284   4.916   6.994   1.690
 5129SOL     OW16285   6.298   6.129   0.556
 5129SOL    HW116286   6.288   6.222   0.591
 5129SOL    HW216287   6.346   6.073   0.624
 5130SOL     OW16288   5.758   5.072   2.471
 5130SOL    HW116289   5.762   5.030   2.561
 5130SOL    HW216290   5.817   5.022   2.408
 5131SOL     OW16291   2.312   2.745   2.388
 5131SOL    HW116292   2.328   2.707   2.480
 5131SOL    HW216293   2.387   2.718   2.327
 5132SOL     OW16294   2.541   6.270   5.233
 5132SOL    HW116295   2.462   6.274   5.294
 5132SOL    HW216296   2.546   6.179   5.191
 5133SOL     OW16297   3.631   6.227   5.470
 5133SOL    HW116298   3.586   6.297   5.414
 5133SOL    HW216299   3.709   6.267   5.518
 5134SOL     OW16300   6.517   3.953   6.205
 5134SOL    HW116301   6.549   3.862   6.179
 5134SOL    HW216302   6.520   4.014   6.126
 5135SOL     OW16303   6.512   1.682   4.475
 5135SOL    HW116304   6.536   1.643   4.386
 5135SOL    HW216305   6.594   1.720   4.518
 5136SOL     OW16306   3.970   2.144   6.343
 5136SOL    HW116307   3.933   2.212   6.280
 5136SOL    HW216308   4.019   2.074   6.290
 5137SOL     OW16309   3.528   3.443   0.123
 5137SOL    HW116310   3.583   3.445   0.207
 5137SOL    HW216311   3.586   3.466   0.045
 5138SOL     OW16312   2.066   3.151   5.702
 5138SOL    HW116313   1.982   3.184   5.657
 5138SOL    HW216314   2.145   3.182   5.650
 5139SOL     OW16315   0.862   6.977   3.260
 5139SOL    HW116316   0.784   6.917   3.244
 5139SOL    HW216317   0.903   6.955   3.349
 5140SOL     OW16318   3.052   2.956   1.767
 5140SOL    HW116319   3.140   3.001   1.756
 5140SOL    HW216320   2.979   3.024   1.760
 5141SOL     OW16321   0.831   4.197   5.874
 5141SOL    HW116322   0.828   4.166   5.969
 5141SOL    HW216323   0.772   4.278   5.864
 5142SOL     OW16324   5.854   3.028   3.072
 5142SOL    HW116325   5.869   2.994   3.165
 5142SOL    HW216326   5.775   2.981   3.032
 5143SOL     OW16327   0.171   5.359   5.222
 5143SOL    HW116328   0.077   5.347   5.255
 5143SOL    HW216329   0.169   5.387   5.126
 5144SOL     OW16330   2.191   1.590   4.757
 5144SOL    HW116331   2.175   1.688   4.748
 5144SOL    HW216332   2.116   1.540   4.712
 5145SOL     OW16333   3.140   5.270   6.061
 5145SOL    HW116334   3.224   5.248   6.110
 5145SOL    HW216335   3.163   5.306   5.970
 5146SOL     OW16336   2.725   4.720   0.288
 5146SOL    HW116337   2.742   4.653   0.360
 5146SOL    HW216338   2.654   4.685   0.227
 5147SOL     OW16339   0.099   5.295   6.743
 5147SOL    HW116340   0.052   5.332   6.822
 5147SOL    HW216341   0.042   5.306   6.662
 5148SOL     OW16342   0.341   0.842   0.602
 5148SOL    HW116343   0.260   0.898   0.617
 5148SOL    HW216344   0.335   0.798   0.512
 5149SOL     OW16345   0.494   0.733   6.037
 5149SOL    HW116346   0.557   0.809   6.049
 5149SOL    HW216347   0.538   0.648   6.065
 5150SOL     OW16348   2.250   5.737   4.914
 5150SOL    HW116349   2.269   5.666   4.982
 5150SOL    HW216350   2.195   5.698   4.840
 5151SOL     OW16351   4.032   1.250   5.833
 5151SOL    HW116352   4.091   1.331   5.839
 5151SOL    HW216353   4.088   1.168   5.819
 5152SOL     OW16354   0.411   4.851   0.323
 5152SOL    HW116355   0.323   4.851   0.274
 5152SOL    HW216356   0.471   4.921   0.284
 5153SOL     OW16357   1.855   2.184   1.123
 5153SOL    HW116358   1.832   2.126   1.045
 5153SOL    HW216359   1.841   2.133   1.208
 5154SOL     OW16360   1.769   4.321   5.357
 5154SOL    HW116361   1.792   4.413   5.324
 5154SOL    HW216362   1.838   4.256   5.324
 5155SOL     OW16363   3.471   0.458   2.835
 5155SOL    HW116364   3.435   0.449   2.928
 5155SOL    HW216365   3.569   0.476   2.839
 5156SOL     OW16366   5.367   2.895   6.084
 5156SOL    HW116367   5.330   2.820   6.029
 5156SOL    HW216368   5.394   2.860   6.173
 5157SOL     OW16369   6.351   2.499   4.388
 5157SOL    HW116370   6.344   2.415   4.334
 5157SOL    HW216371   6.342   2.477   4.485
 5158SOL     OW16372   3.470   0.447   1.240
 5158SOL    HW116373   3.491   0.465   1.336
 5158SOL    HW216374   3.371   0.447   1.227
 5159SOL     OW16375   2.082   3.444   4.766
 5159SOL    HW116376   2.110   3.510   4.835
 5159SOL    HW216377   2.009   3.386   4.803
 5160SOL     OW16378   2.528   2.314   3.717
 5160SOL    HW116379   2.506   2.223   3.681
 5160SOL    HW216380   2.443   2.364   3.735
 5161SOL     OW16381   2.269   3.003   6.373
 5161SOL    HW116382   2.183   3.029   6.417
 5161SOL    HW216383   2.293   3.072   6.304
 5162SOL     OW16384   6.524   5.324   4.568
 5162SOL    HW116385   6.620   5.345   4.551
 5162SOL    HW216386   6.513   5.225   4.577
 5163SOL     OW16387   5.418   4.757   0.696
 5163SOL    HW116388   5.343   4.730   0.636
 5163SOL    HW216389   5.394   4.735   0.791
 5164SOL     OW16390   6.257   5.894   5.707
 5164SOL    HW116391   6.297   5.972   5.754
 5164SOL    HW216392   6.326   5.822   5.697
 5165SOL     OW16393   5.613   3.761   4.526
 5165SOL    HW116394   5.651   3.679   4.483
 5165SOL    HW216395   5.549   3.805   4.463
 5166SOL     OW16396   1.774   0.340   1.935
 5166SOL    HW116397   1.742   0.434   1.921
 5166SOL    HW216398   1.703   0.288   1.983
 5167SOL     OW16399   1.786   6.827   6.425
 5167SOL    HW116400   1.822   6.735   6.413
 5167SOL    HW216401   1.744   6.857   6.339
 5168SOL     OW16402   3.864   2.139   2.681
 5168SOL    HW116403   3.774   2.100   2.698
 5168SOL    HW216404   3.867   2.176   2.588
 5169SOL     OW16405   3.880   4.348   6.446
 5169SOL    HW116406   3.939   4.273   6.419
 5169SOL    HW216407   3.935   4.419   6.492
 5170SOL     OW16408   4.368   5.071   4.194
 5170SOL    HW116409   4.389   5.150   4.251
 5170SOL    HW216410   4.301   5.098   4.124
 5171SOL     OW16411   2.550   4.534   4.633
 5171SOL    HW116412   2.591   4.604   4.691
 5171SOL    HW216413   2.458   4.513   4.667
 5172SOL     OW16414   1.621   4.591   0.029
 5172SOL    HW116415   1.537   4.576   7.000
 5172SOL    HW216416   1.661   4.502   0.052
 5173SOL     OW16417   0.142   2.408   5.647
 5173SOL    HW116418   0.138   2.401   5.747
 5173SOL    HW216419   0.157   2.503   5.621
 5174SOL     OW16420   2.007   5.105   6.002
 5174SOL    HW116421   2.085   5.116   5.940
 5174SOL    HW216422   1.991   5.190   6.051
 5175SOL     OW16423   7.004   5.614   6.389
 5175SOL    HW116424   6.987   5.712   6.378
 5175SOL    HW216425   0.032   5.581   6.310
 5176SOL     OW16426   5.249   3.998   6.019
 5176SOL    HW116427   5.284   4.058   5.947
 5176SOL    HW216428   5.213   3.915   5.978
 5177SOL     OW16429   5.232   5.492   6.129
 5177SOL    HW116430   5.234   5.528   6.036
 5177SOL    HW216431   5.301   5.538   6.185
 5178SOL     OW16432   2.867   3.312   1.143
 5178SOL    HW116433   2.834   3.277   1.055
 5178SOL    HW216434   2.967   3.312   1.143
 5179SOL     OW16435   3.361   6.587   5.425
 5179SOL    HW116436   3.316   6.676   5.415
 5179SOL    HW216437   3.297   6.515   5.397
 5180SOL     OW16438   3.850   1.865   0.145
 5180SOL    HW116439   3.882   1.870   0.050
 5180SOL    HW216440   3.817   1.954   0.174
 5181SOL     OW16441   2.751   5.682   2.796
 5181SOL    HW116442   2.756   5.774   2.836
 5181SOL    HW216443   2.661   5.668   2.755
 5182SOL     OW16444   4.416   4.035   1.420
 5182SOL    HW116445   4.444   4.033   1.516
 5182SOL    HW216446   4.497   4.033   1.362
 5183SOL     OW16447   4.001   1.161   3.631
 5183SOL    HW116448   4.072   1.231   3.637
 5183SOL    HW216449   4.041   1.075   3.601
 5184SOL     OW16450   1.343   1.920   3.078
 5184SOL    HW116451   1.323   1.961   2.989
 5184SOL    HW216452   1.306   1.828   3.082
 5185SOL     OW16453   3.580   6.922   1.179
 5185SOL    HW116454   3.546   7.003   1.132
 5185SOL    HW216455   3.679   6.914   1.165
 5186SOL     OW16456   4.865   4.423   0.286
 5186SOL    HW116457   4.932   4.497   0.283
 5186SOL    HW216458   4.892   4.351   0.223
 5187SOL     OW16459   4.956   2.209   4.346
 5187SOL    HW116460   4.935   2.221   4.443
 5187SOL    HW216461   5.055   2.220   4.332
 5188SOL     OW16462   1.286   1.808   3.692
 5188SOL    HW116463   1.376   1.821   3.731
 5188SOL    HW216464   1.249   1.896   3.662
 5189SOL     OW16465   4.145   6.438   6.620
 5189SOL    HW116466   4.053   6.473   6.635
 5189SOL    HW216467   4.144   6.338   6.627
 5190SOL     OW16468   1.934   2.702   2.057
 5190SOL    HW116469   2.004   2.630   2.065
 5190SOL    HW216470   1.957   2.778   2.118
 5191SOL     OW16471   5.079   6.963   2.399
 5191SOL    HW116472   5.128   6.920   2.475
 5191SOL    HW216473   5.112   0.032   2.386
 5192SOL     OW16474   5.960   4.035   1.380
 5192SOL    HW116475   5.871   4.068   1.411
 5192SOL    HW216476   5.953   3.999   1.287
 5193SOL     OW16477   4.396   4.544   2.297
 5193SOL    HW116478   4.366   4.449   2.304
 5193SOL    HW216479   4.339   4.592   2.231
 5194SOL     OW16480   5.236   1.323   0.336
 5194SOL    HW116481   5.317   1.365   0.375
 5194SOL    HW216482   5.172   1.298   0.409
 5195SOL     OW16483   6.105   6.716   5.690
 5195SOL    HW116484   6.014   6.706   5.650
 5195SOL    HW216485   6.124   6.813   5.705
 5196SOL     OW16486   6.709   3.584   2.436
 5196SOL    HW116487   6.666   3.533   2.362
 5196SOL    HW216488   6.640   3.637   2.485
 5197SOL     OW16489   3.663   5.598   5.814
 5197SOL    HW116490   3.574   5.558   5.835
 5197SOL    HW216491   3.650   5.690   5.777
 5198SOL     OW16492   4.196   1.228   4.720
 5198SOL    HW116493   4.243   1.185   4.643
 5198SOL    HW216494   4.108   1.183   4.736
 5199SOL     OW16495   0.146   5.673   1.253
 5199SOL    HW116496   0.236   5.703   1.220
 5199SOL    HW216497   0.094   5.634   1.177
 5200SOL     OW16498   6.675   0.304   4.741
 5200SOL    HW116499   6.747   0.238   4.760
 5200SOL    HW216500   6.597   0.288   4.802
 5201SOL     OW16501   6.000   4.664   5.496
 5201SOL    HW116502   6.019   4.575   5.455
 5201SOL    HW216503   5.931   4.711   5.441
 5202SOL     OW16504   3.967   2.624   5.978
 5202SOL    HW116505   3.945   2.608   6.074
 5202SOL    HW216506   3.912   2.701   5.944
 5203SOL     OW16507   1.642   0.547   6.315
 5203SOL    HW116508   1.553   0.557   6.270
 5203SOL    HW216509   1.646   0.459   6.362
 5204SOL     OW16510   2.267   0.845   1.563
 5204SOL    HW116511   2.188   0.798   1.602
 5204SOL    HW216512   2.238   0.928   1.517
 5205SOL     OW16513   6.340   0.061   1.897
 5205SOL    HW116514   6.361   0.043   1.801
 5205SOL    HW216515   6.360   0.156   1.919
 5206SOL     OW16516   0.800   5.070   3.994
 5206SOL    HW116517   0.787   5.057   3.896
 5206SOL    HW216518   0.780   5.165   4.018
 5207SOL     OW16519   5.715   7.007   4.852
 5207SOL    HW116520   5.748   0.050   4.786
 5207SOL    HW216521   5.683   6.926   4.804
 5208SOL     OW16522   7.019   2.019   0.038
 5208SOL    HW116523   0.015   2.116   0.047
 5208SOL    HW216524   0.017   1.987   6.971
 5209SOL     OW16525   5.698   6.927   3.684
 5209SOL    HW116526   5.694   6.828   3.701
 5209SOL    HW216527   5.727   6.974   3.768
 5210SOL     OW16528   5.538   4.502   1.014
 5210SOL    HW116529   5.512   4.451   0.932
 5210SOL    HW216530   5.637   4.505   1.021
 5211SOL     OW16531   5.143   3.041   5.106
 5211SOL    HW116532   5.066   2.979   5.121
 5211SOL    HW216533   5.202   3.042   5.187
 5212SOL     OW16534   6.945   4.337   6.927
 5212SOL    HW116535   6.907   4.292   7.008
 5212SOL    HW216536   0.020   4.334   6.931
 5213SOL     OW16537   3.754   3.010   3.098
 5213SOL    HW116538   3.788   2.964   3.016
 5213SOL    HW216539   3.655   3.020   3.092
 5214SOL     OW16540   5.550   3.583   5.896
 5214SOL    HW116541   5.483   3.524   5.942
 5214SOL    HW216542   5.547   3.565   5.797
 5215SOL     OW16543   0.366   5.530   5.326
 5215SOL    HW116544   0.375   5.601   5.256
 5215SOL    HW216545   0.313   5.453   5.288
 5216SOL     OW16546   6.342   4.228   1.515
 5216SOL    HW116547   6.385   4.300   1.569
 5216SOL    HW216548   6.315   4.153   1.576
 5217SOL     OW16549   4.605   0.019   2.956
 5217SOL    HW116550   4.638   0.114   2.962
 5217SOL    HW216551   4.563   0.005   2.867
 5218SOL     OW16552   6.232   6.402   0.608
 5218SOL    HW116553   6.299   6.464   0.649
 5218SOL    HW216554   6.171   6.366   0.679
 5219SOL     OW16555   3.396   1.899   5.307
 5219SOL    HW116556   3.378   1.804   5.281
 5219SOL    HW216557   3.388   1.957   5.226
 5220SOL     OW16558   2.150   4.770   4.601
 5220SOL    HW116559   2.179   4.684   4.644
 5220SOL    HW216560   2.052   4.766   4.581
 5221SOL     OW16561   5.162   6.182   1.215
 5221SOL    HW116562   5.094   6.188   1.289
 5221SOL    HW216563   5.132   6.239   1.138
 5222SOL     OW16564   6.909   3.326   2.221
 5222SOL    HW116565   6.844   3.334   2.145
 5222SOL    HW216566   6.946   3.416   2.243
 5223SOL     OW16567   6.877   2.953   0.726
 5223SOL    HW116568   6.953   2.905   0.682
 5223SOL    HW216569   6.815   2.886   0.767
 5224SOL     OW16570   1.326   1.571   4.883
 5224SOL    HW116571   1.228   1.583   4.898
 5224SOL    HW216572   1.344   1.570   4.784
 5225SOL     OW16573   6.860   2.543   5.513
 5225SOL    HW116574   6.854   2.443   5.520
 5225SOL    HW216575   6.888   2.580   5.602
 5226SOL     OW16576   0.172   6.268   4.481
 5226SOL    HW116577   0.185   6.212   4.399
 5226SOL    HW216578   0.262   6.291   4.519
 5227SOL     OW16579   1.185   3.274   5.925
 5227SOL    HW116580   1.115   3.323   5.873
 5227SOL    HW216581   1.149   3.251   6.016
 5228SOL     OW16582   1.525   1.933   5.178
 5228SOL    HW116583   1.615   1.892   5.169
 5228SOL    HW216584   1.457   1.862   5.195
 5229SOL     OW16585   3.836   1.932   6.184
 5229SOL    HW116586   3.839   1.930   6.284
 5229SOL    HW216587   3.746   1.963   6.154
 5230SOL     OW16588   6.449   0.056   2.373
 5230SOL    HW116589   6.380   0.028   2.306
 5230SOL    HW216590   6.492   7.000   2.412
 5231SOL     OW16591   6.439   3.806   2.182
 5231SOL    HW116592   6.527   3.757   2.183
 5231SOL    HW216593   6.404   3.812   2.276
 5232SOL     OW16594   1.595   2.136   5.707
 5232SOL    HW116595   1.642   2.146   5.794
 5232SOL    HW216596   1.588   2.039   5.683
 5233SOL     OW16597   3.615   0.148   3.530
 5233SOL    HW116598   3.684   0.214   3.560
 5233SOL    HW216599   3.524   0.188   3.539
 5234SOL     OW16600   2.958   2.589   6.242
 5234SOL    HW116601   2.861   2.572   6.261
 5234SOL    HW216602   2.986   2.538   6.160
 5235SOL     OW16603   2.564   2.188   1.738
 5235SOL    HW116604   2.624   2.190   1.818
 5235SOL    HW216605   2.495   2.260   1.746
 5236SOL     OW16606   3.113   4.757   1.959
 5236SOL    HW116607   3.118   4.826   2.032
 5236SOL    HW216608   3.029   4.705   1.968
 5237SOL     OW16609   1.767   1.397   2.277
 5237SOL    HW116610   1.668   1.412   2.273
 5237SOL    HW216611   1.811   1.451   2.206
 5238SOL     OW16612   0.079   0.314   2.443
 5238SOL    HW116613   0.174   0.343   2.437
 5238SOL    HW216614   0.061   0.244   2.373
 5239SOL     OW16615   2.603   4.110   1.086
 5239SOL    HW116616   2.534   4.096   1.014
 5239SOL    HW216617   2.608   4.207   1.108
 5240SOL     OW16618   2.249   3.853   6.036
 5240SOL    HW116619   2.294   3.825   5.951
 5240SOL    HW216620   2.316   3.856   6.110
 5241SOL     OW16621   2.284   6.572   3.392
 5241SOL    HW116622   2.268   6.474   3.408
 5241SOL    HW216623   2.356   6.605   3.453
 5242SOL     OW16624   4.007   6.546   5.902
 5242SOL    HW116625   3.918   6.555   5.947
 5242SOL    HW216626   4.080   6.544   5.971
 5243SOL     OW16627   3.063   5.645   3.503
 5243SOL    HW116628   2.992   5.681   3.564
 5243SOL    HW216629   3.152   5.680   3.532
 5244SOL     OW16630   4.184   1.208   6.696
 5244SOL    HW116631   4.175   1.249   6.787
 5244SOL    HW216632   4.093   1.191   6.658
 5245SOL     OW16633   3.133   4.078   2.119
 5245SOL    HW116634   3.139   4.058   2.216
 5245SOL    HW216635   3.091   4.168   2.105
 5246SOL     OW16636   5.929   3.836   6.281
 5246SOL    HW116637   5.998   3.891   6.233
 5246SOL    HW216638   5.869   3.792   6.215
 5247SOL     OW16639   4.895   1.398   6.400
 5247SOL    HW116640   4.857   1.351   6.320
 5247SOL    HW216641   4.993   1.410   6.388
 5248SOL     OW16642   4.891   1.098   3.928
 5248SOL    HW116643   4.861   1.038   3.854
 5248SOL    HW216644   4.989   1.084   3.945
 5249SOL     OW16645   6.890   5.118   1.290
 5249SOL    HW116646   6.806   5.066   1.275
 5249SOL    HW216647   6.888   5.158   1.382
 5250SOL     OW16648   2.211   5.112   1.117
 5250SOL    HW116649   2.160   5.041   1.069
 5250SOL    HW216650   2.187   5.201   1.080
 5251SOL     OW16651   0.563   4.359   6.513
 5251SOL    HW116652   0.615   4.432   6.469
 5251SOL    HW216653   0.513   4.396   6.591
 5252SOL     OW16654   4.039   5.507   2.871
 5252SOL    HW116655   3.977   5.439   2.833
 5252SOL    HW216656   4.091   5.550   2.797
 5253SOL     OW16657   0.563   6.456   4.965
 5253SOL    HW116658   0.500   6.470   4.889
 5253SOL    HW216659   0.644   6.406   4.933
 5254SOL     OW16660   4.660   6.054   2.902
 5254SOL    HW116661   4.631   6.127   2.964
 5254SOL    HW216662   4.755   6.031   2.921
 5255SOL     OW16663   6.691   1.752   5.477
 5255SOL    HW116664   6.743   1.721   5.397
 5255SOL    HW216665   6.621   1.685   5.500
 5256SOL     OW16666   4.668   1.163   2.614
 5256SOL    HW116667   4.570   1.185   2.615
 5256SOL    HW216668   4.712   1.213   2.539
 5257SOL     OW16669   5.029   2.277   6.895
 5257SOL    HW116670   4.979   2.331   6.963
 5257SOL    HW216671   4.992   2.184   6.893
 5258SOL     OW16672   4.942   1.725   5.275
 5258SOL    HW116673   4.931   1.662   5.198
 5258SOL    HW216674   5.036   1.758   5.278
 5259SOL     OW16675   5.714   5.634   4.064
 5259SOL    HW116676   5.727   5.591   3.974
 5259SOL    HW216677   5.652   5.578   4.119
 5260SOL     OW16678   1.824   5.989   1.660
 5260SOL    HW116679   1.919   6.014   1.641
 5260SOL    HW216680   1.806   5.897   1.623
 5261SOL     OW16681   6.087   4.949   0.117
 5261SOL    HW116682   6.135   4.862   0.118
 5261SOL    HW216683   6.130   5.011   0.052
 5262SOL     OW16684   1.638   1.592   1.690
 5262SOL    HW116685   1.659   1.523   1.760
 5262SOL    HW216686   1.612   1.677   1.734
 5263SOL     OW16687   2.108   5.872   3.245
 5263SOL    HW116688   2.031   5.866   3.180
 5263SOL    HW216689   2.137   5.967   3.254
 5264SOL     OW16690   6.858   2.941   1.891
 5264SOL    HW116691   6.846   2.968   1.795
 5264SOL    HW216692   6.815   3.010   1.950
 5265SOL     OW16693   6.650   6.397   5.543
 5265SOL    HW116694   6.622   6.396   5.639
 5265SOL    HW216695   6.614   6.480   5.499
 5266SOL     OW16696   1.331   6.979   5.911
 5266SOL    HW116697   1.275   6.899   5.932
 5266SOL    HW216698   1.428   6.955   5.920
 5267SOL     OW16699   5.329   1.564   4.421
 5267SOL    HW116700   5.416   1.607   4.395
 5267SOL    HW216701   5.310   1.487   4.360
 5268SOL     OW16702   5.096   6.929   5.977
 5268SOL    HW116703   4.996   6.934   5.970
 5268SOL    HW216704   5.134   6.896   5.891
 5269SOL     OW16705   1.438   0.003   4.511
 5269SOL    HW116706   1.352   0.041   4.545
 5269SOL    HW216707   1.427   6.930   4.494
 5270SOL     OW16708   0.817   2.007   6.102
 5270SOL    HW116709   0.811   2.105   6.118
 5270SOL    HW216710   0.906   1.973   6.130
 5271SOL     OW16711   1.414   5.466   4.435
 5271SOL    HW116712   1.400   5.549   4.489
 5271SOL    HW216713   1.427   5.388   4.496
 5272SOL     OW16714   4.470   0.574   6.238
 5272SOL    HW116715   4.519   0.661   6.241
 5272SOL    HW216716   4.386   0.586   6.185
 5273SOL     OW16717   3.045   1.511   2.929
 5273SOL    HW116718   2.953   1.511   2.890
 5273SOL    HW216719   3.110   1.546   2.861
 5274SOL     OW16720   5.749   4.706   1.543
 5274SOL    HW116721   5.697   4.669   1.466
 5274SOL    HW216722   5.700   4.784   1.582
 5275SOL     OW16723   5.571   1.791   6.029
 5275SOL    HW116724   5.531   1.854   6.096
 5275SOL    HW216725   5.573   1.834   5.939
 5276SOL     OW16726   3.787   6.206   1.756
 5276SOL    HW116727   3.714   6.183   1.691
 5276SOL    HW216728   3.821   6.122   1.798
 5277SOL     OW16729   2.135   3.260   1.858
 5277SOL    HW116730   2.165   3.347   1.899
 5277SOL    HW216731   2.117   3.194   1.931
 5278SOL     OW16732   3.639   3.224   2.555
 5278SOL    HW116733   3.638   3.297   2.486
 5278SOL    HW216734   3.718   3.164   2.538
 5279SOL     OW16735   1.723   6.085   2.626
 5279SOL    HW116736   1.667   6.006   2.600
 5279SOL    HW216737   1.819   6.065   2.608
 5280SOL     OW16738   3.851   1.079   4.178
 5280SOL    HW116739   3.804   1.160   4.214
 5280SOL    HW216740   3.840   1.075   4.078
 5281SOL     OW16741   6.816   2.290   3.600
 5281SOL    HW116742   6.775   2.251   3.518
 5281SOL    HW216743   6.809   2.390   3.596
 5282SOL     OW16744   4.892   2.240   1.182
 5282SOL    HW116745   4.963   2.302   1.151
 5282SOL    HW216746   4.803   2.272   1.148
 5283SOL     OW16747   4.616   4.505   6.175
 5283SOL    HW116748   4.688   4.439   6.150
 5283SOL    HW216749   4.656   4.596   6.185
 5284SOL     OW16750   4.754   2.739   3.840
 5284SOL    HW116751   4.808   2.748   3.923
 5284SOL    HW216752   4.659   2.718   3.865
 5285SOL     OW16753   4.413   6.448   2.520
 5285SOL    HW116754   4.318   6.428   2.547
 5285SOL    HW216755   4.427   6.547   2.522
 5286SOL     OW16756   1.926   4.864   1.806
 5286SOL    HW116757   1.912   4.789   1.740
 5286SOL    HW216758   1.839   4.912   1.820
 5287SOL     OW16759   0.896   1.045   2.464
 5287SOL    HW116760   0.896   1.069   2.561
 5287SOL    HW216761   0.822   1.094   2.417
 5288SOL     OW16762   4.264   0.149   1.344
 5288SOL    HW116763   4.229   0.060   1.317
 5288SOL    HW216764   4.222   0.177   1.430
 5289SOL     OW16765   1.281   6.362   1.121
 5289SOL    HW116766   1.248   6.384   1.029
 5289SOL    HW216767   1.369   6.316   1.114
 5290SOL     OW16768   5.593   5.947   0.303
 5290SOL    HW116769   5.623   6.011   0.374
 5290SOL    HW216770   5.580   5.857   0.344
 5291SOL     OW16771   0.877   5.828   6.935
 5291SOL    HW116772   0.958   5.853   6.881
 5291SOL    HW216773   0.874   5.884   7.018
 5292SOL     OW16774   5.643   1.435   0.789
 5292SOL    HW116775   5.561   1.482   0.821
 5292SOL    HW216776   5.660   1.461   0.694
 5293SOL     OW16777   1.894   1.310   4.205
 5293SOL    HW116778   1.855   1.401   4.217
 5293SOL    HW216779   1.821   1.245   4.180
 5294SOL     OW16780   3.810   2.457   6.496
 5294SOL    HW116781   3.744   2.419   6.561
 5294SOL    HW216782   3.808   2.557   6.501
 5295SOL     OW16783   6.791   1.425   2.630
 5295SOL    HW116784   6.720   1.375   2.679
 5295SOL    HW216785   6.762   1.439   2.535
 5296SOL     OW16786   0.648   2.886   6.302
 5296SOL    HW116787   0.639   2.848   6.394
 5296SOL    HW216788   0.563   2.932   6.277
 5297SOL     OW16789   0.974   2.383   1.714
 5297SOL    HW116790   1.055   2.423   1.756
 5297SOL    HW216791   0.905   2.454   1.702
 5298SOL     OW16792   1.217   4.526   1.638
 5298SOL    HW116793   1.306   4.502   1.599
 5298SOL    HW216794   1.220   4.620   1.672
 5299SOL     OW16795   3.206   0.177   0.429
 5299SOL    HW116796   3.212   0.233   0.347
 5299SOL    HW216797   3.288   0.120   0.436
 5300SOL     OW16798   0.255   5.208   3.600
 5300SOL    HW116799   0.162   5.178   3.580
 5300SOL    HW216800   0.258   5.248   3.692
 5301SOL     OW16801   5.073   0.360   6.787
 5301SOL    HW116802   5.038   0.374   6.695
 5301SOL    HW216803   5.094   0.263   6.801
 5302SOL     OW16804   6.813   4.148   3.820
 5302SOL    HW116805   6.773   4.116   3.734
 5302SOL    HW216806   6.792   4.244   3.833
 5303SOL     OW16807   1.658   4.786   3.281
 5303SOL    HW116808   1.583   4.766   3.344
 5303SOL    HW216809   1.734   4.826   3.332
 5304SOL     OW16810   4.443   2.946   5.619
 5304SOL    HW116811   4.391   2.945   5.534
 5304SOL    HW216812   4.445   3.039   5.656
 5305SOL     OW16813   3.562   1.449   4.526
 5305SOL    HW116814   3.469   1.453   4.563
 5305SOL    HW216815   3.577   1.528   4.466
 5306SOL     OW16816   2.597   6.641   4.218
 5306SOL    HW116817   2.512   6.687   4.242
 5306SOL    HW216818   2.618   6.658   4.121
 5307SOL     OW16819   4.965   6.984   0.280
 5307SOL    HW116820   5.063   6.986   0.298
 5307SOL    HW216821   4.932   6.890   0.292
 5308SOL     OW16822   6.110   1.795   2.024
 5308SOL    HW116823   6.165   1.821   2.103
 5308SOL    HW216824   6.139   1.704   1.992
 5309SOL     OW16825   3.802   3.707   5.103
 5309SOL    HW116826   3.791   3.627   5.161
 5309SOL    HW216827   3.861   3.683   5.025
 5310SOL     OW16828   5.177   2.599   0.771
 5310SOL    HW116829   5.215   2.680   0.728
 5310SOL    HW216830   5.242   2.563   0.838
 5311SOL     OW16831   0.306   6.331   0.083
 5311SOL    HW116832   0.211   6.319   0.108
 5311SOL    HW216833   0.365   6.292   0.154
 5312SOL     OW16834   0.364   2.996   1.529
 5312SOL    HW116835   0.276   3.032   1.500
 5312SOL    HW216836   0.384   3.027   1.622
 5313SOL     OW16837   0.244   5.912   0.566
 5313SOL    HW116838   0.163   5.924   0.509
 5313SOL    HW216839   0.291   5.999   0.575
 5314SOL     OW16840   3.846   5.173   1.550
 5314SOL    HW116841   3.876   5.100   1.611
 5314SOL    HW216842   3.874   5.151   1.456
 5315SOL     OW16843   5.721   1.428   2.148
 5315SOL    HW116844   5.783   1.358   2.113
 5315SOL    HW216845   5.769   1.515   2.157
 5316SOL     OW16846   5.507   5.560   4.267
 5316SOL    HW116847   5.519   5.461   4.257
 5316SOL    HW216848   5.505   5.584   4.364
 5317SOL     OW16849   6.652   5.179   2.150
 5317SOL    HW116850   6.576   5.236   2.181
 5317SOL    HW216851   6.624   5.125   2.071
 5318SOL     OW16852   0.330   2.650   3.674
 5318SOL    HW116853   0.336   2.588   3.752
 5318SOL    HW216854   0.360   2.603   3.592
 5319SOL     OW16855   3.211   6.562   2.987
 5319SOL    HW116856   3.244   6.541   3.080
 5319SOL    HW216857   3.124   6.515   2.971
 5320SOL     OW16858   0.056   3.109   6.431
 5320SOL    HW116859   0.039   3.076   6.338
 5320SOL    HW216860   0.037   3.207   6.436
 5321SOL     OW16861   2.764   4.456   6.137
 5321SOL    HW116862   2.780   4.448   6.235
 5321SOL    HW216863   2.847   4.429   6.088
 5322SOL     OW16864   2.053   5.855   1.026
 5322SOL    HW116865   1.956   5.876   1.025
 5322SOL    HW216866   2.097   5.899   1.104
 5323SOL     OW16867   5.482   3.007   0.318
 5323SOL    HW116868   5.571   2.965   0.304
 5323SOL    HW216869   5.492   3.106   0.327
 5324SOL     OW16870   4.563   3.322   1.363
 5324SOL    HW116871   4.616   3.266   1.427
 5324SOL    HW216872   4.467   3.324   1.391
 5325SOL     OW16873   3.078   6.029   5.409
 5325SOL    HW116874   3.019   6.109   5.411
 5325SOL    HW216875   3.032   5.952   5.455
 5326SOL     OW16876   0.416   0.493   2.198
 5326SOL    HW116877   0.456   0.401   2.196
 5326SOL    HW216878   0.482   0.559   2.160
 5327SOL     OW16879   6.572   0.504   3.930
 5327SOL    HW116880   6.571   0.536   3.835
 5327SOL    HW216881   6.597   0.580   3.991
 5328SOL     OW16882   3.543   4.955   0.079
 5328SOL    HW116883   3.450   4.971   0.047
 5328SOL    HW216884   3.570   5.027   0.142
 5329SOL     OW16885   0.383   5.871   6.447
 5329SOL    HW116886   0.341   5.785   6.417
 5329SOL    HW216887   0.477   5.853   6.476
 5330SOL     OW16888   4.025   5.034   0.677
 5330SOL    HW116889   4.035   4.986   0.590
 5330SOL    HW216890   3.968   5.115   0.663
 5331SOL     OW16891   5.637   1.488   6.519
 5331SOL    HW116892   5.671   1.556   6.584
 5331SOL    HW216893   5.612   1.533   6.434
 5332SOL     OW16894   6.484   2.909   6.741
 5332SOL    HW116895   6.524   2.864   6.822
 5332SOL    HW216896   6.532   2.996   6.725
 5333SOL     OW16897   0.996   0.130   4.152
 5333SOL    HW116898   1.066   0.106   4.218
 5333SOL    HW216899   0.961   0.221   4.171
 5334SOL     OW16900   2.994   6.341   1.557
 5334SOL    HW116901   3.038   6.283   1.488
 5334SOL    HW216902   2.944   6.415   1.512
 5335SOL     OW16903   0.113   5.162   1.777
 5335SOL    HW116904   0.032   5.105   1.760
 5335SOL    HW216905   0.136   5.213   1.694
 5336SOL     OW16906   1.871   3.601   5.098
 5336SOL    HW116907   1.780   3.562   5.113
 5336SOL    HW216908   1.935   3.565   5.165
 5337SOL     OW16909   6.804   3.526   0.980
 5337SOL    HW116910   6.883   3.492   0.928
 5337SOL    HW216911   6.746   3.581   0.919
 5338SOL     OW16912   6.936   3.567   0.688
 5338SOL    HW116913   6.849   3.518   0.683
 5338SOL    HW216914   6.992   3.528   0.761
 5339SOL     OW16915   5.691   2.772   2.989
 5339SOL    HW116916   5.761   2.795   2.921
 5339SOL    HW216917   5.610   2.735   2.943
 5340SOL     OW16918   4.875   3.323   1.182
 5340SOL    HW116919   4.883   3.420   1.206
 5340SOL    HW216920   4.837   3.315   1.090
 5341SOL     OW16921   4.983   4.764   3.370
 5341SOL    HW116922   4.980   4.830   3.446
 5341SOL    HW216923   5.000   4.813   3.284
 5342SOL     OW16924   6.085   5.784   4.539
 5342SOL    HW116925   6.176   5.763   4.503
 5342SOL    HW216926   6.091   5.862   4.601
 5343SOL     OW16927   3.701   3.499   6.656
 5343SOL    HW116928   3.666   3.405   6.657
 5343SOL    HW216929   3.788   3.502   6.607
 5344SOL     OW16930   6.677   2.248   6.723
 5344SOL    HW116931   6.720   2.158   6.723
 5344SOL    HW216932   6.590   2.243   6.773
 5345SOL     OW16933   3.213   1.704   0.291
 5345SOL    HW116934   3.218   1.740   0.385
 5345SOL    HW216935   3.191   1.607   0.294
 5346SOL     OW16936   3.016   6.556   3.528
 5346SOL    HW116937   2.952   6.632   3.516
 5346SOL    HW216938   2.975   6.487   3.588
 5347SOL     OW16939   5.633   1.663   5.465
 5347SOL    HW116940   5.665   1.754   5.439
 5347SOL    HW216941   5.709   1.613   5.506
 5348SOL     OW16942   4.789   2.734   5.470
 5348SOL    HW116943   4.753   2.794   5.398
 5348SOL    HW216944   4.857   2.784   5.523
 5349SOL     OW16945   0.839   4.020   1.163
 5349SOL    HW116946   0.844   3.927   1.127
 5349SOL    HW216947   0.796   4.019   1.253
 5350SOL     OW16948   0.956   6.700   6.160
 5350SOL    HW116949   0.907   6.758   6.225
 5350SOL    HW216950   0.899   6.684   6.080
 5351SOL     OW16951   0.170   5.743   3.402
 5351SOL    HW116952   0.157   5.834   3.439
 5351SOL    HW216953   0.235   5.692   3.459
 5352SOL     OW16954   1.154   2.454   6.192
 5352SOL    HW116955   1.099   2.520   6.142
 5352SOL    HW216956   1.157   2.479   6.289
 5353SOL     OW16957   3.190   6.963   3.927
 5353SOL    HW116958   3.258   7.016   3.876
 5353SOL    HW216959   3.156   7.018   4.004
 5354SOL     OW16960   4.038   5.873   2.108
 5354SOL    HW116961   4.002   5.814   2.180
 5354SOL    HW216962   4.050   5.965   2.142
 5355SOL     OW16963   5.225   5.267   5.130
 5355SOL    HW116964   5.225   5.365   5.109
 5355SOL    HW216965   5.150   5.222   5.081
 5356SOL     OW16966   0.948   7.008   1.331
 5356SOL    HW116967   1.022   6.956   1.374
 5356SOL    HW216968   0.905   0.043   1.399
 5357SOL     OW16969   6.327   3.150   2.579
 5357SOL    HW116970   6.341   3.182   2.486
 5357SOL    HW216971   6.334   3.227   2.642
 5358SOL     OW16972   6.173   0.849   6.572
 5358SOL    HW116973   6.222   0.906   6.637
 5358SOL    HW216974   6.210   0.756   6.573
 5359SOL     OW16975   2.383   2.573   6.693
 5359SOL    HW116976   2.384   2.655   6.636
 5359SOL    HW216977   2.476   2.541   6.707
 5360SOL     OW16978   5.851   5.804   3.608
 5360SOL    HW116979   5.801   5.861   3.673
 5360SOL    HW216980   5.851   5.848   3.518
 5361SOL     OW16981   1.841   3.642   3.061
 5361SOL    HW116982   1.895   3.671   3.140
 5361SOL    HW216983   1.902   3.606   2.990
 5362SOL     OW16984   6.404   1.114   4.190
 5362SOL    HW116985   6.368   1.143   4.101
 5362SOL    HW216986   6.329   1.086   4.250
 5363SOL     OW16987   6.280   5.451   4.359
 5363SOL    HW116988   6.375   5.467   4.387
 5363SOL    HW216989   6.260   5.503   4.276
 5364SOL     OW16990   4.504   2.513   1.882
 5364SOL    HW116991   4.480   2.473   1.971
 5364SOL    HW216992   4.525   2.610   1.893
 5365SOL     OW16993   3.325   3.783   5.228
 5365SOL    HW116994   3.238   3.832   5.214
 5365SOL    HW216995   3.395   3.848   5.259
 5366SOL     OW16996   0.505   4.615   3.385
 5366SOL    HW116997   0.503   4.640   3.482
 5366SOL    HW216998   0.570   4.540   3.372
 5367SOL     OW16999   6.123   6.142   1.302
 5367SOL    HW117000   6.068   6.127   1.384
 5367SOL    HW217001   6.217   6.113   1.319
 5368SOL     OW17002   0.526   5.547   4.884
 5368SOL    HW117003   0.459   5.491   4.835
 5368SOL    HW217004   0.482   5.632   4.914
 5369SOL     OW17005   4.462   6.756   2.885
 5369SOL    HW117006   4.560   6.763   2.865
 5369SOL    HW217007   4.415   6.838   2.852
 5370SOL     OW17008   2.536   2.675   0.764
 5370SOL    HW117009   2.558   2.687   0.667
 5370SOL    HW217010   2.566   2.584   0.794
 5371SOL     OW17011   6.137   4.959   3.469
 5371SOL    HW117012   6.143   5.058   3.474
 5371SOL    HW217013   6.066   4.926   3.532
 5372SOL     OW17014   1.477   7.012   3.836
 5372SOL    HW117015   1.500   0.081   3.812
 5372SOL    HW217016   1.415   7.011   3.915
 5373SOL     OW17017   3.702   0.636   0.152
 5373SOL    HW117018   3.719   0.570   0.225
 5373SOL    HW217019   3.725   0.595   0.064
 5374SOL     OW17020   1.220   4.012   1.614
 5374SOL    HW117021   1.316   4.039   1.606
 5374SOL    HW217022   1.163   4.073   1.558
 5375SOL     OW17023   2.674   4.734   4.802
 5375SOL    HW117024   2.720   4.683   4.875
 5375SOL    HW217025   2.742   4.776   4.742
 5376SOL     OW17026   1.020   0.904   1.435
 5376SOL    HW117027   1.019   1.002   1.418
 5376SOL    HW217028   1.095   0.862   1.384
 5377SOL     OW17029   0.730   2.190   2.338
 5377SOL    HW117030   0.658   2.221   2.276
 5377SOL    HW217031   0.723   2.091   2.350
 5378SOL     OW17032   5.545   6.526   3.207
 5378SOL    HW117033   5.512   6.618   3.227
 5378SOL    HW217034   5.486   6.482   3.140
 5379SOL     OW17035   2.462   2.124   4.078
 5379SOL    HW117036   2.413   2.081   4.002
 5379SOL    HW217037   2.418   2.100   4.164
 5380SOL     OW17038   5.189   6.326   1.718
 5380SOL    HW117039   5.121   6.385   1.673
 5380SOL    HW217040   5.203   6.356   1.812
 5381SOL     OW17041   3.595   2.065   2.628
 5381SOL    HW117042   3.614   1.970   2.601
 5381SOL    HW217043   3.522   2.067   2.697
 5382SOL     OW17044   4.354   0.545   2.898
 5382SOL    HW117045   4.399   0.610   2.836
 5382SOL    HW217046   4.375   0.569   2.993
 5383SOL     OW17047   2.699   3.735   5.295
 5383SOL    HW117048   2.736   3.775   5.211
 5383SOL    HW217049   2.677   3.808   5.360
 5384SOL     OW17050   4.995   6.632   6.023
 5384SOL    HW117051   5.012   6.595   6.114
 5384SOL    HW217052   4.984   6.731   6.030
 5385SOL     OW17053   3.350   3.442   0.384
 5385SOL    HW117054   3.319   3.360   0.336
 5385SOL    HW217055   3.450   3.447   0.380
 5386SOL     OW17056   4.283   4.638   3.323
 5386SOL    HW117057   4.213   4.692   3.276
 5386SOL    HW217058   4.351   4.607   3.256
 5387SOL     OW17059   1.118   2.291   4.078
 5387SOL    HW117060   1.136   2.218   4.013
 5387SOL    HW217061   1.047   2.352   4.041
 5388SOL     OW17062   6.907   6.152   3.561
 5388SOL    HW117063   6.886   6.055   3.549
 5388SOL    HW217064   6.922   6.194   3.471
 5389SOL     OW17065   5.108   1.722   4.446
 5389SOL    HW117066   5.056   1.695   4.365
 5389SOL    HW217067   5.192   1.668   4.450
 5390SOL     OW17068   5.660   3.078   3.373
 5390SOL    HW117069   5.635   3.126   3.457
 5390SOL    HW217070   5.755   3.048   3.378
 5391SOL     OW17071   4.753   2.715   1.564
 5391SOL    HW117072   4.719   2.630   1.602
 5391SOL    HW217073   4.698   2.791   1.597
 5392SOL     OW17074   5.123   0.806   4.494
 5392SOL    HW117075   5.036   0.801   4.445
 5392SOL    HW217076   5.126   0.735   4.564
 5393SOL     OW17077   3.775   1.787   3.114
 5393SOL    HW117078   3.801   1.872   3.159
 5393SOL    HW217079   3.841   1.716   3.135
 5394SOL     OW17080   7.006   2.522   2.786
 5394SOL    HW117081   6.945   2.554   2.859
 5394SOL    HW217082   7.008   2.422   2.787
 5395SOL     OW17083   0.065   1.316   0.998
 5395SOL    HW117084   0.068   1.409   0.960
 5395SOL    HW217085   0.154   1.294   1.038
 5396SOL     OW17086   4.692   2.599   0.611
 5396SOL    HW117087   4.677   2.557   0.701
 5396SOL    HW217088   4.620   2.666   0.594
 5397SOL     OW17089   0.011   0.166   1.794
 5397SOL    HW117090   0.009   0.255   1.841
 5397SOL    HW217091   0.077   0.106   1.839
 5398SOL     OW17092   5.815   2.064   3.607
 5398SOL    HW117093   5.752   1.998   3.565
 5398SOL    HW217094   5.884   2.091   3.539
 5399SOL     OW17095   2.742   3.045   0.262
 5399SOL    HW117096   2.656   3.005   0.232
 5399SOL    HW217097   2.818   3.005   0.210
 5400SOL     OW17098   5.463   2.634   1.251
 5400SOL    HW117099   5.475   2.700   1.177
 5400SOL    HW217100   5.396   2.669   1.316
 5401SOL     OW17101   5.032   3.539   1.479
 5401SOL    HW117102   4.984   3.617   1.440
 5401SOL    HW217103   4.988   3.512   1.565
 5402SOL     OW17104   1.282   6.000   1.883
 5402SOL    HW117105   1.190   5.967   1.904
 5402SOL    HW217106   1.302   6.079   1.942
 5403SOL     OW17107   5.950   2.427   5.836
 5403SOL    HW117108   5.998   2.455   5.753
 5403SOL    HW217109   5.989   2.475   5.915
 5404SOL     OW17110   4.602   6.883   0.657
 5404SOL    HW117111   4.692   6.915   0.628
 5404SOL    HW217112   4.581   6.920   0.748
 5405SOL     OW17113   6.955   5.358   6.524
 5405SOL    HW117114   6.975   5.351   6.426
 5405SOL    HW217115   6.921   5.450   6.545
 5406SOL     OW17116   2.150   0.861   5.533
 5406SOL    HW117117   2.110   0.932   5.591
 5406SOL    HW217118   2.182   0.786   5.591
 5407SOL     OW17119   2.371   0.567   2.587
 5407SOL    HW117120   2.358   0.482   2.638
 5407SOL    HW217121   2.341   0.645   2.643
 5408SOL     OW17122   1.347   2.148   4.501
 5408SOL    HW117123   1.412   2.216   4.533
 5408SOL    HW217124   1.254   2.178   4.520
 5409SOL     OW17125   0.534   3.696   2.633
 5409SOL    HW117126   0.582   3.746   2.560
 5409SOL    HW217127   0.496   3.611   2.596
 5410SOL     OW17128   6.394   2.202   0.311
 5410SOL    HW117129   6.348   2.131   0.258
 5410SOL    HW217130   6.349   2.290   0.294
 5411SOL     OW17131   3.338   5.390   1.725
 5411SOL    HW117132   3.406   5.453   1.688
 5411SOL    HW217133   3.271   5.368   1.655
 5412SOL     OW17134   1.342   2.092   5.869
 5412SOL    HW117135   1.383   2.138   5.791
 5412SOL    HW217136   1.339   2.154   5.947
 5413SOL     OW17137   6.830   5.664   5.841
 5413SOL    HW117138   6.879   5.578   5.857
 5413SOL    HW217139   6.896   5.736   5.816
 5414SOL     OW17140   5.769   5.523   6.133
 5414SOL    HW117141   5.739   5.583   6.058
 5414SOL    HW217142   5.809   5.578   6.206
 5415SOL     OW17143   1.745   1.528   6.335
 5415SOL    HW117144   1.681   1.541   6.411
 5415SOL    HW217145   1.822   1.471   6.367
 5416SOL     OW17146   3.541   5.880   6.628
 5416SOL    HW117147   3.639   5.871   6.641
 5416SOL    HW217148   3.503   5.794   6.593
 5417SOL     OW17149   5.484   0.166   2.352
 5417SOL    HW117150   5.482   0.111   2.268
 5417SOL    HW217151   5.569   0.147   2.401
 5418SOL     OW17152   0.429   3.996   5.347
 5418SOL    HW117153   0.372   3.922   5.382
 5418SOL    HW217154   0.388   4.084   5.370
 5419SOL     OW17155   3.948   1.547   5.991
 5419SOL    HW117156   4.040   1.543   6.030
 5419SOL    HW217157   3.944   1.621   5.923
 5420SOL     OW17158   2.184   2.025   0.850
 5420SOL    HW117159   2.177   2.091   0.924
 5420SOL    HW217160   2.277   2.027   0.812
 5421SOL     OW17161   4.434   5.003   1.565
 5421SOL    HW117162   4.442   5.088   1.618
 5421SOL    HW217163   4.359   4.948   1.602
 5422SOL     OW17164   2.829   6.142   3.176
 5422SOL    HW117165   2.808   6.197   3.096
 5422SOL    HW217166   2.776   6.174   3.254
 5423SOL     OW17167   3.860   6.816   1.770
 5423SOL    HW117168   3.782   6.877   1.780
 5423SOL    HW217169   3.939   6.868   1.737
 5424SOL     OW17170   3.610   3.835   5.318
 5424SOL    HW117171   3.619   3.879   5.407
 5424SOL    HW217172   3.579   3.740   5.331
 5425SOL     OW17173   1.350   5.389   5.403
 5425SOL    HW117174   1.409   5.444   5.462
 5425SOL    HW217175   1.391   5.382   5.312
 5426SOL     OW17176   0.853   4.089   6.867
 5426SOL    HW117177   0.754   4.074   6.860
 5426SOL    HW217178   0.900   4.028   6.803
 5427SOL     OW17179   4.311   2.065   0.021
 5427SOL    HW117180   4.295   2.119   0.103
 5427SOL    HW217181   4.250   1.986   0.021
 5428SOL     OW17182   4.403   5.990   3.136
 5428SOL    HW117183   4.384   6.010   3.039
 5428SOL    HW217184   4.355   5.907   3.163
 5429SOL     OW17185   2.597   6.292   4.056
 5429SOL    HW117186   2.580   6.203   4.015
 5429SOL    HW217187   2.517   6.319   4.111
 5430SOL     OW17188   1.502   4.199   5.228
 5430SOL    HW117189   1.557   4.263   5.282
 5430SOL    HW217190   1.405   4.222   5.238
 5431SOL     OW17191   4.949   5.068   1.574
 5431SOL    HW117192   4.896   5.093   1.492
 5431SOL    HW217193   5.016   4.998   1.550
 5432SOL     OW17194   0.163   5.161   6.376
 5432SOL    HW117195   0.228   5.163   6.299
 5432SOL    HW217196   0.075   5.198   6.346
 5433SOL     OW17197   2.587   0.384   1.285
 5433SOL    HW117198   2.526   0.446   1.334
 5433SOL    HW217199   2.602   0.419   1.192
 5434SOL     OW17200   5.324   5.874   4.172
 5434SOL    HW117201   5.300   5.805   4.103
 5434SOL    HW217202   5.418   5.857   4.204
 5435SOL     OW17203   6.667   3.885   6.435
 5435SOL    HW117204   6.613   3.900   6.353
 5435SOL    HW217205   6.612   3.837   6.504
 5436SOL     OW17206   1.528   4.070   1.978
 5436SOL    HW117207   1.483   4.097   1.893
 5436SOL    HW217208   1.610   4.126   1.991
 5437SOL     OW17209   3.482   6.296   0.024
 5437SOL    HW117210   3.419   6.294   6.971
 5437SOL    HW217211   3.521   6.388   0.032
 5438SOL     OW17212   5.893   6.880   2.785
 5438SOL    HW117213   5.939   6.873   2.874
 5438SOL    HW217214   5.960   6.904   2.715
 5439SOL     OW17215   1.636   3.878   1.523
 5439SOL    HW117216   1.641   3.829   1.610
 5439SOL    HW217217   1.728   3.903   1.494
 5440SOL     OW17218   6.409   0.223   4.324
 5440SOL    HW117219   6.414   0.200   4.422
 5440SOL    HW217220   6.500   0.251   4.292
 5441SOL     OW17221   5.613   1.684   4.986
 5441SOL    HW117222   5.533   1.642   4.943
 5441SOL    HW217223   5.642   1.629   5.064
 5442SOL     OW17224   2.341   0.158   6.689
 5442SOL    HW117225   2.282   0.112   6.755
 5442SOL    HW217226   2.414   0.095   6.661
 5443SOL     OW17227   5.628   0.592   3.730
 5443SOL    HW117228   5.638   0.686   3.698
 5443SOL    HW217229   5.535   0.560   3.710
 5444SOL     OW17230   1.085   1.081   6.095
 5444SOL    HW117231   1.002   1.120   6.135
 5444SOL    HW217232   1.059   1.021   6.019
 5445SOL     OW17233   6.211   6.506   5.134
 5445SOL    HW117234   6.237   6.583   5.192
 5445SOL    HW217235   6.224   6.530   5.038
 5446SOL     OW17236   1.507   5.481   5.629
 5446SOL    HW117237   1.579   5.540   5.667
 5446SOL    HW217238   1.521   5.387   5.658
 5447SOL     OW17239   6.399   2.227   1.408
 5447SOL    HW117240   6.366   2.156   1.471
 5447SOL    HW217241   6.363   2.210   1.316
 5448SOL     OW17242   6.742   4.806   1.545
 5448SOL    HW117243   6.771   4.738   1.478
 5448SOL    HW217244   6.737   4.764   1.635
 5449SOL     OW17245   1.934   6.833   2.494
 5449SOL    HW117246   1.981   6.868   2.413
 5449SOL    HW217247   1.888   6.747   2.471
 5450SOL     OW17248   4.592   5.491   1.905
 5450SOL    HW117249   4.492   5.500   1.912
 5450SOL    HW217250   4.630   5.573   1.863
 5451SOL     OW17251   0.394   6.312   3.846
 5451SOL    HW117252   0.453   6.356   3.779
 5451SOL    HW217253   0.398   6.362   3.933
 5452SOL     OW17254   1.922   4.150   3.000
 5452SOL    HW117255   1.962   4.149   3.091
 5452SOL    HW217256   1.991   4.123   2.933
 5453SOL     OW17257   5.797   4.726   4.270
 5453SOL    HW117258   5.736   4.802   4.290
 5453SOL    HW217259   5.853   4.749   4.190
 5454SOL     OW17260   5.736   4.026   2.386
 5454SOL    HW117261   5.767   3.995   2.476
 5454SOL    HW217262   5.795   4.100   2.354
 5455SOL     OW17263   2.369   2.047   3.186
 5455SOL    HW117264   2.447   2.013   3.239
 5455SOL    HW217265   2.397   2.129   3.135
 5456SOL     OW17266   5.522   2.385   0.749
 5456SOL    HW117267   5.607   2.360   0.795
 5456SOL    HW217268   5.506   2.322   0.673
 5457SOL     OW17269   6.676   1.750   0.423
 5457SOL    HW117270   6.757   1.752   0.481
 5457SOL    HW217271   6.700   1.782   0.331
 5458SOL     OW17272   6.027   5.049   5.839
 5458SOL    HW117273   6.014   4.993   5.758
 5458SOL    HW217274   5.956   5.120   5.843
 5459SOL     OW17275   2.399   3.447   5.294
 5459SOL    HW117276   2.494   3.478   5.297
 5459SOL    HW217277   2.397   3.347   5.293
 5460SOL     OW17278   0.441   0.919   1.434
 5460SOL    HW117279   0.482   0.946   1.347
 5460SOL    HW217280   0.433   0.819   1.438
 5461SOL     OW17281   6.128   1.637   6.726
 5461SOL    HW117282   6.104   1.602   6.636
 5461SOL    HW217283   6.228   1.649   6.732
 5462SOL     OW17284   5.411   5.280   5.963
 5462SOL    HW117285   5.357   5.282   6.048
 5462SOL    HW217286   5.351   5.260   5.886
 5463SOL     OW17287   1.764   5.381   6.234
 5463SOL    HW117288   1.814   5.367   6.319
 5463SOL    HW217289   1.772   5.477   6.206
 5464SOL     OW17290   1.942   5.611   4.184
 5464SOL    HW117291   1.890   5.538   4.228
 5464SOL    HW217292   1.887   5.694   4.181
 5465SOL     OW17293   0.645   0.537   4.905
 5465SOL    HW117294   0.580   0.564   4.834
 5465SOL    HW217295   0.622   0.584   4.991
 5466SOL     OW17296   4.777   2.389   5.119
 5466SOL    HW117297   4.811   2.370   5.027
 5466SOL    HW217298   4.809   2.480   5.148
 5467SOL     OW17299   6.311   3.213   3.811
 5467SOL    HW117300   6.230   3.196   3.868
 5467SOL    HW217301   6.363   3.290   3.849
 5468SOL     OW17302   0.172   2.579   1.579
 5468SOL    HW117303   0.101   2.649   1.574
 5468SOL    HW217304   0.137   2.499   1.628
 5469SOL     OW17305   3.982   2.080   3.863
 5469SOL    HW117306   3.884   2.058   3.865
 5469SOL    HW217307   4.012   2.108   3.954
 5470SOL     OW17308   3.076   5.150   3.564
 5470SOL    HW117309   3.081   5.050   3.568
 5470SOL    HW217310   3.041   5.186   3.650
 5471SOL     OW17311   5.720   0.627   3.246
 5471SOL    HW117312   5.728   0.669   3.336
 5471SOL    HW217313   5.637   0.659   3.201
 5472SOL     OW17314   2.353   4.184   6.609
 5472SOL    HW117315   2.355   4.108   6.544
 5472SOL    HW217316   2.447   4.211   6.630
 5473SOL     OW17317   2.769   4.774   2.179
 5473SOL    HW117318   2.822   4.718   2.115
 5473SOL    HW217319   2.826   4.851   2.209
 5474SOL     OW17320   0.998   4.838   2.172
 5474SOL    HW117321   0.966   4.762   2.116
 5474SOL    HW217322   0.992   4.814   2.269
 5475SOL     OW17323   1.317   0.877   5.261
 5475SOL    HW117324   1.354   0.970   5.268
 5475SOL    HW217325   1.289   0.859   5.167
 5476SOL     OW17326   2.269   0.759   4.719
 5476SOL    HW117327   2.268   0.786   4.816
 5476SOL    HW217328   2.223   0.829   4.665
 5477SOL     OW17329   2.158   3.173   2.792
 5477SOL    HW117330   2.160   3.097   2.727
 5477SOL    HW217331   2.165   3.260   2.742
 5478SOL     OW17332   6.165   3.773   5.996
 5478SOL    HW117333   6.219   3.696   6.030
 5478SOL    HW217334   6.158   3.768   5.896
 5479SOL     OW17335   5.555   3.056   4.380
 5479SOL    HW117336   5.608   3.126   4.331
 5479SOL    HW217337   5.615   3.003   4.438
 5480SOL     OW17338   1.393   3.500   4.431
 5480SOL    HW117339   1.492   3.497   4.421
 5480SOL    HW217340   1.349   3.492   4.342
 5481SOL     OW17341   4.421   1.381   6.743
 5481SOL    HW117342   4.457   1.474   6.754
 5481SOL    HW217343   4.349   1.381   6.673
 5482SOL     OW17344   5.389   4.042   2.703
 5482SOL    HW117345   5.405   4.110   2.631
 5482SOL    HW217346   5.341   3.964   2.665
 5483SOL     OW17347   6.588   2.760   6.950
 5483SOL    HW117348   6.605   2.661   6.947
 5483SOL    HW217349   6.573   2.789   0.020
 5484SOL     OW17350   6.163   0.654   5.367
 5484SOL    HW117351   6.179   0.722   5.438
 5484SOL    HW217352   6.074   0.610   5.382
 5485SOL     OW17353   3.182   1.024   4.111
 5485SOL    HW117354   3.170   0.960   4.187
 5485SOL    HW217355   3.258   1.086   4.131
 5486SOL     OW17356   0.820   0.183   3.692
 5486SOL    HW117357   0.853   0.216   3.780
 5486SOL    HW217358   0.836   0.252   3.622
 5487SOL     OW17359   4.380   5.453   1.639
 5487SOL    HW117360   4.308   5.512   1.602
 5487SOL    HW217361   4.411   5.488   1.727
 5488SOL     OW17362   5.353   1.254   5.841
 5488SOL    HW117363   5.320   1.348   5.853
 5488SOL    HW217364   5.439   1.243   5.891
 5489SOL     OW17365   6.827   3.898   2.119
 5489SOL    HW117366   6.837   3.936   2.027
 5489SOL    HW217367   6.763   3.953   2.172
 5490SOL     OW17368   3.095   2.205   6.225
 5490SOL    HW117369   3.065   2.200   6.130
 5490SOL    HW217370   3.148   2.123   6.248
 5491SOL     OW17371   0.018   5.537   2.678
 5491SOL    HW117372   0.044   5.560   2.772
 5491SOL    HW217373   0.031   5.439   2.663
 5492SOL     OW17374   0.779   1.372   4.735
 5492SOL    HW117375   0.760   1.468   4.712
 5492SOL    HW217376   0.755   1.314   4.658
 5493SOL     OW17377   3.477   1.917   0.781
 5493SOL    HW117378   3.493   1.914   0.682
 5493SOL    HW217379   3.553   1.873   0.828
 5494SOL     OW17380   6.038   3.156   2.788
 5494SOL    HW117381   5.940   3.160   2.772
 5494SOL    HW217382   6.061   3.208   2.870
 5495SOL     OW17383   3.896   3.137   4.079
 5495SOL    HW117384   3.929   3.091   4.162
 5495SOL    HW217385   3.883   3.070   4.006
 5496SOL     OW17386   5.407   5.482   1.991
 5496SOL    HW117387   5.318   5.488   2.038
 5496SOL    HW217388   5.455   5.569   2.001
 5497SOL     OW17389   5.603   0.617   1.115
 5497SOL    HW117390   5.647   0.529   1.093
 5497SOL    HW217391   5.601   0.674   1.033
 5498SOL     OW17392   4.676   1.044   4.817
 5498SOL    HW117393   4.628   1.079   4.737
 5498SOL    HW217394   4.610   1.004   4.881
 5499SOL     OW17395   0.653   0.963   5.454
 5499SOL    HW117396   0.615   0.920   5.372
 5499SOL    HW217397   0.720   1.033   5.427
 5500SOL     OW17398   1.618   6.597   1.114
 5500SOL    HW117399   1.568   6.543   1.045
 5500SOL    HW217400   1.677   6.537   1.167
 5501SOL     OW17401   2.952   0.887   2.564
 5501SOL    HW117402   2.918   0.981   2.563
 5501SOL    HW217403   3.009   0.871   2.484
 5502SOL     OW17404   4.502   3.421   0.296
 5502SOL    HW117405   4.535   3.480   0.223
 5502SOL    HW217406   4.470   3.478   0.372
 5503SOL     OW17407   6.862   6.631   4.177
 5503SOL    HW117408   6.870   6.535   4.201
 5503SOL    HW217409   6.944   6.661   4.128
 5504SOL     OW17410   2.837   2.161   4.317
 5504SOL    HW117411   2.831   2.223   4.238
 5504SOL    HW217412   2.874   2.211   4.395
 5505SOL     OW17413   3.596   4.670   0.228
 5505SOL    HW117414   3.538   4.751   0.226
 5505SOL    HW217415   3.692   4.698   0.230
 5506SOL     OW17416   0.053   6.668   5.697
 5506SOL    HW117417   7.016   6.613   5.754
 5506SOL    HW217418   0.141   6.620   5.687
 5507SOL     OW17419   3.228   5.344   5.299
 5507SOL    HW117420   3.281   5.362   5.216
 5507SOL    HW217421   3.218   5.245   5.311
 5508SOL     OW17422   1.195   0.993   5.515
 5508SOL    HW117423   1.241   1.048   5.584
 5508SOL    HW217424   1.263   0.951   5.455
 5509SOL     OW17425   6.441   0.390   6.453
 5509SOL    HW117426   6.465   0.327   6.526
 5509SOL    HW217427   6.458   0.347   6.364
 5510SOL     OW17428   6.551   0.966   6.277
 5510SOL    HW117429   6.488   0.891   6.295
 5510SOL    HW217430   6.547   0.991   6.180
 5511SOL     OW17431   6.780   2.989   1.603
 5511SOL    HW117432   6.807   3.048   1.527
 5511SOL    HW217433   6.681   2.977   1.603
 5512SOL     OW17434   0.191   0.430   0.206
 5512SOL    HW117435   0.190   0.472   0.297
 5512SOL    HW217436   0.262   0.360   0.202
 5513SOL     OW17437   2.804   6.388   5.187
 5513SOL    HW117438   2.846   6.335   5.114
 5513SOL    HW217439   2.720   6.342   5.217
 5514SOL     OW17440   6.090   5.561   3.939
 5514SOL    HW117441   6.145   5.478   3.938
 5514SOL    HW217442   6.120   5.620   4.015
 5515SOL     OW17443   6.852   3.489   2.910
 5515SOL    HW117444   6.915   3.459   2.982
 5515SOL    HW217445   6.885   3.575   2.872
 5516SOL     OW17446   1.083   2.191   6.700
 5516SOL    HW117447   1.101   2.286   6.728
 5516SOL    HW217448   1.001   2.188   6.643
 5517SOL     OW17449   2.590   1.043   1.927
 5517SOL    HW117450   2.666   1.072   1.985
 5517SOL    HW217451   2.503   1.069   1.970
 5518SOL     OW17452   5.469   4.325   5.298
 5518SOL    HW117453   5.424   4.369   5.375
 5518SOL    HW217454   5.403   4.313   5.224
 5519SOL     OW17455   5.280   3.734   2.996
 5519SOL    HW117456   5.235   3.648   2.971
 5519SOL    HW217457   5.377   3.716   3.017
 5520SOL     OW17458   2.024   2.777   0.819
 5520SOL    HW117459   2.123   2.783   0.801
 5520SOL    HW217460   2.007   2.704   0.885
 5521SOL     OW17461   5.137   5.397   0.205
 5521SOL    HW117462   5.056   5.343   0.229
 5521SOL    HW217463   5.112   5.466   0.137
 5522SOL     OW17464   2.065   2.822   1.790
 5522SOL    HW117465   2.065   2.893   1.860
 5522SOL    HW217466   2.042   2.734   1.831
 5523SOL     OW17467   3.640   0.694   1.798
 5523SOL    HW117468   3.653   0.630   1.874
 5523SOL    HW217469   3.542   0.709   1.784
 5524SOL     OW17470   5.829   5.984   5.622
 5524SOL    HW117471   5.830   6.020   5.529
 5524SOL    HW217472   5.908   6.018   5.672
 5525SOL     OW17473   6.624   5.564   3.791
 5525SOL    HW117474   6.649   5.467   3.795
 5525SOL    HW217475   6.654   5.610   3.875
 5526SOL     OW17476   5.265   3.046   4.689
 5526SOL    HW117477   5.224   3.116   4.747
 5526SOL    HW217478   5.325   3.089   4.622
 5527SOL     OW17479   2.100   3.538   6.972
 5527SOL    HW117480   2.092   3.618   6.912
 5527SOL    HW217481   2.012   3.522   7.017
 5528SOL     OW17482   6.365   3.369   2.742
 5528SOL    HW117483   6.453   3.388   2.785
 5528SOL    HW217484   6.315   3.455   2.729
 5529SOL     OW17485   1.160   0.785   3.973
 5529SOL    HW117486   1.149   0.884   3.984
 5529SOL    HW217487   1.180   0.743   4.061
 5530SOL     OW17488   6.858   3.290   6.940
 5530SOL    HW117489   6.925   3.242   6.997
 5530SOL    HW217490   6.905   3.335   6.864
 5531SOL     OW17491   2.256   3.146   6.842
 5531SOL    HW117492   2.165   3.105   6.854
 5531SOL    HW217493   2.318   3.078   6.802
 5532SOL     OW17494   2.149   2.224   1.049
 5532SOL    HW117495   2.054   2.197   1.063
 5532SOL    HW217496   2.191   2.246   1.137
 5533SOL     OW17497   3.495   0.383   0.478
 5533SOL    HW117498   3.425   0.438   0.432
 5533SOL    HW217499   3.544   0.328   0.409
 5534SOL     OW17500   0.372   4.543   5.098
 5534SOL    HW117501   0.471   4.552   5.105
 5534SOL    HW217502   0.336   4.616   5.039
 5535SOL     OW17503   6.331   3.453   3.485
 5535SOL    HW117504   6.387   3.372   3.503
 5535SOL    HW217505   6.246   3.447   3.537
 5536SOL     OW17506   3.095   0.613   4.081
 5536SOL    HW117507   3.133   0.528   4.046
 5536SOL    HW217508   3.103   0.685   4.011
 5537SOL     OW17509   4.098   1.314   5.143
 5537SOL    HW117510   4.048   1.236   5.104
 5537SOL    HW217511   4.062   1.399   5.106
 5538SOL     OW17512   5.497   2.268   2.610
 5538SOL    HW117513   5.408   2.240   2.573
 5538SOL    HW217514   5.546   2.321   2.541
 5539SOL     OW17515   2.502   0.049   6.983
 5539SOL    HW117516   2.433   0.120   6.996
 5539SOL    HW217517   2.561   0.074   6.906
 5540SOL     OW17518   5.376   0.220   5.707
 5540SOL    HW117519   5.292   0.222   5.653
 5540SOL    HW217520   5.447   0.274   5.662
 5541SOL     OW17521   4.601   3.474   0.017
 5541SOL    HW117522   4.587   3.377   7.021
 5541SOL    HW217523   4.680   3.509   6.991
 5542SOL     OW17524   4.503   4.673   0.239
 5542SOL    HW117525   4.586   4.653   0.290
 5542SOL    HW217526   4.526   4.696   0.145
 5543SOL     OW17527   1.358   0.632   6.250
 5543SOL    HW117528   1.355   0.732   6.246
 5543SOL    HW217529   1.267   0.597   6.276
 5544SOL     OW17530   3.856   5.188   1.012
 5544SOL    HW117531   3.863   5.268   0.952
 5544SOL    HW217532   3.805   5.116   0.965
 5545SOL     OW17533   5.009   0.924   3.741
 5545SOL    HW117534   5.042   0.978   3.664
 5545SOL    HW217535   5.073   0.932   3.817
 5546SOL     OW17536   0.331   5.089   4.189
 5546SOL    HW117537   0.367   5.123   4.277
 5546SOL    HW217538   0.407   5.070   4.128
 5547SOL     OW17539   4.853   2.365   4.840
 5547SOL    HW117540   4.916   2.443   4.837
 5547SOL    HW217541   4.877   2.301   4.768
 5548SOL     OW17542   0.634   4.572   5.109
 5548SOL    HW117543   0.684   4.637   5.052
 5548SOL    HW217544   0.675   4.569   5.200
 5549SOL     OW17545   3.817   3.002   0.638
 5549SOL    HW117546   3.784   2.947   0.714
 5549SOL    HW217547   3.750   3.072   0.616
 5550SOL     OW17548   2.519   4.276   1.711
 5550SOL    HW117549   2.452   4.350   1.718
 5550SOL    HW217550   2.471   4.188   1.708
 5551SOL     OW17551   2.268   4.988   2.649
 5551SOL    HW117552   2.313   4.914   2.698
 5551SOL    HW217553   2.332   5.029   2.584
 5552SOL     OW17554   1.041   0.164   0.433
 5552SOL    HW117555   0.971   0.229   0.403
 5552SOL    HW217556   1.055   0.095   0.362
 5553SOL     OW17557   5.224   0.329   0.160
 5553SOL    HW117558   5.169   0.397   0.111
 5553SOL    HW217559   5.311   0.315   0.112
 5554SOL     OW17560   6.768   2.043   1.399
 5554SOL    HW117561   6.721   2.132   1.394
 5554SOL    HW217562   6.753   1.994   1.313
 5555SOL     OW17563   1.233   4.921   2.595
 5555SOL    HW117564   1.208   4.825   2.608
 5555SOL    HW217565   1.289   4.952   2.672
 5556SOL     OW17566   7.013   0.963   4.553
 5556SOL    HW117567   6.979   0.909   4.476
 5556SOL    HW217568   0.074   0.923   4.585
 5557SOL     OW17569   3.720   6.150   3.213
 5557SOL    HW117570   3.810   6.188   3.232
 5557SOL    HW217571   3.676   6.123   3.299
 5558SOL     OW17572   4.338   4.213   0.206
 5558SOL    HW117573   4.277   4.287   0.179
 5558SOL    HW217574   4.430   4.249   0.222
 5559SOL     OW17575   3.454   0.916   2.526
 5559SOL    HW117576   3.546   0.954   2.537
 5559SOL    HW217577   3.451   0.824   2.566
 5560SOL     OW17578   0.421   5.323   3.431
 5560SOL    HW117579   0.368   5.266   3.494
 5560SOL    HW217580   0.386   5.416   3.434
 5561SOL     OW17581   3.634   6.749   3.027
 5561SOL    HW117582   3.593   6.808   3.095
 5561SOL    HW217583   3.583   6.756   2.941
 5562SOL     OW17584   3.658   3.816   0.944
 5562SOL    HW117585   3.755   3.799   0.928
 5562SOL    HW217586   3.604   3.747   0.895
 5563SOL     OW17587   2.495   4.754   2.243
 5563SOL    HW117588   2.588   4.769   2.208
 5563SOL    HW217589   2.438   4.715   2.171
 5564SOL     OW17590   4.864   0.019   6.364
 5564SOL    HW117591   4.865   6.962   6.423
 5564SOL    HW217592   4.912   0.094   6.411
 5565SOL     OW17593   3.643   1.389   6.404
 5565SOL    HW117594   3.584   1.316   6.371
 5565SOL    HW217595   3.695   1.427   6.327
 5566SOL     OW17596   1.449   4.217   6.030
 5566SOL    HW117597   1.495   4.146   5.976
 5566SOL    HW217598   1.475   4.307   5.994
 5567SOL     OW17599   0.442   4.642   0.486
 5567SOL    HW117600   0.364   4.579   0.484
 5567SOL    HW217601   0.433   4.709   0.413
 5568SOL     OW17602   5.030   4.536   1.344
 5568SOL    HW117603   5.022   4.626   1.304
 5568SOL    HW217604   5.028   4.543   1.444
 5569SOL     OW17605   2.383   2.658   2.658
 5569SOL    HW117606   2.396   2.653   2.757
 5569SOL    HW217607   2.406   2.569   2.617
 5570SOL     OW17608   6.851   3.652   1.869
 5570SOL    HW117609   6.828   3.637   1.965
 5570SOL    HW217610   6.849   3.750   1.848
 5571SOL     OW17611   6.725   4.808   1.231
 5571SOL    HW117612   6.677   4.730   1.193
 5571SOL    HW217613   6.797   4.776   1.292
 5572SOL     OW17614   1.849   3.891   5.044
 5572SOL    HW117615   1.836   3.796   5.073
 5572SOL    HW217616   1.936   3.925   5.081
 5573SOL     OW17617   3.204   4.903   3.569
 5573SOL    HW117618   3.252   4.902   3.657
 5573SOL    HW217619   3.271   4.899   3.495
 5574SOL     OW17620   0.476   2.272   5.064
 5574SOL    HW117621   0.409   2.198   5.061
 5574SOL    HW217622   0.475   2.320   4.976
 5575SOL     OW17623   6.898   0.023   1.531
 5575SOL    HW117624   6.935   0.085   1.600
 5575SOL    HW217625   6.910   6.953   1.561
 5576SOL     OW17626   1.416   5.306   2.723
 5576SOL    HW117627   1.327   5.272   2.752
 5576SOL    HW217628   1.486   5.280   2.790
 5577SOL     OW17629   2.019   2.374   6.003
 5577SOL    HW117630   1.949   2.434   6.041
 5577SOL    HW217631   1.995   2.352   5.908
 5578SOL     OW17632   3.109   4.040   3.361
 5578SOL    HW117633   3.099   4.053   3.459
 5578SOL    HW217634   3.029   3.991   3.325
 5579SOL     OW17635   6.714   2.679   2.108
 5579SOL    HW117636   6.732   2.764   2.157
 5579SOL    HW217637   6.731   2.692   2.010
 5580SOL     OW17638   5.655   2.386   5.502
 5580SOL    HW117639   5.632   2.427   5.591
 5580SOL    HW217640   5.711   2.450   5.449
 5581SOL     OW17641   1.420   2.592   6.556
 5581SOL    HW117642   1.477   2.663   6.599
 5581SOL    HW217643   1.471   2.551   6.480
 5582SOL     OW17644   2.856   2.802   6.017
 5582SOL    HW117645   2.841   2.710   6.054
 5582SOL    HW217646   2.800   2.813   5.934
 5583SOL     OW17647   5.422   0.019   1.104
 5583SOL    HW117648   5.410   0.111   1.067
 5583SOL    HW217649   5.342   6.988   1.082
 5584SOL     OW17650   1.854   3.371   4.200
 5584SOL    HW117651   1.786   3.324   4.256
 5584SOL    HW217652   1.830   3.362   4.104
 5585SOL     OW17653   5.262   5.269   1.839
 5585SOL    HW117654   5.265   5.175   1.875
 5585SOL    HW217655   5.340   5.320   1.873
 5586SOL     OW17656   0.476   4.623   0.126
 5586SOL    HW117657   0.441   4.696   0.185
 5586SOL    HW217658   0.510   4.548   0.183
 5587SOL     OW17659   6.302   0.858   5.906
 5587SOL    HW117660   6.240   0.780   5.920
 5587SOL    HW217661   6.391   0.838   5.947
 5588SOL     OW17662   3.730   6.661   0.983
 5588SOL    HW117663   3.765   6.726   1.051
 5588SOL    HW217664   3.763   6.569   1.004
 5589SOL     OW17665   5.948   4.735   6.059
 5589SOL    HW117666   5.955   4.826   6.101
 5589SOL    HW217667   5.891   4.676   6.117
 5590SOL     OW17668   6.404   5.267   3.359
 5590SOL    HW117669   6.405   5.256   3.260
 5590SOL    HW217670   6.475   5.208   3.400
 5591SOL     OW17671   5.503   0.934   1.818
 5591SOL    HW117672   5.470   0.857   1.873
 5591SOL    HW217673   5.564   0.991   1.873
 5592SOL     OW17674   0.669   4.155   3.009
 5592SOL    HW117675   0.763   4.151   3.041
 5592SOL    HW217676   0.663   4.116   2.917
 5593SOL     OW17677   0.208   3.820   0.237
 5593SOL    HW117678   0.197   3.768   0.321
 5593SOL    HW217679   0.286   3.784   0.185
 5594SOL     OW17680   6.334   2.271   6.211
 5594SOL    HW117681   6.389   2.218   6.146
 5594SOL    HW217682   6.328   2.366   6.180
 5595SOL     OW17683   1.199   2.459   6.476
 5595SOL    HW117684   1.133   2.475   6.550
 5595SOL    HW217685   1.279   2.518   6.489
 5596SOL     OW17686   3.049   5.981   3.190
 5596SOL    HW117687   2.963   6.030   3.175
 5596SOL    HW217688   3.064   5.969   3.288
 5597SOL     OW17689   5.078   3.281   2.735
 5597SOL    HW117690   5.003   3.242   2.788
 5597SOL    HW217691   5.079   3.241   2.643
 5598SOL     OW17692   5.192   1.731   5.473
 5598SOL    HW117693   5.265   1.722   5.405
 5598SOL    HW217694   5.151   1.822   5.465
 5599SOL     OW17695   1.226   0.409   3.391
 5599SOL    HW117696   1.249   0.318   3.355
 5599SOL    HW217697   1.211   0.472   3.315
 5600SOL     OW17698   1.924   2.604   5.038
 5600SOL    HW117699   1.826   2.600   5.016
 5600SOL    HW217700   1.977   2.614   4.954
 5601SOL     OW17701   2.419   0.623   6.076
 5601SOL    HW117702   2.441   0.602   6.172
 5601SOL    HW217703   2.488   0.684   6.038
 5602SOL     OW17704   1.743   0.908   0.120
 5602SOL    HW117705   1.831   0.955   0.134
 5602SOL    HW217706   1.702   0.887   0.209
 5603SOL     OW17707   5.853   5.282   5.957
 5603SOL    HW117708   5.795   5.296   5.878
 5603SOL    HW217709   5.797   5.270   6.039
 5604SOL     OW17710   6.172   1.374   5.997
 5604SOL    HW117711   6.224   1.291   5.976
 5604SOL    HW217712   6.077   1.350   6.018
 5605SOL     OW17713   1.612   2.368   6.274
 5605SOL    HW117714   1.574   2.323   6.354
 5605SOL    HW217715   1.584   2.464   6.274
 5606SOL     OW17716   5.618   0.344   2.926
 5606SOL    HW117717   5.573   0.289   2.857
 5606SOL    HW217718   5.716   0.349   2.907
 5607SOL     OW17719   5.867   0.550   1.309
 5607SOL    HW117720   5.894   0.550   1.406
 5607SOL    HW217721   5.859   0.645   1.278
 5608SOL     OW17722   4.121   6.392   5.217
 5608SOL    HW117723   4.095   6.303   5.253
 5608SOL    HW217724   4.088   6.464   5.278
 5609SOL     OW17725   1.533   5.373   5.154
 5609SOL    HW117726   1.592   5.353   5.232
 5609SOL    HW217727   1.521   5.472   5.146
 5610SOL     OW17728   4.877   0.369   6.571
 5610SOL    HW117729   4.834   0.435   6.509
 5610SOL    HW217730   4.950   0.321   6.522
 5611SOL     OW17731   1.950   4.412   3.714
 5611SOL    HW117732   1.894   4.474   3.659
 5611SOL    HW217733   1.970   4.454   3.802
 5612SOL     OW17734   2.844   0.172   5.366
 5612SOL    HW117735   2.780   0.096   5.376
 5612SOL    HW217736   2.869   0.183   5.270
 5613SOL     OW17737   3.886   5.303   1.852
 5613SOL    HW117738   3.861   5.287   1.948
 5613SOL    HW217739   3.807   5.290   1.794
 5614SOL     OW17740   4.878   2.353   3.593
 5614SOL    HW117741   4.959   2.384   3.643
 5614SOL    HW217742   4.798   2.359   3.652
 5615SOL     OW17743   1.577   1.618   1.236
 5615SOL    HW117744   1.480   1.598   1.232
 5615SOL    HW217745   1.628   1.545   1.188
 5616SOL     OW17746   2.285   0.111   4.401
 5616SOL    HW117747   2.351   0.054   4.450
 5616SOL    HW217748   2.296   0.206   4.430
 5617SOL     OW17749   0.624   0.689   5.135
 5617SOL    HW117750   0.572   0.656   5.214
 5617SOL    HW217751   0.716   0.714   5.165
 5618SOL     OW17752   6.860   4.281   2.740
 5618SOL    HW117753   6.802   4.294   2.820
 5618SOL    HW217754   6.865   4.366   2.688
 5619SOL     OW17755   2.105   3.892   4.812
 5619SOL    HW117756   2.145   3.968   4.862
 5619SOL    HW217757   2.120   3.807   4.862
 5620SOL     OW17758   3.506   2.109   6.640
 5620SOL    HW117759   3.588   2.082   6.589
 5620SOL    HW217760   3.477   2.032   6.698
 5621SOL     OW17761   2.463   1.891   6.277
 5621SOL    HW117762   2.472   1.988   6.299
 5621SOL    HW217763   2.554   1.852   6.262
 5622SOL     OW17764   5.369   0.944   5.444
 5622SOL    HW117765   5.434   0.893   5.500
 5622SOL    HW217766   5.350   0.895   5.360
 5623SOL     OW17767   0.402   5.910   0.003
 5623SOL    HW117768   0.417   5.813   0.021
 5623SOL    HW217769   0.312   5.924   6.987
 5624SOL     OW17770   0.737   4.322   2.330
 5624SOL    HW117771   0.790   4.262   2.270
 5624SOL    HW217772   0.641   4.324   2.300
 5625SOL     OW17773   6.277   2.441   5.849
 5625SOL    HW117774   6.213   2.431   5.772
 5625SOL    HW217775   6.336   2.361   5.853
 5626SOL     OW17776   4.951   6.450   4.402
 5626SOL    HW117777   4.852   6.444   4.414
 5626SOL    HW217778   4.984   6.372   4.349
 5627SOL     OW17779   1.163   6.711   0.824
 5627SOL    HW117780   1.081   6.767   0.838
 5627SOL    HW217781   1.144   6.617   0.852
 5628SOL     OW17782   1.350   1.870   4.539
 5628SOL    HW117783   1.279   1.841   4.475
 5628SOL    HW217784   1.369   1.967   4.527
 5629SOL     OW17785   3.935   3.234   3.040
 5629SOL    HW117786   3.879   3.164   3.083
 5629SOL    HW217787   4.005   3.265   3.104
 5630SOL     OW17788   0.018   3.999   1.506
 5630SOL    HW117789   0.027   3.900   1.497
 5630SOL    HW217790   0.108   4.040   1.520
 5631SOL     OW17791   4.977   0.733   6.608
 5631SOL    HW117792   4.967   0.765   6.513
 5631SOL    HW217793   5.071   0.701   6.623
 5632SOL     OW17794   3.189   3.093   0.009
 5632SOL    HW117795   3.129   3.148   0.067
 5632SOL    HW217796   3.165   2.996   0.019
 5633SOL     OW17797   6.442   2.879   4.956
 5633SOL    HW117798   6.529   2.832   4.943
 5633SOL    HW217799   6.459   2.978   4.960
 5634SOL     OW17800   4.881   5.487   4.713
 5634SOL    HW117801   4.848   5.482   4.808
 5634SOL    HW217802   4.979   5.506   4.713
 5635SOL     OW17803   3.283   2.051   5.528
 5635SOL    HW117804   3.314   1.979   5.465
 5635SOL    HW217805   3.183   2.048   5.535
 5636SOL     OW17806   4.096   5.670   4.486
 5636SOL    HW117807   4.120   5.759   4.523
 5636SOL    HW217808   4.101   5.674   4.386
 5637SOL     OW17809   6.314   0.032   2.840
 5637SOL    HW117810   6.243   0.033   2.911
 5637SOL    HW217811   6.399   0.071   2.877
 5638SOL     OW17812   5.516   3.979   6.809
 5638SOL    HW117813   5.491   4.075   6.802
 5638SOL    HW217814   5.600   3.962   6.758
 5639SOL     OW17815   3.414   0.800   0.120
 5639SOL    HW117816   3.362   0.880   0.089
 5639SOL    HW217817   3.474   0.768   0.046
 5640SOL     OW17818   1.893   7.020   2.963
 5640SOL    HW117819   1.808   0.047   2.965
 5640SOL    HW217820   1.904   6.970   3.049
 5641SOL     OW17821   6.172   5.589   4.782
 5641SOL    HW117822   6.151   5.492   4.774
 5641SOL    HW217823   6.197   5.610   4.877
 5642SOL     OW17824   2.024   1.664   0.291
 5642SOL    HW117825   2.079   1.586   0.260
 5642SOL    HW217826   2.074   1.749   0.276
 5643SOL     OW17827   5.547   1.890   5.761
 5643SOL    HW117828   5.638   1.914   5.727
 5643SOL    HW217829   5.490   1.972   5.762
 5644SOL     OW17830   2.867   7.023   6.368
 5644SOL    HW117831   2.832   0.043   6.451
 5644SOL    HW217832   2.904   0.068   6.306
 5645SOL     OW17833   5.699   3.932   4.750
 5645SOL    HW117834   5.661   3.878   4.675
 5645SOL    HW217835   5.797   3.947   4.735
 5646SOL     OW17836   1.456   4.310   2.914
 5646SOL    HW117837   1.488   4.360   2.994
 5646SOL    HW217838   1.359   4.329   2.899
 5647SOL     OW17839   6.233   6.649   2.762
 5647SOL    HW117840   6.178   6.628   2.843
 5647SOL    HW217841   6.309   6.584   2.756
 5648SOL     OW17842   4.615   6.120   3.653
 5648SOL    HW117843   4.617   6.212   3.613
 5648SOL    HW217844   4.596   6.053   3.581
 5649SOL     OW17845   1.233   6.686   3.921
 5649SOL    HW117846   1.222   6.587   3.918
 5649SOL    HW217847   1.311   6.710   3.978
 5650SOL     OW17848   6.195   4.216   6.094
 5650SOL    HW117849   6.251   4.187   6.017
 5650SOL    HW217850   6.250   4.216   6.177
 5651SOL     OW17851   3.018   1.079   0.685
 5651SOL    HW117852   2.992   1.169   0.718
 5651SOL    HW217853   3.113   1.082   0.652
 5652SOL     OW17854   0.251   6.061   2.488
 5652SOL    HW117855   0.178   6.127   2.469
 5652SOL    HW217856   0.333   6.089   2.439
 5653SOL     OW17857   6.792   0.286   1.716
 5653SOL    HW117858   6.871   0.241   1.757
 5653SOL    HW217859   6.756   0.355   1.780
 5654SOL     OW17860   3.504   5.924   4.860
 5654SOL    HW117861   3.406   5.906   4.853
 5654SOL    HW217862   3.523   6.016   4.826
 5655SOL     OW17863   5.468   2.871   5.278
 5655SOL    HW117864   5.420   2.820   5.206
 5655SOL    HW217865   5.443   2.968   5.272
 5656SOL     OW17866   6.886   3.542   0.137
 5656SOL    HW117867   6.905   3.469   0.072
 5656SOL    HW217868   6.795   3.529   0.177
 5657SOL     OW17869   5.183   5.434   4.726
 5657SOL    HW117870   5.240   5.501   4.772
 5657SOL    HW217871   5.216   5.421   4.632
 5658SOL     OW17872   2.515   2.746   5.566
 5658SOL    HW117873   2.420   2.722   5.547
 5658SOL    HW217874   2.521   2.844   5.583
 5659SOL     OW17875   2.554   4.001   6.358
 5659SOL    HW117876   2.625   3.952   6.308
 5659SOL    HW217877   2.468   3.951   6.351
 5660SOL     OW17878   4.790   0.457   5.645
 5660SOL    HW117879   4.755   0.374   5.690
 5660SOL    HW217880   4.783   0.447   5.546
 5661SOL     OW17881   0.966   5.710   6.174
 5661SOL    HW117882   1.051   5.657   6.181
 5661SOL    HW217883   0.969   5.786   6.239
 5662SOL     OW17884   3.144   6.595   0.801
 5662SOL    HW117885   3.217   6.575   0.866
 5662SOL    HW217886   3.164   6.681   0.755
 5663SOL     OW17887   1.564   3.157   6.022
 5663SOL    HW117888   1.648   3.106   6.004
 5663SOL    HW217889   1.498   3.139   5.948
 5664SOL     OW17890   4.880   4.541   4.587
 5664SOL    HW117891   4.822   4.623   4.589
 5664SOL    HW217892   4.893   4.508   4.681
 5665SOL     OW17893   1.467   1.533   0.579
 5665SOL    HW117894   1.505   1.453   0.626
 5665SOL    HW217895   1.475   1.613   0.638
 5666SOL     OW17896   6.084   2.407   4.844
 5666SOL    HW117897   5.997   2.382   4.803
 5666SOL    HW217898   6.119   2.490   4.801
 5667SOL     OW17899   2.617   4.829   4.193
 5667SOL    HW117900   2.605   4.905   4.258
 5667SOL    HW217901   2.602   4.742   4.241
 5668SOL     OW17902   4.814   3.870   3.587
 5668SOL    HW117903   4.901   3.882   3.635
 5668SOL    HW217904   4.739   3.896   3.648
 5669SOL     OW17905   5.223   4.420   6.219
 5669SOL    HW117906   5.218   4.520   6.216
 5669SOL    HW217907   5.245   4.385   6.128
 5670SOL     OW17908   1.623   2.563   3.693
 5670SOL    HW117909   1.716   2.570   3.727
 5670SOL    HW217910   1.559   2.599   3.762
 5671SOL     OW17911   0.004   5.089   3.931
 5671SOL    HW117912   7.000   5.027   4.004
 5671SOL    HW217913   6.986   5.061   3.845
 5672SOL     OW17914   5.424   3.516   4.540
 5672SOL    HW117915   5.469   3.526   4.629
 5672SOL    HW217916   5.383   3.604   4.513
 5673SOL     OW17917   0.569   1.799   0.530
 5673SOL    HW117918   0.602   1.892   0.540
 5673SOL    HW217919   0.645   1.738   0.506
 5674SOL     OW17920   2.530   4.970   4.846
 5674SOL    HW117921   2.431   4.982   4.836
 5674SOL    HW217922   2.553   4.873   4.845
 5675SOL     OW17923   2.688   2.058   0.979
 5675SOL    HW117924   2.679   2.077   0.881
 5675SOL    HW217925   2.621   2.112   1.030
 5676SOL     OW17926   3.173   1.159   1.812
 5676SOL    HW117927   3.233   1.210   1.751
 5676SOL    HW217928   3.155   1.213   1.894
 5677SOL     OW17929   0.405   1.607   6.255
 5677SOL    HW117930   0.440   1.622   6.348
 5677SOL    HW217931   0.313   1.646   6.248
 5678SOL     OW17932   3.578   2.003   1.897
 5678SOL    HW117933   3.527   2.002   1.982
 5678SOL    HW217934   3.638   2.083   1.895
 5679SOL     OW17935   6.737   4.242   5.479
 5679SOL    HW117936   6.750   4.340   5.490
 5679SOL    HW217937   6.755   4.217   5.384
 5680SOL     OW17938   0.890   5.709   5.185
 5680SOL    HW117939   0.947   5.725   5.266
 5680SOL    HW217940   0.885   5.610   5.168
 5681SOL     OW17941   0.990   3.711   3.734
 5681SOL    HW117942   0.953   3.619   3.721
 5681SOL    HW217943   1.085   3.713   3.704
 5682SOL     OW17944   1.914   4.271   0.966
 5682SOL    HW117945   1.816   4.290   0.977
 5682SOL    HW217946   1.945   4.310   0.879
 5683SOL     OW17947   6.465   0.577   6.060
 5683SOL    HW117948   6.377   0.590   6.106
 5683SOL    HW217949   6.452   0.570   5.962
 5684SOL     OW17950   2.274   2.857   4.920
 5684SOL    HW117951   2.201   2.893   4.861
 5684SOL    HW217952   2.308   2.930   4.979
 5685SOL     OW17953   2.333   2.054   1.653
 5685SOL    HW117954   2.357   1.957   1.658
 5685SOL    HW217955   2.408   2.108   1.692
 5686SOL     OW17956   4.805   5.455   5.460
 5686SOL    HW117957   4.745   5.378   5.438
 5686SOL    HW217958   4.898   5.434   5.430
 5687SOL     OW17959   1.960   6.519   6.414
 5687SOL    HW117960   1.979   6.550   6.507
 5687SOL    HW217961   1.925   6.425   6.416
 5688SOL     OW17962   1.961   2.043   3.053
 5688SOL    HW117963   2.041   2.101   3.063
 5688SOL    HW217964   1.908   2.072   2.974
 5689SOL     OW17965   0.413   2.458   1.127
 5689SOL    HW117966   0.424   2.414   1.215
 5689SOL    HW217967   0.317   2.483   1.113
 5690SOL     OW17968   2.534   4.892   6.686
 5690SOL    HW117969   2.460   4.850   6.739
 5690SOL    HW217970   2.620   4.884   6.737
 5691SOL     OW17971   4.436   2.025   2.865
 5691SOL    HW117972   4.481   1.988   2.946
 5691SOL    HW217973   4.427   1.954   2.796
 5692SOL     OW17974   6.341   4.423   1.802
 5692SOL    HW117975   6.310   4.472   1.883
 5692SOL    HW217976   6.295   4.334   1.797
 5693SOL     OW17977   4.013   0.237   1.999
 5693SOL    HW117978   4.011   0.295   1.918
 5693SOL    HW217979   4.051   0.148   1.976
 5694SOL     OW17980   1.018   0.285   1.442
 5694SOL    HW117981   0.946   0.347   1.472
 5694SOL    HW217982   1.095   0.291   1.506
 5695SOL     OW17983   2.770   1.451   1.925
 5695SOL    HW117984   2.824   1.368   1.914
 5695SOL    HW217985   2.673   1.428   1.927
 5696SOL     OW17986   0.625   0.346   3.969
 5696SOL    HW117987   0.544   0.288   3.973
 5696SOL    HW217988   0.707   0.289   3.960
 5697SOL     OW17989   6.678   2.001   7.006
 5697SOL    HW117990   6.719   2.091   7.022
 5697SOL    HW217991   6.732   1.931   0.028
 5698SOL     OW17992   3.231   2.040   4.423
 5698SOL    HW117993   3.231   1.974   4.348
 5698SOL    HW217994   3.137   2.071   4.439
 5699SOL     OW17995   2.128   2.865   2.249
 5699SOL    HW117996   2.204   2.831   2.304
 5699SOL    HW217997   2.077   2.933   2.302
 5700SOL     OW17998   6.546   0.349   2.755
 5700SOL    HW117999   6.505   0.428   2.710
 5700SOL    HW218000   6.567   0.371   2.850
 5701SOL     OW18001   1.112   0.549   0.583
 5701SOL    HW118002   1.211   0.561   0.591
 5701SOL    HW218003   1.090   0.452   0.591
 5702SOL     OW18004   2.202   0.039   4.744
 5702SOL    HW118005   2.117   0.055   4.695
 5702SOL    HW218006   2.194   0.075   4.837
 5703SOL     OW18007   0.056   3.210   6.012
 5703SOL    HW118008   6.994   3.160   6.012
 5703SOL    HW218009   0.132   3.146   6.015
 5704SOL     OW18010   3.869   5.063   4.044
 5704SOL    HW118011   3.856   4.987   4.108
 5704SOL    HW218012   3.817   5.045   3.960
 5705SOL     OW18013   6.146   0.581   5.690
 5705SOL    HW118014   6.098   0.642   5.754
 5705SOL    HW218015   6.088   0.562   5.611
 5706SOL     OW18016   4.994   2.041   1.334
 5706SOL    HW118017   4.932   2.110   1.297
 5706SOL    HW218018   5.088   2.062   1.307
 5707SOL     OW18019   6.152   5.225   1.192
 5707SOL    HW118020   6.220   5.296   1.205
 5707SOL    HW218021   6.138   5.175   1.278
 5708SOL     OW18022   5.153   6.249   2.410
 5708SOL    HW118023   5.199   6.334   2.388
 5708SOL    HW218024   5.192   6.174   2.356
 5709SOL     OW18025   6.849   2.341   2.524
 5709SOL    HW118026   6.818   2.274   2.591
 5709SOL    HW218027   6.919   2.399   2.564
 5710SOL     OW18028   4.707   1.588   0.222
 5710SOL    HW118029   4.795   1.627   0.250
 5710SOL    HW218030   4.642   1.596   0.297
 5711SOL     OW18031   4.971   1.705   2.754
 5711SOL    HW118032   4.899   1.764   2.791
 5711SOL    HW218033   4.991   1.733   2.660
 5712SOL     OW18034   6.072   5.986   0.247
 5712SOL    HW118035   5.982   5.980   0.203
 5712SOL    HW218036   6.110   6.077   0.234
 5713SOL     OW18037   1.474   1.016   0.280
 5713SOL    HW118038   1.396   1.065   0.242
 5713SOL    HW218039   1.451   0.919   0.288
 5714SOL     OW18040   6.484   0.165   0.322
 5714SOL    HW118041   6.387   0.174   0.343
 5714SOL    HW218042   6.538   0.179   0.405
 5715SOL     OW18043   0.234   6.989   1.905
 5715SOL    HW118044   0.282   6.998   1.993
 5715SOL    HW218045   0.280   6.922   1.848
 5716SOL     OW18046   6.822   4.494   5.600
 5716SOL    HW118047   6.871   4.492   5.688
 5716SOL    HW218048   6.889   4.500   5.525
 5717SOL     OW18049   0.686   5.379   3.487
 5717SOL    HW118050   0.599   5.338   3.459
 5717SOL    HW218051   0.703   5.359   3.583
 5718SOL     OW18052   1.094   3.714   6.779
 5718SOL    HW118053   1.102   3.664   6.865
 5718SOL    HW218054   1.157   3.675   6.712
 5719SOL     OW18055   2.778   3.486   0.589
 5719SOL    HW118056   2.850   3.418   0.597
 5719SOL    HW218057   2.799   3.548   0.514
 5720SOL     OW18058   2.800   4.787   5.813
 5720SOL    HW118059   2.724   4.793   5.749
 5720SOL    HW218060   2.867   4.859   5.793
 5721SOL     OW18061   2.021   3.021   6.930
 5721SOL    HW118062   2.013   2.928   6.967
 5721SOL    HW218063   1.935   3.069   6.943
 5722SOL     OW18064   1.117   0.185   6.814
 5722SOL    HW118065   1.135   0.105   6.870
 5722SOL    HW218066   1.204   0.227   6.788
 5723SOL     OW18067   4.004   3.281   0.777
 5723SOL    HW118068   3.961   3.371   0.765
 5723SOL    HW218069   3.945   3.222   0.832
 5724SOL     OW18070   5.605   2.165   6.004
 5724SOL    HW118071   5.592   2.113   6.089
 5724SOL    HW218072   5.700   2.157   5.975
 5725SOL     OW18073   0.210   4.742   4.832
 5725SOL    HW118074   0.111   4.743   4.828
 5725SOL    HW218075   0.247   4.744   4.739
 5726SOL     OW18076   5.276   4.176   2.297
 5726SOL    HW118077   5.369   4.145   2.274
 5726SOL    HW218078   5.228   4.200   2.213
 5727SOL     OW18079   1.303   2.818   5.088
 5727SOL    HW118080   1.224   2.776   5.131
 5727SOL    HW218081   1.285   2.915   5.071
 5728SOL     OW18082   3.898   6.715   5.106
 5728SOL    HW118083   3.905   6.617   5.092
 5728SOL    HW218084   3.858   6.733   5.196
 5729SOL     OW18085   2.896   1.911   4.972
 5729SOL    HW118086   2.938   1.895   4.883
 5729SOL    HW218087   2.945   1.983   5.020
 5730SOL     OW18088   6.635   4.119   4.754
 5730SOL    HW118089   6.552   4.108   4.699
 5730SOL    HW218090   6.710   4.067   4.712
 5731SOL     OW18091   0.509   6.819   2.697
 5731SOL    HW118092   0.462   6.895   2.741
 5731SOL    HW218093   0.606   6.841   2.686
 5732SOL     OW18094   0.338   0.639   3.413
 5732SOL    HW118095   0.313   0.654   3.318
 5732SOL    HW218096   0.340   0.727   3.462
 5733SOL     OW18097   3.116   0.648   4.854
 5733SOL    HW118098   3.072   0.693   4.776
 5733SOL    HW218099   3.089   0.695   4.938
 5734SOL     OW18100   1.846   6.695   3.564
 5734SOL    HW118101   1.824   6.607   3.523
 5734SOL    HW218102   1.771   6.759   3.547
 5735SOL     OW18103   3.126   0.669   1.364
 5735SOL    HW118104   3.059   0.735   1.399
 5735SOL    HW218105   3.211   0.717   1.341
 5736SOL     OW18106   1.677   5.484   0.516
 5736SOL    HW118107   1.604   5.545   0.547
 5736SOL    HW218108   1.698   5.418   0.588
 5737SOL     OW18109   5.509   3.821   0.129
 5737SOL    HW118110   5.499   3.830   0.228
 5737SOL    HW218111   5.580   3.884   0.098
 5738SOL     OW18112   1.018   4.542   4.835
 5738SOL    HW118113   1.092   4.512   4.897
 5738SOL    HW218114   1.034   4.505   4.744
 5739SOL     OW18115   0.605   2.689   1.449
 5739SOL    HW118116   0.523   2.706   1.395
 5739SOL    HW218117   0.639   2.597   1.431
 5740SOL     OW18118   3.667   5.199   0.074
 5740SOL    HW118119   3.600   5.219   0.003
 5740SOL    HW218120   3.643   5.247   0.158
 5741SOL     OW18121   0.261   3.840   1.752
 5741SOL    HW118122   0.258   3.911   1.822
 5741SOL    HW218123   0.333   3.774   1.774
 5742SOL     OW18124   0.306   5.609   4.486
 5742SOL    HW118125   0.390   5.591   4.434
 5742SOL    HW218126   0.266   5.522   4.514
 5743SOL     OW18127   2.067   6.225   4.671
 5743SOL    HW118128   2.130   6.299   4.693
 5743SOL    HW218129   2.014   6.201   4.752
 5744SOL     OW18130   5.980   0.206   1.565
 5744SOL    HW118131   5.976   0.293   1.615
 5744SOL    HW218132   5.970   0.130   1.629
 5745SOL     OW18133   1.546   2.721   3.111
 5745SOL    HW118134   1.470   2.748   3.169
 5745SOL    HW218135   1.518   2.642   3.055
 5746SOL     OW18136   6.251   4.036   6.789
 5746SOL    HW118137   6.235   3.938   6.792
 5746SOL    HW218138   6.342   4.054   6.752
 5747SOL     OW18139   0.861   6.508   3.568
 5747SOL    HW118140   0.814   6.575   3.625
 5747SOL    HW218141   0.910   6.443   3.626
 5748SOL     OW18142   2.095   6.405   4.119
 5748SOL    HW118143   2.041   6.350   4.182
 5748SOL    HW218144   2.050   6.492   4.102
 5749SOL     OW18145   1.373   0.974   2.979
 5749SOL    HW118146   1.310   1.024   3.039
 5749SOL    HW218147   1.467   0.992   3.007
 5750SOL     OW18148   5.826   6.301   2.506
 5750SOL    HW118149   5.900   6.317   2.440
 5750SOL    HW218150   5.760   6.236   2.467
 5751SOL     OW18151   1.038   3.212   6.172
 5751SOL    HW118152   0.968   3.150   6.136
 5751SOL    HW218153   0.999   3.270   6.243
 5752SOL     OW18154   1.010   1.294   6.779
 5752SOL    HW118155   0.923   1.264   6.818
 5752SOL    HW218156   1.005   1.291   6.679
 5753SOL     OW18157   4.549   2.018   0.306
 5753SOL    HW118158   4.558   2.100   0.362
 5753SOL    HW218159   4.573   2.040   0.211
 5754SOL     OW18160   5.856   5.266   0.672
 5754SOL    HW118161   5.924   5.242   0.602
 5754SOL    HW218162   5.813   5.183   0.706
 5755SOL     OW18163   3.401   3.771   1.373
 5755SOL    HW118164   3.433   3.758   1.466
 5755SOL    HW218165   3.330   3.842   1.371
 5756SOL     OW18166   6.873   6.376   4.264
 5756SOL    HW118167   6.794   6.348   4.208
 5756SOL    HW218168   6.861   6.342   4.357
 5757SOL     OW18169   6.899   6.315   1.860
 5757SOL    HW118170   6.952   6.294   1.943
 5757SOL    HW218171   6.853   6.232   1.828
 5758SOL     OW18172   2.717   1.112   5.268
 5758SOL    HW118173   2.749   1.191   5.320
 5758SOL    HW218174   2.617   1.109   5.269
 5759SOL     OW18175   0.627   1.857   5.467
 5759SOL    HW118176   0.609   1.794   5.392
 5759SOL    HW218177   0.726   1.865   5.481
 5760SOL     OW18178   0.528   5.576   1.323
 5760SOL    HW118179   0.546   5.671   1.349
 5760SOL    HW218180   0.567   5.515   1.392
 5761SOL     OW18181   5.053   0.272   4.830
 5761SOL    HW118182   5.141   0.299   4.791
 5761SOL    HW218183   4.979   0.315   4.779
 5762SOL     OW18184   6.021   6.409   1.215
 5762SOL    HW118185   6.047   6.315   1.235
 5762SOL    HW218186   6.051   6.433   1.123
 5763SOL     OW18187   2.131   1.278   0.596
 5763SOL    HW118188   2.117   1.235   0.684
 5763SOL    HW218189   2.146   1.376   0.609
 5764SOL     OW18190   4.659   3.234   6.424
 5764SOL    HW118191   4.661   3.318   6.477
 5764SOL    HW218192   4.687   3.157   6.482
 5765SOL     OW18193   6.462   5.005   0.163
 5765SOL    HW118194   6.443   4.991   0.065
 5765SOL    HW218195   6.494   5.099   0.177
 5766SOL     OW18196   3.067   1.365   3.145
 5766SOL    HW118197   3.095   1.426   3.219
 5766SOL    HW218198   3.037   1.419   3.067
 5767SOL     OW18199   5.431   0.177   0.628
 5767SOL    HW118200   5.527   0.158   0.607
 5767SOL    HW218201   5.425   0.260   0.683
 5768SOL     OW18202   6.301   0.619   2.403
 5768SOL    HW118203   6.326   0.603   2.499
 5768SOL    HW218204   6.381   0.652   2.353
 5769SOL     OW18205   2.066   4.926   3.109
 5769SOL    HW118206   2.107   4.870   3.036
 5769SOL    HW218207   2.101   4.896   3.197
 5770SOL     OW18208   5.427   2.354   1.200
 5770SOL    HW118209   5.478   2.282   1.246
 5770SOL    HW218210   5.443   2.441   1.247
 5771SOL     OW18211   0.995   1.040   0.801
 5771SOL    HW118212   0.978   0.941   0.808
 5771SOL    HW218213   0.982   1.069   0.706
 5772SOL     OW18214   6.563   4.762   5.976
 5772SOL    HW118215   6.513   4.733   5.895
 5772SOL    HW218216   6.516   4.730   6.058
 5773SOL     OW18217   4.989   5.734   4.804
 5773SOL    HW118218   4.929   5.814   4.807
 5773SOL    HW218219   5.007   5.702   4.897
 5774SOL     OW18220   2.414   4.988   2.372
 5774SOL    HW118221   2.383   5.069   2.323
 5774SOL    HW218222   2.427   4.913   2.307
 5775SOL     OW18223   0.579   0.960   0.340
 5775SOL    HW118224   0.534   0.946   0.429
 5775SOL    HW218225   0.527   1.026   0.286
 5776SOL     OW18226   4.500   1.060   6.157
 5776SOL    HW118227   4.529   1.096   6.246
 5776SOL    HW218228   4.473   1.136   6.098
 5777SOL     OW18229   5.593   0.173   5.458
 5777SOL    HW118230   5.524   0.191   5.388
 5777SOL    HW218231   5.646   0.092   5.433
 5778SOL     OW18232   2.900   0.141   3.971
 5778SOL    HW118233   2.846   0.130   3.888
 5778SOL    HW218234   2.853   0.097   4.048
 5779SOL     OW18235   3.926   0.081   1.323
 5779SOL    HW118236   3.895   0.116   1.411
 5779SOL    HW218237   3.935   0.156   1.258
 5780SOL     OW18238   6.315   3.450   0.545
 5780SOL    HW118239   6.316   3.534   0.491
 5780SOL    HW218240   6.325   3.371   0.484
 5781SOL     OW18241   3.126   4.188   5.178
 5781SOL    HW118242   3.110   4.167   5.081
 5781SOL    HW218243   3.045   4.233   5.216
 5782SOL     OW18244   4.255   1.345   2.933
 5782SOL    HW118245   4.342   1.392   2.916
 5782SOL    HW218246   4.181   1.394   2.888
 5783SOL     OW18247   2.495   6.524   2.443
 5783SOL    HW118248   2.577   6.498   2.392
 5783SOL    HW218249   2.445   6.441   2.470
 5784SOL     OW18250   1.496   6.442   0.332
 5784SOL    HW118251   1.459   6.382   0.403
 5784SOL    HW218252   1.588   6.472   0.358
 5785SOL     OW18253   2.191   2.076   6.375
 5785SOL    HW118254   2.158   2.158   6.328
 5785SOL    HW218255   2.291   2.077   6.376
 5786SOL     OW18256   0.371   2.100   5.811
 5786SOL    HW118257   0.390   2.054   5.897
 5786SOL    HW218258   0.443   2.168   5.794
 5787SOL     OW18259   0.512   2.342   4.790
 5787SOL    HW118260   0.456   2.396   4.727
 5787SOL    HW218261   0.549   2.263   4.742
 5788SOL     OW18262   0.401   1.711   1.674
 5788SOL    HW118263   0.360   1.670   1.592
 5788SOL    HW218264   0.331   1.719   1.745
 5789SOL     OW18265   2.625   5.806   6.546
 5789SOL    HW118266   2.684   5.734   6.583
 5789SOL    HW218267   2.663   5.840   6.461
 5790SOL     OW18268   6.963   6.578   2.562
 5790SOL    HW118269   0.037   6.569   2.547
 5790SOL    HW218270   6.925   6.643   2.496
 5791SOL     OW18271   3.981   0.647   0.854
 5791SOL    HW118272   3.893   0.615   0.889
 5791SOL    HW218273   4.010   0.589   0.777
 5792SOL     OW18274   5.103   2.696   2.479
 5792SOL    HW118275   5.013   2.693   2.523
 5792SOL    HW218276   5.165   2.751   2.535
 5793SOL     OW18277   4.095   1.543   0.110
 5793SOL    HW118278   4.149   1.460   0.093
 5793SOL    HW218279   4.018   1.545   0.047
 5794SOL     OW18280   3.193   5.714   7.021
 5794SOL    HW118281   3.157   5.737   6.930
 5794SOL    HW218282   3.194   5.797   0.052
 5795SOL     OW18283   0.803   0.245   1.013
 5795SOL    HW118284   0.882   0.243   1.075
 5795SOL    HW218285   0.835   0.246   0.918
 5796SOL     OW18286   4.949   0.625   5.781
 5796SOL    HW118287   5.048   0.612   5.788
 5796SOL    HW218288   4.909   0.553   5.725
 5797SOL     OW18289   0.182   2.549   0.143
 5797SOL    HW118290   0.127   2.630   0.124
 5797SOL    HW218291   0.224   2.516   0.059
 5798SOL     OW18292   2.067   2.721   4.122
 5798SOL    HW118293   1.997   2.765   4.065
 5798SOL    HW218294   2.023   2.676   4.200
 5799SOL     OW18295   2.602   0.613   3.492
 5799SOL    HW118296   2.583   0.706   3.460
 5799SOL    HW218297   2.549   0.595   3.575
 5800SOL     OW18298   1.116   6.290   1.964
 5800SOL    HW118299   1.209   6.328   1.961
 5800SOL    HW218300   1.108   6.228   2.042
 5801SOL     OW18301   1.865   2.088   2.805
 5801SOL    HW118302   1.865   2.181   2.767
 5801SOL    HW218303   1.771   2.055   2.811
 5802SOL     OW18304   0.192   0.020   2.734
 5802SOL    HW118305   0.124   0.050   2.800
 5802SOL    HW218306   0.267   6.998   2.782
 5803SOL     OW18307   0.331   6.698   4.076
 5803SOL    HW118308   0.428   6.711   4.059
 5803SOL    HW218309   0.314   6.698   4.175
 5804SOL     OW18310   6.252   1.831   3.812
 5804SOL    HW118311   6.302   1.788   3.737
 5804SOL    HW218312   6.317   1.860   3.883
 5805SOL     OW18313   0.723   2.454   1.400
 5805SOL    HW118314   0.648   2.395   1.370
 5805SOL    HW218315   0.802   2.398   1.423
 5806SOL     OW18316   6.807   3.949   1.845
 5806SOL    HW118317   6.745   3.926   1.770
 5806SOL    HW218318   6.881   4.006   1.811
 5807SOL     OW18319   1.073   1.633   2.083
 5807SOL    HW118320   1.003   1.583   2.031
 5807SOL    HW218321   1.070   1.604   2.179
 5808SOL     OW18322   6.804   0.207   5.324
 5808SOL    HW118323   6.731   0.159   5.276
 5808SOL    HW218324   6.767   0.249   5.407
 5809SOL     OW18325   0.144   3.198   4.108
 5809SOL    HW118326   0.135   3.273   4.041
 5809SOL    HW218327   0.185   3.119   4.063
 5810SOL     OW18328   1.391   0.045   5.431
 5810SOL    HW118329   1.302   0.080   5.462
 5810SOL    HW218330   1.454   0.044   5.509
 5811SOL     OW18331   3.187   5.288   0.058
 5811SOL    HW118332   3.188   5.284   0.157
 5811SOL    HW218333   3.259   5.350   0.025
 5812SOL     OW18334   6.289   3.526   6.042
 5812SOL    HW118335   6.206   3.507   5.990
 5812SOL    HW218336   6.357   3.456   6.022
 5813SOL     OW18337   6.156   5.030   0.676
 5813SOL    HW118338   6.115   5.033   0.768
 5813SOL    HW218339   6.092   5.070   0.610
 5814SOL     OW18340   5.275   1.129   2.438
 5814SOL    HW118341   5.227   1.068   2.375
 5814SOL    HW218342   5.309   1.076   2.516
 5815SOL     OW18343   6.254   3.630   4.348
 5815SOL    HW118344   6.178   3.670   4.399
 5815SOL    HW218345   6.340   3.671   4.380
 5816SOL     OW18346   6.613   4.266   1.055
 5816SOL    HW118347   6.646   4.335   0.991
 5816SOL    HW218348   6.645   4.175   1.026
 5817SOL     OW18349   6.868   3.000   3.605
 5817SOL    HW118350   6.894   2.973   3.512
 5817SOL    HW218351   6.863   2.919   3.663
 5818SOL     OW18352   2.532   0.033   4.010
 5818SOL    HW118353   2.446   0.068   4.047
 5818SOL    HW218354   2.591   0.002   4.084
 5819SOL     OW18355   4.318   4.201   1.088
 5819SOL    HW118356   4.323   4.300   1.103
 5819SOL    HW218357   4.409   4.165   1.069
 5820SOL     OW18358   0.069   6.777   2.265
 5820SOL    HW118359   0.042   6.773   2.361
 5820SOL    HW218360   0.037   6.863   2.225
 5821SOL     OW18361   6.326   6.704   2.153
 5821SOL    HW118362   6.284   6.795   2.155
 5821SOL    HW218363   6.409   6.705   2.208
 5822SOL     OW18364   0.939   4.011   2.766
 5822SOL    HW118365   1.000   3.932   2.760
 5822SOL    HW218366   0.981   4.082   2.821
 5823SOL     OW18367   2.379   6.809   5.315
 5823SOL    HW118368   2.307   6.838   5.377
 5823SOL    HW218369   2.405   6.715   5.336
 5824SOL     OW18370   2.113   5.836   2.027
 5824SOL    HW118371   2.030   5.887   2.001
 5824SOL    HW218372   2.089   5.766   2.094
 5825SOL     OW18373   4.118   1.529   5.518
 5825SOL    HW118374   4.173   1.571   5.446
 5825SOL    HW218375   4.066   1.452   5.480
 5826SOL     OW18376   1.763   6.227   4.649
 5826SOL    HW118377   1.721   6.209   4.560
 5826SOL    HW218378   1.829   6.301   4.641
 5827SOL     OW18379   2.081   3.646   3.237
 5827SOL    HW118380   2.120   3.734   3.212
 5827SOL    HW218381   2.062   3.644   3.335
 5828SOL     OW18382   4.229   6.642   4.811
 5828SOL    HW118383   4.209   6.713   4.878
 5828SOL    HW218384   4.308   6.588   4.842
 5829SOL     OW18385   2.144   0.756   2.763
 5829SOL    HW118386   2.061   0.705   2.740
 5829SOL    HW218387   2.136   0.850   2.731
 5830SOL     OW18388   4.264   5.429   4.497
 5830SOL    HW118389   4.191   5.497   4.485
 5830SOL    HW218390   4.333   5.466   4.560
 5831SOL     OW18391   2.072   1.679   4.446
 5831SOL    HW118392   2.057   1.592   4.493
 5831SOL    HW218393   2.110   1.745   4.509
 5832SOL     OW18394   2.179   4.918   3.866
 5832SOL    HW118395   2.210   4.984   3.798
 5832SOL    HW218396   2.247   4.911   3.939
 5833SOL     OW18397   3.334   4.566   1.198
 5833SOL    HW118398   3.371   4.651   1.234
 5833SOL    HW218399   3.254   4.539   1.252
 5834SOL     OW18400   6.222   2.143   6.940
 5834SOL    HW118401   6.194   2.150   0.011
 5834SOL    HW218402   6.147   2.105   6.886
 5835SOL     OW18403   4.032   1.590   3.714
 5835SOL    HW118404   4.124   1.618   3.740
 5835SOL    HW218405   4.023   1.592   3.614
 5836SOL     OW18406   5.010   5.519   1.541
 5836SOL    HW118407   4.937   5.517   1.472
 5836SOL    HW218408   5.043   5.427   1.558
 5837SOL     OW18409   2.832   4.204   0.330
 5837SOL    HW118410   2.900   4.270   0.299
 5837SOL    HW218411   2.838   4.121   0.275
 5838SOL     OW18412   3.367   3.170   0.220
 5838SOL    HW118413   3.400   3.255   0.180
 5838SOL    HW218414   3.314   3.119   0.152
 5839SOL     OW18415   1.981   1.402   0.827
 5839SOL    HW118416   2.059   1.461   0.804
 5839SOL    HW218417   1.953   1.420   0.921
 5840SOL     OW18418   7.004   3.297   2.596
 5840SOL    HW118419   0.040   3.253   2.529
 5840SOL    HW218420   7.000   3.396   2.577
 5841SOL     OW18421   5.038   1.767   0.434
 5841SOL    HW118422   5.054   1.862   0.462
 5841SOL    HW218423   5.028   1.710   0.515
 5842SOL     OW18424   3.510   2.002   2.363
 5842SOL    HW118425   3.429   1.953   2.394
 5842SOL    HW218426   3.555   2.045   2.442
 5843SOL     OW18427   3.164   3.285   1.172
 5843SOL    HW118428   3.249   3.278   1.224
 5843SOL    HW218429   3.181   3.261   1.077
 5844SOL     OW18430   0.279   6.202   4.940
 5844SOL    HW118431   0.282   6.300   4.920
 5844SOL    HW218432   0.314   6.186   5.032
 5845SOL     OW18433   2.117   6.630   3.070
 5845SOL    HW118434   2.168   6.714   3.051
 5845SOL    HW218435   2.174   6.551   3.048
 5846SOL     OW18436   0.386   4.594   5.826
 5846SOL    HW118437   0.467   4.640   5.863
 5846SOL    HW218438   0.399   4.578   5.728
 5847SOL     OW18439   2.011   3.782   6.234
 5847SOL    HW118440   2.062   3.836   6.166
 5847SOL    HW218441   2.073   3.751   6.306
 5848SOL     OW18442   2.505   6.319   1.612
 5848SOL    HW118443   2.465   6.229   1.632
 5848SOL    HW218444   2.599   6.322   1.647
 5849SOL     OW18445   2.768   5.912   6.327
 5849SOL    HW118446   2.826   5.960   6.261
 5849SOL    HW218447   2.752   5.818   6.295
 5850SOL     OW18448   5.497   2.178   1.650
 5850SOL    HW118449   5.518   2.212   1.742
 5850SOL    HW218450   5.564   2.214   1.585
 5851SOL     OW18451   0.749   3.544   4.482
 5851SOL    HW118452   0.840   3.528   4.445
 5851SOL    HW218453   0.710   3.458   4.515
 5852SOL     OW18454   4.981   4.196   2.636
 5852SOL    HW118455   5.066   4.229   2.676
 5852SOL    HW218456   4.992   4.189   2.537
 5853SOL     OW18457   4.381   5.191   0.063
 5853SOL    HW118458   4.389   5.250   0.144
 5853SOL    HW218459   4.470   5.186   0.017
 5854SOL     OW18460   2.857   4.693   5.400
 5854SOL    HW118461   2.894   4.638   5.475
 5854SOL    HW218462   2.885   4.654   5.313
 5855SOL     OW18463   1.751   2.126   4.766
 5855SOL    HW118464   1.661   2.096   4.798
 5855SOL    HW218465   1.806   2.155   4.844
 5856SOL     OW18466   0.556   0.191   2.236
 5856SOL    HW118467   0.584   0.156   2.326
 5856SOL    HW218468   0.627   0.168   2.169
 5857SOL     OW18469   5.471   5.121   6.899
 5857SOL    HW118470   5.505   5.211   6.872
 5857SOL    HW218471   5.373   5.127   6.916
 5858SOL     OW18472   2.563   1.765   2.458
 5858SOL    HW118473   2.659   1.757   2.431
 5858SOL    HW218474   2.546   1.856   2.496
 5859SOL     OW18475   5.796   5.558   2.048
 5859SOL    HW118476   5.796   5.486   2.117
 5859SOL    HW218477   5.882   5.609   2.054
 5860SOL     OW18478   2.127   3.441   2.637
 5860SOL    HW118479   2.172   3.467   2.551
 5860SOL    HW218480   2.030   3.423   2.620
 5861SOL     OW18481   5.494   0.481   5.160
 5861SOL    HW118482   5.406   0.480   5.112
 5861SOL    HW218483   5.482   0.444   5.252
 5862SOL     OW18484   6.719   4.927   3.059
 5862SOL    HW118485   6.678   4.900   3.146
 5862SOL    HW218486   6.684   5.017   3.032
 5863SOL     OW18487   4.111   0.137   5.737
 5863SOL    HW118488   4.184   0.146   5.670
 5863SOL    HW218489   4.048   0.065   5.708
 5864SOL     OW18490   3.710   3.050   3.381
 5864SOL    HW118491   3.635   3.115   3.370
 5864SOL    HW218492   3.751   3.030   3.291
 5865SOL     OW18493   6.170   0.039   1.438
 5865SOL    HW118494   6.097   0.100   1.469
 5865SOL    HW218495   6.130   6.978   1.405
 5866SOL     OW18496   3.383   3.188   3.571
 5866SOL    HW118497   3.317   3.255   3.536
 5866SOL    HW218498   3.335   3.105   3.599
 5867SOL     OW18499   4.068   1.574   0.636
 5867SOL    HW118500   4.108   1.487   0.666
 5867SOL    HW218501   4.054   1.571   0.537
 5868SOL     OW18502   1.218   0.925   0.555
 5868SOL    HW118503   1.267   0.992   0.612
 5868SOL    HW218504   1.268   0.838   0.555
 5869SOL     OW18505   1.987   5.472   2.981
 5869SOL    HW118506   1.975   5.561   2.937
 5869SOL    HW218507   2.002   5.402   2.911
 5870SOL     OW18508   4.363   7.019   4.225
 5870SOL    HW118509   4.346   6.933   4.177
 5870SOL    HW218510   4.379   0.067   4.159
 5871SOL     OW18511   3.697   3.559   3.496
 5871SOL    HW118512   3.718   3.628   3.564
 5871SOL    HW218513   3.766   3.561   3.423
 5872SOL     OW18514   3.305   5.986   1.308
 5872SOL    HW118515   3.405   5.975   1.307
 5872SOL    HW218516   3.271   5.987   1.214
 5873SOL     OW18517   4.043   6.321   2.077
 5873SOL    HW118518   3.998   6.368   2.001
 5873SOL    HW218519   3.990   6.239   2.101
 5874SOL     OW18520   0.462   4.815   4.893
 5874SOL    HW118521   0.512   4.746   4.842
 5874SOL    HW218522   0.366   4.789   4.899
 5875SOL     OW18523   4.044   2.661   1.130
 5875SOL    HW118524   4.022   2.576   1.179
 5875SOL    HW218525   4.111   2.713   1.183
 5876SOL     OW18526   3.589   2.856   2.555
 5876SOL    HW118527   3.645   2.835   2.476
 5876SOL    HW218528   3.521   2.925   2.530
 5877SOL     OW18529   5.231   4.815   1.462
 5877SOL    HW118530   5.314   4.830   1.408
 5877SOL    HW218531   5.249   4.841   1.557
 5878SOL     OW18532   1.629   3.686   2.522
 5878SOL    HW118533   1.651   3.672   2.426
 5878SOL    HW218534   1.651   3.780   2.548
 5879SOL     OW18535   2.106   3.855   4.283
 5879SOL    HW118536   2.024   3.889   4.330
 5879SOL    HW218537   2.179   3.923   4.291
 5880SOL     OW18538   2.765   5.585   6.632
 5880SOL    HW118539   2.757   5.581   6.732
 5880SOL    HW218540   2.862   5.584   6.607
 5881SOL     OW18541   1.968   6.499   4.468
 5881SOL    HW118542   1.972   6.462   4.561
 5881SOL    HW218543   2.058   6.532   4.441
 5882SOL     OW18544   4.717   0.282   2.962
 5882SOL    HW118545   4.726   0.313   3.057
 5882SOL    HW218546   4.800   0.303   2.912
 5883SOL     OW18547   1.307   2.788   4.635
 5883SOL    HW118548   1.233   2.794   4.567
 5883SOL    HW218549   1.350   2.878   4.645
 5884SOL     OW18550   0.070   0.621   2.805
 5884SOL    HW118551   0.096   0.614   2.901
 5884SOL    HW218552   0.038   0.531   2.773
 5885SOL     OW18553   5.383   6.860   0.643
 5885SOL    HW118554   5.333   6.820   0.721
 5885SOL    HW218555   5.457   6.918   0.677
 5886SOL     OW18556   5.861   1.706   6.436
 5886SOL    HW118557   5.936   1.738   6.377
 5886SOL    HW218558   5.836   1.779   6.500
 5887SOL     OW18559   3.882   5.738   3.001
 5887SOL    HW118560   3.932   5.664   2.956
 5887SOL    HW218561   3.935   5.772   3.078
 5888SOL     OW18562   6.739   6.197   2.156
 5888SOL    HW118563   6.665   6.221   2.093
 5888SOL    HW218564   6.762   6.101   2.145
 5889SOL     OW18565   3.182   6.932   6.770
 5889SOL    HW118566   3.191   6.869   6.847
 5889SOL    HW218567   3.197   6.882   6.684
 5890SOL     OW18568   3.865   5.242   6.332
 5890SOL    HW118569   3.953   5.225   6.287
 5890SOL    HW218570   3.869   5.213   6.427
 5891SOL     OW18571   1.645   3.380   5.907
 5891SOL    HW118572   1.604   3.297   5.943
 5891SOL    HW218573   1.685   3.434   5.982
 5892SOL     OW18574   2.088   6.090   2.725
 5892SOL    HW118575   2.158   6.134   2.781
 5892SOL    HW218576   2.017   6.156   2.702
 5893SOL     OW18577   1.361   2.155   2.687
 5893SOL    HW118578   1.281   2.165   2.747
 5893SOL    HW218579   1.418   2.237   2.694
 5894SOL     OW18580   1.599   4.043   4.176
 5894SOL    HW118581   1.507   4.007   4.192
 5894SOL    HW218582   1.594   4.126   4.122
 5895SOL     OW18583   5.901   4.390   3.428
 5895SOL    HW118584   5.858   4.300   3.425
 5895SOL    HW218585   5.907   4.421   3.523
 5896SOL     OW18586   4.879   2.759   6.107
 5896SOL    HW118587   4.813   2.712   6.048
 5896SOL    HW218588   4.967   2.712   6.102
 5897SOL     OW18589   4.512   5.441   0.947
 5897SOL    HW118590   4.425   5.392   0.937
 5897SOL    HW218591   4.522   5.506   0.871
 5898SOL     OW18592   2.863   7.011   3.472
 5898SOL    HW118593   2.833   6.983   3.381
 5898SOL    HW218594   2.827   6.948   3.540
 5899SOL     OW18595   5.155   0.790   4.128
 5899SOL    HW118596   5.129   0.882   4.101
 5899SOL    HW218597   5.253   0.788   4.149
 5900SOL     OW18598   3.957   4.988   1.939
 5900SOL    HW118599   3.860   4.987   1.963
 5900SOL    HW218600   3.978   5.069   1.885
 5901SOL     OW18601   2.688   6.269   4.594
 5901SOL    HW118602   2.700   6.325   4.512
 5901SOL    HW218603   2.715   6.322   4.675
 5902SOL     OW18604   6.035   2.471   0.248
 5902SOL    HW118605   6.055   2.446   0.153
 5902SOL    HW218606   6.032   2.388   0.304
 5903SOL     OW18607   0.241   2.956   6.073
 5903SOL    HW118608   0.141   2.958   6.083
 5903SOL    HW218609   0.284   2.989   6.157
 5904SOL     OW18610   1.716   3.037   2.303
 5904SOL    HW118611   1.714   2.939   2.323
 5904SOL    HW218612   1.754   3.051   2.211
 5905SOL     OW18613   0.257   4.448   2.555
 5905SOL    HW118614   0.226   4.462   2.460
 5905SOL    HW218615   0.290   4.535   2.592
 5906SOL     OW18616   0.816   0.409   2.842
 5906SOL    HW118617   0.855   0.475   2.777
 5906SOL    HW218618   0.882   0.391   2.914
 5907SOL     OW18619   2.335   6.930   2.641
 5907SOL    HW118620   2.305   6.835   2.642
 5907SOL    HW218621   2.260   6.989   2.669
 5908SOL     OW18622   0.995   2.603   6.037
 5908SOL    HW118623   0.919   2.657   6.001
 5908SOL    HW218624   1.020   2.533   5.970
 5909SOL     OW18625   6.307   4.727   0.170
 5909SOL    HW118626   6.355   4.667   0.234
 5909SOL    HW218627   6.353   4.816   0.167
 5910SOL     OW18628   1.212   1.699   3.212
 5910SOL    HW118629   1.138   1.665   3.154
 5910SOL    HW218630   1.262   1.622   3.251
 5911SOL     OW18631   6.452   6.051   6.930
 5911SOL    HW118632   6.427   6.045   0.002
 5911SOL    HW218633   6.551   6.065   6.921
 5912SOL     OW18634   0.569   0.167   3.566
 5912SOL    HW118635   0.659   0.169   3.610
 5912SOL    HW218636   0.508   0.231   3.613
 5913SOL     OW18637   6.802   2.555   1.053
 5913SOL    HW118638   6.830   2.589   1.142
 5913SOL    HW218639   6.789   2.631   0.990
 5914SOL     OW18640   0.692   6.562   0.794
 5914SOL    HW118641   0.647   6.647   0.821
 5914SOL    HW218642   0.765   6.541   0.858
 5915SOL     OW18643   4.069   0.767   5.714
 5915SOL    HW118644   4.116   0.685   5.747
 5915SOL    HW218645   4.040   0.822   5.792
 5916SOL     OW18646   0.889   0.388   2.169
 5916SOL    HW118647   0.983   0.387   2.133
 5916SOL    HW218648   0.850   0.296   2.163
 5917SOL     OW18649   3.544   2.489   0.341
 5917SOL    HW118650   3.544   2.396   0.303
 5917SOL    HW218651   3.452   2.527   0.334
 5918SOL     OW18652   3.571   6.768   4.189
 5918SOL    HW118653   3.576   6.719   4.277
 5918SOL    HW218654   3.482   6.749   4.146
 5919SOL     OW18655   3.086   3.174   4.615
 5919SOL    HW118656   3.047   3.174   4.707
 5919SOL    HW218657   3.186   3.177   4.622
 5920SOL     OW18658   0.767   0.472   5.863
 5920SOL    HW118659   0.670   0.478   5.885
 5920SOL    HW218660   0.787   0.531   5.785
 5921SOL     OW18661   2.883   4.652   0.054
 5921SOL    HW118662   2.826   4.588   0.002
 5921SOL    HW218663   2.834   4.681   0.136
 5922SOL     OW18664   5.552   2.412   2.367
 5922SOL    HW118665   5.516   2.502   2.392
 5922SOL    HW218666   5.618   2.422   2.292
 5923SOL     OW18667   5.876   0.702   3.027
 5923SOL    HW118668   5.879   0.613   2.982
 5923SOL    HW218669   5.822   0.695   3.111
 5924SOL     OW18670   6.342   6.807   3.612
 5924SOL    HW118671   6.348   6.841   3.518
 5924SOL    HW218672   6.381   6.875   3.675
 5925SOL     OW18673   4.821   1.244   0.871
 5925SOL    HW118674   4.730   1.234   0.830
 5925SOL    HW218675   4.812   1.245   0.971
 5926SOL     OW18676   5.535   3.641   3.055
 5926SOL    HW118677   5.571   3.629   3.148
 5926SOL    HW218678   5.606   3.620   2.988
 5927SOL     OW18679   0.294   5.682   1.671
 5927SOL    HW118680   0.289   5.752   1.599
 5927SOL    HW218681   0.300   5.728   1.761
 5928SOL     OW18682   2.912   7.007   6.861
 5928SOL    HW118683   2.849   6.930   6.877
 5928SOL    HW218684   3.002   6.972   6.835
 5929SOL     OW18685   1.279   0.731   0.875
 5929SOL    HW118686   1.187   0.770   0.865
 5929SOL    HW218687   1.319   0.718   0.784
 5930SOL     OW18688   1.360   3.900   2.107
 5930SOL    HW118689   1.414   3.972   2.062
 5930SOL    HW218690   1.413   3.816   2.111
 5931SOL     OW18691   4.967   6.289   3.540
 5931SOL    HW118692   4.941   6.223   3.610
 5931SOL    HW218693   4.886   6.334   3.503
 5932SOL     OW18694   3.178   6.227   0.458
 5932SOL    HW118695   3.179   6.244   0.359
 5932SOL    HW218696   3.102   6.276   0.499
 5933SOL     OW18697   6.392   5.713   4.477
 5933SOL    HW118698   6.406   5.656   4.557
 5933SOL    HW218699   6.458   5.688   4.406
 5934SOL     OW18700   2.989   3.380   0.378
 5934SOL    HW118701   3.010   3.460   0.434
 5934SOL    HW218702   3.019   3.297   0.425
 5935SOL     OW18703   0.874   0.335   5.152
 5935SOL    HW118704   0.839   0.428   5.142
 5935SOL    HW218705   0.799   0.270   5.144
 5936SOL     OW18706   3.785   2.859   2.312
 5936SOL    HW118707   3.808   2.768   2.277
 5936SOL    HW218708   3.731   2.908   2.244
 5937SOL     OW18709   0.389   3.002   0.730
 5937SOL    HW118710   0.331   2.922   0.718
 5937SOL    HW218711   0.442   2.992   0.815
 5938SOL     OW18712   0.772   3.294   3.964
 5938SOL    HW118713   0.681   3.331   3.979
 5938SOL    HW218714   0.793   3.296   3.867
 5939SOL     OW18715   4.461   1.535   5.766
 5939SOL    HW118716   4.510   1.608   5.718
 5939SOL    HW218717   4.481   1.448   5.723
 5940SOL     OW18718   5.009   4.907   1.953
 5940SOL    HW118719   4.937   4.896   1.884
 5940SOL    HW218720   4.978   4.867   2.040
 5941SOL     OW18721   0.248   1.955   3.163
 5941SOL    HW118722   0.238   1.855   3.162
 5941SOL    HW218723   0.338   1.978   3.201
 5942SOL     OW18724   5.407   2.433   6.750
 5942SOL    HW118725   5.398   2.526   6.784
 5942SOL    HW218726   5.446   2.435   6.658
 5943SOL     OW18727   1.679   4.317   1.099
 5943SOL    HW118728   1.693   4.337   1.196
 5943SOL    HW218729   1.618   4.385   1.059
 5944SOL     OW18730   6.246   3.772   5.737
 5944SOL    HW118731   6.256   3.863   5.697
 5944SOL    HW218732   6.326   3.751   5.794
 5945SOL     OW18733   6.562   6.282   4.345
 5945SOL    HW118734   6.573   6.381   4.343
 5945SOL    HW218735   6.482   6.256   4.290
 5946SOL     OW18736   2.253   3.400   6.772
 5946SOL    HW118737   2.256   3.300   6.784
 5946SOL    HW218738   2.216   3.442   6.855
 5947SOL     OW18739   3.705   3.465   4.716
 5947SOL    HW118740   3.620   3.516   4.700
 5947SOL    HW218741   3.723   3.405   4.638
 5948SOL     OW18742   4.972   4.051   1.564
 5948SOL    HW118743   4.909   4.035   1.488
 5948SOL    HW218744   4.977   4.149   1.582
 5949SOL     OW18745   0.522   3.643   3.086
 5949SOL    HW118746   0.528   3.543   3.088
 5949SOL    HW218747   0.600   3.682   3.135
 5950SOL     OW18748   2.932   6.928   4.629
 5950SOL    HW118749   3.026   6.957   4.644
 5950SOL    HW218750   2.921   6.834   4.663
 5951SOL     OW18751   6.964   3.644   6.648
 5951SOL    HW118752   6.939   3.732   6.689
 5951SOL    HW218753   6.968   3.654   6.549
 5952SOL     OW18754   3.719   4.064   1.830
 5952SOL    HW118755   3.687   4.121   1.906
 5952SOL    HW218756   3.643   4.043   1.769
 5953SOL     OW18757   6.650   3.288   5.777
 5953SOL    HW118758   6.611   3.279   5.685
 5953SOL    HW218759   6.704   3.372   5.781
 5954SOL     OW18760   2.171   5.370   3.994
 5954SOL    HW118761   2.172   5.470   4.002
 5954SOL    HW218762   2.080   5.340   3.966
 5955SOL     OW18763   4.139   3.329   0.416
 5955SOL    HW118764   4.205   3.297   0.348
 5955SOL    HW218765   4.106   3.252   0.470
 5956SOL     OW18766   4.491   3.120   6.025
 5956SOL    HW118767   4.532   3.033   6.052
 5956SOL    HW218768   4.538   3.195   6.071
 5957SOL     OW18769   6.368   1.681   3.608
 5957SOL    HW118770   6.365   1.583   3.589
 5957SOL    HW218771   6.323   1.731   3.534
 5958SOL     OW18772   2.456   6.244   3.313
 5958SOL    HW118773   2.536   6.191   3.343
 5958SOL    HW218774   2.429   6.307   3.386
 5959SOL     OW18775   5.587   3.363   2.881
 5959SOL    HW118776   5.653   3.437   2.874
 5959SOL    HW218777   5.548   3.363   2.973
 5960SOL     OW18778   5.304   0.319   6.232
 5960SOL    HW118779   5.327   0.277   6.145
 5960SOL    HW218780   5.244   0.398   6.216
 5961SOL     OW18781   3.216   2.184   3.566
 5961SOL    HW118782   3.200   2.145   3.657
 5961SOL    HW218783   3.138   2.241   3.540
 5962SOL     OW18784   4.548   4.931   0.739
 5962SOL    HW118785   4.556   4.836   0.768
 5962SOL    HW218786   4.453   4.952   0.716
 5963SOL     OW18787   1.859   3.652   0.325
 5963SOL    HW118788   1.945   3.694   0.297
 5963SOL    HW218789   1.878   3.565   0.371
 5964SOL     OW18790   1.822   0.284   3.225
 5964SOL    HW118791   1.774   0.347   3.164
 5964SOL    HW218792   1.756   0.219   3.265
 5965SOL     OW18793   2.437   0.720   0.942
 5965SOL    HW118794   2.379   0.694   0.864
 5965SOL    HW218795   2.379   0.733   1.023
 5966SOL     OW18796   2.999   1.977   5.521
 5966SOL    HW118797   2.970   2.028   5.603
 5966SOL    HW218798   2.980   2.032   5.440
 5967SOL     OW18799   4.671   2.142   5.051
 5967SOL    HW118800   4.619   2.119   4.969
 5967SOL    HW218801   4.679   2.242   5.058
 5968SOL     OW18802   5.880   1.900   3.024
 5968SOL    HW118803   5.899   1.947   2.939
 5968SOL    HW218804   5.781   1.889   3.035
 5969SOL     OW18805   4.804   0.008   0.937
 5969SOL    HW118806   4.782   0.100   0.904
 5969SOL    HW218807   4.895   7.007   0.905
 5970SOL     OW18808   6.705   3.065   0.474
 5970SOL    HW118809   6.758   3.024   0.549
 5970SOL    HW218810   6.632   3.122   0.513
 5971SOL     OW18811   6.899   5.176   3.599
 5971SOL    HW118812   6.887   5.086   3.558
 5971SOL    HW218813   6.851   5.179   3.687
 5972SOL     OW18814   5.869   5.324   1.261
 5972SOL    HW118815   5.853   5.271   1.177
 5972SOL    HW218816   5.875   5.262   1.339
 5973SOL     OW18817   2.581   0.831   2.324
 5973SOL    HW118818   2.490   0.789   2.319
 5973SOL    HW218819   2.637   0.782   2.391
 5974SOL     OW18820   5.596   1.235   4.818
 5974SOL    HW118821   5.681   1.235   4.767
 5974SOL    HW218822   5.536   1.307   4.781
 5975SOL     OW18823   4.483   5.185   1.738
 5975SOL    HW118824   4.466   5.170   1.835
 5975SOL    HW218825   4.448   5.275   1.711
 5976SOL     OW18826   1.712   4.057   5.659
 5976SOL    HW118827   1.810   4.069   5.642
 5976SOL    HW218828   1.661   4.081   5.576
 5977SOL     OW18829   6.463   5.188   1.177
 5977SOL    HW118830   6.442   5.107   1.232
 5977SOL    HW218831   6.539   5.237   1.218
 5978SOL     OW18832   2.756   3.781   6.262
 5978SOL    HW118833   2.834   3.804   6.320
 5978SOL    HW218834   2.691   3.724   6.314
 5979SOL     OW18835   6.419   6.647   0.978
 5979SOL    HW118836   6.411   6.602   0.890
 5979SOL    HW218837   6.509   6.692   0.984
 5980SOL     OW18838   3.083   2.530   0.844
 5980SOL    HW118839   3.108   2.520   0.748
 5980SOL    HW218840   3.124   2.455   0.897
 5981SOL     OW18841   2.770   2.429   1.108
 5981SOL    HW118842   2.735   2.409   1.017
 5981SOL    HW218843   2.847   2.369   1.128
 5982SOL     OW18844   5.377   2.944   1.632
 5982SOL    HW118845   5.333   2.924   1.720
 5982SOL    HW218846   5.349   2.876   1.564
 5983SOL     OW18847   0.063   1.234   3.674
 5983SOL    HW118848   0.105   1.313   3.719
 5983SOL    HW218849   0.084   1.151   3.726
 5984SOL     OW18850   6.369   6.049   3.405
 5984SOL    HW118851   6.357   5.950   3.397
 5984SOL    HW218852   6.456   6.076   3.364
 5985SOL     OW18853   0.214   3.534   2.941
 5985SOL    HW118854   0.283   3.589   2.893
 5985SOL    HW218855   0.226   3.438   2.917
 5986SOL     OW18856   3.474   3.504   3.800
 5986SOL    HW118857   3.523   3.492   3.713
 5986SOL    HW218858   3.382   3.537   3.781
 5987SOL     OW18859   6.987   5.755   4.840
 5987SOL    HW118860   0.053   5.794   4.822
 5987SOL    HW218861   6.984   5.721   4.934
 5988SOL     OW18862   1.045   3.091   6.836
 5988SOL    HW118863   1.028   3.065   6.931
 5988SOL    HW218864   0.964   3.071   6.781
 5989SOL     OW18865   1.454   6.830   5.287
 5989SOL    HW118866   1.450   6.916   5.339
 5989SOL    HW218867   1.416   6.845   5.195
 5990SOL     OW18868   1.707   4.475   1.681
 5990SOL    HW118869   1.761   4.391   1.686
 5990SOL    HW218870   1.766   4.552   1.657
 5991SOL     OW18871   5.544   1.095   1.131
 5991SOL    HW118872   5.601   1.030   1.081
 5991SOL    HW218873   5.602   1.152   1.189
 5992SOL     OW18874   3.199   5.142   3.277
 5992SOL    HW118875   3.207   5.054   3.232
 5992SOL    HW218876   3.130   5.137   3.349
 5993SOL     OW18877   5.812   2.187   0.598
 5993SOL    HW118878   5.773   2.247   0.668
 5993SOL    HW218879   5.902   2.222   0.571
 5994SOL     OW18880   6.890   3.813   0.058
 5994SOL    HW118881   6.892   3.724   0.103
 5994SOL    HW218882   6.824   3.872   0.104
 5995SOL     OW18883   5.325   3.352   1.228
 5995SOL    HW118884   5.254   3.319   1.290
 5995SOL    HW218885   5.406   3.295   1.236
 5996SOL     OW18886   2.158   0.141   1.412
 5996SOL    HW118887   2.068   0.183   1.415
 5996SOL    HW218888   2.187   0.128   1.317
 5997SOL     OW18889   6.364   0.308   3.878
 5997SOL    HW118890   6.343   0.311   3.976
 5997SOL    HW218891   6.452   0.351   3.860
 5998SOL     OW18892   6.383   6.255   6.722
 5998SOL    HW118893   6.374   6.234   6.819
 5998SOL    HW218894   6.398   6.170   6.671
 5999SOL     OW18895   5.586   3.677   1.509
 5999SOL    HW118896   5.643   3.740   1.563
 5999SOL    HW218897   5.492   3.679   1.544
 6000SOL     OW18898   1.236   4.349   0.884
 6000SOL    HW118899   1.263   4.255   0.861
 6000SOL    HW218900   1.317   4.403   0.906
 6001SOL     OW18901   6.158   5.454   5.537
 6001SOL    HW118902   6.229   5.492   5.479
 6001SOL    HW218903   6.168   5.354   5.541
 6002SOL     OW18904   5.336   4.612   5.077
 6002SOL    HW118905   5.370   4.694   5.124
 6002SOL    HW218906   5.268   4.567   5.134
 6003SOL     OW18907   2.629   2.066   4.994
 6003SOL    HW118908   2.725   2.036   4.999
 6003SOL    HW218909   2.626   2.162   4.966
 6004SOL     OW18910   5.323   3.476   5.352
 6004SOL    HW118911   5.350   3.408   5.421
 6004SOL    HW218912   5.336   3.437   5.261
 6005SOL     OW18913   3.943   4.177   0.325
 6005SOL    HW118914   4.023   4.116   0.323
 6005SOL    HW218915   3.932   4.214   0.417
 6006SOL     OW18916   3.162   6.477   0.003
 6006SOL    HW118917   3.210   6.417   6.963
 6006SOL    HW218918   3.201   6.465   0.094
 6007SOL     OW18919   2.180   6.646   5.222
 6007SOL    HW118920   2.098   6.676   5.174
 6007SOL    HW218921   2.249   6.719   5.219
 6008SOL     OW18922   2.029   4.101   6.644
 6008SOL    HW118923   1.991   4.009   6.646
 6008SOL    HW218924   2.080   4.114   6.559
 6009SOL     OW18925   3.961   5.033   2.637
 6009SOL    HW118926   3.882   5.016   2.696
 6009SOL    HW218927   4.031   5.082   2.688
 6010SOL     OW18928   0.355   5.100   4.822
 6010SOL    HW118929   0.397   5.010   4.837
 6010SOL    HW218930   0.257   5.088   4.806
 6011SOL     OW18931   5.181   1.810   3.161
 6011SOL    HW118932   5.182   1.752   3.080
 6011SOL    HW218933   5.179   1.753   3.243
 6012SOL     OW18934   6.560   0.737   5.573
 6012SOL    HW118935   6.494   0.813   5.565
 6012SOL    HW218936   6.653   0.773   5.566
 6013SOL     OW18937   5.437   1.350   2.456
 6013SOL    HW118938   5.376   1.270   2.454
 6013SOL    HW218939   5.455   1.375   2.550
 6014SOL     OW18940   3.415   3.232   4.294
 6014SOL    HW118941   3.339   3.273   4.344
 6014SOL    HW218942   3.432   3.283   4.211
 6015SOL     OW18943   6.009   6.540   4.419
 6015SOL    HW118944   5.962   6.503   4.339
 6015SOL    HW218945   6.033   6.636   4.403
 6016SOL     OW18946   4.285   2.335   4.613
 6016SOL    HW118947   4.361   2.399   4.621
 6016SOL    HW218948   4.257   2.329   4.517
 6017SOL     OW18949   1.640   1.687   5.411
 6017SOL    HW118950   1.700   1.716   5.486
 6017SOL    HW218951   1.556   1.648   5.449
 6018SOL     OW18952   2.580   1.169   3.909
 6018SOL    HW118953   2.633   1.252   3.925
 6018SOL    HW218954   2.578   1.114   3.992
 6019SOL     OW18955   6.555   4.619   6.658
 6019SOL    HW118956   6.597   4.667   6.735
 6019SOL    HW218957   6.567   4.521   6.670
 6020SOL     OW18958   0.652   4.958   5.620
 6020SOL    HW118959   0.721   4.891   5.645
 6020SOL    HW218960   0.696   5.037   5.576
 6021SOL     OW18961   5.522   0.228   3.181
 6021SOL    HW118962   5.498   0.287   3.259
 6021SOL    HW218963   5.562   0.284   3.109
 6022SOL     OW18964   6.233   2.804   1.634
 6022SOL    HW118965   6.170   2.877   1.661
 6022SOL    HW218966   6.181   2.722   1.613
 6023SOL     OW18967   4.572   6.644   2.036
 6023SOL    HW118968   4.611   6.731   2.066
 6023SOL    HW218969   4.607   6.570   2.095
 6024SOL     OW18970   0.604   6.390   6.386
 6024SOL    HW118971   0.612   6.290   6.384
 6024SOL    HW218972   0.689   6.429   6.422
 6025SOL     OW18973   2.674   0.749   5.735
 6025SOL    HW118974   2.628   0.836   5.716
 6025SOL    HW218975   2.653   0.684   5.662
 6026SOL     OW18976   6.101   5.668   3.683
 6026SOL    HW118977   6.098   5.632   3.776
 6026SOL    HW218978   6.052   5.755   3.679
 6027SOL     OW18979   6.084   5.283   6.096
 6027SOL    HW118980   5.996   5.265   6.052
 6027SOL    HW218981   6.079   5.257   6.193
 6028SOL     OW18982   6.037   6.336   6.061
 6028SOL    HW118983   6.052   6.396   5.983
 6028SOL    HW218984   6.077   6.247   6.043
 6029SOL     OW18985   3.691   1.504   2.597
 6029SOL    HW118986   3.781   1.503   2.554
 6029SOL    HW218987   3.644   1.418   2.578
 6030SOL     OW18988   6.199   3.079   4.397
 6030SOL    HW118989   6.181   3.175   4.374
 6030SOL    HW218990   6.175   3.063   4.493
 6031SOL     OW18991   0.311   6.456   4.851
 6031SOL    HW118992   0.305   6.553   4.826
 6031SOL    HW218993   0.225   6.411   4.829
 6032SOL     OW18994   3.453   6.605   3.302
 6032SOL    HW118995   3.494   6.636   3.388
 6032SOL    HW218996   3.521   6.612   3.229
 6033SOL     OW18997   0.580   1.640   2.351
 6033SOL    HW118998   0.636   1.704   2.298
 6033SOL    HW218999   0.488   1.678   2.363
 6034SOL     OW19000   0.433   0.437   0.657
 6034SOL    HW119001   0.473   0.516   0.612
 6034SOL    HW219002   0.432   0.451   0.756
 6035SOL     OW19003   2.594   0.335   2.680
 6035SOL    HW119004   2.638   0.262   2.627
 6035SOL    HW219005   2.650   0.418   2.674
 6036SOL     OW19006   6.073   3.638   0.629
 6036SOL    HW119007   6.141   3.568   0.604
 6036SOL    HW219008   5.984   3.594   0.645
 6037SOL     OW19009   4.804   1.247   6.147
 6037SOL    HW119010   4.785   1.338   6.109
 6037SOL    HW219011   4.863   1.197   6.084
 6038SOL     OW19012   1.666   1.353   6.071
 6038SOL    HW119013   1.614   1.387   6.150
 6038SOL    HW219014   1.628   1.265   6.042
 6039SOL     OW19015   4.177   3.567   3.748
 6039SOL    HW119016   4.110   3.609   3.810
 6039SOL    HW219017   4.258   3.541   3.800
 6040SOL     OW19018   0.770   2.087   0.101
 6040SOL    HW119019   0.719   2.170   0.079
 6040SOL    HW219020   0.716   2.031   0.163
 6041SOL     OW19021   0.226   3.616   5.163
 6041SOL    HW119022   0.179   3.531   5.141
 6041SOL    HW219023   0.318   3.595   5.196
 6042SOL     OW19024   2.884   6.324   3.598
 6042SOL    HW119025   2.951   6.283   3.536
 6042SOL    HW219026   2.908   6.302   3.692
 6043SOL     OW19027   2.510   0.019   2.399
 6043SOL    HW119028   2.462   7.010   2.480
 6043SOL    HW219029   2.448   0.078   2.346
 6044SOL     OW19030   0.330   3.388   0.367
 6044SOL    HW119031   0.233   3.387   0.393
 6044SOL    HW219032   0.356   3.298   0.331
 6045SOL     OW19033   5.491   1.147   3.881
 6045SOL    HW119034   5.589   1.157   3.897
 6045SOL    HW219035   5.471   1.166   3.785
 6046SOL     OW19036   3.694   3.212   2.823
 6046SOL    HW119037   3.651   3.207   2.733
 6046SOL    HW219038   3.742   3.126   2.842
 6047SOL     OW19039   0.038   1.598   0.144
 6047SOL    HW119040   0.058   1.506   0.178
 6047SOL    HW219041   0.087   1.666   0.199
 6048SOL     OW19042   5.840   5.849   3.334
 6048SOL    HW119043   5.741   5.852   3.321
 6048SOL    HW219044   5.878   5.772   3.283
 6049SOL     OW19045   4.747   4.799   6.319
 6049SOL    HW119046   4.742   4.770   6.415
 6049SOL    HW219047   4.820   4.749   6.272
 6050SOL     OW19048   2.559   5.189   2.731
 6050SOL    HW119049   2.646   5.238   2.733
 6050SOL    HW219050   2.484   5.253   2.717
 6051SOL     OW19051   0.508   1.281   2.822
 6051SOL    HW119052   0.524   1.186   2.796
 6051SOL    HW219053   0.426   1.287   2.879
 6052SOL     OW19054   5.027   5.367   0.884
 6052SOL    HW119055   4.967   5.320   0.949
 6052SOL    HW219056   5.115   5.318   0.879
 6053SOL     OW19057   4.468   2.466   6.796
 6053SOL    HW119058   4.401   2.392   6.804
 6053SOL    HW219059   4.493   2.499   6.887
 6054SOL     OW19060   4.062   4.107   0.961
 6054SOL    HW119061   3.994   4.138   0.895
 6054SOL    HW219062   4.139   4.171   0.963
 6055SOL     OW19063   3.359   3.587   1.160
 6055SOL    HW119064   3.416   3.632   1.229
 6055SOL    HW219065   3.286   3.650   1.131
 6056SOL     OW19066   5.468   5.965   3.567
 6056SOL    HW119067   5.399   5.973   3.496
 6056SOL    HW219068   5.538   6.036   3.553
 6057SOL     OW19069   5.366   0.992   3.624
 6057SOL    HW119070   5.305   1.071   3.631
 6057SOL    HW219071   5.367   0.959   3.530
 6058SOL     OW19072   0.227   2.754   5.879
 6058SOL    HW119073   0.256   2.836   5.927
 6058SOL    HW219074   0.291   2.679   5.899
 6059SOL     OW19075   4.171   2.865   6.990
 6059SOL    HW119076   4.247   2.826   6.937
 6059SOL    HW219077   4.105   2.907   6.927
 6060SOL     OW19078   2.188   2.659   0.456
 6060SOL    HW119079   2.176   2.583   0.521
 6060SOL    HW219080   2.100   2.681   0.414
 6061SOL     OW19081   3.545   4.123   6.911
 6061SOL    HW119082   3.478   4.145   6.840
 6061SOL    HW219083   3.497   4.093   6.994
 6062SOL     OW19084   2.315   1.538   6.061
 6062SOL    HW119085   2.355   1.512   6.148
 6062SOL    HW219086   2.338   1.634   6.041
 6063SOL     OW19087   4.587   4.145   6.840
 6063SOL    HW119088   4.568   4.243   6.854
 6063SOL    HW219089   4.531   4.091   6.903
 6064SOL     OW19090   5.561   6.042   1.164
 6064SOL    HW119091   5.536   6.039   1.261
 6064SOL    HW219092   5.478   6.053   1.109
 6065SOL     OW19093   2.154   6.216   1.403
 6065SOL    HW119094   2.128   6.147   1.471
 6065SOL    HW219095   2.249   6.200   1.374
 6066SOL     OW19096   5.992   5.502   2.724
 6066SOL    HW119097   5.981   5.590   2.769
 6066SOL    HW219098   5.957   5.507   2.631
 6067SOL     OW19099   0.203   6.279   6.019
 6067SOL    HW119100   0.165   6.217   6.087
 6067SOL    HW219101   0.300   6.293   6.037
 6068SOL     OW19102   4.876   1.959   4.303
 6068SOL    HW119103   4.909   2.051   4.320
 6068SOL    HW219104   4.905   1.929   4.212
 6069SOL     OW19105   0.288   4.798   6.083
 6069SOL    HW119106   0.276   4.717   6.024
 6069SOL    HW219107   0.358   4.857   6.044
 6070SOL     OW19108   2.517   1.658   0.640
 6070SOL    HW119109   2.602   1.608   0.660
 6070SOL    HW219110   2.473   1.682   0.727
 6071SOL     OW19111   5.546   0.753   6.131
 6071SOL    HW119112   5.513   0.846   6.152
 6071SOL    HW219113   5.477   0.706   6.076
 6072SOL     OW19114   6.950   3.076   0.262
 6072SOL    HW119115   7.023   3.063   0.329
 6072SOL    HW219116   6.887   2.999   0.265
 6073SOL     OW19117   4.898   3.853   0.583
 6073SOL    HW119118   4.822   3.883   0.525
 6073SOL    HW219119   4.872   3.771   0.634
 6074SOL     OW19120   0.432   6.583   2.381
 6074SOL    HW119121   0.516   6.631   2.406
 6074SOL    HW219122   0.420   6.584   2.282
 6075SOL     OW19123   6.015   0.659   6.941
 6075SOL    HW119124   5.993   0.727   6.871
 6075SOL    HW219125   5.930   0.624   6.982
 6076SOL     OW19126   0.496   6.222   3.566
 6076SOL    HW119127   0.442   6.141   3.589
 6076SOL    HW219128   0.556   6.202   3.489
 6077SOL     OW19129   5.077   5.934   2.781
 6077SOL    HW119130   5.151   5.988   2.741
 6077SOL    HW219131   5.048   5.864   2.715
 6078SOL     OW19132   4.899   4.409   0.784
 6078SOL    HW119133   4.870   4.340   0.718
 6078SOL    HW219134   4.869   4.500   0.754
 6079SOL     OW19135   3.399   1.897   0.198
 6079SOL    HW119136   3.316   1.847   0.220
 6079SOL    HW219137   3.380   1.963   0.124
 6080SOL     OW19138   6.710   3.872   5.623
 6080SOL    HW119139   6.781   3.942   5.614
 6080SOL    HW219140   6.720   3.806   5.549
 6081SOL     OW19141   1.458   3.625   3.539
 6081SOL    HW119142   1.456   3.589   3.446
 6081SOL    HW219143   1.531   3.580   3.591
 6082SOL     OW19144   5.304   1.397   1.751
 6082SOL    HW119145   5.337   1.428   1.661
 6082SOL    HW219146   5.206   1.415   1.759
 6083SOL     OW19147   5.234   6.770   6.720
 6083SOL    HW119148   5.167   6.840   6.695
 6083SOL    HW219149   5.187   6.684   6.739
 6084SOL     OW19150   6.112   5.399   2.936
 6084SOL    HW119151   6.062   5.332   2.990
 6084SOL    HW219152   6.048   5.454   2.882
 6085SOL     OW19153   0.832   6.516   0.518
 6085SOL    HW119154   0.793   6.498   0.608
 6085SOL    HW219155   0.759   6.518   0.449
 6086SOL     OW19156   3.254   3.658   6.855
 6086SOL    HW119157   3.267   3.756   6.869
 6086SOL    HW219158   3.334   3.620   6.809
 6087SOL     OW19159   4.105   0.115   0.697
 6087SOL    HW119160   4.119   0.153   0.788
 6087SOL    HW219161   4.126   0.017   0.699
 6088SOL     OW19162   4.598   5.684   2.826
 6088SOL    HW119163   4.667   5.669   2.896
 6088SOL    HW219164   4.538   5.760   2.853
 6089SOL     OW19165   6.364   3.643   2.831
 6089SOL    HW119166   6.271   3.614   2.810
 6089SOL    HW219167   6.362   3.713   2.902
 6090SOL     OW19168   3.672   5.704   4.759
 6090SOL    HW119169   3.754   5.742   4.717
 6090SOL    HW219170   3.626   5.775   4.813
 6091SOL     OW19171   0.115   1.777   1.632
 6091SOL    HW119172   0.036   1.717   1.620
 6091SOL    HW219173   0.094   1.849   1.699
 6092SOL     OW19174   2.508   6.771   1.358
 6092SOL    HW119175   2.528   6.682   1.317
 6092SOL    HW219176   2.569   6.840   1.319
 6093SOL     OW19177   2.408   2.702   1.903
 6093SOL    HW119178   2.366   2.753   1.828
 6093SOL    HW219179   2.489   2.653   1.869
 6094SOL     OW19180   0.685   6.561   5.398
 6094SOL    HW119181   0.705   6.627   5.326
 6094SOL    HW219182   0.758   6.492   5.401
 6095SOL     OW19183   5.422   5.064   2.058
 6095SOL    HW119184   5.411   4.971   2.024
 6095SOL    HW219185   5.517   5.092   2.051
 6096SOL     OW19186   5.229   5.951   3.033
 6096SOL    HW119187   5.181   5.893   3.098
 6096SOL    HW219188   5.176   5.957   2.948
 6097SOL     OW19189   2.873   5.069   2.239
 6097SOL    HW119190   2.937   5.132   2.194
 6097SOL    HW219191   2.785   5.114   2.251
 6098SOL     OW19192   6.405   0.926   5.176
 6098SOL    HW119193   6.483   0.982   5.151
 6098SOL    HW219194   6.326   0.984   5.194
 6099SOL     OW19195   4.468   0.326   5.744
 6099SOL    HW119196   4.406   0.304   5.819
 6099SOL    HW219197   4.430   0.404   5.693
 6100SOL     OW19198   0.988   5.814   5.428
 6100SOL    HW119199   0.948   5.756   5.499
 6100SOL    HW219200   0.950   5.906   5.435
 6101SOL     OW19201   0.078   2.973   1.730
 6101SOL    HW119202   0.022   3.048   1.766
 6101SOL    HW219203   0.163   2.967   1.783
 6102SOL     OW19204   3.716   0.034   2.803
 6102SOL    HW119205   3.689   6.966   2.777
 6102SOL    HW219206   3.646   0.072   2.864
 6103SOL     OW19207   5.902   1.057   2.981
 6103SOL    HW119208   5.944   0.998   2.912
 6103SOL    HW219209   5.933   1.030   3.072
 6104SOL     OW19210   6.561   1.480   4.683
 6104SOL    HW119211   6.516   1.478   4.594
 6104SOL    HW219212   6.521   1.553   4.738
 6105SOL     OW19213   3.921   4.384   5.894
 6105SOL    HW119214   3.981   4.374   5.973
 6105SOL    HW219215   3.849   4.315   5.898
 6106SOL     OW19216   6.350   4.732   5.025
 6106SOL    HW119217   6.289   4.654   5.037
 6106SOL    HW219218   6.444   4.699   5.019
 6107SOL     OW19219   5.500   4.974   5.449
 6107SOL    HW119220   5.407   4.991   5.480
 6107SOL    HW219221   5.546   4.913   5.514
 6108SOL     OW19222   2.311   0.937   6.351
 6108SOL    HW119223   2.408   0.955   6.335
 6108SOL    HW219224   2.266   1.022   6.379
 6109SOL     OW19225   0.482   6.385   4.239
 6109SOL    HW119226   0.473   6.287   4.225
 6109SOL    HW219227   0.567   6.417   4.198
 6110SOL     OW19228   1.418   1.571   4.571
 6110SOL    HW119229   1.369   1.654   4.545
 6110SOL    HW219230   1.486   1.550   4.501
 6111SOL     OW19231   2.205   3.442   0.383
 6111SOL    HW119232   2.221   3.344   0.368
 6111SOL    HW219233   2.219   3.492   0.298
 6112SOL     OW19234   4.774   6.562   3.583
 6112SOL    HW119235   4.805   6.609   3.665
 6112SOL    HW219236   4.761   6.630   3.510
 6113SOL     OW19237   2.813   5.702   1.031
 6113SOL    HW119238   2.868   5.662   1.104
 6113SOL    HW219239   2.815   5.642   0.951
 6114SOL     OW19240   4.708   2.752   1.041
 6114SOL    HW119241   4.672   2.720   1.129
 6114SOL    HW219242   4.639   2.738   0.970
 6115SOL     OW19243   1.019   1.054   5.142
 6115SOL    HW119244   1.083   1.125   5.115
 6115SOL    HW219245   0.990   1.069   5.236
 6116SOL     OW19246   5.913   3.664   6.996
 6116SOL    HW119247   5.925   3.763   6.992
 6116SOL    HW219248   5.950   3.630   0.058
 6117SOL     OW19249   1.807   2.066   1.363
 6117SOL    HW119250   1.827   2.108   1.451
 6117SOL    HW219251   1.886   2.012   1.332
 6118SOL     OW19252   5.686   0.978   2.313
 6118SOL    HW119253   5.652   1.071   2.320
 6118SOL    HW219254   5.778   0.972   2.352
 6119SOL     OW19255   6.626   1.562   6.537
 6119SOL    HW119256   6.625   1.527   6.630
 6119SOL    HW219257   6.710   1.614   6.521
 6120SOL     OW19258   3.443   0.462   4.180
 6120SOL    HW119259   3.504   0.480   4.104
 6120SOL    HW219260   3.488   0.404   4.247
 6121SOL     OW19261   2.351   1.732   5.299
 6121SOL    HW119262   2.332   1.701   5.206
 6121SOL    HW219263   2.442   1.772   5.303
 6122SOL     OW19264   5.258   4.605   4.718
 6122SOL    HW119265   5.240   4.686   4.662
 6122SOL    HW219266   5.296   4.633   4.806
 6123SOL     OW19267   6.068   1.196   5.412
 6123SOL    HW119268   6.121   1.269   5.454
 6123SOL    HW219269   5.978   1.189   5.456
 6124SOL     OW19270   2.733   5.543   3.855
 6124SOL    HW119271   2.692   5.461   3.815
 6124SOL    HW219272   2.755   5.526   3.951
 6125SOL     OW19273   3.194   1.644   5.870
 6125SOL    HW119274   3.215   1.635   5.967
 6125SOL    HW219275   3.280   1.652   5.818
 6126SOL     OW19276   6.031   3.467   5.908
 6126SOL    HW119277   6.054   3.370   5.897
 6126SOL    HW219278   5.946   3.476   5.960
 6127SOL     OW19279   5.197   1.936   2.833
 6127SOL    HW119280   5.195   1.908   2.929
 6127SOL    HW219281   5.123   2.001   2.816
 6128SOL     OW19282   5.916   5.802   6.957
 6128SOL    HW119283   5.846   5.842   7.017
 6128SOL    HW219284   5.977   5.874   6.924
 6129SOL     OW19285   3.000   5.762   2.620
 6129SOL    HW119286   2.914   5.751   2.670
 6129SOL    HW219287   3.046   5.845   2.652
 6130SOL     OW19288   5.737   2.921   0.246
 6130SOL    HW119289   5.780   2.923   0.336
 6130SOL    HW219290   5.808   2.916   0.175
 6131SOL     OW19291   6.403   1.983   3.115
 6131SOL    HW119292   6.354   2.066   3.139
 6131SOL    HW219293   6.345   1.926   3.057
 6132SOL     OW19294   4.512   0.010   6.488
 6132SOL    HW119295   4.594   0.040   6.439
 6132SOL    HW219296   4.500   6.936   6.476
 6133SOL     OW19297   0.516   1.990   2.947
 6133SOL    HW119298   0.471   1.901   2.955
 6133SOL    HW219299   0.518   2.035   3.036
 6134SOL     OW19300   0.353   6.644   5.390
 6134SOL    HW119301   0.356   6.565   5.328
 6134SOL    HW219302   0.442   6.656   5.433
 6135SOL     OW19303   6.905   0.241   0.511
 6135SOL    HW119304   6.819   0.211   0.554
 6135SOL    HW219305   6.885   0.312   0.444
 6136SOL     OW19306   1.191   2.069   3.633
 6136SOL    HW119307   1.129   2.113   3.568
 6136SOL    HW219308   1.278   2.119   3.634
 6137SOL     OW19309   0.096   4.532   0.990
 6137SOL    HW119310   0.092   4.552   0.892
 6137SOL    HW219311   0.144   4.446   1.005
 6138SOL     OW19312   4.526   0.552   2.474
 6138SOL    HW119313   4.520   0.643   2.432
 6138SOL    HW219314   4.517   0.561   2.573
 6139SOL     OW19315   1.383   1.078   4.859
 6139SOL    HW119316   1.381   1.175   4.834
 6139SOL    HW219317   1.462   1.034   4.815
 6140SOL     OW19318   1.576   6.781   2.890
 6140SOL    HW119319   1.534   6.747   2.974
 6140SOL    HW219320   1.563   6.880   2.884
 6141SOL     OW19321   0.926   1.268   6.529
 6141SOL    HW119322   0.980   1.185   6.511
 6141SOL    HW219323   0.833   1.255   6.494
 6142SOL     OW19324   5.954   0.558   1.544
 6142SOL    HW119325   5.934   0.491   1.615
 6142SOL    HW219326   6.021   0.624   1.577
 6143SOL     OW19327   0.076   3.317   5.338
 6143SOL    HW119328   0.172   3.343   5.325
 6143SOL    HW219329   0.053   3.322   5.435
 6144SOL     OW19330   4.266   5.426   2.356
 6144SOL    HW119331   4.227   5.401   2.445
 6144SOL    HW219332   4.343   5.366   2.336
 6145SOL     OW19333   4.856   3.306   3.897
 6145SOL    HW119334   4.845   3.226   3.839
 6145SOL    HW219335   4.877   3.386   3.841
 6146SOL     OW19336   5.968   0.470   5.467
 6146SOL    HW119337   5.938   0.463   5.371
 6146SOL    HW219338   5.924   0.398   5.521
 6147SOL     OW19339   0.918   2.461   4.920
 6147SOL    HW119340   0.992   2.395   4.933
 6147SOL    HW219341   0.885   2.493   5.009
 6148SOL     OW19342   3.618   5.157   0.359
 6148SOL    HW119343   3.524   5.146   0.389
 6148SOL    HW219344   3.669   5.210   0.427
 6149SOL     OW19345   3.362   1.363   1.752
 6149SOL    HW119346   3.361   1.425   1.830
 6149SOL    HW219347   3.384   1.415   1.669
 6150SOL     OW19348   0.450   4.352   4.736
 6150SOL    HW119349   0.440   4.263   4.692
 6150SOL    HW219350   0.491   4.340   4.827
 6151SOL     OW19351   4.299   5.197   2.985
 6151SOL    HW119352   4.368   5.126   2.969
 6151SOL    HW219353   4.341   5.287   2.975
 6152SOL     OW19354   1.623   4.381   3.512
 6152SOL    HW119355   1.691   4.442   3.471
 6152SOL    HW219356   1.669   4.299   3.546
 6153SOL     OW19357   4.874   6.108   1.035
 6153SOL    HW119358   4.916   6.031   0.987
 6153SOL    HW219359   4.782   6.082   1.066
 6154SOL     OW19360   5.255   3.608   2.295
 6154SOL    HW119361   5.215   3.519   2.275
 6154SOL    HW219362   5.285   3.651   2.210
 6155SOL     OW19363   1.974   1.220   3.642
 6155SOL    HW119364   1.880   1.247   3.623
 6155SOL    HW219365   2.031   1.301   3.653
 6156SOL     OW19366   5.331   4.371   1.876
 6156SOL    HW119367   5.359   4.277   1.895
 6156SOL    HW219368   5.268   4.372   1.798
 6157SOL     OW19369   0.444   3.056   1.270
 6157SOL    HW119370   0.539   3.059   1.239
 6157SOL    HW219371   0.442   3.053   1.370
 6158SOL     OW19372   3.031   2.196   4.789
 6158SOL    HW119373   2.935   2.220   4.801
 6158SOL    HW219374   3.083   2.224   4.870
 6159SOL     OW19375   6.253   2.868   0.108
 6159SOL    HW119376   6.211   2.938   0.050
 6159SOL    HW219377   6.231   2.886   0.204
 6160SOL     OW19378   1.044   0.617   1.381
 6160SOL    HW119379   1.127   0.591   1.431
 6160SOL    HW219380   0.976   0.544   1.389
 6161SOL     OW19381   4.725   4.076   0.158
 6161SOL    HW119382   4.711   4.173   0.174
 6161SOL    HW219383   4.684   4.050   0.070
 6162SOL     OW19384   6.467   5.552   2.354
 6162SOL    HW119385   6.431   5.522   2.266
 6162SOL    HW219386   6.435   5.645   2.373
 6163SOL     OW19387   6.511   6.178   2.839
 6163SOL    HW119388   6.471   6.148   2.752
 6163SOL    HW219389   6.440   6.180   2.910
 6164SOL     OW19390   3.026   3.528   4.681
 6164SOL    HW119391   3.115   3.552   4.719
 6164SOL    HW219392   2.973   3.478   4.749
 6165SOL     OW19393   3.306   1.643   0.012
 6165SOL    HW119394   3.251   1.570   6.994
 6165SOL    HW219395   3.262   1.671   0.098
 6166SOL     OW19396   2.895   2.167   6.492
 6166SOL    HW119397   2.891   2.101   6.417
 6166SOL    HW219398   2.970   2.230   6.477
 6167SOL     OW19399   1.606   3.492   2.977
 6167SOL    HW119400   1.577   3.494   2.881
 6167SOL    HW219401   1.703   3.517   2.982
 6168SOL     OW19402   0.328   3.370   3.681
 6168SOL    HW119403   0.384   3.387   3.599
 6168SOL    HW219404   0.235   3.348   3.654
 6169SOL     OW19405   2.205   0.662   6.749
 6169SOL    HW119406   2.242   0.646   6.657
 6169SOL    HW219407   2.159   0.751   6.751
 6170SOL     OW19408   2.889   3.656   0.827
 6170SOL    HW119409   2.890   3.582   0.760
 6170SOL    HW219410   2.873   3.619   0.918
 6171SOL     OW19411   2.217   3.688   1.721
 6171SOL    HW119412   2.271   3.644   1.794
 6171SOL    HW219413   2.136   3.730   1.760
 6172SOL     OW19414   2.533   5.606   2.338
 6172SOL    HW119415   2.578   5.517   2.350
 6172SOL    HW219416   2.600   5.679   2.350
 6173SOL     OW19417   1.087   5.722   2.373
 6173SOL    HW119418   1.056   5.698   2.465
 6173SOL    HW219419   1.114   5.639   2.325
 6174SOL     OW19420   6.122   4.788   2.156
 6174SOL    HW119421   6.170   4.777   2.243
 6174SOL    HW219422   6.175   4.744   2.083
 6175SOL     OW19423   5.090   0.332   3.399
 6175SOL    HW119424   5.125   0.385   3.321
 6175SOL    HW219425   5.026   0.263   3.365
 6176SOL     OW19426   5.235   3.125   6.656
 6176SOL    HW119427   5.209   3.222   6.656
 6176SOL    HW219428   5.166   3.071   6.609
 6177SOL     OW19429   6.685   3.276   1.502
 6177SOL    HW119430   6.596   3.258   1.544
 6177SOL    HW219431   6.729   3.353   1.548
 6178SOL     OW19432   5.570   3.404   1.789
 6178SOL    HW119433   5.492   3.466   1.794
 6178SOL    HW219434   5.604   3.400   1.695
 6179SOL     OW19435   0.215   2.331   5.368
 6179SOL    HW119436   0.308   2.344   5.403
 6179SOL    HW219437   0.176   2.248   5.409
 6180SOL     OW19438   3.177   0.075   6.096
 6180SOL    HW119439   3.220   0.071   6.187
 6180SOL    HW219440   3.087   0.117   6.104
 6181SOL     OW19441   4.659   5.751   0.334
 6181SOL    HW119442   4.630   5.824   0.397
 6181SOL    HW219443   4.676   5.667   0.386
 6182SOL     OW19444   4.961   6.432   6.244
 6182SOL    HW119445   4.944   6.335   6.228
 6182SOL    HW219446   4.981   6.447   6.341
 6183SOL     OW19447   3.204   0.980   2.757
 6183SOL    HW119448   3.175   1.074   2.736
 6183SOL    HW219449   3.151   0.916   2.702
 6184SOL     OW19450   6.022   0.530   6.638
 6184SOL    HW119451   5.941   0.586   6.656
 6184SOL    HW219452   6.011   0.441   6.683
 6185SOL     OW19453   1.016   3.450   5.817
 6185SOL    HW119454   1.019   3.515   5.741
 6185SOL    HW219455   0.956   3.485   5.889
 6186SOL     OW19456   5.624   6.972   5.115
 6186SOL    HW119457   5.612   6.880   5.154
 6186SOL    HW219458   5.684   6.966   5.035
 6187SOL     OW19459   2.812   4.789   4.519
 6187SOL    HW119460   2.840   4.864   4.579
 6187SOL    HW219461   2.885   4.721   4.515
 6188SOL     OW19462   2.853   0.401   1.739
 6188SOL    HW119463   2.823   0.375   1.831
 6188SOL    HW219464   2.776   0.392   1.675
 6189SOL     OW19465   5.331   4.621   3.170
 6189SOL    HW119466   5.403   4.580   3.226
 6189SOL    HW219467   5.259   4.554   3.152
 6190SOL     OW19468   5.096   2.663   5.744
 6190SOL    HW119469   5.040   2.733   5.700
 6190SOL    HW219470   5.186   2.661   5.701
 6191SOL     OW19471   6.870   2.766   6.622
 6191SOL    HW119472   6.862   2.682   6.676
 6191SOL    HW219473   6.843   2.844   6.679
 6192SOL     OW19474   3.025   2.324   0.496
 6192SOL    HW119475   3.051   2.256   0.427
 6192SOL    HW219476   3.048   2.290   0.587
 6193SOL     OW19477   5.907   0.099   1.174
 6193SOL    HW119478   5.864   0.150   1.249
 6193SOL    HW219479   5.946   0.014   1.210
 6194SOL     OW19480   1.943   0.979   0.536
 6194SOL    HW119481   1.920   0.894   0.584
 6194SOL    HW219482   1.866   1.007   0.479
 6195SOL     OW19483   2.403   6.367   6.338
 6195SOL    HW119484   2.432   6.457   6.369
 6195SOL    HW219485   2.403   6.303   6.414
 6196SOL     OW19486   0.215   1.388   6.078
 6196SOL    HW119487   0.292   1.335   6.114
 6196SOL    HW219488   0.130   1.357   6.120
 6197SOL     OW19489   2.566   2.794   0.362
 6197SOL    HW119490   2.488   2.810   0.422
 6197SOL    HW219491   2.557   2.850   0.280
 6198SOL     OW19492   4.320   4.976   2.323
 6198SOL    HW119493   4.247   4.973   2.255
 6198SOL    HW219494   4.341   5.072   2.345
 6199SOL     OW19495   1.029   0.766   6.190
 6199SOL    HW119496   1.122   0.797   6.213
 6199SOL    HW219497   0.966   0.794   6.262
 6200SOL     OW19498   3.572   0.439   5.888
 6200SOL    HW119499   3.550   0.441   5.986
 6200SOL    HW219500   3.494   0.403   5.837
 6201SOL     OW19501   2.431   4.352   3.729
 6201SOL    HW119502   2.449   4.395   3.818
 6201SOL    HW219503   2.510   4.368   3.668
 6202SOL     OW19504   3.110   2.653   1.461
 6202SOL    HW119505   3.065   2.567   1.435
 6202SOL    HW219506   3.058   2.697   1.534
 6203SOL     OW19507   5.090   2.007   5.463
 6203SOL    HW119508   5.181   2.048   5.465
 6203SOL    HW219509   5.044   2.023   5.551
 6204SOL     OW19510   1.483   6.544   5.883
 6204SOL    HW119511   1.543   6.465   5.878
 6204SOL    HW219512   1.506   6.598   5.964
 6205SOL     OW19513   5.414   6.054   0.125
 6205SOL    HW119514   5.479   6.027   0.197
 6205SOL    HW219515   5.463   6.065   0.039
 6206SOL     OW19516   5.237   0.114   3.163
 6206SOL    HW119517   5.249   0.056   3.082
 6206SOL    HW219518   5.313   0.179   3.169
 6207SOL     OW19519   1.881   4.017   4.070
 6207SOL    HW119520   1.853   4.078   3.996
 6207SOL    HW219521   1.801   3.996   4.127
 6208SOL     OW19522   5.256   6.289   6.310
 6208SOL    HW119523   5.219   6.197   6.321
 6208SOL    HW219524   5.265   6.310   6.212
 6209SOL     OW19525   3.154   5.480   1.330
 6209SOL    HW119526   3.220   5.444   1.264
 6209SOL    HW219527   3.158   5.425   1.414
 6210SOL     OW19528   6.659   4.834   3.307
 6210SOL    HW119529   6.737   4.880   3.349
 6210SOL    HW219530   6.582   4.834   3.370
 6211SOL     OW19531   2.474   0.395   4.880
 6211SOL    HW119532   2.500   0.327   4.812
 6211SOL    HW219533   2.376   0.413   4.873
 6212SOL     OW19534   7.009   6.654   3.769
 6212SOL    HW119535   0.003   6.600   3.851
 6212SOL    HW219536   0.062   6.648   3.706
 6213SOL     OW19537   6.470   0.188   6.648
 6213SOL    HW119538   6.372   0.207   6.658
 6213SOL    HW219539   6.494   0.106   6.699
 6214SOL     OW19540   6.001   4.933   2.363
 6214SOL    HW119541   6.022   4.877   2.283
 6214SOL    HW219542   6.070   5.004   2.372
 6215SOL     OW19543   2.489   4.889   1.447
 6215SOL    HW119544   2.536   4.975   1.463
 6215SOL    HW219545   2.523   4.820   1.511
 6216SOL     OW19546   6.179   1.676   2.539
 6216SOL    HW119547   6.142   1.590   2.505
 6216SOL    HW219548   6.277   1.680   2.518
 6217SOL     OW19549   5.434   3.065   2.108
 6217SOL    HW119550   5.355   3.126   2.104
 6217SOL    HW219551   5.423   3.001   2.184
 6218SOL     OW19552   3.772   5.075   4.387
 6218SOL    HW119553   3.676   5.058   4.409
 6218SOL    HW219554   3.787   5.173   4.381
 6219SOL     OW19555   1.243   1.512   4.118
 6219SOL    HW119556   1.249   1.606   4.084
 6219SOL    HW219557   1.155   1.499   4.164
 6220SOL     OW19558   1.499   3.976   5.400
 6220SOL    HW119559   1.502   4.035   5.319
 6220SOL    HW219560   1.441   3.897   5.381
 6221SOL     OW19561   4.628   4.940   4.173
 6221SOL    HW119562   4.677   5.025   4.159
 6221SOL    HW219563   4.530   4.956   4.161
 6222SOL     OW19564   0.241   1.664   1.139
 6222SOL    HW119565   0.229   1.580   1.191
 6222SOL    HW219566   0.230   1.743   1.199
 6223SOL     OW19567   5.263   3.741   4.747
 6223SOL    HW119568   5.288   3.720   4.653
 6223SOL    HW219569   5.251   3.656   4.799
 6224SOL     OW19570   2.984   0.367   4.921
 6224SOL    HW119571   3.011   0.424   4.998
 6224SOL    HW219572   2.966   0.425   4.841
 6225SOL     OW19573   4.377   2.788   6.747
 6225SOL    HW119574   4.472   2.804   6.773
 6225SOL    HW219575   4.351   2.695   6.773
 6226SOL     OW19576   6.469   6.899   4.531
 6226SOL    HW119577   6.488   6.997   4.542
 6226SOL    HW219578   6.474   6.875   4.434
 6227SOL     OW19579   2.710   4.474   6.962
 6227SOL    HW119580   2.694   4.376   6.950
 6227SOL    HW219581   2.699   4.520   6.873
 6228SOL     OW19582   0.026   0.867   2.446
 6228SOL    HW119583   0.113   0.916   2.441
 6228SOL    HW219584   7.000   0.895   2.527
 6229SOL     OW19585   1.491   2.620   1.765
 6229SOL    HW119586   1.554   2.649   1.837
 6229SOL    HW219587   1.407   2.585   1.807
 6230SOL     OW19588   1.818   2.207   3.266
 6230SOL    HW119589   1.763   2.167   3.193
 6230SOL    HW219590   1.768   2.204   3.352
 6231SOL     OW19591   6.552   5.453   1.429
 6231SOL    HW119592   6.574   5.394   1.507
 6231SOL    HW219593   6.587   5.545   1.445
 6232SOL     OW19594   0.793   1.843   6.706
 6232SOL    HW119595   0.803   1.935   6.744
 6232SOL    HW219596   0.810   1.845   6.608
 6233SOL     OW19597   4.334   1.902   6.813
 6233SOL    HW119598   4.347   1.805   6.833
 6233SOL    HW219599   4.323   1.953   6.899
 6234SOL     OW19600   2.017   2.592   3.091
 6234SOL    HW119601   1.959   2.669   3.119
 6234SOL    HW219602   2.027   2.528   3.167
 6235SOL     OW19603   2.170   6.129   3.215
 6235SOL    HW119604   2.147   6.095   3.124
 6235SOL    HW219605   2.135   6.221   3.227
 6236SOL     OW19606   6.731   4.204   6.805
 6236SOL    HW119607   6.793   4.270   6.846
 6236SOL    HW219608   6.784   4.137   6.753
 6237SOL     OW19609   4.174   6.604   0.304
 6237SOL    HW119610   4.197   6.659   0.384
 6237SOL    HW219611   4.255   6.593   0.246
 6238SOL     OW19612   4.636   4.026   1.253
 6238SOL    HW119613   4.637   3.935   1.212
 6238SOL    HW219614   4.629   4.095   1.180
 6239SOL     OW19615   2.297   1.123   3.588
 6239SOL    HW119616   2.222   1.175   3.627
 6239SOL    HW219617   2.271   1.026   3.583
 6240SOL     OW19618   2.442   3.762   0.277
 6240SOL    HW119619   2.455   3.838   0.213
 6240SOL    HW219620   2.413   3.681   0.227
 6241SOL     OW19621   4.424   0.038   2.002
 6241SOL    HW119622   4.413   6.973   1.960
 6241SOL    HW219623   4.433   0.028   2.101
 6242SOL     OW19624   3.549   2.119   3.690
 6242SOL    HW119625   3.473   2.068   3.649
 6242SOL    HW219626   3.522   2.151   3.781
 6243SOL     OW19627   5.383   5.283   3.564
 6243SOL    HW119628   5.283   5.275   3.557
 6243SOL    HW219629   5.422   5.289   3.472
 6244SOL     OW19630   1.977   2.186   2.091
 6244SOL    HW119631   2.002   2.135   2.008
 6244SOL    HW219632   2.050   2.251   2.112
 6245SOL     OW19633   2.114   3.824   0.473
 6245SOL    HW119634   2.200   3.774   0.479
 6245SOL    HW219635   2.073   3.809   0.383
 6246SOL     OW19636   3.809   1.189   6.646
 6246SOL    HW119637   3.744   1.203   6.572
 6246SOL    HW219638   3.760   1.186   6.733
 6247SOL     OW19639   6.830   6.139   2.901
 6247SOL    HW119640   6.775   6.057   2.916
 6247SOL    HW219641   6.778   6.203   2.843
 6248SOL     OW19642   1.017   4.830   1.127
 6248SOL    HW119643   0.919   4.812   1.141
 6248SOL    HW219644   1.037   4.925   1.149
 6249SOL     OW19645   5.275   4.263   6.432
 6249SOL    HW119646   5.254   4.327   6.358
 6249SOL    HW219647   5.334   4.191   6.398
 6250SOL     OW19648   6.115   5.582   6.004
 6250SOL    HW119649   6.090   5.487   6.023
 6250SOL    HW219650   6.105   5.600   5.906
 6251SOL     OW19651   4.646   1.823   1.284
 6251SOL    HW119652   4.588   1.894   1.245
 6251SOL    HW219653   4.728   1.812   1.228
 6252SOL     OW19654   1.760   6.235   5.099
 6252SOL    HW119655   1.694   6.162   5.084
 6252SOL    HW219656   1.750   6.270   5.192
 6253SOL     OW19657   1.865   3.980   1.409
 6253SOL    HW119658   1.920   3.899   1.387
 6253SOL    HW219659   1.911   4.062   1.376
 6254SOL     OW19660   5.154   0.633   0.529
 6254SOL    HW119661   5.131   0.666   0.437
 6254SOL    HW219662   5.163   0.533   0.527
 6255SOL     OW19663   6.670   1.850   2.665
 6255SOL    HW119664   6.719   1.772   2.706
 6255SOL    HW219665   6.635   1.823   2.576
 6256SOL     OW19666   3.693   4.954   3.534
 6256SOL    HW119667   3.732   4.982   3.622
 6256SOL    HW219668   3.594   4.968   3.536
 6257SOL     OW19669   4.465   2.785   0.264
 6257SOL    HW119670   4.511   2.864   0.306
 6257SOL    HW219671   4.366   2.797   0.269
 6258SOL     OW19672   5.292   2.535   2.720
 6258SOL    HW119673   5.289   2.461   2.788
 6258SOL    HW219674   5.250   2.504   2.635
 6259SOL     OW19675   2.997   2.292   1.705
 6259SOL    HW119676   2.962   2.340   1.785
 6259SOL    HW219677   2.921   2.253   1.654
 6260SOL     OW19678   3.470   3.659   0.817
 6260SOL    HW119679   3.495   3.594   0.745
 6260SOL    HW219680   3.385   3.705   0.792
 6261SOL     OW19681   4.502   0.582   6.660
 6261SOL    HW119682   4.557   0.632   6.594
 6261SOL    HW219683   4.561   0.545   6.732
 6262SOL     OW19684   0.422   6.115   5.153
 6262SOL    HW119685   0.471   6.083   5.073
 6262SOL    HW219686   0.487   6.158   5.217
 6263SOL     OW19687   6.602   1.119   0.756
 6263SOL    HW119688   6.565   1.153   0.669
 6263SOL    HW219689   6.644   1.194   0.806
 6264SOL     OW19690   1.868   1.205   6.625
 6264SOL    HW119691   1.808   1.242   6.696
 6264SOL    HW219692   1.944   1.268   6.609
 6265SOL     OW19693   4.832   3.598   1.165
 6265SOL    HW119694   4.806   3.691   1.191
 6265SOL    HW219695   4.895   3.603   1.087
 6266SOL     OW19696   2.410   6.903   2.119
 6266SOL    HW119697   2.465   6.982   2.147
 6266SOL    HW219698   2.403   6.902   2.019
 6267SOL     OW19699   2.537   6.769   7.005
 6267SOL    HW119700   2.517   6.740   0.075
 6267SOL    HW219701   2.528   6.868   6.998
 6268SOL     OW19702   2.960   5.083   2.513
 6268SOL    HW119703   2.911   5.054   2.431
 6268SOL    HW219704   2.916   5.043   2.594
 6269SOL     OW19705   6.015   4.887   0.360
 6269SOL    HW119706   6.009   4.912   0.263
 6269SOL    HW219707   6.111   4.888   0.389
 6270SOL     OW19708   0.547   1.548   4.483
 6270SOL    HW119709   0.566   1.566   4.579
 6270SOL    HW219710   0.630   1.514   4.438
 6271SOL     OW19711   6.102   1.880   0.910
 6271SOL    HW119712   6.170   1.861   0.981
 6271SOL    HW219713   6.148   1.892   0.822
 6272SOL     OW19714   1.487   2.326   3.164
 6272SOL    HW119715   1.513   2.365   3.252
 6272SOL    HW219716   1.517   2.230   3.159
 6273SOL     OW19717   3.843   0.394   2.162
 6273SOL    HW119718   3.880   0.461   2.225
 6273SOL    HW219719   3.918   0.349   2.113
 6274SOL     OW19720   3.052   6.265   6.686
 6274SOL    HW119721   2.957   6.295   6.676
 6274SOL    HW219722   3.054   6.169   6.714
 6275SOL     OW19723   2.702   0.469   4.389
 6275SOL    HW119724   2.604   0.477   4.368
 6275SOL    HW219725   2.750   0.548   4.351
 6276SOL     OW19726   1.319   5.140   3.930
 6276SOL    HW119727   1.281   5.055   3.893
 6276SOL    HW219728   1.378   5.183   3.861
 6277SOL     OW19729   5.731   3.074   3.905
 6277SOL    HW119730   5.815   3.043   3.949
 6277SOL    HW219731   5.733   3.173   3.896
 6278SOL     OW19732   4.885   0.811   4.344
 6278SOL    HW119733   4.829   0.751   4.287
 6278SOL    HW219734   4.840   0.900   4.352
 6279SOL     OW19735   4.829   1.755   6.779
 6279SOL    HW119736   4.790   1.841   6.813
 6279SOL    HW219737   4.799   1.680   6.838
 6280SOL     OW19738   0.601   5.278   6.094
 6280SOL    HW119739   0.667   5.240   6.029
 6280SOL    HW219740   0.576   5.370   6.067
 6281SOL     OW19741   2.776   6.666   5.161
 6281SOL    HW119742   2.808   6.572   5.161
 6281SOL    HW219743   2.740   6.690   5.071
 6282SOL     OW19744   1.440   0.066   3.496
 6282SOL    HW119745   1.409   6.997   3.507
 6282SOL    HW219746   1.454   0.108   3.586
 6283SOL     OW19747   0.535   3.037   5.173
 6283SOL    HW119748   0.495   3.016   5.084
 6283SOL    HW219749   0.620   3.088   5.159
 6284SOL     OW19750   1.835   4.634   6.620
 6284SOL    HW119751   1.868   4.541   6.635
 6284SOL    HW219752   1.865   4.666   6.530
 6285SOL     OW19753   1.850   4.566   2.548
 6285SOL    HW119754   1.816   4.597   2.460
 6285SOL    HW219755   1.775   4.522   2.599
 6286SOL     OW19756   5.928   0.169   4.930
 6286SOL    HW119757   5.887   0.114   5.002
 6286SOL    HW219758   5.890   0.262   4.934
 6287SOL     OW19759   4.192   4.683   2.139
 6287SOL    HW119760   4.114   4.628   2.109
 6287SOL    HW219761   4.160   4.773   2.169
 6288SOL     OW19762   5.339   4.104   1.362
 6288SOL    HW119763   5.256   4.053   1.341
 6288SOL    HW219764   5.417   4.061   1.317
 6289SOL     OW19765   1.292   0.273   2.696
 6289SOL    HW119766   1.380   0.228   2.684
 6289SOL    HW219767   1.264   0.316   2.610
 6290SOL     OW19768   6.206   3.023   3.281
 6290SOL    HW119769   6.272   2.987   3.348
 6290SOL    HW219770   6.242   3.011   3.189
 6291SOL     OW19771   3.937   3.868   3.121
 6291SOL    HW119772   3.953   3.908   3.212
 6291SOL    HW219773   3.841   3.841   3.113
 6292SOL     OW19774   6.586   1.555   1.794
 6292SOL    HW119775   6.660   1.488   1.791
 6292SOL    HW219776   6.624   1.647   1.786
 6293SOL     OW19777   4.825   5.373   0.686
 6293SOL    HW119778   4.910   5.372   0.737
 6293SOL    HW219779   4.753   5.329   0.740
 6294SOL     OW19780   3.863   5.361   2.688
 6294SOL    HW119781   3.791   5.404   2.632
 6294SOL    HW219782   3.822   5.289   2.744
 6295SOL     OW19783   6.576   6.352   5.804
 6295SOL    HW119784   6.563   6.253   5.800
 6295SOL    HW219785   6.512   6.391   5.869
 6296SOL     OW19786   6.824   0.758   2.320
 6296SOL    HW119787   6.853   0.669   2.285
 6296SOL    HW219788   6.904   0.813   2.343
 6297SOL     OW19789   5.782   0.894   6.033
 6297SOL    HW119790   5.701   0.835   6.026
 6297SOL    HW219791   5.846   0.855   6.099
 6298SOL     OW19792   0.166   1.888   4.313
 6298SOL    HW119793   0.209   1.802   4.340
 6298SOL    HW219794   0.069   1.886   4.337
 6299SOL     OW19795   6.210   3.212   0.247
 6299SOL    HW119796   6.208   3.130   0.305
 6299SOL    HW219797   6.119   3.226   0.207
 6300SOL     OW19798   5.080   1.650   3.754
 6300SOL    HW119799   5.007   1.671   3.689
 6300SOL    HW219800   5.070   1.708   3.835
 6301SOL     OW19801   3.377   0.620   0.952
 6301SOL    HW119802   3.404   0.575   1.037
 6301SOL    HW219803   3.294   0.576   0.916
 6302SOL     OW19804   0.058   0.905   2.941
 6302SOL    HW119805   0.019   0.921   2.851
 6302SOL    HW219806   0.095   0.812   2.946
 6303SOL     OW19807   2.196   5.933   5.204
 6303SOL    HW119808   2.196   6.012   5.142
 6303SOL    HW219809   2.138   5.951   5.283
 6304SOL     OW19810   4.051   1.163   5.564
 6304SOL    HW119811   3.970   1.214   5.533
 6304SOL    HW219812   4.087   1.205   5.647
 6305SOL     OW19813   5.673   1.254   2.374
 6305SOL    HW119814   5.732   1.295   2.304
 6305SOL    HW219815   5.594   1.312   2.391
 6306SOL     OW19816   5.794   2.966   4.515
 6306SOL    HW119817   5.840   3.048   4.547
 6306SOL    HW219818   5.726   2.937   4.583
 6307SOL     OW19819   2.433   4.528   0.504
 6307SOL    HW119820   2.523   4.485   0.505
 6307SOL    HW219821   2.436   4.612   0.559
 6308SOL     OW19822   3.524   2.049   5.635
 6308SOL    HW119823   3.449   2.073   5.574
 6308SOL    HW219824   3.587   1.988   5.588
 6309SOL     OW19825   5.675   1.966   5.040
 6309SOL    HW119826   5.605   1.895   5.031
 6309SOL    HW219827   5.634   2.048   5.079
 6310SOL     OW19828   0.869   5.025   4.459
 6310SOL    HW119829   0.815   4.995   4.380
 6310SOL    HW219830   0.811   5.024   4.541
 6311SOL     OW19831   6.374   6.170   4.078
 6311SOL    HW119832   6.290   6.152   4.026
 6311SOL    HW219833   6.429   6.087   4.081
 6312SOL     OW19834   5.111   4.658   5.841
 6312SOL    HW119835   5.039   4.591   5.857
 6312SOL    HW219836   5.104   4.693   5.748
 6313SOL     OW19837   2.705   5.277   3.730
 6313SOL    HW119838   2.675   5.317   3.643
 6313SOL    HW219839   2.629   5.226   3.770
 6314SOL     OW19840   2.549   6.594   3.776
 6314SOL    HW119841   2.519   6.662   3.843
 6314SOL    HW219842   2.635   6.553   3.804
 6315SOL     OW19843   2.355   4.205   0.570
 6315SOL    HW119844   2.419   4.247   0.506
 6315SOL    HW219845   2.386   4.112   0.591
 6316SOL     OW19846   4.935   1.688   5.921
 6316SOL    HW119847   4.976   1.647   5.840
 6316SOL    HW219848   5.008   1.716   5.984
 6317SOL     OW19849   6.222   5.686   4.185
 6317SOL    HW119850   6.200   5.758   4.251
 6317SOL    HW219851   6.297   5.716   4.126
 6318SOL     OW19852   2.170   2.101   4.832
 6318SOL    HW119853   2.252   2.104   4.889
 6318SOL    HW219854   2.097   2.154   4.876
 6319SOL     OW19855   0.414   1.743   2.944
 6319SOL    HW119856   0.466   1.753   2.859
 6319SOL    HW219857   0.465   1.685   3.007
 6320SOL     OW19858   6.954   1.690   3.221
 6320SOL    HW119859   6.919   1.634   3.147
 6320SOL    HW219860   0.023   1.664   3.243
 6321SOL     OW19861   2.446   3.638   6.084
 6321SOL    HW119862   2.405   3.620   5.994
 6321SOL    HW219863   2.528   3.693   6.073
 6322SOL     OW19864   1.253   0.600   6.789
 6322SOL    HW119865   1.306   0.639   6.714
 6322SOL    HW219866   1.157   0.626   6.780
 6323SOL     OW19867   4.460   1.633   1.334
 6323SOL    HW119868   4.462   1.628   1.434
 6323SOL    HW219869   4.530   1.698   1.303
 6324SOL     OW19870   4.338   2.460   6.500
 6324SOL    HW119871   4.253   2.407   6.494
 6324SOL    HW219872   4.359   2.477   6.596
 6325SOL     OW19873   1.317   2.584   2.435
 6325SOL    HW119874   1.276   2.647   2.501
 6325SOL    HW219875   1.252   2.567   2.360
 6326SOL     OW19876   4.263   6.227   1.222
 6326SOL    HW119877   4.352   6.262   1.252
 6326SOL    HW219878   4.253   6.132   1.251
 6327SOL     OW19879   3.846   5.524   6.028
 6327SOL    HW119880   3.758   5.544   5.987
 6327SOL    HW219881   3.882   5.439   5.991
 6328SOL     OW19882   2.982   4.341   6.759
 6328SOL    HW119883   3.029   4.429   6.750
 6328SOL    HW219884   2.960   4.325   6.856
 6329SOL     OW19885   1.519   1.540   2.342
 6329SOL    HW119886   1.543   1.601   2.266
 6329SOL    HW219887   1.524   1.592   2.428
 6330SOL     OW19888   3.706   0.886   0.215
 6330SOL    HW119889   3.690   0.799   0.169
 6330SOL    HW219890   3.687   0.876   0.313
 6331SOL     OW19891   5.607   3.034   2.611
 6331SOL    HW119892   5.675   3.087   2.662
 6331SOL    HW219893   5.585   3.081   2.526
 6332SOL     OW19894   4.730   6.686   2.347
 6332SOL    HW119895   4.709   6.766   2.403
 6332SOL    HW219896   4.829   6.676   2.338
 6333SOL     OW19897   2.432   5.134   3.018
 6333SOL    HW119898   2.518   5.113   2.973
 6333SOL    HW219899   2.442   5.217   3.073
 6334SOL     OW19900   2.817   1.993   2.449
 6334SOL    HW119901   2.838   1.991   2.351
 6334SOL    HW219902   2.718   1.984   2.462
 6335SOL     OW19903   0.309   1.617   6.968
 6335SOL    HW119904   0.228   1.595   6.913
 6335SOL    HW219905   0.374   1.667   6.911
 6336SOL     OW19906   0.783   3.012   4.974
 6336SOL    HW119907   0.789   3.036   4.878
 6336SOL    HW219908   0.842   3.073   5.028
 6337SOL     OW19909   6.806   4.973   5.021
 6337SOL    HW119910   6.791   5.071   5.037
 6337SOL    HW219911   6.760   4.920   5.091
 6338SOL     OW19912   3.681   1.341   4.226
 6338SOL    HW119913   3.626   1.380   4.301
 6338SOL    HW219914   3.666   1.394   4.143
 6339SOL     OW19915   0.447   2.963   4.937
 6339SOL    HW119916   0.430   2.868   4.911
 6339SOL    HW219917   0.544   2.985   4.922
 6340SOL     OW19918   2.561   5.420   4.093
 6340SOL    HW119919   2.533   5.325   4.107
 6340SOL    HW219920   2.651   5.435   4.135
 6341SOL     OW19921   6.422   5.048   2.468
 6341SOL    HW119922   6.362   5.117   2.428
 6341SOL    HW219923   6.465   4.995   2.394
 6342SOL     OW19924   1.488   3.496   0.958
 6342SOL    HW119925   1.542   3.513   0.876
 6342SOL    HW219926   1.523   3.551   1.033
 6343SOL     OW19927   4.271   0.867   0.368
 6343SOL    HW119928   4.245   0.892   0.462
 6343SOL    HW219929   4.366   0.836   0.368
 6344SOL     OW19930   6.920   4.911   4.451
 6344SOL    HW119931   6.847   4.947   4.509
 6344SOL    HW219932   6.916   4.811   4.452
 6345SOL     OW19933   2.703   2.350   2.259
 6345SOL    HW119934   2.734   2.319   2.349
 6345SOL    HW219935   2.782   2.364   2.200
 6346SOL     OW19936   0.645   5.598   4.487
 6346SOL    HW119937   0.593   5.563   4.410
 6346SOL    HW219938   0.736   5.627   4.455
 6347SOL     OW19939   2.578   0.076   1.125
 6347SOL    HW119940   2.499   0.064   1.185
 6347SOL    HW219941   2.635   0.150   1.161
 6348SOL     OW19942   0.707   2.570   4.796
 6348SOL    HW119943   0.801   2.548   4.821
 6348SOL    HW219944   0.659   2.487   4.768
 6349SOL     OW19945   2.162   0.948   0.351
 6349SOL    HW119946   2.200   0.857   0.369
 6349SOL    HW219947   2.091   0.969   0.419
 6350SOL     OW19948   0.638   5.510   3.212
 6350SOL    HW119949   0.666   5.456   3.291
 6350SOL    HW219950   0.625   5.449   3.134
 6351SOL     OW19951   6.875   1.279   3.296
 6351SOL    HW119952   6.946   1.350   3.303
 6351SOL    HW219953   6.789   1.321   3.268
 6352SOL     OW19954   0.121   5.774   2.533
 6352SOL    HW119955   0.103   5.688   2.580
 6352SOL    HW219956   0.185   5.830   2.587
 6353SOL     OW19957   6.965   6.884   1.917
 6353SOL    HW119958   0.040   6.889   1.921
 6353SOL    HW219959   6.933   6.932   1.835
 6354SOL     OW19960   0.117   6.891   4.488
 6354SOL    HW119961   0.054   6.967   4.506
 6354SOL    HW219962   0.082   6.808   4.532
 6355SOL     OW19963   0.708   2.509   2.246
 6355SOL    HW119964   0.796   2.471   2.274
 6355SOL    HW219965   0.636   2.442   2.264
 6356SOL     OW19966   3.439   2.603   0.773
 6356SOL    HW119967   3.508   2.634   0.709
 6356SOL    HW219968   3.362   2.563   0.723
 6357SOL     OW19969   4.813   1.849   0.749
 6357SOL    HW119970   4.780   1.848   0.655
 6357SOL    HW219971   4.794   1.759   0.791
 6358SOL     OW19972   0.964   3.008   3.716
 6358SOL    HW119973   1.024   2.975   3.789
 6358SOL    HW219974   0.905   3.080   3.752
 6359SOL     OW19975   0.130   1.695   6.486
 6359SOL    HW119976   0.050   1.724   6.539
 6359SOL    HW219977   0.184   1.775   6.461
 6360SOL     OW19978   3.393   5.390   4.062
 6360SOL    HW119979   3.369   5.415   3.968
 6360SOL    HW219980   3.312   5.354   4.108
 6361SOL     OW19981   3.183   6.653   6.231
 6361SOL    HW119982   3.135   6.576   6.190
 6361SOL    HW219983   3.133   6.683   6.313
 6362SOL     OW19984   6.448   5.364   6.072
 6362SOL    HW119985   6.390   5.282   6.076
 6362SOL    HW219986   6.519   5.357   6.142
 6363SOL     OW19987   0.999   5.955   4.400
 6363SOL    HW119988   1.058   5.946   4.480
 6363SOL    HW219989   0.947   6.040   4.405
 6364SOL     OW19990   1.781   2.651   6.458
 6364SOL    HW119991   1.827   2.566   6.433
 6364SOL    HW219992   1.768   2.655   6.557
 6365SOL     OW19993   4.908   5.565   2.907
 6365SOL    HW119994   4.839   5.497   2.929
 6365SOL    HW219995   4.926   5.564   2.809
 6366SOL     OW19996   0.240   4.557   5.350
 6366SOL    HW119997   0.272   4.543   5.257
 6366SOL    HW219998   0.261   4.650   5.380
 6367SOL     OW19999   6.227   6.116   2.679
 6367SOL    HW120000   6.135   6.135   2.713
 6367SOL    HW220001   6.225   6.034   2.621
 6368SOL     OW20002   3.516   0.554   3.345
 6368SOL    HW120003   3.499   0.565   3.443
 6368SOL    HW220004   3.589   0.615   3.316
 6369SOL     OW20005   2.078   4.914   5.649
 6369SOL    HW120006   2.085   5.007   5.615
 6369SOL    HW220007   2.106   4.850   5.578
 6370SOL     OW20008   5.829   2.729   2.155
 6370SOL    HW120009   5.878   2.761   2.074
 6370SOL    HW220010   5.734   2.758   2.149
 6371SOL     OW20011   4.295   1.616   3.754
 6371SOL    HW120012   4.369   1.671   3.792
 6371SOL    HW220013   4.310   1.520   3.777
 6372SOL     OW20014   2.973   6.384   2.424
 6372SOL    HW120015   2.979   6.291   2.387
 6372SOL    HW220016   3.061   6.410   2.464
 6373SOL     OW20017   3.471   4.825   0.576
 6373SOL    HW120018   3.445   4.762   0.503
 6373SOL    HW220019   3.566   4.853   0.564
 6374SOL     OW20020   3.064   3.187   2.676
 6374SOL    HW120021   3.082   3.143   2.764
 6374SOL    HW220022   3.093   3.127   2.602
 6375SOL     OW20023   1.342   5.812   2.179
 6375SOL    HW120024   1.264   5.810   2.242
 6375SOL    HW220025   1.326   5.748   2.104
 6376SOL     OW20026   0.614   2.742   5.346
 6376SOL    HW120027   0.667   2.674   5.397
 6376SOL    HW220028   0.610   2.716   5.250
 6377SOL     OW20029   0.702   1.857   4.062
 6377SOL    HW120030   0.731   1.763   4.078
 6377SOL    HW220031   0.608   1.868   4.093
 6378SOL     OW20032   4.608   4.757   3.482
 6378SOL    HW120033   4.559   4.822   3.423
 6378SOL    HW220034   4.549   4.679   3.501
 6379SOL     OW20035   2.346   4.984   2.013
 6379SOL    HW120036   2.446   4.988   2.007
 6379SOL    HW220037   2.307   5.061   1.964
 6380SOL     OW20038   1.061   0.856   5.925
 6380SOL    HW120039   1.056   0.828   6.020
 6380SOL    HW220040   1.147   0.823   5.885
 6381SOL     OW20041   2.807   3.384   1.951
 6381SOL    HW120042   2.852   3.296   1.966
 6381SOL    HW220043   2.851   3.454   2.007
 6382SOL     OW20044   1.182   4.467   5.064
 6382SOL    HW120045   1.211   4.421   5.148
 6382SOL    HW220046   1.139   4.554   5.087
 6383SOL     OW20047   4.091   1.339   4.056
 6383SOL    HW120048   3.998   1.360   4.087
 6383SOL    HW220049   4.156   1.399   4.102
 6384SOL     OW20050   6.732   4.579   2.711
 6384SOL    HW120051   6.700   4.560   2.618
 6384SOL    HW220052   6.691   4.665   2.743
 6385SOL     OW20053   0.692   5.718   4.730
 6385SOL    HW120054   0.683   5.683   4.637
 6385SOL    HW220055   0.694   5.641   4.794
 6386SOL     OW20056   2.497   5.560   1.595
 6386SOL    HW120057   2.596   5.553   1.601
 6386SOL    HW220058   2.456   5.469   1.600
 6387SOL     OW20059   6.728   1.357   5.287
 6387SOL    HW120060   6.647   1.357   5.229
 6387SOL    HW220061   6.766   1.450   5.290
 6388SOL     OW20062   2.358   4.753   2.774
 6388SOL    HW120063   2.391   4.705   2.693
 6388SOL    HW220064   2.289   4.698   2.820
 6389SOL     OW20065   1.067   4.745   1.472
 6389SOL    HW120066   1.158   4.781   1.453
 6389SOL    HW220067   1.054   4.658   1.425
 6390SOL     OW20068   0.568   2.803   4.031
 6390SOL    HW120069   0.540   2.847   4.116
 6390SOL    HW220070   0.586   2.873   3.962
 6391SOL     OW20071   3.620   0.806   6.912
 6391SOL    HW120072   3.718   0.791   6.924
 6391SOL    HW220073   3.599   0.904   6.917
 6392SOL     OW20074   1.614   6.119   4.435
 6392SOL    HW120075   1.524   6.145   4.400
 6392SOL    HW220076   1.614   6.023   4.460
 6393SOL     OW20077   5.453   1.276   0.939
 6393SOL    HW120078   5.473   1.207   1.009
 6393SOL    HW220079   5.524   1.347   0.942
 6394SOL     OW20080   3.376   4.898   1.853
 6394SOL    HW120081   3.432   4.815   1.845
 6394SOL    HW220082   3.284   4.873   1.884
 6395SOL     OW20083   6.243   1.818   0.657
 6395SOL    HW120084   6.163   1.764   0.633
 6395SOL    HW220085   6.320   1.790   0.600
 6396SOL     OW20086   6.109   3.820   5.340
 6396SOL    HW120087   6.188   3.881   5.342
 6396SOL    HW220088   6.138   3.728   5.367
 6397SOL     OW20089   6.599   0.841   0.113
 6397SOL    HW120090   6.693   0.810   0.125
 6397SOL    HW220091   6.566   0.884   0.197
 6398SOL     OW20092   3.889   0.794   1.291
 6398SOL    HW120093   3.959   0.726   1.314
 6398SOL    HW220094   3.896   0.818   1.194
 6399SOL     OW20095   2.390   6.146   6.572
 6399SOL    HW120096   2.431   6.068   6.618
 6399SOL    HW220097   2.291   6.132   6.563
 6400SOL     OW20098   3.063   5.185   4.481
 6400SOL    HW120099   2.983   5.151   4.432
 6400SOL    HW220100   3.034   5.254   4.548
 6401SOL     OW20101   1.280   4.347   4.827
 6401SOL    HW120102   1.262   4.381   4.919
 6401SOL    HW220103   1.269   4.421   4.761
 6402SOL     OW20104   1.785   2.422   2.991
 6402SOL    HW120105   1.852   2.496   3.002
 6402SOL    HW220106   1.812   2.364   2.914
 6403SOL     OW20107   1.046   6.669   1.378
 6403SOL    HW120108   1.093   6.585   1.407
 6403SOL    HW220109   1.114   6.738   1.354
 6404SOL     OW20110   4.944   1.151   3.560
 6404SOL    HW120111   4.936   1.200   3.473
 6404SOL    HW220112   4.880   1.074   3.560
 6405SOL     OW20113   3.354   1.084   1.180
 6405SOL    HW120114   3.321   1.015   1.115
 6405SOL    HW220115   3.291   1.161   1.181
 6406SOL     OW20116   2.948   1.716   3.728
 6406SOL    HW120117   2.944   1.807   3.687
 6406SOL    HW220118   2.933   1.646   3.657
 6407SOL     OW20119   4.784   5.932   6.104
 6407SOL    HW120120   4.846   6.002   6.140
 6407SOL    HW220121   4.737   5.887   6.180
 6408SOL     OW20122   6.109   1.979   0.384
 6408SOL    HW120123   6.174   1.929   0.327
 6408SOL    HW220124   6.059   1.914   0.441
 6409SOL     OW20125   1.138   4.774   1.775
 6409SOL    HW120126   1.125   4.860   1.727
 6409SOL    HW220127   1.204   4.786   1.849
 6410SOL     OW20128   1.216   1.113   1.998
 6410SOL    HW120129   1.293   1.057   2.024
 6410SOL    HW220130   1.159   1.133   2.078
 6411SOL     OW20131   1.603   0.916   3.748
 6411SOL    HW120132   1.685   0.883   3.795
 6411SOL    HW220133   1.626   0.995   3.691
 6412SOL     OW20134   6.433   2.715   4.231
 6412SOL    HW120135   6.353   2.663   4.261
 6412SOL    HW220136   6.515   2.677   4.273
 6413SOL     OW20137   0.383   4.731   0.761
 6413SOL    HW120138   0.301   4.786   0.747
 6413SOL    HW220139   0.432   4.722   0.674
 6414SOL     OW20140   6.038   6.548   3.012
 6414SOL    HW120141   5.956   6.573   3.062
 6414SOL    HW220142   6.116   6.543   3.075
 6415SOL     OW20143   1.552   1.741   2.131
 6415SOL    HW120144   1.458   1.769   2.150
 6415SOL    HW220145   1.614   1.817   2.152
 6416SOL     OW20146   2.146   6.372   6.199
 6416SOL    HW120147   2.223   6.333   6.249
 6416SOL    HW220148   2.174   6.460   6.159
 6417SOL     OW20149   0.446   6.651   3.328
 6417SOL    HW120150   0.534   6.611   3.353
 6417SOL    HW220151   0.437   6.741   3.370
 6418SOL     OW20152   6.748   5.692   2.666
 6418SOL    HW120153   6.786   5.660   2.579
 6418SOL    HW220154   6.782   5.635   2.740
 6419SOL     OW20155   2.555   3.516   1.095
 6419SOL    HW120156   2.534   3.495   1.000
 6419SOL    HW220157   2.654   3.529   1.105
 6420SOL     OW20158   0.841   3.155   6.666
 6420SOL    HW120159   0.852   3.252   6.644
 6420SOL    HW220160   0.824   3.103   6.583
 6421SOL     OW20161   6.034   2.247   0.410
 6421SOL    HW120162   6.076   2.271   0.497
 6421SOL    HW220163   6.046   2.149   0.393
 6422SOL     OW20164   5.832   2.356   3.508
 6422SOL    HW120165   5.885   2.305   3.440
 6422SOL    HW220166   5.892   2.383   3.583
 6423SOL     OW20167   4.654   4.179   1.037
 6423SOL    HW120168   4.745   4.173   0.996
 6423SOL    HW220169   4.614   4.268   1.017
 6424SOL     OW20170   6.597   4.370   5.252
 6424SOL    HW120171   6.553   4.292   5.206
 6424SOL    HW220172   6.531   4.414   5.312
 6425SOL     OW20173   0.824   5.171   1.295
 6425SOL    HW120174   0.767   5.137   1.221
 6425SOL    HW220175   0.821   5.106   1.372
 6426SOL     OW20176   6.960   2.855   3.375
 6426SOL    HW120177   6.881   2.825   3.321
 6426SOL    HW220178   7.013   2.775   3.403
 6427SOL     OW20179   1.028   2.808   6.214
 6427SOL    HW120180   1.035   2.731   6.151
 6427SOL    HW220181   0.976   2.882   6.172
 6428SOL     OW20182   6.700   2.931   3.947
 6428SOL    HW120183   6.624   2.897   3.892
 6428SOL    HW220184   6.665   2.981   4.026
 6429SOL     OW20185   0.675   1.402   4.996
 6429SOL    HW120186   0.721   1.397   4.907
 6429SOL    HW220187   0.739   1.435   5.065
 6430SOL     OW20188   6.188   3.504   6.886
 6430SOL    HW120189   6.256   3.434   6.904
 6430SOL    HW220190   6.137   3.481   6.803
 6431SOL     OW20191   5.441   1.179   3.305
 6431SOL    HW120192   5.417   1.085   3.325
 6431SOL    HW220193   5.536   1.182   3.272
 6432SOL     OW20194   5.796   3.215   0.432
 6432SOL    HW120195   5.702   3.239   0.409
 6432SOL    HW220196   5.854   3.226   0.351
 6433SOL     OW20197   2.444   3.665   1.494
 6433SOL    HW120198   2.417   3.709   1.409
 6433SOL    HW220199   2.501   3.727   1.547
 6434SOL     OW20200   1.854   5.239   0.001
 6434SOL    HW120201   1.871   5.204   6.933
 6434SOL    HW220202   1.929   5.211   0.061
 6435SOL     OW20203   4.537   3.845   0.564
 6435SOL    HW120204   4.583   3.762   0.596
 6435SOL    HW220205   4.604   3.906   0.521
 6436SOL     OW20206   1.594   2.516   2.160
 6436SOL    HW120207   1.618   2.433   2.210
 6436SOL    HW220208   1.509   2.501   2.109
 6437SOL     OW20209   0.284   0.809   6.667
 6437SOL    HW120210   0.362   0.747   6.664
 6437SOL    HW220211   0.227   0.796   6.586
 6438SOL     OW20212   0.918   3.688   4.177
 6438SOL    HW120213   0.912   3.588   4.179
 6438SOL    HW220214   0.833   3.726   4.141
 6439SOL     OW20215   0.312   6.127   2.171
 6439SOL    HW120216   0.373   6.191   2.219
 6439SOL    HW220217   0.349   6.109   2.080
 6440SOL     OW20218   0.592   0.903   1.661
 6440SOL    HW120219   0.559   0.935   1.572
 6440SOL    HW220220   0.525   0.840   1.700
 6441SOL     OW20221   3.681   1.853   2.859
 6441SOL    HW120222   3.747   1.925   2.839
 6441SOL    HW220223   3.697   1.817   2.951
 6442SOL     OW20224   3.428   0.303   3.284
 6442SOL    HW120225   3.481   0.386   3.300
 6442SOL    HW220226   3.355   0.296   3.352
 6443SOL     OW20227   2.550   0.965   0.526
 6443SOL    HW120228   2.482   1.029   0.489
 6443SOL    HW220229   2.526   0.942   0.620
 6444SOL     OW20230   0.342   0.840   3.183
 6444SOL    HW120231   0.386   0.835   3.093
 6444SOL    HW220232   0.387   0.911   3.238
 6445SOL     OW20233   3.629   4.010   5.517
 6445SOL    HW120234   3.597   3.996   5.611
 6445SOL    HW220235   3.612   4.105   5.490
 6446SOL     OW20236   6.838   2.210   0.835
 6446SOL    HW120237   6.843   2.249   0.743
 6446SOL    HW220238   6.912   2.246   0.891
 6447SOL     OW20239   1.610   0.043   2.983
 6447SOL    HW120240   1.549   7.020   3.046
 6447SOL    HW220241   1.557   0.105   2.925
 6448SOL     OW20242   6.679   2.040   2.229
 6448SOL    HW120243   6.710   2.104   2.159
 6448SOL    HW220244   6.615   2.086   2.291
 6449SOL     OW20245   3.685   2.734   1.020
 6449SOL    HW120246   3.722   2.645   1.047
 6449SOL    HW220247   3.592   2.723   0.987
 6450SOL     OW20248   6.961   3.393   6.716
 6450SOL    HW120249   6.883   3.357   6.665
 6450SOL    HW220250   6.981   3.486   6.685
 6451SOL     OW20251   2.567   6.046   3.938
 6451SOL    HW120252   2.652   5.994   3.927
 6451SOL    HW220253   2.499   5.990   3.984
 6452SOL     OW20254   4.305   5.868   3.987
 6452SOL    HW120255   4.405   5.866   3.990
 6452SOL    HW220256   4.275   5.934   3.917
 6453SOL     OW20257   1.991   4.730   6.422
 6453SOL    HW120258   1.972   4.778   6.337
 6453SOL    HW220259   2.087   4.705   6.426
 6454SOL     OW20260   3.692   1.021   4.870
 6454SOL    HW120261   3.699   1.095   4.937
 6454SOL    HW220262   3.619   0.958   4.898
 6455SOL     OW20263   6.105   3.209   5.846
 6455SOL    HW120264   6.009   3.187   5.830
 6455SOL    HW220265   6.146   3.245   5.762
 6456SOL     OW20266   6.924   1.042   4.875
 6456SOL    HW120267   6.921   1.077   4.782
 6456SOL    HW220268   7.010   1.071   4.919
 6457SOL     OW20269   6.234   2.429   2.680
 6457SOL    HW120270   6.257   2.461   2.588
 6457SOL    HW220271   6.151   2.374   2.676
 6458SOL     OW20272   1.511   6.498   3.421
 6458SOL    HW120273   1.517   6.447   3.507
 6458SOL    HW220274   1.534   6.437   3.345
 6459SOL     OW20275   5.206   5.062   0.761
 6459SOL    HW120276   5.223   5.147   0.712
 6459SOL    HW220277   5.283   5.042   0.822
 6460SOL     OW20278   3.160   4.844   1.155
 6460SOL    HW120279   3.128   4.755   1.122
 6460SOL    HW220280   3.103   4.874   1.231
 6461SOL     OW20281   3.089   5.687   5.531
 6461SOL    HW120282   3.061   5.721   5.622
 6461SOL    HW220283   3.078   5.588   5.528
 6462SOL     OW20284   2.045   3.030   3.522
 6462SOL    HW120285   2.096   3.083   3.454
 6462SOL    HW220286   2.031   3.086   3.604
 6463SOL     OW20287   1.006   4.171   5.371
 6463SOL    HW120288   1.030   4.075   5.381
 6463SOL    HW220289   0.979   4.208   5.460
 6464SOL     OW20290   1.463   5.534   2.584
 6464SOL    HW120291   1.467   5.437   2.611
 6464SOL    HW220292   1.459   5.540   2.484
 6465SOL     OW20293   6.293   0.984   3.060
 6465SOL    HW120294   6.216   0.950   3.113
 6465SOL    HW220295   6.377   0.939   3.091
 6466SOL     OW20296   0.117   2.895   5.493
 6466SOL    HW120297   0.079   2.940   5.574
 6466SOL    HW220298   0.095   2.948   5.411
 6467SOL     OW20299   2.998   0.866   5.787
 6467SOL    HW120300   2.925   0.862   5.856
 6467SOL    HW220301   2.974   0.807   5.710
 6468SOL     OW20302   5.168   4.562   1.609
 6468SOL    HW120303   5.231   4.613   1.551
 6468SOL    HW220304   5.157   4.610   1.696
 6469SOL     OW20305   6.546   1.048   5.940
 6469SOL    HW120306   6.575   0.954   5.923
 6469SOL    HW220307   6.625   1.105   5.962
 6470SOL     OW20308   6.323   5.821   4.744
 6470SOL    HW120309   6.253   5.750   4.754
 6470SOL    HW220310   6.317   5.884   4.821
 6471SOL     OW20311   5.556   5.579   5.765
 6471SOL    HW120312   5.639   5.623   5.730
 6471SOL    HW220313   5.573   5.482   5.780
 6472SOL     OW20314   1.362   5.963   1.178
 6472SOL    HW120315   1.295   5.953   1.252
 6472SOL    HW220316   1.425   6.038   1.200
 6473SOL     OW20317   2.794   0.781   5.011
 6473SOL    HW120318   2.724   0.753   4.946
 6473SOL    HW220319   2.811   0.879   5.003
 6474SOL     OW20320   2.514   3.344   5.830
 6474SOL    HW120321   2.559   3.430   5.807
 6474SOL    HW220322   2.453   3.318   5.755
 6475SOL     OW20323   4.651   5.463   3.850
 6475SOL    HW120324   4.644   5.380   3.905
 6475SOL    HW220325   4.580   5.528   3.878
 6476SOL     OW20326   5.332   4.803   2.261
 6476SOL    HW120327   5.351   4.706   2.278
 6476SOL    HW220328   5.313   4.848   2.348
 6477SOL     OW20329   6.783   6.596   0.499
 6477SOL    HW120330   6.813   6.633   0.411
 6477SOL    HW220331   6.821   6.651   0.573
 6478SOL     OW20332   5.457   6.252   1.689
 6478SOL    HW120333   5.362   6.283   1.683
 6478SOL    HW220334   5.516   6.328   1.716
 6479SOL     OW20335   4.217   6.223   2.979
 6479SOL    HW120336   4.174   6.183   2.897
 6479SOL    HW220337   4.192   6.320   2.985
 6480SOL     OW20338   2.484   1.212   1.112
 6480SOL    HW120339   2.391   1.180   1.097
 6480SOL    HW220340   2.547   1.160   1.054
 6481SOL     OW20341   4.606   0.634   1.313
 6481SOL    HW120342   4.684   0.619   1.373
 6481SOL    HW220343   4.539   0.561   1.326
 6482SOL     OW20344   6.982   0.736   6.546
 6482SOL    HW120345   7.010   0.649   6.585
 6482SOL    HW220346   6.943   0.794   6.618
 6483SOL     OW20347   1.737   5.487   1.802
 6483SOL    HW120348   1.780   5.560   1.855
 6483SOL    HW220349   1.689   5.425   1.864
 6484SOL     OW20350   5.400   6.511   3.691
 6484SOL    HW120351   5.462   6.488   3.616
 6484SOL    HW220352   5.375   6.427   3.740
 6485SOL     OW20353   1.072   2.728   3.262
 6485SOL    HW120354   1.041   2.727   3.358
 6485SOL    HW220355   1.009   2.784   3.208
 6486SOL     OW20356   1.795   3.212   3.317
 6486SOL    HW120357   1.743   3.160   3.384
 6486SOL    HW220358   1.871   3.259   3.362
 6487SOL     OW20359   5.871   5.152   3.515
 6487SOL    HW120360   5.843   5.106   3.431
 6487SOL    HW220361   5.827   5.241   3.521
 6488SOL     OW20362   3.053   4.897   5.489
 6488SOL    HW120363   3.091   4.840   5.562
 6488SOL    HW220364   3.005   4.839   5.423
 6489SOL     OW20365   2.750   1.845   5.876
 6489SOL    HW120366   2.695   1.911   5.928
 6489SOL    HW220367   2.799   1.894   5.804
 6490SOL     OW20368   4.879   1.604   0.924
 6490SOL    HW120369   4.846   1.510   0.935
 6490SOL    HW220370   4.863   1.654   1.009
 6491SOL     OW20371   4.180   1.003   6.361
 6491SOL    HW120372   4.148   1.093   6.388
 6491SOL    HW220373   4.172   0.992   6.262
 6492SOL     OW20374   5.834   6.017   6.249
 6492SOL    HW120375   5.872   6.005   6.157
 6492SOL    HW220376   5.809   6.113   6.262
 6493SOL     OW20377   1.422   6.258   5.324
 6493SOL    HW120378   1.377   6.188   5.270
 6493SOL    HW220379   1.376   6.266   5.413
 6494SOL     OW20380   1.520   0.230   3.720
 6494SOL    HW120381   1.440   0.282   3.690
 6494SOL    HW220382   1.601   0.261   3.669
 6495SOL     OW20383   5.685   4.824   2.305
 6495SOL    HW120384   5.596   4.790   2.333
 6495SOL    HW220385   5.733   4.754   2.253
 6496SOL     OW20386   0.949   6.298   2.952
 6496SOL    HW120387   1.006   6.219   2.975
 6496SOL    HW220388   0.881   6.272   2.884
 6497SOL     OW20389   0.400   5.387   0.227
 6497SOL    HW120390   0.381   5.333   0.308
 6497SOL    HW220391   0.344   5.355   0.151
 6498SOL     OW20392   1.381   4.329   3.871
 6498SOL    HW120393   1.399   4.287   3.782
 6498SOL    HW220394   1.466   4.335   3.923
 6499SOL     OW20395   5.886   0.928   3.873
 6499SOL    HW120396   5.968   0.870   3.868
 6499SOL    HW220397   5.897   0.994   3.947
 6500SOL     OW20398   5.571   4.800   3.465
 6500SOL    HW120399   5.601   4.760   3.378
 6500SOL    HW220400   5.527   4.730   3.520
 6501SOL     OW20401   0.044   3.432   0.908
 6501SOL    HW120402   0.054   3.333   0.901
 6501SOL    HW220403   0.131   3.472   0.936
 6502SOL     OW20404   1.226   4.985   2.328
 6502SOL    HW120405   1.181   4.924   2.394
 6502SOL    HW220406   1.165   5.000   2.250
 6503SOL     OW20407   4.761   0.280   4.507
 6503SOL    HW120408   4.773   0.194   4.556
 6503SOL    HW220409   4.841   0.338   4.522
 6504SOL     OW20410   1.686   1.029   0.437
 6504SOL    HW120411   1.692   0.939   0.479
 6504SOL    HW220412   1.594   1.043   0.399
 6505SOL     OW20413   5.488   5.445   0.699
 6505SOL    HW120414   5.556   5.512   0.727
 6505SOL    HW220415   5.464   5.460   0.603
 6506SOL     OW20416   1.943   1.735   0.548
 6506SOL    HW120417   1.985   1.695   0.466
 6506SOL    HW220418   1.847   1.753   0.531
 6507SOL     OW20419   3.043   0.582   1.768
 6507SOL    HW120420   2.967   0.518   1.780
 6507SOL    HW220421   3.060   0.630   1.854
 6508SOL     OW20422   2.258   1.582   1.851
 6508SOL    HW120423   2.249   1.562   1.948
 6508SOL    HW220424   2.307   1.507   1.806
 6509SOL     OW20425   1.012   2.499   3.919
 6509SOL    HW120426   1.056   2.505   3.829
 6509SOL    HW220427   0.958   2.582   3.935
 6510SOL     OW20428   5.922   5.188   6.499
 6510SOL    HW120429   5.934   5.265   6.562
 6510SOL    HW220430   5.961   5.106   6.539
 6511SOL     OW20431   6.485   6.137   5.564
 6511SOL    HW120432   6.542   6.086   5.499
 6511SOL    HW220433   6.482   6.233   5.537
 6512SOL     OW20434   5.096   6.042   3.809
 6512SOL    HW120435   5.013   6.098   3.806
 6512SOL    HW220436   5.093   5.974   3.736
 6513SOL     OW20437   2.049   6.745   3.364
 6513SOL    HW120438   2.001   6.735   3.451
 6513SOL    HW220439   2.143   6.710   3.373
 6514SOL     OW20440   3.597   0.145   4.021
 6514SOL    HW120441   3.594   0.143   4.121
 6514SOL    HW220442   3.670   0.207   3.991
 6515SOL     OW20443   0.782   0.782   3.724
 6515SOL    HW120444   0.882   0.786   3.723
 6515SOL    HW220445   0.752   0.710   3.787
 6516SOL     OW20446   1.572   1.672   6.033
 6516SOL    HW120447   1.671   1.660   6.037
 6516SOL    HW220448   1.535   1.616   5.958
 6517SOL     OW20449   1.554   2.167   0.517
 6517SOL    HW120450   1.485   2.122   0.459
 6517SOL    HW220451   1.634   2.109   0.524
 6518SOL     OW20452   5.658   5.964   0.703
 6518SOL    HW120453   5.755   5.955   0.722
 6518SOL    HW220454   5.607   5.976   0.788
 6519SOL     OW20455   1.175   2.349   3.088
 6519SOL    HW120456   1.256   2.295   3.064
 6519SOL    HW220457   1.174   2.364   3.187
 6520SOL     OW20458   5.840   5.837   1.888
 6520SOL    HW120459   5.768   5.907   1.892
 6520SOL    HW220460   5.809   5.761   1.830
 6521SOL     OW20461   1.672   2.315   5.495
 6521SOL    HW120462   1.650   2.260   5.575
 6521SOL    HW220463   1.648   2.410   5.512
 6522SOL     OW20464   2.806   5.373   4.875
 6522SOL    HW120465   2.862   5.317   4.937
 6522SOL    HW220466   2.746   5.431   4.929
 6523SOL     OW20467   1.942   2.740   6.982
 6523SOL    HW120468   2.041   2.749   6.976
 6523SOL    HW220469   1.915   2.736   0.054
 6524SOL     OW20470   4.056   3.900   4.661
 6524SOL    HW120471   4.012   3.813   4.637
 6524SOL    HW220472   4.150   3.883   4.688
 6525SOL     OW20473   0.369   2.459   4.214
 6525SOL    HW120474   0.328   2.535   4.163
 6525SOL    HW220475   0.380   2.380   4.154
 6526SOL     OW20476   1.477   5.246   3.737
 6526SOL    HW120477   1.543   5.287   3.800
 6526SOL    HW220478   1.523   5.222   3.652
 6527SOL     OW20479   2.326   1.164   4.179
 6527SOL    HW120480   2.418   1.127   4.170
 6527SOL    HW220481   2.318   1.214   4.265
 6528SOL     OW20482   0.112   6.799   3.340
 6528SOL    HW120483   0.171   6.787   3.260
 6528SOL    HW220484   0.087   6.896   3.348
 6529SOL     OW20485   6.444   2.615   1.809
 6529SOL    HW120486   6.388   2.626   1.727
 6529SOL    HW220487   6.540   2.613   1.783
 6530SOL     OW20488   0.325   1.848   0.241
 6530SOL    HW120489   0.232   1.885   0.244
 6530SOL    HW220490   0.354   1.823   0.333
 6531SOL     OW20491   5.362   2.780   4.697
 6531SOL    HW120492   5.312   2.865   4.679
 6531SOL    HW220493   5.332   2.742   4.784
 6532SOL     OW20494   1.355   2.451   0.001
 6532SOL    HW120495   1.379   2.546   0.021
 6532SOL    HW220496   1.402   2.391   0.066
 6533SOL     OW20497   4.279   0.684   0.896
 6533SOL    HW120498   4.370   0.643   0.904
 6533SOL    HW220499   4.220   0.649   0.969
 6534SOL     OW20500   1.881   3.255   6.992
 6534SOL    HW120501   1.875   3.210   0.056
 6534SOL    HW220502   1.867   3.353   7.003
 6535SOL     OW20503   2.143   3.536   5.554
 6535SOL    HW120504   2.084   3.510   5.630
 6535SOL    HW220505   2.117   3.628   5.522
 6536SOL     OW20506   6.835   2.454   6.611
 6536SOL    HW120507   6.915   2.461   6.672
 6536SOL    HW220508   6.779   2.376   6.640
 6537SOL     OW20509   0.867   0.351   0.236
 6537SOL    HW120510   0.809   0.269   0.233
 6537SOL    HW220511   0.951   0.334   0.185
 6538SOL     OW20512   1.709   3.047   6.355
 6538SOL    HW120513   1.632   3.042   6.291
 6538SOL    HW220514   1.795   3.039   6.304
 6539SOL     OW20515   2.853   1.643   6.210
 6539SOL    HW120516   2.814   1.576   6.146
 6539SOL    HW220517   2.855   1.604   6.302
 6540SOL     OW20518   3.198   2.138   3.834
 6540SOL    HW120519   3.279   2.161   3.887
 6540SOL    HW220520   3.161   2.051   3.866
 6541SOL     OW20521   2.931   2.897   5.397
 6541SOL    HW120522   2.864   2.962   5.360
 6541SOL    HW220523   2.921   2.892   5.496
 6542SOL     OW20524   6.598   4.137   3.622
 6542SOL    HW120525   6.570   4.205   3.690
 6542SOL    HW220526   6.548   4.052   3.637
 6543SOL     OW20527   0.607   5.539   6.275
 6543SOL    HW120528   0.699   5.500   6.267
 6543SOL    HW220529   0.545   5.469   6.310
 6544SOL     OW20530   6.962   6.287   3.075
 6544SOL    HW120531   6.901   6.355   3.115
 6544SOL    HW220532   6.913   6.235   3.004
 6545SOL     OW20533   5.443   3.200   6.125
 6545SOL    HW120534   5.480   3.239   6.041
 6545SOL    HW220535   5.376   3.129   6.102
 6546SOL     OW20536   3.531   4.573   5.897
 6546SOL    HW120537   3.578   4.548   5.813
 6546SOL    HW220538   3.597   4.582   5.971
 6547SOL     OW20539   5.209   0.764   6.989
 6547SOL    HW120540   5.161   0.849   6.972
 6547SOL    HW220541   5.300   0.768   6.947
 6548SOL     OW20542   6.032   3.968   4.946
 6548SOL    HW120543   5.994   3.887   4.992
 6548SOL    HW220544   6.057   4.036   5.014
 6549SOL     OW20545   2.820   1.695   2.455
 6549SOL    HW120546   2.840   1.621   2.390
 6549SOL    HW220547   2.891   1.765   2.448
 6550SOL     OW20548   1.030   5.102   3.077
 6550SOL    HW120549   1.033   5.003   3.093
 6550SOL    HW220550   0.954   5.142   3.129
 6551SOL     OW20551   2.749   4.823   1.831
 6551SOL    HW120552   2.737   4.909   1.880
 6551SOL    HW220553   2.793   4.756   1.890
 6552SOL     OW20554   4.816   5.506   6.454
 6552SOL    HW120555   4.722   5.519   6.421
 6552SOL    HW220556   4.878   5.496   6.377
 6553SOL     OW20557   6.836   2.895   2.776
 6553SOL    HW120558   6.847   2.867   2.871
 6553SOL    HW220559   6.859   2.992   2.767
 6554SOL     OW20560   0.240   3.880   4.706
 6554SOL    HW120561   0.211   3.811   4.639
 6554SOL    HW220562   0.296   3.836   4.776
 6555SOL     OW20563   0.651   0.929   2.078
 6555SOL    HW120564   0.734   0.922   2.023
 6555SOL    HW220565   0.586   0.989   2.032
 6556SOL     OW20566   3.654   0.500   4.001
 6556SOL    HW120567   3.709   0.429   3.958
 6556SOL    HW220568   3.668   0.587   3.954
 6557SOL     OW20569   5.305   6.097   0.691
 6557SOL    HW120570   5.369   6.141   0.628
 6557SOL    HW220571   5.214   6.095   0.649
 6558SOL     OW20572   6.575   6.191   6.248
 6558SOL    HW120573   6.600   6.129   6.174
 6558SOL    HW220574   6.476   6.202   6.252
 6559SOL     OW20575   3.310   3.232   1.487
 6559SOL    HW120576   3.369   3.276   1.419
 6559SOL    HW220577   3.232   3.191   1.440
 6560SOL     OW20578   3.680   1.753   0.852
 6560SOL    HW120579   3.638   1.686   0.791
 6560SOL    HW220580   3.775   1.770   0.823
 6561SOL     OW20581   3.519   3.782   4.145
 6561SOL    HW120582   3.597   3.777   4.084
 6561SOL    HW220583   3.534   3.723   4.224
 6562SOL     OW20584   6.603   3.885   5.315
 6562SOL    HW120585   6.630   3.789   5.325
 6562SOL    HW220586   6.684   3.943   5.320
 6563SOL     OW20587   0.552   5.211   2.521
 6563SOL    HW120588   0.463   5.218   2.566
 6563SOL    HW220589   0.617   5.169   2.583
 6564SOL     OW20590   1.493   5.930   2.597
 6564SOL    HW120591   1.396   5.936   2.622
 6564SOL    HW220592   1.538   5.862   2.655
 6565SOL     OW20593   6.604   3.661   4.860
 6565SOL    HW120594   6.701   3.673   4.879
 6565SOL    HW220595   6.550   3.707   4.931
 6566SOL     OW20596   3.455   0.061   0.931
 6566SOL    HW120597   3.366   0.016   0.938
 6566SOL    HW220598   3.447   0.143   0.875
 6567SOL     OW20599   6.105   2.990   1.118
 6567SOL    HW120600   6.041   2.951   1.184
 6567SOL    HW220601   6.195   2.948   1.129
 6568SOL     OW20602   4.148   3.819   1.403
 6568SOL    HW120603   4.233   3.869   1.419
 6568SOL    HW220604   4.139   3.797   1.306
 6569SOL     OW20605   0.616   4.909   6.335
 6569SOL    HW120606   0.615   5.007   6.357
 6569SOL    HW220607   0.563   4.859   6.404
 6570SOL     OW20608   6.247   3.618   1.390
 6570SOL    HW120609   6.177   3.685   1.415
 6570SOL    HW220610   6.338   3.661   1.393
 6571SOL     OW20611   2.965   6.279   3.852
 6571SOL    HW120612   2.952   6.242   3.943
 6571SOL    HW220613   3.061   6.303   3.839
 6572SOL     OW20614   1.356   4.587   6.125
 6572SOL    HW120615   1.379   4.551   6.215
 6572SOL    HW220616   1.267   4.632   6.129
 6573SOL     OW20617   1.686   2.006   2.103
 6573SOL    HW120618   1.745   2.080   2.135
 6573SOL    HW220619   1.597   2.044   2.077
 6574SOL     OW20620   1.483   4.679   4.082
 6574SOL    HW120621   1.518   4.611   4.017
 6574SOL    HW220622   1.559   4.734   4.117
 6575SOL     OW20623   2.176   1.315   2.561
 6575SOL    HW120624   2.144   1.343   2.651
 6575SOL    HW220625   2.269   1.281   2.568
 6576SOL     OW20626   1.409   6.453   4.038
 6576SOL    HW120627   1.331   6.404   3.997
 6576SOL    HW220628   1.494   6.417   3.999
 6577SOL     OW20629   6.515   3.146   4.910
 6577SOL    HW120630   6.554   3.235   4.886
 6577SOL    HW220631   6.512   3.089   4.828
 6578SOL     OW20632   6.686   5.473   3.516
 6578SOL    HW120633   6.775   5.486   3.561
 6578SOL    HW220634   6.613   5.506   3.576
 6579SOL     OW20635   1.150   3.985   3.064
 6579SOL    HW120636   1.204   3.907   3.034
 6579SOL    HW220637   1.190   4.024   3.146
 6580SOL     OW20638   5.782   2.586   1.530
 6580SOL    HW120639   5.768   2.684   1.514
 6580SOL    HW220640   5.703   2.549   1.578
 6581SOL     OW20641   2.751   2.582   5.612
 6581SOL    HW120642   2.791   2.586   5.520
 6581SOL    HW220643   2.666   2.635   5.613
 6582SOL     OW20644   6.616   0.427   2.210
 6582SOL    HW120645   6.536   0.390   2.258
 6582SOL    HW220646   6.698   0.410   2.265
 6583SOL     OW20647   5.849   2.171   5.906
 6583SOL    HW120648   5.866   2.252   5.850
 6583SOL    HW220649   5.935   2.127   5.929
 6584SOL     OW20650   5.844   2.415   6.900
 6584SOL    HW120651   5.873   2.389   6.992
 6584SOL    HW220652   5.747   2.391   6.888
 6585SOL     OW20653   2.726   1.468   1.512
 6585SOL    HW120654   2.673   1.506   1.587
 6585SOL    HW220655   2.688   1.497   1.425
 6586SOL     OW20656   6.875   1.507   6.791
 6586SOL    HW120657   6.925   1.592   6.809
 6586SOL    HW220658   6.778   1.521   6.811
 6587SOL     OW20659   1.737   6.450   2.963
 6587SOL    HW120660   1.785   6.520   3.016
 6587SOL    HW220661   1.718   6.484   2.871
 6588SOL     OW20662   2.518   2.808   6.919
 6588SOL    HW120663   2.446   2.848   6.863
 6588SOL    HW220664   2.502   2.709   6.928
 6589SOL     OW20665   5.510   1.620   5.718
 6589SOL    HW120666   5.541   1.708   5.753
 6589SOL    HW220667   5.510   1.621   5.618
 6590SOL     OW20668   6.754   0.942   5.655
 6590SOL    HW120669   6.842   0.969   5.695
 6590SOL    HW220670   6.711   1.022   5.612
 6591SOL     OW20671   5.161   0.755   2.736
 6591SOL    HW120672   5.216   0.699   2.674
 6591SOL    HW220673   5.071   0.770   2.696
 6592SOL     OW20674   5.758   5.974   4.500
 6592SOL    HW120675   5.742   5.907   4.428
 6592SOL    HW220676   5.800   5.929   4.579
 6593SOL     OW20677   4.486   0.821   2.400
 6593SOL    HW120678   4.564   0.877   2.427
 6593SOL    HW220679   4.410   0.838   2.463
 6594SOL     OW20680   5.800   1.268   6.637
 6594SOL    HW120681   5.739   1.190   6.629
 6594SOL    HW220682   5.754   1.350   6.604
 6595SOL     OW20683   1.676   3.728   6.962
 6595SOL    HW120684   1.644   3.733   6.867
 6595SOL    HW220685   1.660   3.817   7.007
 6596SOL     OW20686   3.158   6.538   5.692
 6596SOL    HW120687   3.200   6.581   5.772
 6596SOL    HW220688   3.104   6.606   5.643
 6597SOL     OW20689   6.498   4.070   6.708
 6597SOL    HW120690   6.480   4.073   6.610
 6597SOL    HW220691   6.592   4.097   6.726
 6598SOL     OW20692   2.377   5.521   5.036
 6598SOL    HW120693   2.304   5.456   5.015
 6598SOL    HW220694   2.463   5.472   5.050
 6599SOL     OW20695   4.454   3.189   5.739
 6599SOL    HW120696   4.518   3.237   5.679
 6599SOL    HW220697   4.492   3.183   5.831
 6600SOL     OW20698   4.128   5.330   4.224
 6600SOL    HW120699   4.031   5.355   4.223
 6600SOL    HW220700   4.143   5.250   4.167
 6601SOL     OW20701   1.033   0.233   1.165
 6601SOL    HW120702   1.020   0.241   1.263
 6601SOL    HW220703   1.093   0.307   1.133
 6602SOL     OW20704   6.334   1.182   1.682
 6602SOL    HW120705   6.329   1.281   1.691
 6602SOL    HW220706   6.422   1.156   1.644
 6603SOL     OW20707   2.453   2.150   2.130
 6603SOL    HW120708   2.448   2.058   2.092
 6603SOL    HW220709   2.549   2.180   2.132
 6604SOL     OW20710   4.048   5.775   3.742
 6604SOL    HW120711   3.980   5.816   3.803
 6604SOL    HW220712   4.118   5.843   3.721
 6605SOL     OW20713   5.458   6.301   0.248
 6605SOL    HW120714   5.403   6.260   0.176
 6605SOL    HW220715   5.513   6.375   0.209
 6606SOL     OW20716   6.498   1.121   3.296
 6606SOL    HW120717   6.494   1.024   3.270
 6606SOL    HW220718   6.405   1.156   3.307
 6607SOL     OW20719   1.029   1.671   3.018
 6607SOL    HW120720   0.991   1.582   3.045
 6607SOL    HW220721   0.956   1.739   3.017
 6608SOL     OW20722   5.361   4.805   4.880
 6608SOL    HW120723   5.331   4.814   4.975
 6608SOL    HW220724   5.461   4.795   4.878
 6609SOL     OW20725   5.824   1.346   0.015
 6609SOL    HW120726   5.910   1.305   7.010
 6609SOL    HW220727   5.828   1.445   0.002
 6610SOL     OW20728   3.083   1.188   0.255
 6610SOL    HW120729   2.995   1.142   0.265
 6610SOL    HW220730   3.154   1.120   0.234
 6611SOL     OW20731   5.457   2.967   3.224
 6611SOL    HW120732   5.484   2.880   3.183
 6611SOL    HW220733   5.534   3.005   3.276
 6612SOL     OW20734   1.008   6.035   6.778
 6612SOL    HW120735   0.972   6.048   6.686
 6612SOL    HW220736   1.104   6.064   6.781
 6613SOL     OW20737   4.867   5.136   1.339
 6613SOL    HW120738   4.772   5.169   1.335
 6613SOL    HW220739   4.916   5.169   1.258
 6614SOL     OW20740   5.257   5.237   5.767
 6614SOL    HW120741   5.195   5.160   5.777
 6614SOL    HW220742   5.219   5.303   5.702
 6615SOL     OW20743   0.649   4.220   5.268
 6615SOL    HW120744   0.719   4.263   5.212
 6615SOL    HW220745   0.562   4.269   5.257
 6616SOL     OW20746   5.271   1.135   4.202
 6616SOL    HW120747   5.214   1.146   4.283
 6616SOL    HW220748   5.363   1.106   4.230
 6617SOL     OW20749   4.333   0.279   5.210
 6617SOL    HW120750   4.373   0.356   5.261
 6617SOL    HW220751   4.262   0.236   5.266
 6618SOL     OW20752   0.645   5.057   1.114
 6618SOL    HW120753   0.567   5.119   1.105
 6618SOL    HW220754   0.626   4.972   1.066
 6619SOL     OW20755   0.048   6.252   1.609
 6619SOL    HW120756   0.129   6.306   1.632
 6619SOL    HW220757   6.996   6.280   1.666
 6620SOL     OW20758   4.187   3.242   5.781
 6620SOL    HW120759   4.148   3.172   5.841
 6620SOL    HW220760   4.279   3.214   5.753
 6621SOL     OW20761   2.838   3.987   0.171
 6621SOL    HW120762   2.742   3.997   0.145
 6621SOL    HW220763   2.857   3.891   0.189
 6622SOL     OW20764   6.400   5.950   1.022
 6622SOL    HW120765   6.302   5.940   1.041
 6622SOL    HW220766   6.451   5.883   1.076
 6623SOL     OW20767   3.635   3.819   2.459
 6623SOL    HW120768   3.579   3.745   2.497
 6623SOL    HW220769   3.684   3.865   2.533
 6624SOL     OW20770   4.602   5.264   4.090
 6624SOL    HW120771   4.547   5.201   4.036
 6624SOL    HW220772   4.547   5.300   4.165
 6625SOL     OW20773   5.741   0.201   0.317
 6625SOL    HW120774   5.735   0.289   0.364
 6625SOL    HW220775   5.668   0.141   0.351
 6626SOL     OW20776   2.951   5.316   3.391
 6626SOL    HW120777   2.965   5.379   3.467
 6626SOL    HW220778   2.983   5.225   3.417
 6627SOL     OW20779   1.869   5.935   1.931
 6627SOL    HW120780   1.912   6.025   1.923
 6627SOL    HW220781   1.824   5.913   1.844
 6628SOL     OW20782   3.717   6.286   3.581
 6628SOL    HW120783   3.758   6.201   3.614
 6628SOL    HW220784   3.629   6.267   3.538
 6629SOL     OW20785   3.640   3.936   0.122
 6629SOL    HW120786   3.578   3.907   0.194
 6629SOL    HW220787   3.733   3.945   0.158
 6630SOL     OW20788   3.187   1.978   6.365
 6630SOL    HW120789   3.154   1.965   6.458
 6630SOL    HW220790   3.144   1.912   6.304
 6631SOL     OW20791   4.066   0.798   1.621
 6631SOL    HW120792   3.979   0.750   1.610
 6631SOL    HW220793   4.100   0.825   1.531
 6632SOL     OW20794   6.634   2.508   2.475
 6632SOL    HW120795   6.712   2.446   2.466
 6632SOL    HW220796   6.639   2.555   2.563
 6633SOL     OW20797   0.551   0.091   1.561
 6633SOL    HW120798   0.600   0.033   1.626
 6633SOL    HW220799   0.454   0.064   1.559
 6634SOL     OW20800   6.705   2.795   5.533
 6634SOL    HW120801   6.726   2.873   5.591
 6634SOL    HW220802   6.789   2.745   5.511
 6635SOL     OW20803   4.488   4.585   2.834
 6635SOL    HW120804   4.502   4.504   2.777
 6635SOL    HW220805   4.434   4.653   2.783
 6636SOL     OW20806   1.622   3.045   3.923
 6636SOL    HW120807   1.720   3.052   3.940
 6636SOL    HW220808   1.588   3.131   3.885
 6637SOL     OW20809   6.355   1.969   1.523
 6637SOL    HW120810   6.261   1.939   1.535
 6637SOL    HW220811   6.408   1.947   1.605
 6638SOL     OW20812   2.324   6.333   6.772
 6638SOL    HW120813   2.333   6.272   6.693
 6638SOL    HW220814   2.312   6.427   6.739
 6639SOL     OW20815   4.723   5.801   6.361
 6639SOL    HW120816   4.663   5.855   6.420
 6639SOL    HW220817   4.695   5.705   6.364
 6640SOL     OW20818   6.023   2.430   3.737
 6640SOL    HW120819   5.938   2.443   3.788
 6640SOL    HW220820   6.085   2.506   3.756
 6641SOL     OW20821   2.058   4.839   6.841
 6641SOL    HW120822   2.000   4.780   6.897
 6641SOL    HW220823   2.001   4.899   6.785
 6642SOL     OW20824   6.149   6.240   0.197
 6642SOL    HW120825   6.248   6.235   0.203
 6642SOL    HW220826   6.118   6.328   0.231
 6643SOL     OW20827   3.606   5.696   0.406
 6643SOL    HW120828   3.639   5.609   0.370
 6643SOL    HW220829   3.639   5.771   0.349
 6644SOL     OW20830   2.344   4.194   2.124
 6644SOL    HW120831   2.362   4.192   2.222
 6644SOL    HW220832   2.359   4.286   2.089
 6645SOL     OW20833   6.170   4.942   5.155
 6645SOL    HW120834   6.145   4.947   5.251
 6645SOL    HW220835   6.189   5.034   5.121
 6646SOL     OW20836   1.567   6.196   3.416
 6646SOL    HW120837   1.592   6.112   3.368
 6646SOL    HW220838   1.648   6.253   3.429
 6647SOL     OW20839   4.229   1.704   1.897
 6647SOL    HW120840   4.150   1.748   1.853
 6647SOL    HW220841   4.229   1.607   1.875
 6648SOL     OW20842   4.324   5.543   1.903
 6648SOL    HW120843   4.227   5.521   1.891
 6648SOL    HW220844   4.332   5.639   1.928
 6649SOL     OW20845   4.290   2.109   6.453
 6649SOL    HW120846   4.226   2.146   6.386
 6649SOL    HW220847   4.369   2.069   6.406
 6650SOL     OW20848   2.943   1.394   3.822
 6650SOL    HW120849   2.954   1.346   3.735
 6650SOL    HW220850   3.029   1.437   3.848
 6651SOL     OW20851   1.403   2.253   0.193
 6651SOL    HW120852   1.370   2.186   0.126
 6651SOL    HW220853   1.335   2.263   0.266
 6652SOL     OW20854   1.047   5.547   3.442
 6652SOL    HW120855   1.135   5.537   3.487
 6652SOL    HW220856   0.987   5.472   3.468
 6653SOL     OW20857   3.207   3.583   3.804
 6653SOL    HW120858   3.152   3.509   3.765
 6653SOL    HW220859   3.151   3.666   3.809
 6654SOL     OW20860   1.905   3.504   1.782
 6654SOL    HW120861   1.806   3.497   1.768
 6654SOL    HW220862   1.923   3.523   1.879
 6655SOL     OW20863   1.976   0.186   0.765
 6655SOL    HW120864   1.880   0.175   0.791
 6655SOL    HW220865   1.996   0.128   0.686
 6656SOL     OW20866   6.981   2.790   1.557
 6656SOL    HW120867   6.901   2.850   1.565
 6656SOL    HW220868   0.017   2.805   1.636
 6657SOL     OW20869   2.705   4.690   6.040
 6657SOL    HW120870   2.728   4.606   6.088
 6657SOL    HW220871   2.771   4.706   5.966
 6658SOL     OW20872   5.773   0.316   5.609
 6658SOL    HW120873   5.737   0.360   5.692
 6658SOL    HW220874   5.699   0.268   5.562
 6659SOL     OW20875   1.669   3.057   6.604
 6659SOL    HW120876   1.686   3.064   6.506
 6659SOL    HW220877   1.743   3.100   6.655
 6660SOL     OW20878   0.479   6.795   2.081
 6660SOL    HW120879   0.455   6.885   2.117
 6660SOL    HW220880   0.402   6.732   2.096
 6661SOL     OW20881   6.954   5.660   3.445
 6661SOL    HW120882   0.024   5.690   3.435
 6661SOL    HW220883   6.951   5.572   3.493
 6662SOL     OW20884   1.046   3.640   5.608
 6662SOL    HW120885   0.976   3.677   5.545
 6662SOL    HW220886   1.113   3.711   5.628
 6663SOL     OW20887   0.543   4.846   2.441
 6663SOL    HW120888   0.624   4.904   2.437
 6663SOL    HW220889   0.553   4.779   2.514
 6664SOL     OW20890   0.703   1.552   3.216
 6664SOL    HW120891   0.683   1.568   3.313
 6664SOL    HW220892   0.619   1.523   3.170
 6665SOL     OW20893   2.655   6.673   2.580
 6665SOL    HW120894   2.741   6.681   2.530
 6665SOL    HW220895   2.585   6.632   2.521
 6666SOL     OW20896   6.194   0.625   0.526
 6666SOL    HW120897   6.270   0.681   0.494
 6666SOL    HW220898   6.225   0.531   0.540
 6667SOL     OW20899   6.494   5.062   4.619
 6667SOL    HW120900   6.561   4.989   4.636
 6667SOL    HW220901   6.416   5.050   4.681
 6668SOL     OW20902   0.240   6.700   1.533
 6668SOL    HW120903   0.239   6.799   1.524
 6668SOL    HW220904   0.307   6.661   1.470
 6669SOL     OW20905   1.522   5.374   3.204
 6669SOL    HW120906   1.443   5.421   3.165
 6669SOL    HW220907   1.574   5.330   3.130
 6670SOL     OW20908   3.794   4.839   1.033
 6670SOL    HW120909   3.771   4.794   0.947
 6670SOL    HW220910   3.891   4.863   1.033
 6671SOL     OW20911   0.453   2.932   5.420
 6671SOL    HW120912   0.501   2.845   5.424
 6671SOL    HW220913   0.453   2.966   5.326
 6672SOL     OW20914   0.631   0.766   5.679
 6672SOL    HW120915   0.541   0.788   5.714
 6672SOL    HW220916   0.673   0.848   5.639
 6673SOL     OW20917   5.059   5.665   1.792
 6673SOL    HW120918   5.157   5.673   1.810
 6673SOL    HW220919   5.046   5.625   1.701
 6674SOL     OW20920   0.678   6.772   4.886
 6674SOL    HW120921   0.646   6.723   4.967
 6674SOL    HW220922   0.636   6.732   4.804
 6675SOL     OW20923   0.053   5.995   0.408
 6675SOL    HW120924   0.069   5.963   0.315
 6675SOL    HW220925   7.005   6.064   0.408
 6676SOL     OW20926   1.187   1.877   0.350
 6676SOL    HW120927   1.141   1.814   0.288
 6676SOL    HW220928   1.148   1.969   0.339
 6677SOL     OW20929   6.558   3.825   6.906
 6677SOL    HW120930   6.535   3.875   6.823
 6677SOL    HW220931   6.594   3.888   6.975
 6678SOL     OW20932   0.997   2.829   4.128
 6678SOL    HW120933   0.920   2.765   4.122
 6678SOL    HW220934   0.963   2.920   4.152
 6679SOL     OW20935   1.664   0.916   4.475
 6679SOL    HW120936   1.604   0.941   4.399
 6679SOL    HW220937   1.636   0.828   4.512
 6680SOL     OW20938   2.412   7.004   6.139
 6680SOL    HW120939   2.379   0.039   6.212
 6680SOL    HW220940   2.496   6.958   6.169
 6681SOL     OW20941   5.493   5.315   0.192
 6681SOL    HW120942   5.506   5.376   0.270
 6681SOL    HW220943   5.563   5.244   0.193
 6682SOL     OW20944   6.880   5.178   2.466
 6682SOL    HW120945   6.803   5.242   2.456
 6682SOL    HW220946   6.920   5.158   2.377
 6683SOL     OW20947   5.274   1.883   4.270
 6683SOL    HW120948   5.198   1.839   4.319
 6683SOL    HW220949   5.247   1.898   4.175
 6684SOL     OW20950   1.920   0.722   2.570
 6684SOL    HW120951   1.976   0.659   2.515
 6684SOL    HW220952   1.965   0.812   2.574
 6685SOL     OW20953   5.439   3.304   6.374
 6685SOL    HW120954   5.508   3.257   6.429
 6685SOL    HW220955   5.430   3.259   6.285
 6686SOL     OW20956   5.384   3.317   3.984
 6686SOL    HW120957   5.399   3.220   4.003
 6686SOL    HW220958   5.433   3.373   4.051
 6687SOL     OW20959   0.947   1.150   0.117
 6687SOL    HW120960   1.033   1.191   0.089
 6687SOL    HW220961   0.918   1.188   0.204
 6688SOL     OW20962   0.326   5.249   2.700
 6688SOL    HW120963   0.324   5.301   2.786
 6688SOL    HW220964   0.285   5.159   2.715
 6689SOL     OW20965   4.220   4.827   0.625
 6689SOL    HW120966   4.172   4.868   0.702
 6689SOL    HW220967   4.245   4.733   0.647
 6690SOL     OW20968   1.455   1.925   0.378
 6690SOL    HW120969   1.479   1.878   0.293
 6690SOL    HW220970   1.356   1.917   0.394
 6691SOL     OW20971   1.236   5.063   0.829
 6691SOL    HW120972   1.194   5.057   0.739
 6691SOL    HW220973   1.330   5.030   0.825
 6692SOL     OW20974   3.664   4.215   5.877
 6692SOL    HW120975   3.596   4.259   5.936
 6692SOL    HW220976   3.676   4.120   5.907
 6693SOL     OW20977   4.208   3.692   5.320
 6693SOL    HW120978   4.179   3.617   5.260
 6693SOL    HW220979   4.140   3.765   5.317
 6694SOL     OW20980   2.991   6.085   0.197
 6694SOL    HW120981   3.040   6.042   0.273
 6694SOL    HW220982   2.894   6.064   0.204
 6695SOL     OW20983   1.537   1.607   6.530
 6695SOL    HW120984   1.513   1.550   6.609
 6695SOL    HW220985   1.541   1.703   6.559
 6696SOL     OW20986   2.030   3.245   1.603
 6696SOL    HW120987   2.049   3.244   1.701
 6696SOL    HW220988   2.004   3.337   1.574
 6697SOL     OW20989   5.118   2.488   3.988
 6697SOL    HW120990   5.071   2.400   4.000
 6697SOL    HW220991   5.058   2.552   3.940
 6698SOL     OW20992   3.372   4.380   0.520
 6698SOL    HW120993   3.336   4.401   0.611
 6698SOL    HW220994   3.338   4.448   0.455
 6699SOL     OW20995   1.885   3.486   6.625
 6699SOL    HW120996   1.982   3.478   6.599
 6699SOL    HW220997   1.829   3.492   6.542
 6700SOL     OW20998   6.570   6.980   6.174
 6700SOL    HW120999   6.647   0.017   6.154
 6700SOL    HW221000   6.590   6.889   6.138
 6701SOL     OW21001   0.656   2.384   1.048
 6701SOL    HW121002   0.663   2.287   1.024
 6701SOL    HW221003   0.566   2.402   1.087
 6702SOL     OW21004   1.337   3.393   0.713
 6702SOL    HW121005   1.388   3.378   0.797
 6702SOL    HW221006   1.396   3.377   0.634
 6703SOL     OW21007   0.137   2.331   6.523
 6703SOL    HW121008   0.076   2.258   6.492
 6703SOL    HW221009   0.230   2.297   6.527
 6704SOL     OW21010   5.076   2.336   3.099
 6704SOL    HW121011   5.040   2.425   3.072
 6704SOL    HW221012   5.087   2.334   3.199
 6705SOL     OW21013   6.272   0.994   0.810
 6705SOL    HW121014   6.295   1.041   0.725
 6705SOL    HW221015   6.316   0.904   0.811
 6706SOL     OW21016   0.522   5.655   0.053
 6706SOL    HW121017   0.441   5.608   0.020
 6706SOL    HW221018   0.602   5.625   0.001
 6707SOL     OW21019   1.171   5.509   2.256
 6707SOL    HW121020   1.271   5.499   2.251
 6707SOL    HW221021   1.134   5.444   2.322
 6708SOL     OW21022   2.123   6.019   1.607
 6708SOL    HW121023   2.139   5.932   1.559
 6708SOL    HW221024   2.188   6.028   1.682
 6709SOL     OW21025   5.144   1.642   2.960
 6709SOL    HW121026   5.209   1.567   2.952
 6709SOL    HW221027   5.093   1.653   2.874
 6710SOL     OW21028   1.992   2.027   0.572
 6710SOL    HW121029   1.987   1.933   0.537
 6710SOL    HW221030   1.919   2.041   0.638
 6711SOL     OW21031   5.091   3.700   0.260
 6711SOL    HW121032   5.014   3.765   0.263
 6711SOL    HW221033   5.081   3.642   0.179
 6712SOL     OW21034   3.165   6.206   1.415
 6712SOL    HW121035   3.232   6.132   1.419
 6712SOL    HW221036   3.205   6.286   1.371
 6713SOL     OW21037   1.727   1.583   2.804
 6713SOL    HW121038   1.633   1.547   2.806
 6713SOL    HW221039   1.746   1.622   2.714
 6714SOL     OW21040   6.687   0.112   4.478
 6714SOL    HW121041   6.659   0.137   4.571
 6714SOL    HW221042   6.716   0.193   4.429
 6715SOL     OW21043   0.125   1.888   0.749
 6715SOL    HW121044   0.040   1.848   0.784
 6715SOL    HW221045   0.172   1.936   0.822
 6716SOL     OW21046   2.785   5.560   0.541
 6716SOL    HW121047   2.695   5.548   0.500
 6716SOL    HW221048   2.853   5.572   0.468
 6717SOL     OW21049   4.189   1.518   6.560
 6717SOL    HW121050   4.171   1.527   6.658
 6717SOL    HW221051   4.103   1.503   6.511
 6718SOL     OW21052   3.346   6.873   0.226
 6718SOL    HW121053   3.360   6.922   0.312
 6718SOL    HW221054   3.412   6.797   0.220
 6719SOL     OW21055   0.818   0.730   5.459
 6719SOL    HW121056   0.872   0.778   5.528
 6719SOL    HW221057   0.722   0.728   5.486
 6720SOL     OW21058   1.862   4.698   1.588
 6720SOL    HW121059   1.795   4.764   1.552
 6720SOL    HW221060   1.942   4.696   1.529
 6721SOL     OW21061   6.511   6.301   3.199
 6721SOL    HW121062   6.571   6.225   3.223
 6721SOL    HW221063   6.510   6.368   3.274
 6722SOL     OW21064   5.061   4.711   7.000
 6722SOL    HW121065   5.105   4.713   6.911
 6722SOL    HW221066   5.104   4.777   0.036
 6723SOL     OW21067   4.629   0.923   2.915
 6723SOL    HW121068   4.666   0.885   3.001
 6723SOL    HW221069   4.697   0.983   2.874
 6724SOL     OW21070   3.491   4.630   5.383
 6724SOL    HW121071   3.440   4.703   5.336
 6724SOL    HW221072   3.496   4.651   5.481
 6725SOL     OW21073   6.956   5.233   1.536
 6725SOL    HW121074   0.027   5.219   1.510
 6725SOL    HW221075   6.927   5.158   1.595
 6726SOL     OW21076   2.327   2.831   1.684
 6726SOL    HW121077   2.317   2.843   1.585
 6726SOL    HW221078   2.241   2.851   1.729
 6727SOL     OW21079   3.236   3.951   0.308
 6727SOL    HW121080   3.180   4.029   0.338
 6727SOL    HW221081   3.331   3.981   0.297
 6728SOL     OW21082   4.802   1.222   4.969
 6728SOL    HW121083   4.761   1.158   4.904
 6728SOL    HW221084   4.739   1.298   4.985
 6729SOL     OW21085   5.643   6.516   3.491
 6729SOL    HW121086   5.635   6.596   3.432
 6729SOL    HW221087   5.610   6.435   3.443
 6730SOL     OW21088   1.241   0.348   2.444
 6730SOL    HW121089   1.323   0.358   2.388
 6730SOL    HW221090   1.185   0.430   2.438
 6731SOL     OW21091   2.171   4.251   1.808
 6731SOL    HW121092   2.226   4.181   1.853
 6731SOL    HW221093   2.142   4.217   1.718
 6732SOL     OW21094   2.335   5.231   0.794
 6732SOL    HW121095   2.276   5.196   0.721
 6732SOL    HW221096   2.384   5.155   0.837
 6733SOL     OW21097   6.113   6.061   4.702
 6733SOL    HW121098   6.148   6.045   4.794
 6733SOL    HW221099   6.190   6.072   4.639
 6734SOL     OW21100   2.812   3.751   5.640
 6734SOL    HW121101   2.751   3.825   5.615
 6734SOL    HW221102   2.893   3.752   5.581
 6735SOL     OW21103   0.633   5.874   6.754
 6735SOL    HW121104   0.601   5.795   6.701
 6735SOL    HW221105   0.646   5.846   6.849
 6736SOL     OW21106   2.385   4.339   2.373
 6736SOL    HW121107   2.290   4.346   2.342
 6736SOL    HW221108   2.392   4.369   2.468
 6737SOL     OW21109   2.026   0.310   1.178
 6737SOL    HW121110   2.124   0.320   1.192
 6737SOL    HW221111   1.978   0.331   1.263
 6738SOL     OW21112   4.606   1.288   1.591
 6738SOL    HW121113   4.663   1.240   1.524
 6738SOL    HW221114   4.620   1.247   1.681
 6739SOL     OW21115   4.667   0.321   4.949
 6739SOL    HW121116   4.726   0.240   4.953
 6739SOL    HW221117   4.579   0.296   4.910
 6740SOL     OW21118   5.802   3.145   5.412
 6740SOL    HW121119   5.802   3.125   5.510
 6740SOL    HW221120   5.737   3.219   5.394
 6741SOL     OW21121   0.072   0.133   6.092
 6741SOL    HW121122   0.077   0.037   6.063
 6741SOL    HW221123   0.132   0.189   6.035
 6742SOL     OW21124   6.315   5.953   4.981
 6742SOL    HW121125   6.394   6.012   5.001
 6742SOL    HW221126   6.232   5.995   5.017
 6743SOL     OW21127   5.714   2.493   1.173
 6743SOL    HW121128   5.794   2.539   1.136
 6743SOL    HW221129   5.674   2.548   1.246
 6744SOL     OW21130   5.229   5.422   4.464
 6744SOL    HW121131   5.264   5.513   4.486
 6744SOL    HW221132   5.166   5.428   4.387
 6745SOL     OW21133   0.781   3.612   2.808
 6745SOL    HW121134   0.831   3.576   2.729
 6745SOL    HW221135   0.683   3.599   2.793
 6746SOL     OW21136   0.095   0.986   1.340
 6746SOL    HW121137   0.130   0.918   1.404
 6746SOL    HW221138   0.006   0.957   1.305
 6747SOL     OW21139   4.758   6.110   6.411
 6747SOL    HW121140   4.818   6.163   6.472
 6747SOL    HW221141   4.701   6.049   6.466
 6748SOL     OW21142   0.195   6.385   1.926
 6748SOL    HW121143   0.197   6.286   1.942
 6748SOL    HW221144   0.136   6.428   1.994
 6749SOL     OW21145   3.374   5.789   0.844
 6749SOL    HW121146   3.282   5.800   0.809
 6749SOL    HW221147   3.432   5.746   0.775
 6750SOL     OW21148   2.210   3.221   5.176
 6750SOL    HW121149   2.131   3.165   5.203
 6750SOL    HW221150   2.256   3.178   5.099
 6751SOL     OW21151   3.610   1.618   6.007
 6751SOL    HW121152   3.649   1.559   6.078
 6751SOL    HW221153   3.511   1.625   6.020
 6752SOL     OW21154   6.733   2.174   0.265
 6752SOL    HW121155   6.642   2.135   0.277
 6752SOL    HW221156   6.802   2.108   0.296
 6753SOL     OW21157   6.070   1.307   6.699
 6753SOL    HW121158   5.973   1.280   6.694
 6753SOL    HW221159   6.095   1.356   6.615
 6754SOL     OW21160   5.063   1.594   6.735
 6754SOL    HW121161   4.978   1.640   6.708
 6754SOL    HW221162   5.090   1.627   6.825
 6755SOL     OW21163   4.912   2.262   3.914
 6755SOL    HW121164   4.869   2.346   3.880
 6755SOL    HW221165   4.927   2.270   4.013
 6756SOL     OW21166   4.859   4.004   3.321
 6756SOL    HW121167   4.857   4.102   3.340
 6756SOL    HW221168   4.897   3.955   3.400
 6757SOL     OW21169   6.048   5.034   1.731
 6757SOL    HW121170   6.019   5.057   1.824
 6757SOL    HW221171   6.116   4.960   1.735
 6758SOL     OW21172   5.723   1.113   3.250
 6758SOL    HW121173   5.776   1.073   3.324
 6758SOL    HW221174   5.773   1.191   3.211
 6759SOL     OW21175   0.978   4.820   3.127
 6759SOL    HW121176   0.879   4.811   3.109
 6759SOL    HW221177   1.026   4.744   3.083
 6760SOL     OW21178   0.392   4.318   5.235
 6760SOL    HW121179   0.323   4.312   5.307
 6760SOL    HW221180   0.372   4.396   5.175
 6761SOL     OW21181   6.298   3.435   6.578
 6761SOL    HW121182   6.213   3.409   6.623
 6761SOL    HW221183   6.279   3.462   6.483
 6762SOL     OW21184   6.712   3.655   3.067
 6762SOL    HW121185   6.751   3.582   3.010
 6762SOL    HW221186   6.775   3.733   3.068
 6763SOL     OW21187   6.350   6.814   5.085
 6763SOL    HW121188   6.363   6.904   5.044
 6763SOL    HW221189   6.307   6.753   5.018
 6764SOL     OW21190   2.007   3.045   6.531
 6764SOL    HW121191   2.049   2.967   6.579
 6764SOL    HW221192   1.942   3.090   6.592
 6765SOL     OW21193   5.344   5.309   2.688
 6765SOL    HW121194   5.411   5.236   2.685
 6765SOL    HW221195   5.323   5.332   2.783
 6766SOL     OW21196   1.853   2.007   5.863
 6766SOL    HW121197   1.835   2.084   5.924
 6766SOL    HW221198   1.901   1.935   5.913
 6767SOL     OW21199   0.499   2.651   6.053
 6767SOL    HW121200   0.567   2.724   6.043
 6767SOL    HW221201   0.542   2.563   6.032
 6768SOL     OW21202   6.494   1.388   6.007
 6768SOL    HW121203   6.511   1.425   5.916
 6768SOL    HW221204   6.448   1.300   5.999
 6769SOL     OW21205   0.760   2.641   6.742
 6769SOL    HW121206   0.701   2.694   6.803
 6769SOL    HW221207   0.796   2.561   6.792
 6770SOL     OW21208   6.828   1.731   4.618
 6770SOL    HW121209   6.763   1.732   4.694
 6770SOL    HW221210   6.848   1.636   4.593
 6771SOL     OW21211   6.040   1.483   2.369
 6771SOL    HW121212   5.992   1.441   2.446
 6771SOL    HW221213   5.981   1.552   2.327
 6772SOL     OW21214   1.203   0.617   2.384
 6772SOL    HW121215   1.133   0.684   2.407
 6772SOL    HW221216   1.187   0.583   2.291
 6773SOL     OW21217   1.719   0.521   2.562
 6773SOL    HW121218   1.777   0.601   2.576
 6773SOL    HW221219   1.645   0.544   2.498
 6774SOL     OW21220   3.783   1.346   5.708
 6774SOL    HW121221   3.794   1.436   5.750
 6774SOL    HW221222   3.823   1.276   5.766
 6775SOL     OW21223   0.880   2.556   4.493
 6775SOL    HW121224   0.976   2.577   4.471
 6775SOL    HW221225   0.872   2.532   4.590
 6776SOL     OW21226   2.984   3.792   3.953
 6776SOL    HW121227   3.024   3.853   4.022
 6776SOL    HW221228   2.939   3.715   3.998
 6777SOL     OW21229   0.331   6.610   6.118
 6777SOL    HW121230   0.365   6.517   6.107
 6777SOL    HW221231   0.242   6.608   6.165
 6778SOL     OW21232   6.937   6.057   2.626
 6778SOL    HW121233   6.983   6.141   2.600
 6778SOL    HW221234   6.858   6.079   2.684
 6779SOL     OW21235   4.589   4.824   6.722
 6779SOL    HW121236   4.544   4.774   6.797
 6779SOL    HW221237   4.523   4.886   6.680
 6780SOL     OW21238   4.390   0.207   3.020
 6780SOL    HW121239   4.363   0.188   2.925
 6780SOL    HW221240   4.488   0.229   3.022
 6781SOL     OW21241   6.431   3.284   3.087
 6781SOL    HW121242   6.500   3.318   3.023
 6781SOL    HW221243   6.375   3.361   3.120
 6782SOL     OW21244   0.673   0.936   4.008
 6782SOL    HW121245   0.599   0.873   3.984
 6782SOL    HW221246   0.744   0.887   4.058
 6783SOL     OW21247   0.082   6.135   6.676
 6783SOL    HW121248   0.107   6.144   6.580
 6783SOL    HW221249   0.134   6.059   6.717
 6784SOL     OW21250   1.612   4.830   0.517
 6784SOL    HW121251   1.646   4.762   0.453
 6784SOL    HW221252   1.687   4.889   0.546
 6785SOL     OW21253   5.279   4.965   1.701
 6785SOL    HW121254   5.375   4.969   1.730
 6785SOL    HW221255   5.230   4.897   1.756
 6786SOL     OW21256   6.291   1.926   5.377
 6786SOL    HW121257   6.312   2.022   5.359
 6786SOL    HW221258   6.326   1.900   5.467
 6787SOL     OW21259   3.735   2.108   0.976
 6787SOL    HW121260   3.772   2.083   0.887
 6787SOL    HW221261   3.674   2.036   1.009
 6788SOL     OW21262   1.124   4.000   1.281
 6788SOL    HW121263   1.057   3.987   1.207
 6788SOL    HW221264   1.158   4.094   1.278
 6789SOL     OW21265   5.555   3.630   2.352
 6789SOL    HW121266   5.500   3.655   2.431
 6789SOL    HW221267   5.577   3.532   2.355
 6790SOL     OW21268   0.584   5.497   0.851
 6790SOL    HW121269   0.507   5.491   0.914
 6790SOL    HW221270   0.564   5.564   0.779
 6791SOL     OW21271   2.748   6.464   3.910
 6791SOL    HW121272   2.831   6.410   3.895
 6791SOL    HW221273   2.686   6.413   3.971
 6792SOL     OW21274   3.238   5.532   6.740
 6792SOL    HW121275   3.156   5.513   6.687
 6792SOL    HW221276   3.224   5.615   6.795
 6793SOL     OW21277   2.586   4.271   6.396
 6793SOL    HW121278   2.679   4.287   6.362
 6793SOL    HW221279   2.548   4.190   6.352
 6794SOL     OW21280   4.964   2.534   4.373
 6794SOL    HW121281   4.998   2.500   4.460
 6794SOL    HW221282   5.008   2.621   4.351
 6795SOL     OW21283   0.910   0.923   1.929
 6795SOL    HW121284   0.970   0.868   1.988
 6795SOL    HW221285   0.906   0.881   1.839
 6796SOL     OW21286   6.962   2.602   2.274
 6796SOL    HW121287   6.875   2.593   2.322
 6796SOL    HW221288   7.018   2.672   2.320
 6797SOL     OW21289   1.923   3.725   1.125
 6797SOL    HW121290   1.830   3.754   1.102
 6797SOL    HW221291   1.943   3.640   1.077
 6798SOL     OW21292   4.494   0.752   2.110
 6798SOL    HW121293   4.500   0.775   2.207
 6798SOL    HW221294   4.508   0.835   2.055
 6799SOL     OW21295   5.778   6.631   3.111
 6799SOL    HW121296   5.727   6.681   3.041
 6799SOL    HW221297   5.715   6.571   3.160
 6800SOL     OW21298   6.732   2.880   2.301
 6800SOL    HW121299   6.815   2.837   2.338
 6800SOL    HW221300   6.676   2.914   2.376
 6801SOL     OW21301   1.813   5.017   5.129
 6801SOL    HW121302   1.825   4.920   5.107
 6801SOL    HW221303   1.716   5.037   5.136
 6802SOL     OW21304   2.695   4.458   1.643
 6802SOL    HW121305   2.638   4.377   1.660
 6802SOL    HW221306   2.766   4.463   1.713
 6803SOL     OW21307   5.679   5.298   6.798
 6803SOL    HW121308   5.744   5.265   6.730
 6803SOL    HW221309   5.724   5.303   6.887
 6804SOL     OW21310   3.262   5.391   2.231
 6804SOL    HW121311   3.349   5.350   2.260
 6804SOL    HW221312   3.276   5.441   2.146
 6805SOL     OW21313   0.747   4.540   3.693
 6805SOL    HW121314   0.793   4.453   3.712
 6805SOL    HW221315   0.649   4.531   3.711
 6806SOL     OW21316   5.773   3.754   2.263
 6806SOL    HW121317   5.715   3.677   2.290
 6806SOL    HW221318   5.766   3.826   2.332
 6807SOL     OW21319   2.885   3.399   2.609
 6807SOL    HW121320   2.799   3.348   2.613
 6807SOL    HW221321   2.961   3.337   2.628
 6808SOL     OW21322   3.584   6.968   3.183
 6808SOL    HW121323   3.598   0.024   3.126
 6808SOL    HW221324   3.504   6.981   3.241
 6809SOL     OW21325   5.784   2.360   0.813
 6809SOL    HW121326   5.804   2.439   0.755
 6809SOL    HW221327   5.841   2.363   0.895
 6810SOL     OW21328   3.074   0.245   4.522
 6810SOL    HW121329   3.110   0.336   4.500
 6810SOL    HW221330   3.132   0.175   4.481
 6811SOL     OW21331   6.732   1.357   0.825
 6811SOL    HW121332   6.702   1.430   0.764
 6811SOL    HW221333   6.705   1.378   0.919
 6812SOL     OW21334   3.090   4.507   5.394
 6812SOL    HW121335   3.188   4.525   5.398
 6812SOL    HW221336   3.056   4.528   5.302
 6813SOL     OW21337   0.157   3.640   2.105
 6813SOL    HW121338   0.257   3.641   2.106
 6813SOL    HW221339   0.125   3.606   2.017
 6814SOL     OW21340   4.778   2.107   1.808
 6814SOL    HW121341   4.744   2.050   1.733
 6814SOL    HW221342   4.766   2.057   1.894
 6815SOL     OW21343   0.609   6.274   0.304
 6815SOL    HW121344   0.586   6.237   0.214
 6815SOL    HW221345   0.579   6.210   0.375
 6816SOL     OW21346   6.629   0.003   4.216
 6816SOL    HW121347   6.552   0.065   4.198
 6816SOL    HW221348   6.684   0.040   4.291
 6817SOL     OW21349   5.175   0.966   1.903
 6817SOL    HW121350   5.267   0.949   1.867
 6817SOL    HW221351   5.173   1.056   1.947
 6818SOL     OW21352   0.206   0.333   5.237
 6818SOL    HW121353   0.171   0.313   5.329
 6818SOL    HW221354   0.236   0.248   5.193
 6819SOL     OW21355   5.540   4.128   1.002
 6819SOL    HW121356   5.600   4.168   0.933
 6819SOL    HW221357   5.450   4.172   0.997
 6820SOL     OW21358   2.781   4.114   1.326
 6820SOL    HW121359   2.701   4.100   1.268
 6820SOL    HW221360   2.850   4.167   1.275
 6821SOL     OW21361   3.211   3.004   5.753
 6821SOL    HW121362   3.151   2.956   5.689
 6821SOL    HW221363   3.306   2.978   5.735
 6822SOL     OW21364   6.399   4.028   4.903
 6822SOL    HW121365   6.428   3.941   4.942
 6822SOL    HW221366   6.381   4.016   4.805
 6823SOL     OW21367   6.523   3.262   5.469
 6823SOL    HW121368   6.453   3.265   5.397
 6823SOL    HW221369   6.610   3.232   5.429
 6824SOL     OW21370   0.943   0.571   3.967
 6824SOL    HW121371   0.855   0.567   3.919
 6824SOL    HW221372   0.936   0.633   4.045
 6825SOL     OW21373   4.714   4.254   1.370
 6825SOL    HW121374   4.686   4.164   1.337
 6825SOL    HW221375   4.639   4.319   1.360
 6826SOL     OW21376   5.814   1.209   3.495
 6826SOL    HW121377   5.727   1.163   3.511
 6826SOL    HW221378   5.808   1.304   3.526
 6827SOL     OW21379   4.758   5.747   5.637
 6827SOL    HW121380   4.795   5.764   5.728
 6827SOL    HW221381   4.785   5.656   5.606
 6828SOL     OW21382   2.835   2.270   2.492
 6828SOL    HW121383   2.834   2.173   2.465
 6828SOL    HW221384   2.897   2.281   2.570
 6829SOL     OW21385   5.309   6.209   4.430
 6829SOL    HW121386   5.401   6.185   4.398
 6829SOL    HW221387   5.242   6.185   4.360
 6830SOL     OW21388   4.192   6.137   2.288
 6830SOL    HW121389   4.241   6.163   2.205
 6830SOL    HW221390   4.100   6.175   2.287
 6831SOL     OW21391   1.707   1.059   6.923
 6831SOL    HW121392   1.702   1.152   6.959
 6831SOL    HW221393   1.708   0.993   6.998
 6832SOL     OW21394   2.821   3.278   7.021
 6832SOL    HW121395   2.748   3.328   0.042
 6832SOL    HW221396   2.908   3.323   0.012
 6833SOL     OW21397   4.415   5.008   6.590
 6833SOL    HW121398   4.408   5.096   6.638
 6833SOL    HW221399   4.500   5.006   6.537
 6834SOL     OW21400   5.913   5.647   5.330
 6834SOL    HW121401   5.971   5.566   5.330
 6834SOL    HW221402   5.965   5.726   5.364
 6835SOL     OW21403   3.870   0.380   3.346
 6835SOL    HW121404   3.943   0.315   3.369
 6835SOL    HW221405   3.791   0.331   3.310
 6836SOL     OW21406   0.590   4.364   6.979
 6836SOL    HW121407   0.547   4.280   6.947
 6836SOL    HW221408   0.587   4.368   0.054
 6837SOL     OW21409   6.199   1.665   1.414
 6837SOL    HW121410   6.161   1.716   1.491
 6837SOL    HW221411   6.299   1.665   1.420
 6838SOL     OW21412   2.673   4.048   5.906
 6838SOL    HW121413   2.636   4.102   5.982
 6838SOL    HW221414   2.771   4.064   5.900
 6839SOL     OW21415   5.718   2.708   5.653
 6839SOL    HW121416   5.745   2.677   5.562
 6839SOL    HW221417   5.710   2.629   5.715
 6840SOL     OW21418   3.605   6.643   4.716
 6840SOL    HW121419   3.673   6.600   4.656
 6840SOL    HW221420   3.618   6.609   4.809
 6841SOL     OW21421   4.555   6.883   0.362
 6841SOL    HW121422   4.600   6.878   0.451
 6841SOL    HW221423   4.465   6.925   0.373
 6842SOL     OW21424   1.040   3.087   3.280
 6842SOL    HW121425   1.114   3.131   3.230
 6842SOL    HW221426   1.075   3.052   3.367
 6843SOL     OW21427   4.819   2.879   2.200
 6843SOL    HW121428   4.805   2.941   2.123
 6843SOL    HW221429   4.768   2.794   2.184
 6844SOL     OW21430   3.598   6.552   4.979
 6844SOL    HW121431   3.560   6.500   5.056
 6844SOL    HW221432   3.698   6.553   4.986
 6845SOL     OW21433   3.977   4.109   7.021
 6845SOL    HW121434   3.965   4.052   0.077
 6845SOL    HW221435   3.895   4.164   7.005
 6846SOL     OW21436   4.054   3.671   3.541
 6846SOL    HW121437   4.045   3.770   3.552
 6846SOL    HW221438   4.114   3.635   3.612
 6847SOL     OW21439   5.657   2.743   2.593
 6847SOL    HW121440   5.755   2.746   2.572
 6847SOL    HW221441   5.630   2.828   2.637
 6848SOL     OW21442   0.936   6.014   5.035
 6848SOL    HW121443   0.849   6.039   5.078
 6848SOL    HW221444   0.919   5.969   4.947
 6849SOL     OW21445   3.533   0.451   5.299
 6849SOL    HW121446   3.535   0.351   5.294
 6849SOL    HW221447   3.467   0.480   5.367
 6850SOL     OW21448   6.513   3.770   1.445
 6850SOL    HW121449   6.588   3.750   1.508
 6850SOL    HW221450   6.446   3.828   1.492
 6851SOL     OW21451   1.203   5.881   6.415
 6851SOL    HW121452   1.259   5.882   6.332
 6851SOL    HW221453   1.259   5.909   6.493
 6852SOL     OW21454   6.388   5.317   2.154
 6852SOL    HW121455   6.400   5.407   2.112
 6852SOL    HW221456   6.293   5.288   2.144
 6853SOL     OW21457   6.046   4.473   4.634
 6853SOL    HW121458   6.042   4.501   4.729
 6853SOL    HW221459   5.958   4.492   4.590
 6854SOL     OW21460   6.362   1.847   6.504
 6854SOL    HW121461   6.368   1.798   6.591
 6854SOL    HW221462   6.286   1.811   6.450
 6855SOL     OW21463   3.221   6.495   2.479
 6855SOL    HW121464   3.239   6.587   2.445
 6855SOL    HW221465   3.259   6.485   2.571
 6856SOL     OW21466   0.623   5.634   5.666
 6856SOL    HW121467   0.585   5.542   5.664
 6856SOL    HW221468   0.582   5.686   5.741
 6857SOL     OW21469   4.814   1.197   6.912
 6857SOL    HW121470   4.716   1.208   6.898
 6857SOL    HW221471   4.862   1.200   6.824
 6858SOL     OW21472   3.615   3.237   6.673
 6858SOL    HW121473   3.619   3.185   6.587
 6858SOL    HW221474   3.593   3.175   6.748
 6859SOL     OW21475   3.950   0.974   0.410
 6859SOL    HW121476   3.884   1.028   0.358
 6859SOL    HW221477   3.975   0.892   0.358
 6860SOL     OW21478   4.832   3.820   0.247
 6860SOL    HW121479   4.810   3.918   0.239
 6860SOL    HW221480   4.747   3.767   0.245
 6861SOL     OW21481   5.691   3.812   0.720
 6861SOL    HW121482   5.655   3.741   0.659
 6861SOL    HW221483   5.749   3.874   0.667
 6862SOL     OW21484   2.772   5.419   4.379
 6862SOL    HW121485   2.811   5.445   4.467
 6862SOL    HW221486   2.674   5.405   4.389
 6863SOL     OW21487   1.164   3.000   3.516
 6863SOL    HW121488   1.085   2.990   3.577
 6863SOL    HW221489   1.217   2.915   3.515
 6864SOL     OW21490   3.808   5.924   6.629
 6864SOL    HW121491   3.828   5.875   6.714
 6864SOL    HW221492   3.836   5.869   6.551
 6865SOL     OW21493   0.094   3.309   4.391
 6865SOL    HW121494   0.140   3.248   4.326
 6865SOL    HW221495   0.027   3.365   4.342
 6866SOL     OW21496   0.993   3.367   2.245
 6866SOL    HW121497   1.000   3.465   2.225
 6866SOL    HW221498   1.031   3.349   2.336
 6867SOL     OW21499   2.174   5.135   2.863
 6867SOL    HW121500   2.165   5.100   2.956
 6867SOL    HW221501   2.214   5.065   2.804
 6868SOL     OW21502   2.074   5.396   4.878
 6868SOL    HW121503   2.119   5.465   4.822
 6868SOL    HW221504   1.975   5.413   4.879
 6869SOL     OW21505   6.959   3.449   5.163
 6869SOL    HW121506   7.024   3.383   5.201
 6869SOL    HW221507   6.978   3.462   5.066
 6870SOL     OW21508   5.908   3.476   2.224
 6870SOL    HW121509   5.844   3.546   2.191
 6870SOL    HW221510   5.875   3.386   2.197
 6871SOL     OW21511   5.053   5.972   1.681
 6871SOL    HW121512   5.069   5.896   1.743
 6871SOL    HW221513   5.141   6.010   1.651
 6872SOL     OW21514   3.507   3.993   0.476
 6872SOL    HW121515   3.588   4.041   0.442
 6872SOL    HW221516   3.519   3.974   0.573
 6873SOL     OW21517   5.674   4.847   4.815
 6873SOL    HW121518   5.761   4.814   4.853
 6873SOL    HW221519   5.690   4.931   4.764
 6874SOL     OW21520   0.677   2.010   5.862
 6874SOL    HW121521   0.676   2.089   5.801
 6874SOL    HW221522   0.752   2.019   5.928
 6875SOL     OW21523   4.117   1.094   4.405
 6875SOL    HW121524   4.058   1.052   4.337
 6875SOL    HW221525   4.097   1.056   4.496
 6876SOL     OW21526   3.633   5.891   5.133
 6876SOL    HW121527   3.718   5.877   5.083
 6876SOL    HW221528   3.565   5.933   5.071
 6877SOL     OW21529   1.515   3.536   5.725
 6877SOL    HW121530   1.581   3.599   5.685
 6877SOL    HW221531   1.563   3.472   5.786
 6878SOL     OW21532   1.513   1.524   4.124
 6878SOL    HW121533   1.530   1.622   4.112
 6878SOL    HW221534   1.414   1.509   4.132
 6879SOL     OW21535   0.119   0.779   5.720
 6879SOL    HW121536   0.078   0.870   5.731
 6879SOL    HW221537   0.213   0.781   5.754
 6880SOL     OW21538   1.982   3.957   4.505
 6880SOL    HW121539   1.943   3.974   4.595
 6880SOL    HW221540   1.908   3.939   4.439
 6881SOL     OW21541   5.919   5.867   1.574
 6881SOL    HW121542   6.009   5.826   1.556
 6881SOL    HW221543   5.870   5.812   1.642
 6882SOL     OW21544   2.320   6.260   5.391
 6882SOL    HW121545   2.278   6.249   5.481
 6882SOL    HW221546   2.249   6.264   5.321
 6883SOL     OW21547   3.250   6.004   2.024
 6883SOL    HW121548   3.318   6.046   1.964
 6883SOL    HW221549   3.172   5.973   1.970
 6884SOL     OW21550   2.024   5.031   2.464
 6884SOL    HW121551   2.054   5.123   2.442
 6884SOL    HW221552   2.083   4.994   2.537
 6885SOL     OW21553   3.918   5.291   4.754
 6885SOL    HW121554   4.018   5.289   4.762
 6885SOL    HW221555   3.882   5.201   4.777
 6886SOL     OW21556   5.368   1.206   2.168
 6886SOL    HW121557   5.387   1.246   2.258
 6886SOL    HW221558   5.431   1.131   2.150
 6887SOL     OW21559   5.508   0.777   5.603
 6887SOL    HW121560   5.589   0.722   5.583
 6887SOL    HW221561   5.516   0.817   5.694
 6888SOL     OW21562   6.032   6.825   4.448
 6888SOL    HW121563   5.935   6.846   4.445
 6888SOL    HW221564   6.085   6.910   4.437
 6889SOL     OW21565   1.765   4.743   6.006
 6889SOL    HW121566   1.736   4.661   5.957
 6889SOL    HW221567   1.817   4.802   5.945
 6890SOL     OW21568   1.901   0.516   0.947
 6890SOL    HW121569   1.875   0.426   0.982
 6890SOL    HW221570   1.967   0.505   0.873
 6891SOL     OW21571   3.423   5.320   5.526
 6891SOL    HW121572   3.337   5.275   5.500
 6891SOL    HW221573   3.409   5.419   5.530
 6892SOL     OW21574   3.442   1.507   4.924
 6892SOL    HW121575   3.380   1.540   4.852
 6892SOL    HW221576   3.531   1.486   4.884
 6893SOL     OW21577   5.543   0.884   1.514
 6893SOL    HW121578   5.520   0.810   1.452
 6893SOL    HW221579   5.495   0.870   1.601
 6894SOL     OW21580   6.154   4.577   6.522
 6894SOL    HW121581   6.165   4.667   6.564
 6894SOL    HW221582   6.062   4.568   6.484
 6895SOL     OW21583   3.898   5.722   6.432
 6895SOL    HW121584   3.929   5.812   6.401
 6895SOL    HW221585   3.939   5.651   6.375
 6896SOL     OW21586   4.730   0.941   2.463
 6896SOL    HW121587   4.810   0.881   2.462
 6896SOL    HW221588   4.734   1.001   2.542
 6897SOL     OW21589   3.718   0.572   0.924
 6897SOL    HW121590   3.722   0.617   1.014
 6897SOL    HW221591   3.675   0.483   0.933
 6898SOL     OW21592   3.691   1.080   2.711
 6898SOL    HW121593   3.769   1.133   2.679
 6898SOL    HW221594   3.714   1.035   2.797
 6899SOL     OW21595   5.783   6.089   6.587
 6899SOL    HW121596   5.807   5.993   6.603
 6899SOL    HW221597   5.816   6.117   6.497
 6900SOL     OW21598   4.571   1.450   6.402
 6900SOL    HW121599   4.618   1.370   6.364
 6900SOL    HW221600   4.635   1.503   6.458
 6901SOL     OW21601   1.491   0.778   6.910
 6901SOL    HW121602   1.537   0.719   6.977
 6901SOL    HW221603   1.397   0.795   6.940
 6902SOL     OW21604   6.405   5.819   2.361
 6902SOL    HW121605   6.470   5.855   2.427
 6902SOL    HW221606   6.428   5.854   2.270
 6903SOL     OW21607   4.676   4.572   0.413
 6903SOL    HW121608   4.625   4.501   0.462
 6903SOL    HW221609   4.756   4.532   0.369
 6904SOL     OW21610   0.595   1.066   2.681
 6904SOL    HW121611   0.568   0.988   2.624
 6904SOL    HW221612   0.689   1.054   2.711
 6905SOL     OW21613   3.952   5.779   1.294
 6905SOL    HW121614   3.877   5.799   1.231
 6905SOL    HW221615   3.932   5.820   1.383
 6906SOL     OW21616   6.148   6.510   3.373
 6906SOL    HW121617   6.127   6.414   3.350
 6906SOL    HW221618   6.065   6.556   3.402
 6907SOL     OW21619   3.393   0.764   1.274
 6907SOL    HW121620   3.397   0.852   1.225
 6907SOL    HW221621   3.416   0.778   1.370
 6908SOL     OW21622   6.142   6.876   6.858
 6908SOL    HW121623   6.164   6.811   6.785
 6908SOL    HW221624   6.202   6.860   6.936
 6909SOL     OW21625   2.093   2.416   6.613
 6909SOL    HW121626   2.166   2.475   6.580
 6909SOL    HW221627   2.132   2.329   6.645
 6910SOL     OW21628   5.355   1.125   1.657
 6910SOL    HW121629   5.398   1.069   1.728
 6910SOL    HW221630   5.311   1.204   1.698
 6911SOL     OW21631   4.242   0.651   4.991
 6911SOL    HW121632   4.309   0.577   4.976
 6911SOL    HW221633   4.242   0.677   5.088
 6912SOL     OW21634   4.326   4.819   1.947
 6912SOL    HW121635   4.303   4.780   2.036
 6912SOL    HW221636   4.311   4.750   1.876
 6913SOL     OW21637   4.497   5.634   5.594
 6913SOL    HW121638   4.591   5.670   5.595
 6913SOL    HW221639   4.467   5.618   5.688
 6914SOL     OW21640   6.248   5.358   0.008
 6914SOL    HW121641   6.276   5.291   6.963
 6914SOL    HW221642   6.180   5.419   6.994
 6915SOL     OW21643   0.736   5.815   0.793
 6915SOL    HW121644   0.650   5.807   0.741
 6915SOL    HW221645   0.726   5.885   0.863
 6916SOL     OW21646   6.091   0.303   5.789
 6916SOL    HW121647   6.147   0.252   5.724
 6916SOL    HW221648   6.091   0.400   5.765
 6917SOL     OW21649   4.482   0.178   6.753
 6917SOL    HW121650   4.557   0.240   6.774
 6917SOL    HW221651   4.505   0.124   6.672
 6918SOL     OW21652   2.258   2.954   3.807
 6918SOL    HW121653   2.328   2.994   3.748
 6918SOL    HW221654   2.199   3.027   3.841
 6919SOL     OW21655   1.229   6.341   3.631
 6919SOL    HW121656   1.202   6.274   3.561
 6919SOL    HW221657   1.271   6.294   3.708
 6920SOL     OW21658   5.365   5.884   4.467
 6920SOL    HW121659   5.295   5.860   4.400
 6920SOL    HW221660   5.428   5.950   4.427
 6921SOL     OW21661   1.205   6.149   4.052
 6921SOL    HW121662   1.157   6.071   4.013
 6921SOL    HW221663   1.303   6.141   4.033
 6922SOL     OW21664   1.840   6.763   0.907
 6922SOL    HW121665   1.865   6.855   0.876
 6922SOL    HW221666   1.772   6.769   0.979
 6923SOL     OW21667   5.123   6.043   4.083
 6923SOL    HW121668   5.205   5.991   4.109
 6923SOL    HW221669   5.120   6.053   3.984
 6924SOL     OW21670   6.655   6.235   1.586
 6924SOL    HW121671   6.703   6.229   1.674
 6924SOL    HW221672   6.721   6.222   1.511
 6925SOL     OW21673   5.676   5.544   2.893
 6925SOL    HW121674   5.705   5.452   2.922
 6925SOL    HW221675   5.628   5.538   2.806
 6926SOL     OW21676   2.615   4.523   5.459
 6926SOL    HW121677   2.684   4.584   5.419
 6926SOL    HW221678   2.637   4.507   5.555
 6927SOL     OW21679   4.269   3.632   0.805
 6927SOL    HW121680   4.233   3.555   0.857
 6927SOL    HW221681   4.355   3.663   0.845
 6928SOL     OW21682   6.829   0.315   6.366
 6928SOL    HW121683   6.829   0.218   6.344
 6928SOL    HW221684   6.797   0.328   6.460
 6929SOL     OW21685   3.015   4.912   1.384
 6929SOL    HW121686   2.987   4.886   1.477
 6929SOL    HW221687   3.018   5.011   1.377
 6930SOL     OW21688   1.002   0.396   3.064
 6930SOL    HW121689   0.991   0.298   3.084
 6930SOL    HW221690   1.093   0.412   3.026
 6931SOL     OW21691   2.050   0.329   0.258
 6931SOL    HW121692   2.023   0.235   0.276
 6931SOL    HW221693   2.143   0.344   0.294
 6932SOL     OW21694   2.433   2.297   0.186
 6932SOL    HW121695   2.503   2.287   0.258
 6932SOL    HW221696   2.386   2.384   0.198
 6933SOL     OW21697   2.334   5.739   5.579
 6933SOL    HW121698   2.405   5.809   5.574
 6933SOL    HW221699   2.307   5.711   5.487
 6934SOL     OW21700   5.770   5.097   6.306
 6934SOL    HW121701   5.826   5.144   6.374
 6934SOL    HW221702   5.716   5.163   6.255
 6935SOL     OW21703   4.363   5.679   3.327
 6935SOL    HW121704   4.348   5.608   3.396
 6935SOL    HW221705   4.461   5.692   3.312
 6936SOL     OW21706   0.728   4.629   0.844
 6936SOL    HW121707   0.827   4.614   0.836
 6936SOL    HW221708   0.679   4.561   0.788
 6937SOL     OW21709   4.419   6.521   5.475
 6937SOL    HW121710   4.415   6.424   5.502
 6937SOL    HW221711   4.403   6.579   5.555
 6938SOL     OW21712   5.625   2.424   5.070
 6938SOL    HW121713   5.534   2.442   5.107
 6938SOL    HW221714   5.670   2.510   5.048
 6939SOL     OW21715   6.953   4.866   1.904
 6939SOL    HW121716   6.865   4.870   1.855
 6939SOL    HW221717   0.003   4.856   1.839
 6940SOL     OW21718   4.363   0.045   4.599
 6940SOL    HW121719   4.409   0.128   4.567
 6940SOL    HW221720   4.432   7.000   4.620
 6941SOL     OW21721   4.059   3.627   4.544
 6941SOL    HW121722   4.104   3.612   4.632
 6941SOL    HW221723   4.044   3.539   4.499
 6942SOL     OW21724   6.388   1.722   6.752
 6942SOL    HW121725   6.442   1.643   6.783
 6942SOL    HW221726   6.399   1.797   6.817
 6943SOL     OW21727   6.267   5.725   6.981
 6943SOL    HW121728   6.279   5.769   0.045
 6943SOL    HW221729   6.349   5.740   6.925
 6944SOL     OW21730   1.421   6.293   0.100
 6944SOL    HW121731   1.445   6.333   0.189
 6944SOL    HW221732   1.396   6.197   0.114
 6945SOL     OW21733   4.804   2.085   5.881
 6945SOL    HW121734   4.714   2.127   5.887
 6945SOL    HW221735   4.795   1.987   5.865
 6946SOL     OW21736   5.912   3.507   3.368
 6946SOL    HW121737   5.958   3.441   3.309
 6946SOL    HW221738   5.868   3.460   3.445
 6947SOL     OW21739   3.559   7.008   1.517
 6947SOL    HW121740   3.521   6.968   1.600
 6947SOL    HW221741   3.544   6.946   1.440
 6948SOL     OW21742   4.049   2.242   5.250
 6948SOL    HW121743   4.053   2.204   5.158
 6948SOL    HW221744   4.047   2.342   5.246
 6949SOL     OW21745   4.724   1.027   2.197
 6949SOL    HW121746   4.709   0.981   2.284
 6949SOL    HW221747   4.728   1.126   2.212
 6950SOL     OW21748   2.770   1.813   3.957
 6950SOL    HW121749   2.805   1.887   4.015
 6950SOL    HW221750   2.841   1.787   3.891
 6951SOL     OW21751   4.870   5.084   5.238
 6951SOL    HW121752   4.789   5.041   5.277
 6951SOL    HW221753   4.938   5.014   5.217
 6952SOL     OW21754   0.243   4.918   5.273
 6952SOL    HW121755   0.327   4.896   5.223
 6952SOL    HW221756   0.167   4.925   5.208
 6953SOL     OW21757   5.314   2.416   5.121
 6953SOL    HW121758   5.282   2.472   5.197
 6953SOL    HW221759   5.316   2.320   5.148
 6954SOL     OW21760   0.399   4.506   2.128
 6954SOL    HW121761   0.469   4.577   2.125
 6954SOL    HW221762   0.365   4.488   2.035
 6955SOL     OW21763   6.898   6.844   2.924
 6955SOL    HW121764   6.838   6.816   2.849
 6955SOL    HW221765   6.887   6.942   2.940
 6956SOL     OW21766   2.264   4.466   1.123
 6956SOL    HW121767   2.336   4.428   1.066
 6956SOL    HW221768   2.303   4.534   1.185
 6957SOL     OW21769   0.927   4.063   6.442
 6957SOL    HW121770   0.881   4.151   6.452
 6957SOL    HW221771   0.996   4.053   6.513
 6958SOL     OW21772   2.259   3.458   6.092
 6958SOL    HW121773   2.212   3.525   6.034
 6958SOL    HW221774   2.353   3.488   6.109
 6959SOL     OW21775   3.824   1.382   3.580
 6959SOL    HW121776   3.855   1.287   3.574
 6959SOL    HW221777   3.727   1.387   3.555
 6960SOL     OW21778   0.843   4.593   0.086
 6960SOL    HW121779   0.913   4.644   0.035
 6960SOL    HW221780   0.777   4.554   0.022
 6961SOL     OW21781   6.624   1.363   3.213
 6961SOL    HW121782   6.669   1.329   3.131
 6961SOL    HW221783   6.573   1.289   3.257
 6962SOL     OW21784   3.842   3.504   0.830
 6962SOL    HW121785   3.807   3.466   0.915
 6962SOL    HW221786   3.859   3.602   0.842
 6963SOL     OW21787   6.355   6.205   2.451
 6963SOL    HW121788   6.293   6.251   2.388
 6963SOL    HW221789   6.314   6.202   2.543
 6964SOL     OW21790   3.428   5.598   5.540
 6964SOL    HW121791   3.367   5.666   5.500
 6964SOL    HW221792   3.429   5.607   5.639
 6965SOL     OW21793   6.363   1.838   5.633
 6965SOL    HW121794   6.363   1.738   5.624
 6965SOL    HW221795   6.447   1.867   5.679
 6966SOL     OW21796   5.224   2.507   4.232
 6966SOL    HW121797   5.203   2.591   4.283
 6966SOL    HW221798   5.172   2.506   4.147
 6967SOL     OW21799   2.539   2.309   6.115
 6967SOL    HW121800   2.620   2.316   6.057
 6967SOL    HW221801   2.495   2.398   6.122
 6968SOL     OW21802   4.313   6.915   3.867
 6968SOL    HW121803   4.254   6.869   3.934
 6968SOL    HW221804   4.338   6.850   3.795
 6969SOL     OW21805   3.066   2.763   0.968
 6969SOL    HW121806   3.097   2.670   0.949
 6969SOL    HW221807   3.025   2.803   0.886
 6970SOL     OW21808   4.538   4.349   0.515
 6970SOL    HW121809   4.438   4.361   0.515
 6970SOL    HW221810   4.563   4.285   0.587
 6971SOL     OW21811   5.927   1.237   2.125
 6971SOL    HW121812   6.015   1.286   2.123
 6971SOL    HW221813   5.943   1.140   2.140
 6972SOL     OW21814   5.665   5.055   4.610
 6972SOL    HW121815   5.668   4.999   4.526
 6972SOL    HW221816   5.570   5.069   4.637
 6973SOL     OW21817   1.754   3.942   2.907
 6973SOL    HW121818   1.794   3.851   2.912
 6973SOL    HW221819   1.820   4.009   2.940
 6974SOL     OW21820   3.372   4.079   5.253
 6974SOL    HW121821   3.286   4.129   5.243
 6974SOL    HW221822   3.444   4.142   5.281
 6975SOL     OW21823   3.040   0.439   6.108
 6975SOL    HW121824   3.105   0.514   6.117
 6975SOL    HW221825   3.052   0.396   6.018
 6976SOL     OW21826   1.300   6.634   0.488
 6976SOL    HW121827   1.284   6.571   0.412
 6976SOL    HW221828   1.227   6.703   0.490
 6977SOL     OW21829   4.748   2.698   2.479
 6977SOL    HW121830   4.711   2.757   2.550
 6977SOL    HW221831   4.674   2.645   2.437
 6978SOL     OW21832   4.394   1.721   3.027
 6978SOL    HW121833   4.319   1.770   2.981
 6978SOL    HW221834   4.417   1.639   2.974
 6979SOL     OW21835   0.237   4.911   3.639
 6979SOL    HW121836   0.173   4.845   3.598
 6979SOL    HW221837   0.187   4.972   3.700
 6980SOL     OW21838   4.427   0.924   4.625
 6980SOL    HW121839   4.392   0.935   4.718
 6980SOL    HW221840   4.499   0.991   4.608
 6981SOL     OW21841   3.120   3.870   0.050
 6981SOL    HW121842   3.134   3.793   0.113
 6981SOL    HW221843   3.062   3.938   0.094
 6982SOL     OW21844   0.680   7.025   4.749
 6982SOL    HW121845   0.688   6.930   4.779
 6982SOL    HW221846   0.597   0.040   4.789
 6983SOL     OW21847   6.806   0.511   2.845
 6983SOL    HW121848   6.846   0.468   2.764
 6983SOL    HW221849   6.770   0.601   2.821
 6984SOL     OW21850   2.182   1.049   5.339
 6984SOL    HW121851   2.106   1.112   5.352
 6984SOL    HW221852   2.165   0.965   5.391
 6985SOL     OW21853   5.391   0.104   4.181
 6985SOL    HW121854   5.318   0.038   4.167
 6985SOL    HW221855   5.398   0.164   4.101
 6986SOL     OW21856   1.608   7.012   5.064
 6986SOL    HW121857   1.689   6.983   5.013
 6986SOL    HW221858   1.526   6.978   5.018
 6987SOL     OW21859   6.731   3.532   6.343
 6987SOL    HW121860   6.823   3.570   6.344
 6987SOL    HW221861   6.703   3.508   6.436
 6988SOL     OW21862   5.865   1.466   5.773
 6988SOL    HW121863   5.829   1.374   5.783
 6988SOL    HW221864   5.822   1.527   5.841
 6989SOL     OW21865   2.085   3.173   3.788
 6989SOL    HW121866   1.994   3.165   3.829
 6989SOL    HW221867   2.115   3.269   3.791
 6990SOL     OW21868   4.195   3.397   0.939
 6990SOL    HW121869   4.149   3.379   0.852
 6990SOL    HW221870   4.188   3.317   0.998
 6991SOL     OW21871   4.589   4.479   5.465
 6991SOL    HW121872   4.651   4.546   5.504
 6991SOL    HW221873   4.528   4.445   5.536
 6992SOL     OW21874   6.317   6.639   4.549
 6992SOL    HW121875   6.219   6.622   4.563
 6992SOL    HW221876   6.336   6.736   4.564
 6993SOL     OW21877   0.134   6.420   3.662
 6993SOL    HW121878   0.227   6.437   3.630
 6993SOL    HW221879   0.075   6.398   3.584
 6994SOL     OW21880   1.303   2.923   0.380
 6994SOL    HW121881   1.267   2.866   0.306
 6994SOL    HW221882   1.283   2.881   0.468
 6995SOL     OW21883   1.271   5.453   3.958
 6995SOL    HW121884   1.207   5.529   3.967
 6995SOL    HW221885   1.225   5.374   3.919
 6996SOL     OW21886   1.861   0.096   6.681
 6996SOL    HW121887   1.806   0.059   6.606
 6996SOL    HW221888   1.923   0.166   6.646
 6997SOL     OW21889   4.868   6.017   4.177
 6997SOL    HW121890   4.964   6.008   4.152
 6997SOL    HW221891   4.842   5.940   4.236
 6998SOL     OW21892   2.721   1.967   3.475
 6998SOL    HW121893   2.690   2.036   3.409
 6998SOL    HW221894   2.687   1.877   3.447
 6999SOL     OW21895   5.401   2.181   0.127
 6999SOL    HW121896   5.448   2.102   0.087
 6999SOL    HW221897   5.303   2.163   0.130
 7000SOL     OW21898   6.727   0.355   1.440
 7000SOL    HW121899   6.696   0.430   1.382
 7000SOL    HW221900   6.648   0.310   1.483
 7001SOL     OW21901   2.533   1.458   5.872
 7001SOL    HW121902   2.485   1.524   5.928
 7001SOL    HW221903   2.568   1.503   5.789
 7002SOL     OW21904   1.987   4.341   1.979
 7002SOL    HW121905   2.044   4.306   1.904
 7002SOL    HW221906   2.025   4.428   2.011
 7003SOL     OW21907   1.449   6.184   5.965
 7003SOL    HW121908   1.452   6.095   5.920
 7003SOL    HW221909   1.355   6.220   5.964
 7004SOL     OW21910   1.329   3.904   6.407
 7004SOL    HW121911   1.330   3.899   6.507
 7004SOL    HW221912   1.320   4.000   6.379
 7005SOL     OW21913   6.307   6.738   6.127
 7005SOL    HW121914   6.212   6.771   6.133
 7005SOL    HW221915   6.349   6.774   6.044
 7006SOL     OW21916   4.471   4.572   3.909
 7006SOL    HW121917   4.409   4.574   3.987
 7006SOL    HW221918   4.507   4.479   3.897
 7007SOL     OW21919   5.029   5.217   2.848
 7007SOL    HW121920   5.046   5.202   2.751
 7007SOL    HW221921   5.096   5.167   2.902
 7008SOL     OW21922   1.064   4.795   4.690
 7008SOL    HW121923   0.995   4.772   4.621
 7008SOL    HW221924   1.089   4.712   4.740
 7009SOL     OW21925   0.459   4.268   2.770
 7009SOL    HW121926   0.522   4.198   2.804
 7009SOL    HW221927   0.382   4.222   2.725
 7010SOL     OW21928   4.777   4.600   6.563
 7010SOL    HW121929   4.769   4.631   6.657
 7010SOL    HW221930   4.868   4.621   6.528
 7011SOL     OW21931   0.996   1.257   5.526
 7011SOL    HW121932   0.975   1.210   5.612
 7011SOL    HW221933   0.940   1.219   5.453
 7012SOL     OW21934   1.430   1.783   1.497
 7012SOL    HW121935   1.436   1.742   1.406
 7012SOL    HW221936   1.502   1.851   1.508
 7013SOL     OW21937   6.946   1.523   1.402
 7013SOL    HW121938   6.897   1.437   1.393
 7013SOL    HW221939   6.953   1.547   1.499
 7014SOL     OW21940   2.199   5.015   0.596
 7014SOL    HW121941   2.112   5.065   0.595
 7014SOL    HW221942   2.206   4.960   0.513
 7015SOL     OW21943   5.032   1.767   2.498
 7015SOL    HW121944   5.123   1.791   2.531
 7015SOL    HW221945   5.039   1.726   2.407
 7016SOL     OW21946   4.243   4.634   1.784
 7016SOL    HW121947   4.310   4.562   1.765
 7016SOL    HW221948   4.224   4.685   1.701
 7017SOL     OW21949   4.925   2.208   4.619
 7017SOL    HW121950   4.826   2.201   4.630
 7017SOL    HW221951   4.968   2.124   4.651
 7018SOL     OW21952   0.690   3.254   3.233
 7018SOL    HW121953   0.666   3.322   3.163
 7018SOL    HW221954   0.650   3.166   3.209
 7019SOL     OW21955   1.089   5.634   1.000
 7019SOL    HW121956   1.062   5.654   0.906
 7019SOL    HW221957   1.013   5.650   1.061
 7020SOL     OW21958   6.940   6.274   6.852
 7020SOL    HW121959   7.004   6.238   6.784
 7020SOL    HW221960   6.849   6.236   6.836
 7021SOL     OW21961   4.038   0.203   5.999
 7021SOL    HW121962   4.042   0.185   5.900
 7021SOL    HW221963   3.995   0.125   6.045
 7022SOL     OW21964   4.311   5.514   6.373
 7022SOL    HW121965   4.273   5.429   6.337
 7022SOL    HW221966   4.256   5.591   6.341
 7023SOL     OW21967   5.494   4.032   2.269
 7023SOL    HW121968   5.583   4.030   2.314
 7023SOL    HW221969   5.467   3.938   2.245
 7024SOL     OW21970   6.546   6.411   1.235
 7024SOL    HW121971   6.627   6.452   1.277
 7024SOL    HW221972   6.465   6.463   1.262
 7025SOL     OW21973   2.370   0.497   0.195
 7025SOL    HW121974   2.467   0.517   0.207
 7025SOL    HW221975   2.329   0.564   0.133
 7026SOL     OW21976   3.644   1.234   1.516
 7026SOL    HW121977   3.545   1.248   1.525
 7026SOL    HW221978   3.684   1.223   1.607
 7027SOL     OW21979   4.894   5.844   3.920
 7027SOL    HW121980   4.808   5.892   3.939
 7027SOL    HW221981   4.967   5.910   3.909
 7028SOL     OW21982   3.209   0.492   4.544
 7028SOL    HW121983   3.296   0.455   4.511
 7028SOL    HW221984   3.174   0.557   4.477
 7029SOL     OW21985   4.590   1.395   5.025
 7029SOL    HW121986   4.581   1.495   5.027
 7029SOL    HW221987   4.502   1.355   5.002
 7030SOL     OW21988   1.898   3.061   4.014
 7030SOL    HW121989   1.872   3.001   4.091
 7030SOL    HW221990   1.984   3.107   4.036
 7031SOL     OW21991   1.404   1.239   4.591
 7031SOL    HW121992   1.383   1.141   4.600
 7031SOL    HW221993   1.459   1.253   4.509
 7032SOL     OW21994   5.820   1.978   3.887
 7032SOL    HW121995   5.786   2.058   3.837
 7032SOL    HW221996   5.856   2.008   3.976
 7033SOL     OW21997   0.435   0.107   4.509
 7033SOL    HW121998   0.424   0.077   4.604
 7033SOL    HW221999   0.470   0.201   4.508
 7034SOL     OW22000   0.256   4.976   2.916
 7034SOL    HW122001   0.341   4.934   2.947
 7034SOL    HW222002   0.205   5.011   2.995
 7035SOL     OW22003   6.350   5.001   2.127
 7035SOL    HW122004   6.399   4.935   2.070
 7035SOL    HW222005   6.387   5.092   2.112
 7036SOL     OW22006   6.414   4.631   0.870
 7036SOL    HW122007   6.458   4.668   0.787
 7036SOL    HW222008   6.353   4.701   0.909
 7037SOL     OW22009   0.854   0.865   6.566
 7037SOL    HW122010   0.936   0.913   6.533
 7037SOL    HW222011   0.796   0.928   6.616
 7038SOL     OW22012   2.111   3.388   4.297
 7038SOL    HW122013   2.015   3.376   4.272
 7038SOL    HW222014   2.132   3.333   4.377
 7039SOL     OW22015   3.632   2.541   6.769
 7039SOL    HW122016   3.665   2.610   6.705
 7039SOL    HW222017   3.634   2.578   6.862
 7040SOL     OW22018   5.263   3.080   0.021
 7040SOL    HW122019   5.268   3.019   0.100
 7040SOL    HW222020   5.319   3.043   6.972
 7041SOL     OW22021   1.874   1.159   3.224
 7041SOL    HW122022   1.881   1.068   3.184
 7041SOL    HW222023   1.783   1.172   3.263
 7042SOL     OW22024   1.431   0.507   6.000
 7042SOL    HW122025   1.393   0.496   6.092
 7042SOL    HW222026   1.409   0.598   5.965
 7043SOL     OW22027   1.401   2.072   2.382
 7043SOL    HW122028   1.426   2.169   2.377
 7043SOL    HW222029   1.437   2.033   2.467
 7044SOL     OW22030   6.037   6.545   1.838
 7044SOL    HW122031   6.070   6.489   1.762
 7044SOL    HW222032   5.999   6.631   1.803
 7045SOL     OW22033   6.489   4.947   6.915
 7045SOL    HW122034   6.437   4.896   6.847
 7045SOL    HW222035   6.559   5.003   6.870
 7046SOL     OW22036   2.710   1.430   3.955
 7046SOL    HW122037   2.793   1.404   3.906
 7046SOL    HW222038   2.723   1.419   4.053
 7047SOL     OW22039   1.413   0.614   2.753
 7047SOL    HW122040   1.457   0.557   2.683
 7047SOL    HW222041   1.360   0.686   2.708
 7048SOL     OW22042   6.793   5.613   0.402
 7048SOL    HW122043   6.839   5.674   0.466
 7048SOL    HW222044   6.694   5.616   0.419
 7049SOL     OW22045   2.095   0.894   6.660
 7049SOL    HW122046   2.018   0.863   6.603
 7049SOL    HW222047   2.161   0.944   6.603
 7050SOL     OW22048   3.825   4.072   4.584
 7050SOL    HW122049   3.923   4.056   4.594
 7050SOL    HW222050   3.801   4.159   4.627
 7051SOL     OW22051   6.454   6.493   3.381
 7051SOL    HW122052   6.358   6.519   3.376
 7051SOL    HW222053   6.490   6.512   3.472
 7052SOL     OW22054   0.176   0.619   4.443
 7052SOL    HW122055   0.175   0.682   4.521
 7052SOL    HW222056   0.242   0.651   4.375
 7053SOL     OW22057   6.588   4.415   6.176
 7053SOL    HW122058   6.596   4.462   6.088
 7053SOL    HW222059   6.570   4.482   6.248
 7054SOL     OW22060   6.401   1.583   1.103
 7054SOL    HW122061   6.345   1.503   1.120
 7054SOL    HW222062   6.393   1.646   1.180
 7055SOL     OW22063   4.532   1.535   4.179
 7055SOL    HW122064   4.544   1.436   4.175
 7055SOL    HW222065   4.589   1.578   4.109
 7056SOL     OW22066   4.183   4.998   3.540
 7056SOL    HW122067   4.117   5.072   3.544
 7056SOL    HW222068   4.260   5.018   3.601
 7057SOL     OW22069   6.340   5.781   2.750
 7057SOL    HW122070   6.385   5.848   2.691
 7057SOL    HW222071   6.406   5.747   2.818
 7058SOL     OW22072   0.157   4.362   4.681
 7058SOL    HW122073   0.161   4.376   4.582
 7058SOL    HW222074   0.249   4.347   4.717
 7059SOL     OW22075   2.057   0.539   2.380
 7059SOL    HW122076   2.139   0.486   2.402
 7059SOL    HW222077   1.995   0.483   2.324
 7060SOL     OW22078   2.827   6.595   0.763
 7060SOL    HW122079   2.838   6.639   0.674
 7060SOL    HW222080   2.901   6.530   0.777
 7061SOL     OW22081   0.153   0.656   3.065
 7061SOL    HW122082   0.120   0.580   3.121
 7061SOL    HW222083   0.183   0.731   3.124
 7062SOL     OW22084   0.132   1.151   5.533
 7062SOL    HW122085   0.104   1.233   5.583
 7062SOL    HW222086   0.232   1.144   5.536
 7063SOL     OW22087   2.104   6.870   2.276
 7063SOL    HW122088   2.120   6.772   2.290
 7063SOL    HW222089   2.179   6.908   2.221
 7064SOL     OW22090   4.250   2.838   0.756
 7064SOL    HW122091   4.248   2.937   0.762
 7064SOL    HW222092   4.158   2.801   0.762
 7065SOL     OW22093   3.631   3.397   2.334
 7065SOL    HW122094   3.645   3.493   2.359
 7065SOL    HW222095   3.700   3.370   2.267
 7066SOL     OW22096   2.596   5.456   1.191
 7066SOL    HW122097   2.575   5.553   1.203
 7066SOL    HW222098   2.577   5.429   1.097
 7067SOL     OW22099   0.279   3.660   4.166
 7067SOL    HW122100   0.263   3.661   4.067
 7067SOL    HW222101   0.297   3.567   4.196
 7068SOL     OW22102   1.102   6.977   2.865
 7068SOL    HW122103   1.117   7.019   2.775
 7068SOL    HW222104   1.011   7.002   2.898
 7069SOL     OW22105   1.236   4.314   5.312
 7069SOL    HW122106   1.170   4.240   5.325
 7069SOL    HW222107   1.245   4.366   5.397
 7070SOL     OW22108   5.447   5.522   3.693
 7070SOL    HW122109   5.400   5.523   3.781
 7070SOL    HW222110   5.447   5.429   3.656
 7071SOL     OW22111   1.318   0.477   5.198
 7071SOL    HW122112   1.375   0.533   5.258
 7071SOL    HW222113   1.262   0.537   5.140
 7072SOL     OW22114   0.530   7.014   0.207
 7072SOL    HW122115   0.544   6.935   0.147
 7072SOL    HW222116   0.517   6.984   0.301
 7073SOL     OW22117   1.358   1.879   6.153
 7073SOL    HW122118   1.427   1.931   6.103
 7073SOL    HW222119   1.323   1.806   6.094
 7074SOL     OW22120   2.846   1.527   0.112
 7074SOL    HW122121   2.916   1.477   0.061
 7074SOL    HW222122   2.760   1.526   0.061
 7075SOL     OW22123   0.841   5.646   2.585
 7075SOL    HW122124   0.780   5.652   2.505
 7075SOL    HW222125   0.808   5.706   2.657
 7076SOL     OW22126   3.701   1.609   6.529
 7076SOL    HW122127   3.672   1.620   6.624
 7076SOL    HW222128   3.682   1.516   6.498
 7077SOL     OW22129   1.761   5.029   6.273
 7077SOL    HW122130   1.829   4.958   6.256
 7077SOL    HW222131   1.714   5.051   6.188
 7078SOL     OW22132   6.425   0.589   2.677
 7078SOL    HW122133   6.506   0.629   2.635
 7078SOL    HW222134   6.389   0.651   2.747
 7079SOL     OW22135   5.586   6.001   5.753
 7079SOL    HW122136   5.627   5.970   5.838
 7079SOL    HW222137   5.656   6.006   5.682
 7080SOL     OW22138   5.777   6.880   4.396
 7080SOL    HW122139   5.677   6.881   4.386
 7080SOL    HW222140   5.818   6.934   4.323
 7081SOL     OW22141   4.540   1.280   5.645
 7081SOL    HW122142   4.475   1.266   5.570
 7081SOL    HW222143   4.614   1.339   5.614
 7082SOL     OW22144   5.402   1.357   6.597
 7082SOL    HW122145   5.420   1.319   6.688
 7082SOL    HW222146   5.482   1.410   6.567
 7083SOL     OW22147   3.291   0.243   5.829
 7083SOL    HW122148   3.294   0.284   5.738
 7083SOL    HW222149   3.204   0.264   5.872
 7084SOL     OW22150   6.440   5.951   0.408
 7084SOL    HW122151   6.381   6.021   0.448
 7084SOL    HW222152   6.427   5.864   0.457
 7085SOL     OW22153   3.464   1.479   1.031
 7085SOL    HW122154   3.539   1.541   1.052
 7085SOL    HW222155   3.393   1.527   0.980
 7086SOL     OW22156   0.906   1.632   5.832
 7086SOL    HW122157   0.999   1.614   5.863
 7086SOL    HW222158   0.854   1.674   5.906
 7087SOL     OW22159   2.376   2.610   4.798
 7087SOL    HW122160   2.338   2.702   4.811
 7087SOL    HW222161   2.453   2.597   4.860
 7088SOL     OW22162   0.582   2.129   5.497
 7088SOL    HW122163   0.593   2.030   5.492
 7088SOL    HW222164   0.559   2.156   5.590
 7089SOL     OW22165   2.692   1.898   1.215
 7089SOL    HW122166   2.721   1.805   1.190
 7089SOL    HW222167   2.712   1.960   1.139
 7090SOL     OW22168   2.333   2.455   4.580
 7090SOL    HW122169   2.367   2.521   4.647
 7090SOL    HW222170   2.318   2.501   4.493
 7091SOL     OW22171   0.178   6.631   1.066
 7091SOL    HW122172   0.085   6.667   1.056
 7091SOL    HW222173   0.207   6.590   0.980
 7092SOL     OW22174   2.951   2.862   0.079
 7092SOL    HW122175   3.042   2.825   0.064
 7092SOL    HW222176   2.923   2.915   7.023
 7093SOL     OW22177   4.289   3.395   6.013
 7093SOL    HW122178   4.263   3.488   5.991
 7093SOL    HW222179   4.253   3.332   5.944
 7094SOL     OW22180   6.858   0.786   6.324
 7094SOL    HW122181   6.895   0.773   6.416
 7094SOL    HW222182   6.842   0.884   6.308
 7095SOL     OW22183   0.593   4.094   6.691
 7095SOL    HW122184   0.583   4.001   6.656
 7095SOL    HW222185   0.587   4.159   6.615
 7096SOL     OW22186   4.713   0.587   2.716
 7096SOL    HW122187   4.786   0.534   2.672
 7096SOL    HW222188   4.734   0.599   2.813
 7097SOL     OW22189   1.658   0.992   1.723
 7097SOL    HW122190   1.621   0.901   1.702
 7097SOL    HW222191   1.640   1.054   1.647
 7098SOL     OW22192   1.234   0.214   5.943
 7098SOL    HW122193   1.267   0.122   5.924
 7098SOL    HW222194   1.267   0.277   5.873
 7099SOL     OW22195   0.436   1.143   5.541
 7099SOL    HW122196   0.430   1.202   5.622
 7099SOL    HW222197   0.514   1.082   5.550
 7100SOL     OW22198   5.652   2.001   1.023
 7100SOL    HW122199   5.574   2.015   0.962
 7100SOL    HW222200   5.651   1.907   1.058
 7101SOL     OW22201   1.285   0.691   4.229
 7101SOL    HW122202   1.369   0.637   4.221
 7101SOL    HW222203   1.220   0.644   4.289
 7102SOL     OW22204   5.310   3.249   0.945
 7102SOL    HW122205   5.351   3.271   1.033
 7102SOL    HW222206   5.214   3.224   0.958
 7103SOL     OW22207   2.651   6.863   5.852
 7103SOL    HW122208   2.711   6.784   5.868
 7103SOL    HW222209   2.701   6.947   5.873
 7104SOL     OW22210   0.415   2.351   1.390
 7104SOL    HW122211   0.427   2.257   1.422
 7104SOL    HW222212   0.400   2.411   1.468
 7105SOL     OW22213   2.231   4.078   5.388
 7105SOL    HW122214   2.296   4.121   5.451
 7105SOL    HW222215   2.281   4.024   5.320
 7106SOL     OW22216   3.131   2.546   5.383
 7106SOL    HW122217   3.071   2.606   5.330
 7106SOL    HW222218   3.163   2.471   5.325
 7107SOL     OW22219   2.474   0.873   0.100
 7107SOL    HW122220   2.470   0.973   0.104
 7107SOL    HW222221   2.383   0.837   0.078
 7108SOL     OW22222   4.299   6.503   1.981
 7108SOL    HW122223   4.354   6.571   2.029
 7108SOL    HW222224   4.203   6.529   1.985
 7109SOL     OW22225   3.617   6.239   6.116
 7109SOL    HW122226   3.533   6.187   6.099
 7109SOL    HW222227   3.602   6.302   6.192
 7110SOL     OW22228   3.420   4.910   3.366
 7110SOL    HW122229   3.491   4.967   3.325
 7110SOL    HW222230   3.360   4.875   3.294
 7111SOL     OW22231   1.818   2.389   3.501
 7111SOL    HW122232   1.763   2.463   3.463
 7111SOL    HW222233   1.847   2.414   3.594
 7112SOL     OW22234   1.581   6.221   2.303
 7112SOL    HW122235   1.597   6.250   2.398
 7112SOL    HW222236   1.506   6.155   2.301
 7113SOL     OW22237   3.922   3.981   5.001
 7113SOL    HW122238   3.908   3.957   4.905
 7113SOL    HW222239   3.963   4.073   5.007
 7114SOL     OW22240   4.032   6.865   0.758
 7114SOL    HW122241   3.936   6.843   0.743
 7114SOL    HW222242   4.047   6.890   0.854
 7115SOL     OW22243   4.362   1.400   1.512
 7115SOL    HW122244   4.316   1.385   1.425
 7115SOL    HW222245   4.440   1.337   1.519
 7116SOL     OW22246   6.318   3.481   2.466
 7116SOL    HW122247   6.230   3.468   2.512
 7116SOL    HW222248   6.338   3.402   2.409
 7117SOL     OW22249   6.184   6.583   2.467
 7117SOL    HW122250   6.273   6.622   2.444
 7117SOL    HW222251   6.178   6.569   2.566
 7118SOL     OW22252   6.493   2.588   2.266
 7118SOL    HW122253   6.574   2.615   2.215
 7118SOL    HW222254   6.521   2.552   2.355
 7119SOL     OW22255   0.967   1.986   2.811
 7119SOL    HW122256   0.946   1.912   2.748
 7119SOL    HW222257   0.901   2.061   2.798
 7120SOL     OW22258   5.115   5.999   3.489
 7120SOL    HW122259   5.064   6.084   3.498
 7120SOL    HW222260   5.189   6.011   3.423
 7121SOL     OW22261   3.108   6.865   1.858
 7121SOL    HW122262   3.068   6.778   1.828
 7121SOL    HW222263   3.142   6.854   1.952
 7122SOL     OW22264   6.605   6.688   0.160
 7122SOL    HW122265   6.702   6.688   0.185
 7122SOL    HW222266   6.553   6.643   0.233
 7123SOL     OW22267   2.042   5.170   0.175
 7123SOL    HW122268   2.105   5.111   0.124
 7123SOL    HW222269   2.094   5.236   0.229
 7124SOL     OW22270   0.317   5.685   0.871
 7124SOL    HW122271   0.239   5.649   0.819
 7124SOL    HW222272   0.329   5.632   0.955
 7125SOL     OW22273   0.163   6.789   2.886
 7125SOL    HW122274   0.070   6.817   2.907
 7125SOL    HW222275   0.220   6.800   2.968
 7126SOL     OW22276   1.484   4.655   0.714
 7126SOL    HW122277   1.565   4.682   0.662
 7126SOL    HW222278   1.418   4.611   0.653
 7127SOL     OW22279   2.851   0.221   4.332
 7127SOL    HW122280   2.800   0.307   4.331
 7127SOL    HW222281   2.939   0.235   4.379
 7128SOL     OW22282   3.300   4.364   1.667
 7128SOL    HW122283   3.213   4.379   1.714
 7128SOL    HW222284   3.299   4.274   1.622
 7129SOL     OW22285   2.474   1.882   1.459
 7129SOL    HW122286   2.529   1.911   1.381
 7129SOL    HW222287   2.524   1.897   1.544
 7130SOL     OW22288   2.970   0.045   2.145
 7130SOL    HW122289   2.906   7.020   2.203
 7130SOL    HW222290   2.953   0.022   2.049
 7131SOL     OW22291   2.815   1.520   3.545
 7131SOL    HW122292   2.727   1.501   3.588
 7131SOL    HW222293   2.877   1.443   3.561
 7132SOL     OW22294   3.380   3.867   2.923
 7132SOL    HW122295   3.416   3.959   2.937
 7132SOL    HW222296   3.373   3.848   2.824
 7133SOL     OW22297   5.920   4.414   2.049
 7133SOL    HW122298   6.017   4.417   2.075
 7133SOL    HW222299   5.890   4.319   2.044
 7134SOL     OW22300   5.539   4.759   3.024
 7134SOL    HW122301   5.523   4.707   2.940
 7134SOL    HW222302   5.463   4.744   3.088
 7135SOL     OW22303   1.071   2.374   5.882
 7135SOL    HW122304   1.135   2.355   5.957
 7135SOL    HW222305   1.111   2.443   5.821
 7136SOL     OW22306   2.482   1.890   6.974
 7136SOL    HW122307   2.439   1.817   6.920
 7136SOL    HW222308   2.581   1.872   6.981
 7137SOL     OW22309   4.338   1.430   5.217
 7137SOL    HW122310   4.257   1.375   5.195
 7137SOL    HW222311   4.404   1.374   5.267
 7138SOL     OW22312   2.191   3.635   6.405
 7138SOL    HW122313   2.156   3.542   6.403
 7138SOL    HW222314   2.215   3.660   6.499
 7139SOL     OW22315   3.002   1.669   6.923
 7139SOL    HW122316   3.058   1.736   6.877
 7139SOL    HW222317   3.045   1.579   6.917
 7140SOL     OW22318   6.878   4.279   5.248
 7140SOL    HW122319   6.899   4.257   5.152
 7140SOL    HW222320   6.782   4.305   5.256
 7141SOL     OW22321   1.534   0.173   2.003
 7141SOL    HW122322   1.599   0.149   1.931
 7141SOL    HW222323   1.543   0.108   2.079
 7142SOL     OW22324   3.930   6.853   3.930
 7142SOL    HW122325   3.831   6.865   3.929
 7142SOL    HW222326   3.961   6.823   3.840
 7143SOL     OW22327   2.503   2.059   3.638
 7143SOL    HW122328   2.418   2.023   3.601
 7143SOL    HW222329   2.580   2.003   3.605
 7144SOL     OW22330   1.417   3.152   3.583
 7144SOL    HW122331   1.327   3.128   3.545
 7144SOL    HW222332   1.405   3.201   3.669
 7145SOL     OW22333   4.388   6.584   6.254
 7145SOL    HW122334   4.365   6.596   6.350
 7145SOL    HW222335   4.450   6.506   6.244
 7146SOL     OW22336   2.638   5.037   1.972
 7146SOL    HW122337   2.637   5.102   2.049
 7146SOL    HW222338   2.648   5.087   1.886
 7147SOL     OW22339   0.722   1.062   3.433
 7147SOL    HW122340   0.803   1.029   3.482
 7147SOL    HW222341   0.734   1.158   3.411
 7148SOL     OW22342   0.182   1.217   0.223
 7148SOL    HW122343   0.202   1.286   0.293
 7148SOL    HW222344   0.123   1.146   0.262
 7149SOL     OW22345   6.920   0.691   4.135
 7149SOL    HW122346   6.950   0.701   4.230
 7149SOL    HW222347   6.946   0.600   4.102
 7150SOL     OW22348   6.043   4.020   6.528
 7150SOL    HW122349   6.086   3.975   6.450
 7150SOL    HW222350   6.020   3.952   6.597
 7151SOL     OW22351   1.731   6.321   1.232
 7151SOL    HW122352   1.749   6.404   1.285
 7151SOL    HW222353   1.780   6.244   1.273
 7152SOL     OW22354   1.171   2.543   3.708
 7152SOL    HW122355   1.224   2.475   3.657
 7152SOL    HW222356   1.231   2.588   3.774
 7153SOL     OW22357   3.164   2.147   3.176
 7153SOL    HW122358   3.193   2.052   3.185
 7153SOL    HW222359   3.235   2.199   3.129
 7154SOL     OW22360   4.194   5.891   4.637
 7154SOL    HW122361   4.172   5.988   4.636
 7154SOL    HW222362   4.293   5.879   4.633
 7155SOL     OW22363   2.169   1.137   3.161
 7155SOL    HW122364   2.232   1.075   3.209
 7155SOL    HW222365   2.076   1.122   3.195
 7156SOL     OW22366   1.606   5.320   4.798
 7156SOL    HW122367   1.647   5.370   4.874
 7156SOL    HW222368   1.517   5.285   4.825
 7157SOL     OW22369   5.024   4.435   1.009
 7157SOL    HW122370   4.967   4.409   0.931
 7157SOL    HW222371   5.013   4.369   1.083
 7158SOL     OW22372   4.859   6.909   4.337
 7158SOL    HW122373   4.934   6.930   4.399
 7158SOL    HW222374   4.884   6.833   4.277
 7159SOL     OW22375   1.112   5.323   0.187
 7159SOL    HW122376   1.155   5.239   0.221
 7159SOL    HW222377   1.016   5.325   0.213
 7160SOL     OW22378   6.605   1.183   2.060
 7160SOL    HW122379   6.663   1.201   1.980
 7160SOL    HW222380   6.601   1.085   2.077
 7161SOL     OW22381   3.376   3.988   4.106
 7161SOL    HW122382   3.430   4.068   4.132
 7161SOL    HW222383   3.434   3.907   4.110
 7162SOL     OW22384   3.592   4.931   3.937
 7162SOL    HW122385   3.577   5.022   3.975
 7162SOL    HW222386   3.664   4.935   3.868
 7163SOL     OW22387   2.060   6.383   3.250
 7163SOL    HW122388   2.106   6.472   3.242
 7163SOL    HW222389   1.962   6.397   3.264
 7164SOL     OW22390   2.610   1.681   4.144
 7164SOL    HW122391   2.685   1.715   4.088
 7164SOL    HW222392   2.536   1.649   4.084
 7165SOL     OW22393   5.276   6.814   2.500
 7165SOL    HW122394   5.331   6.794   2.581
 7165SOL    HW222395   5.330   6.867   2.435
 7166SOL     OW22396   5.399   5.714   2.493
 7166SOL    HW122397   5.444   5.766   2.420
 7166SOL    HW222398   5.347   5.639   2.453
 7167SOL     OW22399   4.923   3.213   5.780
 7167SOL    HW122400   4.906   3.296   5.833
 7167SOL    HW222401   4.851   3.146   5.800
 7168SOL     OW22402   0.801   1.767   4.473
 7168SOL    HW122403   0.846   1.817   4.399
 7168SOL    HW222404   0.865   1.702   4.514
 7169SOL     OW22405   1.764   2.654   6.729
 7169SOL    HW122406   1.828   2.709   6.784
 7169SOL    HW222407   1.785   2.557   6.741
 7170SOL     OW22408   6.081   4.705   3.883
 7170SOL    HW122409   6.050   4.771   3.814
 7170SOL    HW222410   6.149   4.644   3.842
 7171SOL     OW22411   4.302   3.048   6.238
 7171SOL    HW122412   4.276   2.957   6.208
 7171SOL    HW222413   4.330   3.103   6.159
 7172SOL     OW22414   0.798   0.497   1.451
 7172SOL    HW122415   0.781   0.509   1.549
 7172SOL    HW222416   0.729   0.435   1.413
 7173SOL     OW22417   6.140   6.263   5.624
 7173SOL    HW122418   6.055   6.306   5.592
 7173SOL    HW222419   6.217   6.304   5.574
 7174SOL     OW22420   0.660   5.792   6.339
 7174SOL    HW122421   0.751   5.785   6.380
 7174SOL    HW222422   0.626   5.701   6.315
 7175SOL     OW22423   6.267   3.240   5.626
 7175SOL    HW122424   6.355   3.193   5.622
 7175SOL    HW222425   6.261   3.304   5.548
 7176SOL     OW22426   0.005   3.716   1.497
 7176SOL    HW122427   0.057   3.640   1.537
 7176SOL    HW222428   0.032   3.728   1.402
 7177SOL     OW22429   0.701   5.396   2.297
 7177SOL    HW122430   0.672   5.490   2.284
 7177SOL    HW222431   0.635   5.347   2.354
 7178SOL     OW22432   0.133   2.193   6.175
 7178SOL    HW122433   0.124   2.138   6.091
 7178SOL    HW222434   0.217   2.246   6.171
 7179SOL     OW22435   1.934   4.320   6.046
 7179SOL    HW122436   2.027   4.354   6.035
 7179SOL    HW222437   1.884   4.332   5.960
 7180SOL     OW22438   0.430   0.006   2.882
 7180SOL    HW122439   0.364   0.072   2.917
 7180SOL    HW222440   0.508   0.001   2.943
 7181SOL     OW22441   5.477   6.280   2.751
 7181SOL    HW122442   5.471   6.252   2.847
 7181SOL    HW222443   5.387   6.268   2.707
 7182SOL     OW22444   3.653   3.597   5.737
 7182SOL    HW122445   3.751   3.580   5.730
 7182SOL    HW222446   3.614   3.538   5.808
 7183SOL     OW22447   1.666   4.110   3.382
 7183SOL    HW122448   1.740   4.046   3.361
 7183SOL    HW222449   1.652   4.171   3.304
 7184SOL     OW22450   2.756   5.376   2.708
 7184SOL    HW122451   2.783   5.394   2.802
 7184SOL    HW222452   2.819   5.422   2.646
 7185SOL     OW22453   4.533   3.191   6.945
 7185SOL    HW122454   4.530   3.097   6.979
 7185SOL    HW222455   4.442   3.216   6.910
 7186SOL     OW22456   0.307   0.108   3.778
 7186SOL    HW122457   0.378   0.116   3.848
 7186SOL    HW222458   0.270   0.015   3.779
 7187SOL     OW22459   1.640   4.929   1.036
 7187SOL    HW122460   1.685   4.943   1.124
 7187SOL    HW222461   1.694   4.972   0.964
 7188SOL     OW22462   5.145   0.251   1.500
 7188SOL    HW122463   5.139   0.166   1.447
 7188SOL    HW222464   5.165   0.229   1.596
 7189SOL     OW22465   6.952   0.643   5.078
 7189SOL    HW122466   6.948   0.548   5.107
 7189SOL    HW222467   6.862   0.685   5.089
 7190SOL     OW22468   4.669   4.783   2.899
 7190SOL    HW122469   4.611   4.704   2.883
 7190SOL    HW222470   4.683   4.794   2.998
 7191SOL     OW22471   0.590   3.199   1.681
 7191SOL    HW122472   0.648   3.160   1.753
 7191SOL    HW222473   0.645   3.220   1.601
 7192SOL     OW22474   3.599   5.062   6.720
 7192SOL    HW122475   3.574   5.111   6.636
 7192SOL    HW222476   3.523   5.003   6.748
 7193SOL     OW22477   5.269   1.909   3.996
 7193SOL    HW122478   5.345   1.871   3.942
 7193SOL    HW222479   5.245   1.999   3.961
 7194SOL     OW22480   3.358   1.694   1.324
 7194SOL    HW122481   3.396   1.611   1.282
 7194SOL    HW222482   3.431   1.759   1.342
 7195SOL     OW22483   0.301   5.951   1.504
 7195SOL    HW122484   0.340   6.041   1.482
 7195SOL    HW222485   0.263   5.953   1.596
 7196SOL     OW22486   3.649   2.928   1.462
 7196SOL    HW122487   3.586   2.901   1.389
 7196SOL    HW222488   3.719   2.858   1.473
 7197SOL     OW22489   1.271   1.339   3.894
 7197SOL    HW122490   1.336   1.270   3.927
 7197SOL    HW222491   1.273   1.418   3.956
 7198SOL     OW22492   0.144   6.494   6.263
 7198SOL    HW122493   0.119   6.428   6.192
 7198SOL    HW222494   0.068   6.507   6.325
 7199SOL     OW22495   5.456   6.815   3.197
 7199SOL    HW122496   5.442   6.838   3.100
 7199SOL    HW222497   5.373   6.833   3.248
 7200SOL     OW22498   2.058   2.015   1.888
 7200SOL    HW122499   1.967   1.992   1.855
 7200SOL    HW222500   2.121   2.019   1.810
 7201SOL     OW22501   2.631   4.839   3.129
 7201SOL    HW122502   2.593   4.748   3.151
 7201SOL    HW222503   2.640   4.848   3.030
 7202SOL     OW22504   3.583   6.961   5.512
 7202SOL    HW122505   3.570   6.934   5.607
 7202SOL    HW222506   3.679   6.987   5.498
 7203SOL     OW22507   5.945   0.061   6.904
 7203SOL    HW122508   5.862   0.023   6.864
 7203SOL    HW222509   6.020   7.020   6.894
 7204SOL     OW22510   5.829   1.294   3.058
 7204SOL    HW122511   5.840   1.197   3.035
 7204SOL    HW222512   5.903   1.347   3.017
 7205SOL     OW22513   1.348   4.254   1.781
 7205SOL    HW122514   1.274   4.208   1.732
 7205SOL    HW222515   1.343   4.352   1.763
 7206SOL     OW22516   5.318   2.009   1.459
 7206SOL    HW122517   5.264   2.014   1.543
 7206SOL    HW222518   5.412   2.037   1.479
 7207SOL     OW22519   4.057   6.736   2.441
 7207SOL    HW122520   4.039   6.643   2.409
 7207SOL    HW222521   4.055   6.800   2.364
 7208SOL     OW22522   3.260   0.296   5.139
 7208SOL    HW122523   3.186   0.363   5.143
 7208SOL    HW222524   3.246   0.227   5.210
 7209SOL     OW22525   3.094   3.121   4.180
 7209SOL    HW122526   3.016   3.148   4.238
 7209SOL    HW222527   3.133   3.202   4.137
 7210SOL     OW22528   4.710   0.156   4.223
 7210SOL    HW122529   4.751   0.222   4.285
 7210SOL    HW222530   4.739   0.064   4.248
 7211SOL     OW22531   1.308   5.203   2.458
 7211SOL    HW122532   1.354   5.176   2.543
 7211SOL    HW222533   1.279   5.120   2.409
 7212SOL     OW22534   4.803   6.948   3.635
 7212SOL    HW122535   4.743   7.016   3.679
 7212SOL    HW222536   4.831   6.880   3.703
 7213SOL     OW22537   5.302   6.654   5.190
 7213SOL    HW122538   5.285   6.613   5.279
 7213SOL    HW222539   5.267   6.748   5.189
 7214SOL     OW22540   0.386   5.071   5.619
 7214SOL    HW122541   0.481   5.043   5.636
 7214SOL    HW222542   0.339   4.999   5.569
 7215SOL     OW22543   0.845   3.099   2.249
 7215SOL    HW122544   0.759   3.149   2.250
 7215SOL    HW222545   0.918   3.159   2.215
 7216SOL     OW22546   2.505   1.374   1.859
 7216SOL    HW122547   2.465   1.364   1.950
 7216SOL    HW222548   2.476   1.297   1.801
 7217SOL     OW22549   0.760   2.816   2.319
 7217SOL    HW122550   0.765   2.915   2.314
 7217SOL    HW222551   0.681   2.790   2.375
 7218SOL     OW22552   6.253   2.772   5.737
 7218SOL    HW122553   6.308   2.768   5.654
 7218SOL    HW222554   6.195   2.854   5.734
 7219SOL     OW22555   3.253   0.889   1.004
 7219SOL    HW122556   3.313   0.830   0.949
 7219SOL    HW222557   3.158   0.875   0.977
 7220SOL     OW22558   6.757   0.958   3.141
 7220SOL    HW122559   6.814   1.016   3.199
 7220SOL    HW222560   6.805   0.872   3.122
 7221SOL     OW22561   5.967   4.455   5.358
 7221SOL    HW122562   5.898   4.472   5.288
 7221SOL    HW222563   5.931   4.389   5.424
 7222SOL     OW22564   6.324   6.883   3.348
 7222SOL    HW122565   6.331   6.812   3.278
 7222SOL    HW222566   6.237   6.931   3.336
 7223SOL     OW22567   4.631   0.670   5.383
 7223SOL    HW122568   4.652   0.754   5.333
 7223SOL    HW222569   4.627   0.689   5.481
 7224SOL     OW22570   5.615   1.323   4.133
 7224SOL    HW122571   5.658   1.276   4.056
 7224SOL    HW222572   5.533   1.370   4.102
 7225SOL     OW22573   2.473   0.763   1.395
 7225SOL    HW122574   2.395   0.795   1.448
 7225SOL    HW222575   2.509   0.839   1.340
 7226SOL     OW22576   5.834   6.609   5.927
 7226SOL    HW122577   5.794   6.651   5.845
 7226SOL    HW222578   5.777   6.631   6.006
 7227SOL     OW22579   6.796   2.234   5.805
 7227SOL    HW122580   6.802   2.136   5.823
 7227SOL    HW222581   6.864   2.282   5.860
 7228SOL     OW22582   2.468   0.522   2.980
 7228SOL    HW122583   2.446   0.439   3.030
 7228SOL    HW222584   2.383   0.571   2.959
 7229SOL     OW22585   6.797   0.199   3.471
 7229SOL    HW122586   6.850   0.162   3.548
 7229SOL    HW222587   6.701   0.172   3.481
 7230SOL     OW22588   6.296   5.449   1.339
 7230SOL    HW122589   6.394   5.444   1.360
 7230SOL    HW222590   6.271   5.543   1.316
 7231SOL     OW22591   5.913   0.886   6.743
 7231SOL    HW122592   5.858   0.805   6.725
 7231SOL    HW222593   6.002   0.877   6.699
 7232SOL     OW22594   3.578   4.007   0.760
 7232SOL    HW122595   3.588   3.942   0.835
 7232SOL    HW222596   3.668   4.033   0.726
 7233SOL     OW22597   0.521   2.342   5.329
 7233SOL    HW122598   0.490   2.311   5.240
 7233SOL    HW222599   0.530   2.264   5.391
 7234SOL     OW22600   4.814   1.912   2.854
 7234SOL    HW122601   4.883   1.977   2.885
 7234SOL    HW222602   4.745   1.898   2.925
 7235SOL     OW22603   6.247   2.821   4.428
 7235SOL    HW122604   6.252   2.918   4.405
 7235SOL    HW222605   6.191   2.773   4.361
 7236SOL     OW22606   1.875   1.439   2.989
 7236SOL    HW122607   1.844   1.503   2.918
 7236SOL    HW222608   1.834   1.464   3.076
 7237SOL     OW22609   5.840   5.187   4.813
 7237SOL    HW122610   5.787   5.161   4.732
 7237SOL    HW222611   5.786   5.248   4.871
 7238SOL     OW22612   1.600   0.732   1.676
 7238SOL    HW122613   1.520   0.773   1.631
 7238SOL    HW222614   1.658   0.688   1.607
 7239SOL     OW22615   4.219   1.191   1.728
 7239SOL    HW122616   4.259   1.100   1.725
 7239SOL    HW222617   4.276   1.255   1.677
 7240SOL     OW22618   3.023   3.183   2.035
 7240SOL    HW122619   3.051   3.174   1.940
 7240SOL    HW222620   3.094   3.143   2.094
 7241SOL     OW22621   4.884   6.879   4.752
 7241SOL    HW122622   4.811   6.845   4.811
 7241SOL    HW222623   4.917   6.804   4.694
 7242SOL     OW22624   5.749   5.037   0.742
 7242SOL    HW122625   5.751   4.939   0.762
 7242SOL    HW222626   5.667   5.059   0.690
 7243SOL     OW22627   0.482   5.461   0.563
 7243SOL    HW122628   0.519   5.476   0.472
 7243SOL    HW222629   0.415   5.532   0.584
 7244SOL     OW22630   5.367   1.637   0.682
 7244SOL    HW122631   5.378   1.594   0.773
 7244SOL    HW222632   5.271   1.662   0.669
 7245SOL     OW22633   6.332   2.241   4.285
 7245SOL    HW122634   6.395   2.165   4.265
 7245SOL    HW222635   6.266   2.212   4.355
 7246SOL     OW22636   1.237   5.787   5.326
 7246SOL    HW122637   1.143   5.791   5.360
 7246SOL    HW222638   1.300   5.788   5.404
 7247SOL     OW22639   3.784   5.698   4.358
 7247SOL    HW122640   3.729   5.665   4.281
 7247SOL    HW222641   3.807   5.622   4.418
 7248SOL     OW22642   3.566   1.002   4.144
 7248SOL    HW122643   3.580   1.000   4.045
 7248SOL    HW222644   3.571   1.096   4.177
 7249SOL     OW22645   5.174   3.544   5.685
 7249SOL    HW122646   5.150   3.641   5.682
 7249SOL    HW222647   5.131   3.497   5.607
 7250SOL     OW22648   2.806   3.680   6.629
 7250SOL    HW122649   2.741   3.663   6.554
 7250SOL    HW222650   2.820   3.595   6.680
 7251SOL     OW22651   5.440   1.166   5.225
 7251SOL    HW122652   5.453   1.093   5.291
 7251SOL    HW222653   5.474   1.252   5.263
 7252SOL     OW22654   4.528   3.530   5.380
 7252SOL    HW122655   4.570   3.559   5.294
 7252SOL    HW222656   4.429   3.538   5.372
 7253SOL     OW22657   5.099   4.790   1.223
 7253SOL    HW122658   5.121   4.806   1.320
 7253SOL    HW222659   5.121   4.872   1.170
 7254SOL     OW22660   5.849   6.386   4.900
 7254SOL    HW122661   5.815   6.479   4.915
 7254SOL    HW222662   5.904   6.358   4.980
 7255SOL     OW22663   4.048   3.084   2.816
 7255SOL    HW122664   3.999   2.997   2.812
 7255SOL    HW222665   4.005   3.143   2.884
 7256SOL     OW22666   3.268   5.464   3.807
 7256SOL    HW122667   3.301   5.391   3.747
 7256SOL    HW222668   3.179   5.439   3.844
 7257SOL     OW22669   6.134   4.658   2.639
 7257SOL    HW122670   6.158   4.686   2.732
 7257SOL    HW222671   6.037   4.676   2.622
 7258SOL     OW22672   2.754   0.168   5.845
 7258SOL    HW122673   2.670   0.200   5.800
 7258SOL    HW222674   2.819   0.137   5.777
 7259SOL     OW22675   3.149   4.960   6.471
 7259SOL    HW122676   3.091   5.001   6.401
 7259SOL    HW222677   3.139   5.010   6.557
 7260SOL     OW22678   4.387   2.015   2.348
 7260SOL    HW122679   4.348   2.102   2.319
 7260SOL    HW222680   4.356   1.943   2.287
 7261SOL     OW22681   1.417   4.852   0.872
 7261SOL    HW122682   1.445   4.788   0.801
 7261SOL    HW222683   1.494   4.870   0.933
 7262SOL     OW22684   6.376   0.681   5.063
 7262SOL    HW122685   6.434   0.615   5.111
 7262SOL    HW222686   6.374   0.767   5.113
 7263SOL     OW22687   4.888   6.342   1.651
 7263SOL    HW122688   4.908   6.281   1.574
 7263SOL    HW222689   4.851   6.288   1.727
 7264SOL     OW22690   1.106   6.568   4.341
 7264SOL    HW122691   1.079   6.488   4.288
 7264SOL    HW222692   1.174   6.542   4.409
 7265SOL     OW22693   4.740   3.887   6.276
 7265SOL    HW122694   4.683   3.822   6.326
 7265SOL    HW222695   4.826   3.901   6.325
 7266SOL     OW22696   3.905   1.730   1.886
 7266SOL    HW122697   3.904   1.646   1.832
 7266SOL    HW222698   3.834   1.792   1.852
 7267SOL     OW22699   5.891   3.073   4.267
 7267SOL    HW122700   5.874   3.012   4.344
 7267SOL    HW222701   5.913   3.019   4.186
 7268SOL     OW22702   3.981   0.593   0.486
 7268SOL    HW122703   3.902   0.543   0.521
 7268SOL    HW222704   4.043   0.614   0.561
 7269SOL     OW22705   1.417   0.488   1.758
 7269SOL    HW122706   1.475   0.552   1.808
 7269SOL    HW222707   1.353   0.444   1.821
 7270SOL     OW22708   3.411   2.027   2.112
 7270SOL    HW122709   3.482   2.051   2.177
 7270SOL    HW222710   3.321   2.037   2.155
 7271SOL     OW22711   6.145   5.213   3.775
 7271SOL    HW122712   6.047   5.202   3.792
 7271SOL    HW222713   6.161   5.225   3.677
 7272SOL     OW22714   6.587   2.371   0.905
 7272SOL    HW122715   6.674   2.324   0.889
 7272SOL    HW222716   6.587   2.412   0.996
 7273SOL     OW22717   5.414   5.736   5.495
 7273SOL    HW122718   5.438   5.743   5.592
 7273SOL    HW222719   5.422   5.641   5.466
 7274SOL     OW22720   5.832   4.558   4.502
 7274SOL    HW122721   5.742   4.582   4.539
 7274SOL    HW222722   5.844   4.601   4.413
 7275SOL     OW22723   5.575   6.485   1.431
 7275SOL    HW122724   5.489   6.466   1.383
 7275SOL    HW222725   5.556   6.504   1.527
 7276SOL     OW22726   2.904   2.278   3.548
 7276SOL    HW122727   2.839   2.329   3.491
 7276SOL    HW222728   2.863   2.259   3.637
 7277SOL     OW22729   6.242   1.643   4.172
 7277SOL    HW122730   6.299   1.722   4.146
 7277SOL    HW222731   6.297   1.560   4.167
 7278SOL     OW22732   3.468   2.104   3.980
 7278SOL    HW122733   3.545   2.144   4.031
 7278SOL    HW222734   3.479   2.005   3.975
 7279SOL     OW22735   4.315   3.588   1.196
 7279SOL    HW122736   4.373   3.585   1.277
 7279SOL    HW222737   4.306   3.496   1.157
 7280SOL     OW22738   6.799   1.821   5.156
 7280SOL    HW122739   6.835   1.892   5.217
 7280SOL    HW222740   6.737   1.863   5.089
 7281SOL     OW22741   3.254   6.432   2.737
 7281SOL    HW122742   3.231   6.343   2.776
 7281SOL    HW222743   3.268   6.498   2.810
 7282SOL     OW22744   0.340   3.524   1.242
 7282SOL    HW122745   0.299   3.531   1.151
 7282SOL    HW222746   0.342   3.615   1.284
 7283SOL     OW22747   3.791   5.824   2.767
 7283SOL    HW122748   3.834   5.797   2.853
 7283SOL    HW222749   3.737   5.907   2.782
 7284SOL     OW22750   0.498   0.787   2.776
 7284SOL    HW122751   0.426   0.726   2.745
 7284SOL    HW222752   0.566   0.798   2.703
 7285SOL     OW22753   5.135   2.821   2.169
 7285SOL    HW122754   5.128   2.765   2.252
 7285SOL    HW222755   5.048   2.820   2.120
 7286SOL     OW22756   6.037   1.416   4.110
 7286SOL    HW122757   6.086   1.501   4.130
 7286SOL    HW222758   6.044   1.354   4.188
 7287SOL     OW22759   3.364   1.224   4.425
 7287SOL    HW122760   3.395   1.236   4.331
 7287SOL    HW222761   3.271   1.260   4.434
 7288SOL     OW22762   3.282   1.718   1.754
 7288SOL    HW122763   3.370   1.752   1.785
 7288SOL    HW222764   3.290   1.688   1.659
 7289SOL     OW22765   6.040   2.555   1.871
 7289SOL    HW122766   6.003   2.479   1.923
 7289SOL    HW222767   5.966   2.610   1.834
 7290SOL     OW22768   3.708   1.881   4.969
 7290SOL    HW122769   3.761   1.814   4.917
 7290SOL    HW222770   3.623   1.901   4.920
 7291SOL     OW22771   1.228   1.247   0.492
 7291SOL    HW122772   1.298   1.207   0.551
 7291SOL    HW222773   1.220   1.193   0.408
 7292SOL     OW22774   3.426   1.161   2.729
 7292SOL    HW122775   3.369   1.093   2.775
 7292SOL    HW222776   3.522   1.134   2.735
 7293SOL     OW22777   6.626   1.116   4.470
 7293SOL    HW122778   6.692   1.116   4.395
 7293SOL    HW222779   6.583   1.026   4.477
 7294SOL     OW22780   3.883   0.320   3.029
 7294SOL    HW122781   3.820   0.304   3.104
 7294SOL    HW222782   3.976   0.332   3.065
 7295SOL     OW22783   5.349   3.877   1.537
 7295SOL    HW122784   5.353   3.963   1.486
 7295SOL    HW222785   5.294   3.811   1.486
 7296SOL     OW22786   3.570   6.329   2.127
 7296SOL    HW122787   3.627   6.294   2.052
 7296SOL    HW222788   3.576   6.267   2.205
 7297SOL     OW22789   3.866   0.071   0.563
 7297SOL    HW122790   3.950   0.090   0.614
 7297SOL    HW222791   3.787   0.087   0.622
 7298SOL     OW22792   4.237   5.313   1.208
 7298SOL    HW122793   4.216   5.252   1.284
 7298SOL    HW222794   4.192   5.401   1.223
 7299SOL     OW22795   0.506   3.466   6.318
 7299SOL    HW122796   0.577   3.536   6.330
 7299SOL    HW222797   0.527   3.387   6.374
 7300SOL     OW22798   0.595   3.828   1.964
 7300SOL    HW122799   0.584   3.920   2.002
 7300SOL    HW222800   0.690   3.799   1.974
 7301SOL     OW22801   4.273   2.537   0.164
 7301SOL    HW122802   4.276   2.459   0.227
 7301SOL    HW222803   4.252   2.620   0.215
 7302SOL     OW22804   5.536   2.032   6.245
 7302SOL    HW122805   5.547   1.993   6.337
 7302SOL    HW222806   5.439   2.045   6.226
 7303SOL     OW22807   2.747   2.284   1.556
 7303SOL    HW122808   2.754   2.215   1.484
 7303SOL    HW222809   2.689   2.248   1.630
 7304SOL     OW22810   2.304   6.861   0.707
 7304SOL    HW122811   2.283   6.764   0.711
 7304SOL    HW222812   2.403   6.875   0.719
 7305SOL     OW22813   6.104   0.391   6.382
 7305SOL    HW122814   6.153   0.304   6.387
 7305SOL    HW222815   6.060   0.410   6.469
 7306SOL     OW22816   1.189   3.359   1.553
 7306SOL    HW122817   1.213   3.262   1.546
 7306SOL    HW222818   1.092   3.369   1.574
 7307SOL     OW22819   3.381   6.999   1.771
 7307SOL    HW122820   3.391   0.058   1.825
 7307SOL    HW222821   3.284   6.973   1.769
 7308SOL     OW22822   3.756   1.313   3.035
 7308SOL    HW122823   3.775   1.393   2.978
 7308SOL    HW222824   3.799   1.232   2.994
 7309SOL     OW22825   2.236   5.151   3.722
 7309SOL    HW122826   2.304   5.181   3.656
 7309SOL    HW222827   2.160   5.217   3.725
 7310SOL     OW22828   2.530   2.931   0.145
 7310SOL    HW122829   2.548   2.872   0.067
 7310SOL    HW222830   2.440   2.973   0.136
 7311SOL     OW22831   0.573   6.710   6.006
 7311SOL    HW122832   0.559   6.793   5.952
 7311SOL    HW222833   0.486   6.681   6.046
 7312SOL     OW22834   6.260   1.990   4.709
 7312SOL    HW122835   6.187   1.927   4.735
 7312SOL    HW222836   6.349   1.953   4.736
 7313SOL     OW22837   3.156   1.429   2.532
 7313SOL    HW122838   3.081   1.435   2.467
 7313SOL    HW222839   3.238   1.470   2.492
 7314SOL     OW22840   2.008   5.192   5.259
 7314SOL    HW122841   2.007   5.284   5.220
 7314SOL    HW222842   1.951   5.132   5.204
 7315SOL     OW22843   3.358   5.295   3.133
 7315SOL    HW122844   3.332   5.391   3.144
 7315SOL    HW222845   3.294   5.237   3.183
 7316SOL     OW22846   3.973   1.079   1.571
 7316SOL    HW122847   4.004   1.001   1.626
 7316SOL    HW222848   4.016   1.163   1.604
 7317SOL     OW22849   5.347   1.963   0.807
 7317SOL    HW122850   5.422   1.924   0.753
 7317SOL    HW222851   5.265   1.908   0.792
 7318SOL     OW22852   5.282   6.630   1.214
 7318SOL    HW122853   5.349   6.630   1.141
 7318SOL    HW222854   5.208   6.694   1.192
 7319SOL     OW22855   5.106   5.843   6.889
 7319SOL    HW122856   5.088   5.842   6.987
 7319SOL    HW222857   5.113   5.937   6.857
 7320SOL     OW22858   0.708   3.056   0.105
 7320SOL    HW122859   0.798   3.046   0.146
 7320SOL    HW222860   0.712   3.032   0.008
 7321SOL     OW22861   2.161   2.270   5.610
 7321SOL    HW122862   2.191   2.230   5.523
 7321SOL    HW222863   2.225   2.243   5.682
 7322SOL     OW22864   1.783   1.925   3.889
 7322SOL    HW122865   1.806   1.836   3.848
 7322SOL    HW222866   1.800   1.922   3.987
 7323SOL     OW22867   1.515   1.920   0.863
 7323SOL    HW122868   1.486   2.003   0.816
 7323SOL    HW222869   1.466   1.912   0.950
 7324SOL     OW22870   4.910   3.480   4.574
 7324SOL    HW122871   5.008   3.460   4.573
 7324SOL    HW222872   4.895   3.573   4.608
 7325SOL     OW22873   4.093   1.669   6.327
 7325SOL    HW122874   4.141   1.670   6.415
 7325SOL    HW222875   4.025   1.742   6.325
 7326SOL     OW22876   3.831   6.571   0.615
 7326SOL    HW122877   3.921   6.563   0.658
 7326SOL    HW222878   3.812   6.487   0.563
 7327SOL     OW22879   1.375   4.498   3.475
 7327SOL    HW122880   1.437   4.426   3.443
 7327SOL    HW222881   1.427   4.565   3.528
 7328SOL     OW22882   5.025   5.314   5.988
 7328SOL    HW122883   5.110   5.333   6.036
 7328SOL    HW222884   4.998   5.394   5.935
 7329SOL     OW22885   2.499   3.392   0.857
 7329SOL    HW122886   2.427   3.322   0.852
 7329SOL    HW222887   2.496   3.449   0.775
 7330SOL     OW22888   3.001   3.211   0.815
 7330SOL    HW122889   3.013   3.206   0.716
 7330SOL    HW222890   2.903   3.217   0.836
 7331SOL     OW22891   5.094   1.625   2.280
 7331SOL    HW122892   5.096   1.546   2.341
 7331SOL    HW222893   5.078   1.593   2.186
 7332SOL     OW22894   2.726   6.755   5.521
 7332SOL    HW122895   2.704   6.680   5.458
 7332SOL    HW222896   2.722   6.842   5.472
 7333SOL     OW22897   6.090   0.759   1.016
 7333SOL    HW122898   6.004   0.755   1.066
 7333SOL    HW222899   6.099   0.848   0.971
 7334SOL     OW22900   1.558   4.519   4.858
 7334SOL    HW122901   1.646   4.519   4.905
 7334SOL    HW222902   1.527   4.425   4.847
 7335SOL     OW22903   0.844   3.560   2.520
 7335SOL    HW122904   0.891   3.648   2.510
 7335SOL    HW222905   0.769   3.554   2.453
 7336SOL     OW22906   2.372   0.318   0.949
 7336SOL    HW122907   2.451   0.378   0.961
 7336SOL    HW222908   2.398   0.238   0.896
 7337SOL     OW22909   3.374   1.217   3.646
 7337SOL    HW122910   3.451   1.270   3.609
 7337SOL    HW222911   3.332   1.165   3.572
 7338SOL     OW22912   5.057   3.977   1.163
 7338SOL    HW122913   5.078   4.071   1.137
 7338SOL    HW222914   5.082   3.916   1.088
 7339SOL     OW22915   0.131   6.610   4.558
 7339SOL    HW122916   0.172   6.610   4.467
 7339SOL    HW222917   0.061   6.538   4.563
 7340SOL     OW22918   2.447   6.020   0.004
 7340SOL    HW122919   2.390   6.100   7.009
 7340SOL    HW222920   2.424   5.983   0.094
 7341SOL     OW22921   6.171   5.244   3.496
 7341SOL    HW122922   6.116   5.323   3.467
 7341SOL    HW222923   6.261   5.249   3.453
 7342SOL     OW22924   0.786   5.126   0.423
 7342SOL    HW122925   0.750   5.039   0.458
 7342SOL    HW222926   0.747   5.201   0.477
 7343SOL     OW22927   6.890   2.381   3.277
 7343SOL    HW122928   6.892   2.351   3.181
 7343SOL    HW222929   6.901   2.302   3.337
 7344SOL     OW22930   2.294   0.673   6.451
 7344SOL    HW122931   2.344   0.597   6.410
 7344SOL    HW222932   2.329   0.760   6.416
 7345SOL     OW22933   2.047   6.673   6.616
 7345SOL    HW122934   2.034   6.658   6.714
 7345SOL    HW222935   2.000   6.757   6.589
 7346SOL     OW22936   3.701   5.005   3.208
 7346SOL    HW122937   3.641   5.076   3.246
 7346SOL    HW222938   3.757   4.967   3.282
 7347SOL     OW22939   6.448   2.797   2.984
 7347SOL    HW122940   6.425   2.798   2.887
 7347SOL    HW222941   6.368   2.769   3.037
 7348SOL     OW22942   6.317   1.137   6.016
 7348SOL    HW122943   6.400   1.097   5.977
 7348SOL    HW222944   6.277   1.072   6.081
 7349SOL     OW22945   3.941   1.527   1.157
 7349SOL    HW122946   3.861   1.533   1.097
 7349SOL    HW222947   3.912   1.501   1.249
 7350SOL     OW22948   2.597   1.078   3.088
 7350SOL    HW122949   2.690   1.065   3.124
 7350SOL    HW222950   2.549   1.146   3.143
 7351SOL     OW22951   4.344   4.582   0.711
 7351SOL    HW122952   4.416   4.596   0.779
 7351SOL    HW222953   4.335   4.484   0.694
 7352SOL     OW22954   6.779   0.623   3.354
 7352SOL    HW122955   6.809   0.639   3.448
 7352SOL    HW222956   6.679   0.628   3.350
 7353SOL     OW22957   5.763   1.224   5.742
 7353SOL    HW122958   5.677   1.241   5.791
 7353SOL    HW222959   5.743   1.186   5.652
 7354SOL     OW22960   5.985   4.888   4.974
 7354SOL    HW122961   6.048   4.890   5.052
 7354SOL    HW222962   6.009   4.962   4.911
 7355SOL     OW22963   0.242   5.964   1.059
 7355SOL    HW122964   0.303   5.914   0.997
 7355SOL    HW222965   0.263   5.938   1.153
 7356SOL     OW22966   0.125   2.105   5.920
 7356SOL    HW122967   0.092   2.012   5.906
 7356SOL    HW222968   0.206   2.121   5.863
 7357SOL     OW22969   0.809   1.309   0.303
 7357SOL    HW122970   0.715   1.292   0.332
 7357SOL    HW222971   0.812   1.394   0.250
 7358SOL     OW22972   3.707   0.762   3.934
 7358SOL    HW122973   3.714   0.762   4.034
 7358SOL    HW222974   3.642   0.832   3.905
 7359SOL     OW22975   3.020   3.108   3.653
 7359SOL    HW122976   2.937   3.077   3.700
 7359SOL    HW222977   3.089   3.036   3.657
 7360SOL     OW22978   0.513   3.845   6.587
 7360SOL    HW122979   0.540   3.750   6.604
 7360SOL    HW222980   0.486   3.855   6.491
 7361SOL     OW22981   4.659   6.507   1.582
 7361SOL    HW122982   4.581   6.477   1.638
 7361SOL    HW222983   4.744   6.483   1.628
 7362SOL     OW22984   1.974   6.038   6.286
 7362SOL    HW122985   1.913   5.982   6.230
 7362SOL    HW222986   2.068   6.003   6.279
 7363SOL     OW22987   4.834   3.044   6.533
 7363SOL    HW122988   4.817   3.097   6.616
 7363SOL    HW222989   4.791   2.954   6.541
 7364SOL     OW22990   4.544   0.123   1.356
 7364SOL    HW122991   4.444   0.126   1.363
 7364SOL    HW222992   4.583   0.104   1.446
 7365SOL     OW22993   4.620   0.040   1.598
 7365SOL    HW122994   4.667   6.979   1.620
 7365SOL    HW222995   4.635   0.106   1.672
 7366SOL     OW22996   1.359   7.006   0.387
 7366SOL    HW122997   1.393   6.914   0.407
 7366SOL    HW222998   1.362   0.037   0.470
 7367SOL     OW22999   4.721   2.818   0.115
 7367SOL    HW123000   4.650   2.805   0.185
 7367SOL    HW223001   4.789   2.882   0.149
 7368SOL     OW23002   3.226   2.948   4.019
 7368SOL    HW123003   3.166   2.994   4.085
 7368SOL    HW223004   3.313   2.998   4.014
 7369SOL     OW23005   5.713   0.832   6.451
 7369SOL    HW123006   5.717   0.757   6.384
 7369SOL    HW223007   5.791   0.893   6.438
 7370SOL     OW23008   0.735   6.120   0.759
 7370SOL    HW123009   0.710   6.137   0.854
 7370SOL    HW223010   0.654   6.132   0.701
 7371SOL     OW23011   1.639   4.485   4.432
 7371SOL    HW123012   1.723   4.498   4.380
 7371SOL    HW223013   1.624   4.563   4.492
 7372SOL     OW23014   3.030   0.466   5.181
 7372SOL    HW123015   3.048   0.563   5.170
 7372SOL    HW223016   3.007   0.446   5.276
 7373SOL     OW23017   3.785   0.466   1.348
 7373SOL    HW123018   3.731   0.422   1.419
 7373SOL    HW223019   3.727   0.529   1.296
 7374SOL     OW23020   2.427   3.347   6.469
 7374SOL    HW123021   2.392   3.332   6.377
 7374SOL    HW223022   2.367   3.302   6.535
 7375SOL     OW23023   2.934   6.520   2.993
 7375SOL    HW123024   2.861   6.459   2.960
 7375SOL    HW223025   2.935   6.603   2.937
 7376SOL     OW23026   3.014   3.865   6.337
 7376SOL    HW123027   3.048   3.795   6.400
 7376SOL    HW223028   3.044   3.844   6.244
 7377SOL     OW23029   6.233   6.012   1.665
 7377SOL    HW123030   6.294   6.038   1.590
 7377SOL    HW223031   6.182   5.930   1.639
 7378SOL     OW23032   0.201   2.675   5.603
 7378SOL    HW123033   0.188   2.758   5.549
 7378SOL    HW223034   0.195   2.697   5.700
 7379SOL     OW23035   4.458   0.636   0.552
 7379SOL    HW123036   4.492   0.698   0.482
 7379SOL    HW223037   4.528   0.624   0.623
 7380SOL     OW23038   6.578   3.073   6.402
 7380SOL    HW123039   6.508   3.098   6.469
 7380SOL    HW223040   6.588   2.973   6.400
 7381SOL     OW23041   4.974   2.025   0.500
 7381SOL    HW123042   4.931   2.080   0.571
 7381SOL    HW223043   5.044   2.079   0.453
 7382SOL     OW23044   1.073   5.656   3.943
 7382SOL    HW123045   1.059   5.733   4.005
 7382SOL    HW223046   1.095   5.690   3.852
 7383SOL     OW23047   1.526   4.534   3.089
 7383SOL    HW123048   1.591   4.512   3.162
 7383SOL    HW223049   1.444   4.577   3.129
 7384SOL     OW23050   6.495   2.335   0.631
 7384SOL    HW123051   6.423   2.268   0.615
 7384SOL    HW223052   6.530   2.326   0.724
 7385SOL     OW23053   4.791   0.713   2.004
 7385SOL    HW123054   4.717   0.671   1.952
 7385SOL    HW223055   4.769   0.711   2.102
 7386SOL     OW23056   0.071   2.361   5.902
 7386SOL    HW123057   0.062   2.411   5.988
 7386SOL    HW223058   0.086   2.264   5.921
 7387SOL     OW23059   5.352   6.727   3.852
 7387SOL    HW123060   5.403   6.728   3.938
 7387SOL    HW223061   5.376   6.646   3.799
 7388SOL     OW23062   5.240   4.024   5.070
 7388SOL    HW123063   5.150   3.992   5.039
 7388SOL    HW223064   5.312   3.968   5.027
 7389SOL     OW23065   0.619   3.320   4.633
 7389SOL    HW123066   0.647   3.226   4.612
 7389SOL    HW223067   0.611   3.332   4.731
 7390SOL     OW23068   3.629   0.376   6.183
 7390SOL    HW123069   3.727   0.389   6.163
 7390SOL    HW223070   3.599   0.445   6.248
 7391SOL     OW23071   0.147   5.006   6.987
 7391SOL    HW123072   0.158   4.979   0.058
 7391SOL    HW223073   0.165   5.104   6.978
 7392SOL     OW23074   2.141   4.602   1.959
 7392SOL    HW123075   2.129   4.686   1.907
 7392SOL    HW223076   2.239   4.583   1.967
 7393SOL     OW23077   1.126   3.911   0.040
 7393SOL    HW123078   1.106   3.914   6.967
 7393SOL    HW223079   1.133   3.815   0.069
 7394SOL     OW23080   2.625   2.884   5.815
 7394SOL    HW123081   2.552   2.856   5.877
 7394SOL    HW223082   2.589   2.948   5.747
 7395SOL     OW23083   2.334   0.274   0.022
 7395SOL    HW123084   2.351   0.348   0.088
 7395SOL    HW223085   2.247   0.290   7.001
 7396SOL     OW23086   6.599   6.859   1.692
 7396SOL    HW123087   6.550   6.790   1.744
 7396SOL    HW223088   6.533   6.926   1.655
 7397SOL     OW23089   6.506   4.010   4.191
 7397SOL    HW123090   6.557   4.014   4.277
 7397SOL    HW223091   6.570   4.008   4.115
 7398SOL     OW23092   4.636   6.621   3.099
 7398SOL    HW123093   4.598   6.557   3.032
 7398SOL    HW223094   4.676   6.699   3.052
 7399SOL     OW23095   5.420   4.145   4.789
 7399SOL    HW123096   5.433   4.092   4.706
 7399SOL    HW223097   5.398   4.083   4.865
 7400SOL     OW23098   2.724   4.051   0.545
 7400SOL    HW123099   2.799   4.078   0.604
 7400SOL    HW223100   2.748   4.068   0.450
 7401SOL     OW23101   5.815   2.221   5.016
 7401SOL    HW123102   5.732   2.261   5.056
 7401SOL    HW223103   5.828   2.257   4.924
 7402SOL     OW23104   2.777   6.002   4.277
 7402SOL    HW123105   2.844   6.045   4.337
 7402SOL    HW223106   2.691   5.991   4.326
 7403SOL     OW23107   2.834   3.065   1.671
 7403SOL    HW123108   2.861   3.032   1.581
 7403SOL    HW223109   2.783   3.151   1.661
 7404SOL     OW23110   0.635   1.726   2.756
 7404SOL    HW123111   0.690   1.652   2.716
 7404SOL    HW223112   0.599   1.784   2.683
 7405SOL     OW23113   3.993   5.031   6.126
 7405SOL    HW123114   4.024   5.006   6.218
 7405SOL    HW223115   4.071   5.058   6.071
 7406SOL     OW23116   0.196   6.514   2.502
 7406SOL    HW123117   0.186   6.612   2.517
 7406SOL    HW223118   0.285   6.495   2.460
 7407SOL     OW23119   2.763   0.400   6.326
 7407SOL    HW123120   2.765   0.315   6.273
 7407SOL    HW223121   2.800   0.383   6.417
 7408SOL     OW23122   0.899   3.595   5.204
 7408SOL    HW123123   0.847   3.627   5.125
 7408SOL    HW223124   0.886   3.659   5.280
 7409SOL     OW23125   2.653   7.010   5.379
 7409SOL    HW123126   2.606   0.018   5.297
 7409SOL    HW223127   2.588   7.007   5.455
 7410SOL     OW23128   4.577   5.565   6.305
 7410SOL    HW123129   4.579   5.608   6.215
 7410SOL    HW223130   4.483   5.562   6.339
 7411SOL     OW23131   4.903   4.497   5.806
 7411SOL    HW123132   4.806   4.520   5.801
 7411SOL    HW223133   4.915   4.398   5.794
 7412SOL     OW23134   1.340   1.505   6.329
 7412SOL    HW123135   1.421   1.557   6.358
 7412SOL    HW223136   1.264   1.524   6.392
 7413SOL     OW23137   6.882   3.593   3.769
 7413SOL    HW123138   6.958   3.594   3.703
 7413SOL    HW223139   6.852   3.686   3.786
 7414SOL     OW23140   0.837   4.949   1.442
 7414SOL    HW123141   0.916   4.897   1.408
 7414SOL    HW223142   0.768   4.885   1.476
 7415SOL     OW23143   3.294   1.908   3.210
 7415SOL    HW123144   3.385   1.868   3.219
 7415SOL    HW223145   3.246   1.866   3.134
 7416SOL     OW23146   6.518   0.119   3.034
 7416SOL    HW123147   6.551   0.028   3.010
 7416SOL    HW223148   6.441   0.110   3.098
 7417SOL     OW23149   0.625   5.167   0.814
 7417SOL    HW123150   0.708   5.111   0.812
 7417SOL    HW223151   0.649   5.263   0.824
 7418SOL     OW23152   1.096   3.518   0.271
 7418SOL    HW123153   1.186   3.499   0.312
 7418SOL    HW223154   1.050   3.588   0.326
 7419SOL     OW23155   6.024   1.929   5.294
 7419SOL    HW123156   6.042   2.014   5.244
 7419SOL    HW223157   6.104   1.905   5.350
 7420SOL     OW23158   6.873   5.581   2.441
 7420SOL    HW123159   6.936   5.561   2.516
 7420SOL    HW223160   6.798   5.515   2.442
 7421SOL     OW23161   4.116   1.921   1.235
 7421SOL    HW123162   4.107   1.826   1.265
 7421SOL    HW223163   4.159   1.974   1.307
 7422SOL     OW23164   0.793   1.733   0.250
 7422SOL    HW123165   0.890   1.724   0.226
 7422SOL    HW223166   0.775   1.682   0.334
 7423SOL     OW23167   2.259   4.553   0.158
 7423SOL    HW123168   2.198   4.632   0.162
 7423SOL    HW223169   2.243   4.495   0.238
 7424SOL     OW23170   5.295   0.085   4.864
 7424SOL    HW123171   5.376   0.137   4.891
 7424SOL    HW223172   5.260   0.120   4.777
 7425SOL     OW23173   3.678   6.898   5.070
 7425SOL    HW123174   3.755   6.955   5.098
 7425SOL    HW223175   3.710   6.805   5.050
 7426SOL     OW23176   0.204   1.730   6.083
 7426SOL    HW123177   0.170   1.644   6.044
 7426SOL    HW223178   0.131   1.777   6.130
 7427SOL     OW23179   5.290   5.527   5.131
 7427SOL    HW123180   5.337   5.497   5.214
 7427SOL    HW223181   5.356   5.530   5.055
 7428SOL     OW23182   4.507   1.277   5.978
 7428SOL    HW123183   4.504   1.256   5.880
 7428SOL    HW223184   4.495   1.375   5.991
 7429SOL     OW23185   6.421   6.439   4.065
 7429SOL    HW123186   6.356   6.484   4.127
 7429SOL    HW223187   6.398   6.342   4.058
 7430SOL     OW23188   0.477   4.173   4.379
 7430SOL    HW123189   0.433   4.096   4.332
 7430SOL    HW223190   0.484   4.152   4.477
 7431SOL     OW23191   0.830   4.107   2.497
 7431SOL    HW123192   0.801   4.201   2.479
 7431SOL    HW223193   0.884   4.104   2.581
 7432SOL     OW23194   1.671   6.683   5.087
 7432SOL    HW123195   1.660   6.709   5.183
 7432SOL    HW223196   1.600   6.618   5.062
 7433SOL     OW23197   0.619   6.461   1.104
 7433SOL    HW123198   0.712   6.496   1.116
 7433SOL    HW223199   0.590   6.473   1.010
 7434SOL     OW23200   3.915   6.912   0.368
 7434SOL    HW123201   3.882   6.969   0.442
 7434SOL    HW223202   4.013   6.926   0.356
 7435SOL     OW23203   1.768   6.132   0.036
 7435SOL    HW123204   1.681   6.145   7.012
 7435SOL    HW223205   1.807   6.043   0.012
 7436SOL     OW23206   4.152   3.571   0.020
 7436SOL    HW123207   4.149   3.650   6.984
 7436SOL    HW223208   4.065   3.563   0.068
 7437SOL     OW23209   6.933   6.522   5.464
 7437SOL    HW123210   6.935   6.566   5.554
 7437SOL    HW223211   6.902   6.428   5.475
 7438SOL     OW23212   5.705   4.178   1.481
 7438SOL    HW123213   5.718   4.244   1.407
 7438SOL    HW223214   5.666   4.225   1.561
 7439SOL     OW23215   1.267   5.919   2.798
 7439SOL    HW123216   1.178   5.936   2.755
 7439SOL    HW223217   1.283   5.820   2.804
 7440SOL     OW23218   0.850   1.130   3.901
 7440SOL    HW123219   0.799   1.045   3.913
 7440SOL    HW223220   0.831   1.168   3.810
 7441SOL     OW23221   6.207   0.460   3.631
 7441SOL    HW123222   6.257   0.514   3.699
 7441SOL    HW223223   6.158   0.386   3.677
 7442SOL     OW23224   1.864   0.459   6.175
 7442SOL    HW123225   1.843   0.443   6.079
 7442SOL    HW223226   1.792   0.516   6.216
 7443SOL     OW23227   6.356   2.038   1.821
 7443SOL    HW123228   6.414   2.114   1.791
 7443SOL    HW223229   6.413   1.971   1.869
 7444SOL     OW23230   0.420   2.690   4.904
 7444SOL    HW123231   0.385   2.648   4.987
 7444SOL    HW223232   0.413   2.625   4.828
 7445SOL     OW23233   6.034   3.025   1.648
 7445SOL    HW123234   5.946   3.027   1.695
 7445SOL    HW223235   6.027   3.079   1.564
 7446SOL     OW23236   5.776   3.537   2.921
 7446SOL    HW123237   5.839   3.609   2.951
 7446SOL    HW223238   5.808   3.448   2.954
 7447SOL     OW23239   0.145   4.087   6.247
 7447SOL    HW123240   0.153   4.148   6.325
 7447SOL    HW223241   0.056   4.041   6.250
 7448SOL     OW23242   0.181   6.933   6.299
 7448SOL    HW123243   0.278   6.936   6.322
 7448SOL    HW223244   0.171   6.912   6.201
 7449SOL     OW23245   4.066   6.970   1.629
 7449SOL    HW123246   4.163   6.988   1.618
 7449SOL    HW223247   4.015   0.031   1.632
 7450SOL     OW23248   3.767   1.217   1.775
 7450SOL    HW123249   3.758   1.120   1.798
 7450SOL    HW223250   3.729   1.273   1.849
 7451SOL     OW23251   1.501   0.470   2.983
 7451SOL    HW123252   1.460   0.543   2.928
 7451SOL    HW223253   1.433   0.397   2.996
 7452SOL     OW23254   1.806   6.416   3.315
 7452SOL    HW123255   1.808   6.359   3.397
 7452SOL    HW223256   1.752   6.370   3.244
 7453SOL     OW23257   6.317   5.141   5.719
 7453SOL    HW123258   6.270   5.086   5.650
 7453SOL    HW223259   6.411   5.159   5.689
 7454SOL     OW23260   0.927   3.513   6.652
 7454SOL    HW123261   0.981   3.597   6.652
 7454SOL    HW223262   0.960   3.452   6.723
 7455SOL     OW23263   5.151   0.861   0.996
 7455SOL    HW123264   5.227   0.860   1.060
 7455SOL    HW223265   5.185   0.843   0.904
 7456SOL     OW23266   0.886   3.778   5.921
 7456SOL    HW123267   0.835   3.797   5.838
 7456SOL    HW223268   0.823   3.749   5.993
 7457SOL     OW23269   6.495   0.020   5.782
 7457SOL    HW123270   6.466   0.015   5.686
 7457SOL    HW223271   6.517   0.115   5.805
 7458SOL     OW23272   2.268   0.739   1.173
 7458SOL    HW123273   2.181   0.692   1.188
 7458SOL    HW223274   2.338   0.697   1.231
 7459SOL     OW23275   4.433   6.497   4.601
 7459SOL    HW123276   4.412   6.594   4.614
 7459SOL    HW223277   4.384   6.463   4.521
 7460SOL     OW23278   1.059   5.756   0.123
 7460SOL    HW123279   1.019   5.754   0.215
 7460SOL    HW223280   1.057   5.849   0.087
 7461SOL     OW23281   4.376   0.901   4.339
 7461SOL    HW123282   4.294   0.954   4.318
 7461SOL    HW223283   4.388   0.895   4.438
 7462SOL     OW23284   1.845   1.183   2.888
 7462SOL    HW123285   1.932   1.165   2.842
 7462SOL    HW223286   1.849   1.271   2.934
 7463SOL     OW23287   3.729   3.785   1.965
 7463SOL    HW123288   3.668   3.794   2.044
 7463SOL    HW223289   3.785   3.703   1.975
 7464SOL     OW23290   4.504   6.646   6.914
 7464SOL    HW123291   4.535   6.740   6.923
 7464SOL    HW223292   4.547   6.604   6.834
 7465SOL     OW23293   3.729   0.521   2.788
 7465SOL    HW123294   3.784   0.439   2.792
 7465SOL    HW223295   3.788   0.602   2.791
 7466SOL     OW23296   6.502   0.201   0.017
 7466SOL    HW123297   6.483   0.191   0.115
 7466SOL    HW223298   6.430   0.256   6.999
 7467SOL     OW23299   4.861   1.834   1.133
 7467SOL    HW123300   4.948   1.819   1.180
 7467SOL    HW223301   4.872   1.907   1.066
 7468SOL     OW23302   5.863   3.934   4.296
 7468SOL    HW123303   5.788   3.887   4.249
 7468SOL    HW223304   5.860   4.032   4.273
 7469SOL     OW23305   5.712   1.061   1.981
 7469SOL    HW123306   5.799   1.098   1.951
 7469SOL    HW223307   5.726   1.001   2.060
 7470SOL     OW23308   6.886   3.171   2.805
 7470SOL    HW123309   6.830   3.220   2.872
 7470SOL    HW223310   6.905   3.231   2.728
 7471SOL     OW23311   6.268   4.751   5.468
 7471SOL    HW123312   6.184   4.700   5.489
 7471SOL    HW223313   6.255   4.847   5.493
 7472SOL     OW23314   4.254   5.041   3.212
 7472SOL    HW123315   4.243   5.060   3.114
 7472SOL    HW223316   4.191   4.968   3.239
 7473SOL     OW23317   0.772   3.233   5.133
 7473SOL    HW123318   0.807   3.170   5.202
 7473SOL    HW223319   0.842   3.302   5.113
 7474SOL     OW23320   3.092   1.561   3.338
 7474SOL    HW123321   3.126   1.630   3.403
 7474SOL    HW223322   3.042   1.607   3.264
 7475SOL     OW23323   4.773   1.122   6.604
 7475SOL    HW123324   4.774   1.038   6.658
 7475SOL    HW223325   4.837   1.189   6.644
 7476SOL     OW23326   2.475   6.880   5.057
 7476SOL    HW123327   2.565   6.849   5.026
 7476SOL    HW223328   2.460   6.850   5.151
 7477SOL     OW23329   4.882   3.720   4.144
 7477SOL    HW123330   4.868   3.697   4.048
 7477SOL    HW223331   4.855   3.815   4.160
 7478SOL     OW23332   0.892   4.633   1.673
 7478SOL    HW123333   0.908   4.606   1.578
 7478SOL    HW223334   0.973   4.679   1.709
 7479SOL     OW23335   4.100   0.237   5.361
 7479SOL    HW123336   4.026   0.280   5.308
 7479SOL    HW223337   4.070   0.148   5.394
 7480SOL     OW23338   6.678   5.348   0.613
 7480SOL    HW123339   6.685   5.415   0.539
 7480SOL    HW223340   6.691   5.256   0.575
 7481SOL     OW23341   5.762   6.151   0.514
 7481SOL    HW123342   5.727   6.088   0.583
 7481SOL    HW223343   5.858   6.172   0.534
 7482SOL     OW23344   5.259   0.075   4.575
 7482SOL    HW123345   5.295   7.007   4.573
 7482SOL    HW223346   5.334   0.141   4.567
 7483SOL     OW23347   3.218   0.844   5.980
 7483SOL    HW123348   3.158   0.840   5.900
 7483SOL    HW223349   3.183   0.784   6.052
 7484SOL     OW23350   3.622   0.533   2.027
 7484SOL    HW123351   3.687   0.465   1.993
 7484SOL    HW223352   3.660   0.576   2.109
 7485SOL     OW23353   1.163   0.257   5.125
 7485SOL    HW123354   1.227   0.330   5.147
 7485SOL    HW223355   1.069   0.291   5.135
 7486SOL     OW23356   1.165   1.813   5.409
 7486SOL    HW123357   1.230   1.806   5.333
 7486SOL    HW223358   1.177   1.902   5.454
 7487SOL     OW23359   3.644   5.505   3.299
 7487SOL    HW123360   3.736   5.537   3.322
 7487SOL    HW223361   3.648   5.450   3.216
 7488SOL     OW23362   4.381   0.521   5.347
 7488SOL    HW123363   4.319   0.595   5.324
 7488SOL    HW223364   4.470   0.559   5.372
 7489SOL     OW23365   6.659   3.808   3.683
 7489SOL    HW123366   6.643   3.712   3.657
 7489SOL    HW223367   6.708   3.855   3.610
 7490SOL     OW23368   5.502   0.788   3.142
 7490SOL    HW123369   5.421   0.777   3.084
 7490SOL    HW223370   5.564   0.855   3.100
 7491SOL     OW23371   0.868   6.712   0.041
 7491SOL    HW123372   0.777   6.685   0.072
 7491SOL    HW223373   0.933   6.703   0.117
 7492SOL     OW23374   2.262   2.225   3.455
 7492SOL    HW123375   2.347   2.277   3.443
 7492SOL    HW223376   2.283   2.127   3.450
 7493SOL     OW23377   5.192   5.222   6.877
 7493SOL    HW123378   5.115   5.162   6.900
 7493SOL    HW223379   5.216   5.210   6.781
 7494SOL     OW23380   4.856   2.312   1.443
 7494SOL    HW123381   4.850   2.266   1.354
 7494SOL    HW223382   4.857   2.411   1.430
 7495SOL     OW23383   0.843   1.899   2.556
 7495SOL    HW123384   0.746   1.920   2.569
 7495SOL    HW223385   0.865   1.901   2.458
 7496SOL     OW23386   0.253   5.432   5.885
 7496SOL    HW123387   0.245   5.332   5.883
 7496SOL    HW223388   0.337   5.458   5.933
 7497SOL     OW23389   1.851   4.829   2.371
 7497SOL    HW123390   1.931   4.877   2.405
 7497SOL    HW223391   1.858   4.819   2.271
 7498SOL     OW23392   5.407   1.973   4.540
 7498SOL    HW123393   5.477   1.905   4.561
 7498SOL    HW223394   5.393   1.976   4.441
 7499SOL     OW23395   4.097   4.775   3.976
 7499SOL    HW123396   4.018   4.773   4.036
 7499SOL    HW223397   4.180   4.790   4.030
 7500SOL     OW23398   4.918   4.354   1.978
 7500SOL    HW123399   4.874   4.412   2.047
 7500SOL    HW223400   4.920   4.402   1.890
 7501SOL     OW23401   0.475   5.005   3.546
 7501SOL    HW123402   0.419   5.079   3.583
 7501SOL    HW223403   0.437   4.917   3.574
 7502SOL     OW23404   1.962   2.183   4.098
 7502SOL    HW123405   2.051   2.225   4.080
 7502SOL    HW223406   1.972   2.083   4.100
 7503SOL     OW23407   2.358   2.912   6.710
 7503SOL    HW123408   2.401   2.930   6.621
 7503SOL    HW223409   2.271   2.865   6.696
 7504SOL     OW23410   3.910   5.186   3.521
 7504SOL    HW123411   3.849   5.220   3.592
 7504SOL    HW223412   3.855   5.144   3.448
 7505SOL     OW23413   1.489   0.989   4.274
 7505SOL    HW123414   1.399   0.947   4.284
 7505SOL    HW223415   1.479   1.085   4.248
 7506SOL     OW23416   3.563   1.342   3.496
 7506SOL    HW123417   3.504   1.410   3.453
 7506SOL    HW223418   3.593   1.276   3.427
 7507SOL     OW23419   1.779   6.402   5.702
 7507SOL    HW123420   1.767   6.365   5.794
 7507SOL    HW223421   1.690   6.403   5.655
 7508SOL     OW23422   5.355   5.279   3.892
 7508SOL    HW123423   5.264   5.320   3.891
 7508SOL    HW223424   5.358   5.203   3.828
 7509SOL     OW23425   4.318   3.535   6.532
 7509SOL    HW123426   4.368   3.475   6.596
 7509SOL    HW223427   4.304   3.486   6.446
 7510SOL     OW23428   3.723   3.849   4.847
 7510SOL    HW123429   3.775   3.764   4.840
 7510SOL    HW223430   3.672   3.863   4.762
 7511SOL     OW23431   1.080   0.853   2.151
 7511SOL    HW123432   1.122   0.939   2.179
 7511SOL    HW223433   1.019   0.819   2.222
 7512SOL     OW23434   1.962   2.964   1.574
 7512SOL    HW123435   1.966   3.063   1.590
 7512SOL    HW223436   1.999   2.916   1.653
 7513SOL     OW23437   1.566   3.551   6.142
 7513SOL    HW123438   1.527   3.461   6.160
 7513SOL    HW223439   1.492   3.617   6.126
 7514SOL     OW23440   3.464   5.622   3.676
 7514SOL    HW123441   3.457   5.585   3.584
 7514SOL    HW223442   3.384   5.593   3.730
 7515SOL     OW23443   0.360   4.690   2.684
 7515SOL    HW123444   0.447   4.679   2.636
 7515SOL    HW223445   0.371   4.660   2.779
 7516SOL     OW23446   1.287   2.092   1.690
 7516SOL    HW123447   1.372   2.086   1.637
 7516SOL    HW223448   1.239   2.004   1.686
 7517SOL     OW23449   0.796   4.719   1.220
 7517SOL    HW123450   0.736   4.780   1.271
 7517SOL    HW223451   0.741   4.657   1.164
 7518SOL     OW23452   5.033   4.472   3.339
 7518SOL    HW123453   5.101   4.425   3.395
 7518SOL    HW223454   5.035   4.570   3.359
 7519SOL     OW23455   1.973   0.253   4.242
 7519SOL    HW123456   1.957   0.311   4.321
 7519SOL    HW223457   1.987   0.310   4.161
 7520SOL     OW23458   2.657   0.185   3.797
 7520SOL    HW123459   2.599   0.136   3.732
 7520SOL    HW223460   2.627   0.164   3.890
 7521SOL     OW23461   4.075   3.365   5.549
 7521SOL    HW123462   4.077   3.312   5.634
 7521SOL    HW223463   4.118   3.454   5.563
 7522SOL     OW23464   1.465   0.612   2.473
 7522SOL    HW123465   1.394   0.682   2.472
 7522SOL    HW223466   1.450   0.548   2.398
 7523SOL     OW23467   6.023   6.710   6.411
 7523SOL    HW123468   5.931   6.742   6.435
 7523SOL    HW223469   6.018   6.614   6.381
 7524SOL     OW23470   6.170   1.079   4.694
 7524SOL    HW123471   6.078   1.117   4.704
 7524SOL    HW223472   6.211   1.069   4.785
 7525SOL     OW23473   0.930   6.895   0.889
 7525SOL    HW123474   0.970   6.972   0.940
 7525SOL    HW223475   0.908   6.924   0.796
 7526SOL     OW23476   3.378   3.263   4.791
 7526SOL    HW123477   3.473   3.282   4.764
 7526SOL    HW223478   3.371   3.169   4.822
 7527SOL     OW23479   4.707   5.762   2.159
 7527SOL    HW123480   4.683   5.846   2.111
 7527SOL    HW223481   4.798   5.772   2.200
 7528SOL     OW23482   5.574   3.392   6.718
 7528SOL    HW123483   5.509   3.387   6.794
 7528SOL    HW223484   5.648   3.455   6.740
 7529SOL     OW23485   2.846   6.986   4.921
 7529SOL    HW123486   2.937   6.999   4.882
 7529SOL    HW223487   2.823   6.889   4.921
 7530SOL     OW23488   6.626   2.619   2.728
 7530SOL    HW123489   6.562   2.695   2.742
 7530SOL    HW223490   6.701   2.626   2.794
 7531SOL     OW23491   2.852   1.541   4.700
 7531SOL    HW123492   2.775   1.599   4.674
 7531SOL    HW223493   2.863   1.542   4.799
 7532SOL     OW23494   4.983   4.843   2.500
 7532SOL    HW123495   4.925   4.924   2.508
 7532SOL    HW223496   4.940   4.767   2.549
 7533SOL     OW23497   3.752   0.652   4.918
 7533SOL    HW123498   3.837   0.599   4.924
 7533SOL    HW223499   3.734   0.695   5.006
 7534SOL     OW23500   5.496   6.460   4.588
 7534SOL    HW123501   5.581   6.410   4.604
 7534SOL    HW223502   5.434   6.446   4.665
 7535SOL     OW23503   3.056   4.684   0.652
 7535SOL    HW123504   3.035   4.668   0.748
 7535SOL    HW223505   3.107   4.769   0.642
 7536SOL     OW23506   3.406   5.755   5.291
 7536SOL    HW123507   3.485   5.771   5.232
 7536SOL    HW223508   3.330   5.721   5.235
 7537SOL     OW23509   2.149   4.532   5.506
 7537SOL    HW123510   2.094   4.498   5.583
 7537SOL    HW223511   2.089   4.572   5.437
 7538SOL     OW23512   2.901   3.514   3.956
 7538SOL    HW123513   2.940   3.432   3.916
 7538SOL    HW223514   2.878   3.498   4.051
 7539SOL     OW23515   1.128   2.285   4.604
 7539SOL    HW123516   1.088   2.212   4.660
 7539SOL    HW223517   1.167   2.355   4.664
 7540SOL     OW23518   1.961   0.947   6.913
 7540SOL    HW123519   2.004   0.902   6.835
 7540SOL    HW223520   1.870   0.981   6.886
 7541SOL     OW23521   6.702   2.895   5.192
 7541SOL    HW123522   6.712   2.841   5.275
 7541SOL    HW223523   6.696   2.835   5.113
 7542SOL     OW23524   1.596   0.156   6.193
 7542SOL    HW123525   1.603   0.213   6.111
 7542SOL    HW223526   1.656   0.077   6.184
 7543SOL     OW23527   3.497   2.227   0.217
 7543SOL    HW123528   3.442   2.205   0.297
 7543SOL    HW223529   3.448   2.199   0.134
 7544SOL     OW23530   0.946   1.938   2.270
 7544SOL    HW123531   1.005   1.924   2.190
 7544SOL    HW223532   0.983   2.011   2.327
 7545SOL     OW23533   4.411   0.311   3.778
 7545SOL    HW123534   4.456   0.383   3.832
 7545SOL    HW223535   4.359   0.353   3.704
 7546SOL     OW23536   5.391   6.999   5.920
 7546SOL    HW123537   5.476   0.012   5.881
 7546SOL    HW223538   5.324   0.048   5.930
 7547SOL     OW23539   2.860   0.230   6.997
 7547SOL    HW123540   2.894   0.166   6.928
 7547SOL    HW223541   2.779   0.276   6.963
 7548SOL     OW23542   0.919   3.404   1.627
 7548SOL    HW123543   0.931   3.336   1.699
 7548SOL    HW223544   0.846   3.375   1.565
 7549SOL     OW23545   5.661   0.968   2.916
 7549SOL    HW123546   5.739   0.992   2.975
 7549SOL    HW223547   5.626   1.051   2.873
 7550SOL     OW23548   1.266   5.419   1.000
 7550SOL    HW123549   1.256   5.349   0.930
 7550SOL    HW223550   1.200   5.492   0.985
 7551SOL     OW23551   5.204   4.390   6.663
 7551SOL    HW123552   5.238   4.344   6.581
 7551SOL    HW223553   5.144   4.329   6.714
 7552SOL     OW23554   3.681   5.461   3.651
 7552SOL    HW123555   3.756   5.492   3.592
 7552SOL    HW223556   3.612   5.533   3.658
 7553SOL     OW23557   4.344   4.341   5.951
 7553SOL    HW123558   4.281   4.277   5.908
 7553SOL    HW223559   4.436   4.301   5.954
 7554SOL     OW23560   0.080   1.576   0.939
 7554SOL    HW123561   7.008   1.587   0.964
 7554SOL    HW223562   0.137   1.624   1.005
 7555SOL     OW23563   1.190   6.270   5.958
 7555SOL    HW123564   1.133   6.194   5.927
 7555SOL    HW223565   1.148   6.312   6.039
 7556SOL     OW23566   6.529   3.909   3.382
 7556SOL    HW123567   6.461   3.846   3.420
 7556SOL    HW223568   6.587   3.943   3.455
 7557SOL     OW23569   3.905   3.800   0.611
 7557SOL    HW123570   3.849   3.766   0.536
 7557SOL    HW223571   3.939   3.891   0.587
 7558SOL     OW23572   1.523   2.471   2.943
 7558SOL    HW123573   1.621   2.478   2.960
 7558SOL    HW223574   1.479   2.423   3.019
 7559SOL     OW23575   1.385   4.968   6.991
 7559SOL    HW123576   1.318   4.981   0.039
 7559SOL    HW223577   1.337   4.951   6.905
 7560SOL     OW23578   4.830   0.479   5.356
 7560SOL    HW123579   4.804   0.416   5.283
 7560SOL    HW223580   4.775   0.562   5.350
 7561SOL     OW23581   0.078   4.052   0.079
 7561SOL    HW123582   0.164   4.014   0.113
 7561SOL    HW223583   0.036   3.989   0.014
 7562SOL     OW23584   4.704   6.326   4.912
 7562SOL    HW123585   4.687   6.238   4.868
 7562SOL    HW223586   4.800   6.352   4.899
 7563SOL     OW23587   2.289   1.506   3.374
 7563SOL    HW123588   2.260   1.510   3.279
 7563SOL    HW223589   2.374   1.452   3.381
 7564SOL     OW23590   5.824   5.435   4.334
 7564SOL    HW123591   5.825   5.434   4.234
 7564SOL    HW223592   5.845   5.527   4.367
 7565SOL     OW23593   4.904   5.242   6.715
 7565SOL    HW123594   4.911   5.341   6.730
 7565SOL    HW223595   4.931   5.194   6.799
 7566SOL     OW23596   1.793   5.959   4.737
 7566SOL    HW123597   1.880   5.947   4.784
 7566SOL    HW223598   1.792   6.047   4.689
 7567SOL     OW23599   3.001   3.155   0.541
 7567SOL    HW123600   3.057   3.075   0.524
 7567SOL    HW223601   2.904   3.130   0.537
 7568SOL     OW23602   4.335   4.801   2.730
 7568SOL    HW123603   4.421   4.841   2.700
 7568SOL    HW223604   4.271   4.797   2.653
 7569SOL     OW23605   3.672   0.241   1.602
 7569SOL    HW123606   3.665   0.156   1.549
 7569SOL    HW223607   3.693   0.219   1.697
 7570SOL     OW23608   6.019   5.408   5.079
 7570SOL    HW123609   5.964   5.439   5.001
 7570SOL    HW223610   5.960   5.362   5.145
 7571SOL     OW23611   5.772   4.364   1.289
 7571SOL    HW123612   5.777   4.388   1.193
 7571SOL    HW223613   5.698   4.416   1.333
 7572SOL     OW23614   0.457   1.033   3.315
 7572SOL    HW123615   0.541   1.008   3.364
 7572SOL    HW223616   0.410   1.105   3.366
 7573SOL     OW23617   2.799   5.441   5.493
 7573SOL    HW123618   2.871   5.430   5.562
 7573SOL    HW223619   2.840   5.465   5.405
 7574SOL     OW23620   4.848   6.423   2.098
 7574SOL    HW123621   4.764   6.436   2.151
 7574SOL    HW223622   4.904   6.352   2.142
 7575SOL     OW23623   4.735   2.800   4.755
 7575SOL    HW123624   4.781   2.794   4.666
 7575SOL    HW223625   4.703   2.709   4.781
 7576SOL     OW23626   6.777   3.786   1.567
 7576SOL    HW123627   6.778   3.866   1.508
 7576SOL    HW223628   6.867   3.742   1.567
 7577SOL     OW23629   4.518   0.881   5.001
 7577SOL    HW123630   4.525   0.788   4.965
 7577SOL    HW223631   4.425   0.915   4.989
 7578SOL     OW23632   2.670   5.201   4.727
 7578SOL    HW123633   2.620   5.134   4.782
 7578SOL    HW223634   2.704   5.274   4.786
 7579SOL     OW23635   4.516   2.171   3.453
 7579SOL    HW123636   4.596   2.114   3.473
 7579SOL    HW223637   4.530   2.262   3.492
 7580SOL     OW23638   2.114   3.394   2.227
 7580SOL    HW123639   2.154   3.407   2.136
 7580SOL    HW223640   2.113   3.297   2.249
 7581SOL     OW23641   5.327   0.964   1.194
 7581SOL    HW123642   5.281   1.011   1.270
 7581SOL    HW223643   5.397   1.025   1.155
 7582SOL     OW23644   3.298   2.327   0.960
 7582SOL    HW123645   3.391   2.316   0.926
 7582SOL    HW223646   3.293   2.296   1.055
 7583SOL     OW23647   6.916   3.739   2.783
 7583SOL    HW123648   7.010   3.748   2.818
 7583SOL    HW223649   6.869   3.827   2.794
 7584SOL     OW23650   2.015   1.876   1.292
 7584SOL    HW123651   1.981   1.856   1.200
 7584SOL    HW223652   2.105   1.917   1.286
 7585SOL     OW23653   1.402   5.154   6.250
 7585SOL    HW123654   1.442   5.217   6.316
 7585SOL    HW223655   1.418   5.060   6.280
 7586SOL     OW23656   2.332   1.531   2.748
 7586SOL    HW123657   2.343   1.439   2.710
 7586SOL    HW223658   2.299   1.593   2.677
 7587SOL     OW23659   1.947   0.770   6.116
 7587SOL    HW123660   2.028   0.728   6.075
 7587SOL    HW223661   1.942   0.746   6.213
 7588SOL     OW23662   0.997   4.184   1.880
 7588SOL    HW123663   0.997   4.086   1.860
 7588SOL    HW223664   1.079   4.208   1.933
 7589SOL     OW23665   4.929   6.211   6.640
 7589SOL    HW123666   5.012   6.179   6.686
 7589SOL    HW223667   4.881   6.276   6.698
 7590SOL     OW23668   1.525   0.071   6.616
 7590SOL    HW123669   1.491   0.117   6.697
 7590SOL    HW223670   1.512   0.130   6.536
 7591SOL     OW23671   6.156   5.526   6.846
 7591SOL    HW123672   6.252   5.510   6.822
 7591SOL    HW223673   6.145   5.620   6.878
 7592SOL     OW23674   4.775   5.149   5.983
 7592SOL    HW123675   4.792   5.240   5.945
 7592SOL    HW223676   4.818   5.142   6.073
 7593SOL     OW23677   5.973   4.233   0.511
 7593SOL    HW123678   6.070   4.215   0.526
 7593SOL    HW223679   5.937   4.289   0.585
 7594SOL     OW23680   1.006   6.887   3.862
 7594SOL    HW123681   1.094   6.842   3.874
 7594SOL    HW223682   1.021   6.980   3.827
 7595SOL     OW23683   6.175   2.682   6.884
 7595SOL    HW123684   6.197   2.748   6.956
 7595SOL    HW223685   6.200   2.721   6.795
 7596SOL     OW23686   4.722   4.925   2.072
 7596SOL    HW123687   4.794   4.857   2.088
 7596SOL    HW223688   4.639   4.896   2.120
 7597SOL     OW23689   2.758   5.786   1.827
 7597SOL    HW123690   2.670   5.816   1.863
 7597SOL    HW223691   2.744   5.722   1.751
 7598SOL     OW23692   6.817   0.915   2.082
 7598SOL    HW123693   6.748   0.875   2.022
 7598SOL    HW223694   6.814   0.870   2.171
 7599SOL     OW23695   6.266   2.549   2.412
 7599SOL    HW123696   6.172   2.569   2.384
 7599SOL    HW223697   6.330   2.602   2.356
 7600SOL     OW23698   2.279   1.769   2.544
 7600SOL    HW123699   2.341   1.776   2.466
 7600SOL    HW223700   2.328   1.792   2.628
 7601SOL     OW23701   1.812   0.559   4.959
 7601SOL    HW123702   1.800   0.526   4.866
 7601SOL    HW223703   1.860   0.489   5.013
 7602SOL     OW23704   2.057   3.457   5.240
 7602SOL    HW123705   2.091   3.501   5.323
 7602SOL    HW223706   2.112   3.376   5.219
 7603SOL     OW23707   0.037   1.480   2.042
 7603SOL    HW123708   0.136   1.491   2.037
 7603SOL    HW223709   0.016   1.395   2.090
 7604SOL     OW23710   5.082   5.569   0.015
 7604SOL    HW123711   5.107   5.584   6.944
 7604SOL    HW223712   4.990   5.604   0.031
 7605SOL     OW23713   5.656   3.847   5.941
 7605SOL    HW123714   5.705   3.895   5.868
 7605SOL    HW223715   5.610   3.767   5.902
 7606SOL     OW23716   5.908   1.696   3.533
 7606SOL    HW123717   5.962   1.611   3.532
 7606SOL    HW223718   5.925   1.745   3.618
 7607SOL     OW23719   4.820   6.879   5.939
 7607SOL    HW123720   4.807   6.975   5.964
 7607SOL    HW223721   4.737   6.843   5.897
 7608SOL     OW23722   3.992   3.298   4.440
 7608SOL    HW123723   3.908   3.353   4.441
 7608SOL    HW223724   3.970   3.204   4.414
 7609SOL     OW23725   1.874   2.580   3.724
 7609SOL    HW123726   1.912   2.511   3.786
 7609SOL    HW223727   1.941   2.652   3.708
 7610SOL     OW23728   5.435   0.938   2.176
 7610SOL    HW123729   5.511   0.929   2.242
 7610SOL    HW223730   5.439   0.862   2.111
 7611SOL     OW23731   2.034   1.811   1.558
 7611SOL    HW123732   2.102   1.884   1.554
 7611SOL    HW223733   2.012   1.780   1.465
 7612SOL     OW23734   4.310   1.647   2.550
 7612SOL    HW123735   4.287   1.744   2.549
 7612SOL    HW223736   4.402   1.634   2.514
 7613SOL     OW23737   5.381   0.926   3.358
 7613SOL    HW123738   5.442   0.882   3.293
 7613SOL    HW223739   5.286   0.897   3.341
 7614SOL     OW23740   4.356   1.403   0.433
 7614SOL    HW123741   4.387   1.465   0.504
 7614SOL    HW223742   4.283   1.345   0.469
 7615SOL     OW23743   4.004   4.731   5.898
 7615SOL    HW123744   3.980   4.634   5.896
 7615SOL    HW223745   4.058   4.750   5.980
 7616SOL     OW23746   6.893   4.395   3.179
 7616SOL    HW123747   6.810   4.437   3.144
 7616SOL    HW223748   6.869   4.319   3.239
 7617SOL     OW23749   3.045   6.199   2.939
 7617SOL    HW123750   3.094   6.240   3.015
 7617SOL    HW223751   2.946   6.212   2.951
 7618SOL     OW23752   2.160   2.236   0.514
 7618SOL    HW123753   2.090   2.166   0.529
 7618SOL    HW223754   2.139   2.317   0.568
 7619SOL     OW23755   5.790   3.445   5.574
 7619SOL    HW123756   5.868   3.494   5.612
 7619SOL    HW223757   5.706   3.494   5.596
 7620SOL     OW23758   2.976   6.598   1.733
 7620SOL    HW123759   2.939   6.601   1.826
 7620SOL    HW223760   2.924   6.533   1.678
 7621SOL     OW23761   2.263   2.429   0.930
 7621SOL    HW123762   2.271   2.508   0.992
 7621SOL    HW223763   2.210   2.358   0.976
 7622SOL     OW23764   5.119   1.725   1.035
 7622SOL    HW123765   5.139   1.628   1.026
 7622SOL    HW223766   5.150   1.757   1.125
 7623SOL     OW23767   5.795   0.139   5.207
 7623SOL    HW123768   5.849   0.215   5.242
 7623SOL    HW223769   5.702   0.170   5.186
 7624SOL     OW23770   7.021   1.253   4.574
 7624SOL    HW123771   0.091   1.272   4.598
 7624SOL    HW223772   7.007   1.154   4.565
 7625SOL     OW23773   3.507   6.051   0.707
 7625SOL    HW123774   3.448   6.017   0.780
 7625SOL    HW223775   3.461   6.040   0.619
 7626SOL     OW23776   2.329   4.332   4.473
 7626SOL    HW123777   2.253   4.319   4.537
 7626SOL    HW223778   2.414   4.340   4.525
 7627SOL     OW23779   6.586   1.502   6.807
 7627SOL    HW123780   6.638   1.484   6.891
 7627SOL    HW223781   6.494   1.464   6.816
 7628SOL     OW23782   4.775   1.354   1.141
 7628SOL    HW123783   4.679   1.365   1.169
 7628SOL    HW223784   4.835   1.383   1.216
 7629SOL     OW23785   6.400   5.581   3.354
 7629SOL    HW123786   6.407   5.483   3.373
 7629SOL    HW223787   6.428   5.633   3.435
 7630SOL     OW23788   6.477   1.357   2.214
 7630SOL    HW123789   6.465   1.441   2.159
 7630SOL    HW223790   6.515   1.285   2.156
 7631SOL     OW23791   1.358   1.098   3.318
 7631SOL    HW123792   1.322   1.166   3.383
 7631SOL    HW223793   1.322   1.008   3.341
 7632SOL     OW23794   4.365   0.849   6.035
 7632SOL    HW123795   4.275   0.892   6.044
 7632SOL    HW223796   4.433   0.904   6.083
 7633SOL     OW23797   5.354   5.177   6.427
 7633SOL    HW123798   5.272   5.162   6.482
 7633SOL    HW223799   5.429   5.123   6.464
 7634SOL     OW23800   0.795   2.606   1.737
 7634SOL    HW123801   0.737   2.680   1.703
 7634SOL    HW223802   0.764   2.578   1.828
 7635SOL     OW23803   2.497   5.010   6.222
 7635SOL    HW123804   2.586   4.970   6.202
 7635SOL    HW223805   2.508   5.107   6.244
 7636SOL     OW23806   2.524   0.037   3.632
 7636SOL    HW123807   2.439   7.025   3.669
 7636SOL    HW223808   2.508   0.075   3.541
 7637SOL     OW23809   2.825   6.110   4.033
 7637SOL    HW123810   2.806   6.076   4.125
 7637SOL    HW223811   2.773   6.194   4.016
 7638SOL     OW23812   4.419   4.436   1.721
 7638SOL    HW123813   4.390   4.346   1.752
 7638SOL    HW223814   4.518   4.438   1.711
 7639SOL     OW23815   6.730   2.406   4.074
 7639SOL    HW123816   6.829   2.399   4.082
 7639SOL    HW223817   6.705   2.501   4.054
 7640SOL     OW23818   2.532   3.025   5.568
 7640SOL    HW123819   2.605   3.090   5.548
 7640SOL    HW223820   2.457   3.038   5.503
 7641SOL     OW23821   6.061   2.557   3.266
 7641SOL    HW123822   6.095   2.611   3.189
 7641SOL    HW223823   6.138   2.521   3.318
 7642SOL     OW23824   1.473   1.201   2.755
 7642SOL    HW123825   1.483   1.173   2.850
 7642SOL    HW223826   1.563   1.207   2.712
 7643SOL     OW23827   5.620   2.723   3.249
 7643SOL    HW123828   5.686   2.697   3.320
 7643SOL    HW223829   5.667   2.731   3.161
 7644SOL     OW23830   6.241   4.002   3.954
 7644SOL    HW123831   6.251   3.958   4.044
 7644SOL    HW223832   6.324   3.987   3.901
 7645SOL     OW23833   3.959   3.209   0.045
 7645SOL    HW123834   3.904   3.215   6.987
 7645SOL    HW223835   4.050   3.175   0.023
 7646SOL     OW23836   0.571   1.103   1.857
 7646SOL    HW123837   0.566   1.064   1.765
 7646SOL    HW223838   0.545   1.199   1.854
 7647SOL     OW23839   2.479   4.940   0.591
 7647SOL    HW123840   2.389   4.941   0.547
 7647SOL    HW223841   2.537   5.010   0.549
 7648SOL     OW23842   3.735   0.761   4.228
 7648SOL    HW123843   3.716   0.681   4.285
 7648SOL    HW223844   3.681   0.839   4.260
 7649SOL     OW23845   2.999   1.424   1.586
 7649SOL    HW123846   3.009   1.445   1.684
 7649SOL    HW223847   2.902   1.417   1.563
 7650SOL     OW23848   6.139   4.297   0.795
 7650SOL    HW123849   6.197   4.218   0.811
 7650SOL    HW223850   6.190   4.365   0.742
 7651SOL     OW23851   4.703   2.567   6.694
 7651SOL    HW123852   4.766   2.584   6.770
 7651SOL    HW223853   4.631   2.505   6.723
 7652SOL     OW23854   1.262   3.356   3.164
 7652SOL    HW123855   1.303   3.269   3.137
 7652SOL    HW223856   1.183   3.375   3.106
 7653SOL     OW23857   3.987   2.186   1.522
 7653SOL    HW123858   3.970   2.177   1.620
 7653SOL    HW223859   3.900   2.190   1.473
 7654SOL     OW23860   5.232   3.577   3.954
 7654SOL    HW123861   5.240   3.480   3.934
 7654SOL    HW223862   5.319   3.623   3.933
 7655SOL     OW23863   4.843   5.655   5.204
 7655SOL    HW123864   4.795   5.611   5.280
 7655SOL    HW223865   4.822   5.753   5.204
 7656SOL     OW23866   1.481   6.763   4.071
 7656SOL    HW123867   1.456   6.680   4.121
 7656SOL    HW223868   1.543   6.740   3.996
 7657SOL     OW23869   4.248   1.564   4.139
 7657SOL    HW123870   4.229   1.661   4.129
 7657SOL    HW223871   4.343   1.551   4.167
 7658SOL     OW23872   4.258   0.136   6.500
 7658SOL    HW123873   4.273   0.231   6.525
 7658SOL    HW223874   4.345   0.092   6.479
 7659SOL     OW23875   4.955   6.225   0.071
 7659SOL    HW123876   4.897   6.187   7.024
 7659SOL    HW223877   4.925   6.190   0.160
 7660SOL     OW23878   5.634   4.916   4.376
 7660SOL    HW123879   5.620   4.947   4.282
 7660SOL    HW223880   5.552   4.869   4.408
 7661SOL     OW23881   6.032   3.149   3.612
 7661SOL    HW123882   6.029   3.067   3.671
 7661SOL    HW223883   6.126   3.182   3.606
 7662SOL     OW23884   6.451   5.541   2.962
 7662SOL    HW123885   6.409   5.477   2.897
 7662SOL    HW223886   6.548   5.551   2.941
 7663SOL     OW23887   6.761   5.709   0.123
 7663SOL    HW123888   6.797   5.660   0.202
 7663SOL    HW223889   6.759   5.807   0.143
 7664SOL     OW23890   2.657   5.391   5.115
 7664SOL    HW123891   2.604   5.306   5.124
 7664SOL    HW223892   2.651   5.443   5.200
 7665SOL     OW23893   2.407   5.610   4.206
 7665SOL    HW123894   2.457   5.527   4.178
 7665SOL    HW223895   2.381   5.602   4.302
 7666SOL     OW23896   2.396   1.286   1.349
 7666SOL    HW123897   2.456   1.278   1.270
 7666SOL    HW223898   2.319   1.347   1.326
 7667SOL     OW23899   4.898   6.235   5.916
 7667SOL    HW123900   4.967   6.205   5.850
 7667SOL    HW223901   4.924   6.203   6.008
 7668SOL     OW23902   3.131   3.903   1.523
 7668SOL    HW123903   3.079   3.958   1.588
 7668SOL    HW223904   3.161   3.818   1.567
 7669SOL     OW23905   4.443   6.447   4.876
 7669SOL    HW123906   4.524   6.408   4.920
 7669SOL    HW223907   4.445   6.427   4.779
 7670SOL     OW23908   1.419   5.623   0.912
 7670SOL    HW123909   1.351   5.691   0.940
 7670SOL    HW223910   1.390   5.532   0.943
 7671SOL     OW23911   5.534   2.215   4.862
 7671SOL    HW123912   5.527   2.306   4.820
 7671SOL    HW223913   5.549   2.225   4.960
 7672SOL     OW23914   5.921   0.197   2.092
 7672SOL    HW123915   5.933   0.119   2.153
 7672SOL    HW223916   5.979   0.272   2.123
 7673SOL     OW23917   0.207   4.295   6.672
 7673SOL    HW123918   0.241   4.201   6.666
 7673SOL    HW223919   0.276   4.352   6.717
 7674SOL     OW23920   5.982   0.949   5.328
 7674SOL    HW123921   5.955   0.947   5.232
 7674SOL    HW223922   6.001   1.044   5.355
 7675SOL     OW23923   4.964   0.110   3.118
 7675SOL    HW123924   4.915   0.132   3.202
 7675SOL    HW223925   5.063   0.115   3.135
 7676SOL     OW23926   1.537   0.332   1.576
 7676SOL    HW123927   1.493   0.403   1.631
 7676SOL    HW223928   1.555   0.367   1.484
 7677SOL     OW23929   1.882   2.342   2.737
 7677SOL    HW123930   1.839   2.418   2.689
 7677SOL    HW223931   1.981   2.347   2.725
 7678SOL     OW23932   5.426   6.721   5.906
 7678SOL    HW123933   5.425   6.821   5.909
 7678SOL    HW223934   5.333   6.687   5.889
 7679SOL     OW23935   0.935   5.028   4.809
 7679SOL    HW123936   0.966   4.947   4.759
 7679SOL    HW223937   0.835   5.035   4.803
 7680SOL     OW23938   5.226   1.075   6.653
 7680SOL    HW123939   5.307   1.083   6.711
 7680SOL    HW223940   5.177   1.162   6.653
 7681SOL     OW23941   2.807   2.141   6.223
 7681SOL    HW123942   2.774   2.151   6.129
 7681SOL    HW223943   2.896   2.187   6.231
 7682SOL     OW23944   2.723   6.964   1.387
 7682SOL    HW123945   2.771   0.007   1.332
 7682SOL    HW223946   2.685   7.008   1.469
 7683SOL     OW23947   6.194   1.835   2.988
 7683SOL    HW123948   6.108   1.883   2.969
 7683SOL    HW223949   6.193   1.746   2.942
 7684SOL     OW23950   4.490   2.719   6.378
 7684SOL    HW123951   4.470   2.633   6.425
 7684SOL    HW223952   4.501   2.701   6.280
 7685SOL     OW23953   4.327   3.904   1.019
 7685SOL    HW123954   4.253   3.916   1.085
 7685SOL    HW223955   4.333   3.984   0.960
 7686SOL     OW23956   3.577   0.977   3.864
 7686SOL    HW123957   3.565   0.959   3.766
 7686SOL    HW223958   3.492   1.015   3.901
 7687SOL     OW23959   4.368   5.066   6.272
 7687SOL    HW123960   4.287   5.009   6.279
 7687SOL    HW223961   4.438   5.034   6.336
 7688SOL     OW23962   6.566   0.372   3.036
 7688SOL    HW123963   6.639   0.402   3.098
 7688SOL    HW223964   6.550   0.274   3.049
 7689SOL     OW23965   3.004   6.298   4.992
 7689SOL    HW123966   3.047   6.208   4.989
 7689SOL    HW223967   3.027   6.349   4.909
 7690SOL     OW23968   0.483   5.168   2.243
 7690SOL    HW123969   0.517   5.162   2.337
 7690SOL    HW223970   0.560   5.173   2.180
 7691SOL     OW23971   5.940   3.829   5.562
 7691SOL    HW123972   5.960   3.735   5.592
 7691SOL    HW223973   6.020   3.867   5.515
 7692SOL     OW23974   1.531   6.584   1.470
 7692SOL    HW123975   1.514   6.513   1.538
 7692SOL    HW223976   1.628   6.585   1.445
 7693SOL     OW23977   5.816   1.084   0.735
 7693SOL    HW123978   5.880   1.126   0.799
 7693SOL    HW223979   5.867   1.035   0.664
 7694SOL     OW23980   5.936   5.094   4.066
 7694SOL    HW123981   6.016   5.134   4.111
 7694SOL    HW223982   5.926   5.133   3.974
 7695SOL     OW23983   4.364   0.440   6.484
 7695SOL    HW123984   4.428   0.477   6.551
 7695SOL    HW223985   4.393   0.467   6.392
 7696SOL     OW23986   1.280   4.182   5.759
 7696SOL    HW123987   1.185   4.152   5.755
 7696SOL    HW223988   1.313   4.176   5.854
 7697SOL     OW23989   4.610   1.915   2.074
 7697SOL    HW123990   4.697   1.883   2.112
 7697SOL    HW223991   4.602   2.014   2.088
 7698SOL     OW23992   0.000   3.058   5.728
 7698SOL    HW123993   0.100   3.051   5.735
 7698SOL    HW223994   6.987   3.076   5.819
 7699SOL     OW23995   2.817   4.607   0.548
 7699SOL    HW123996   2.745   4.659   0.596
 7699SOL    HW223997   2.902   4.612   0.600
 7700SOL     OW23998   5.641   6.754   4.771
 7700SOL    HW123999   5.661   6.699   4.690
 7700SOL    HW224000   5.569   6.710   4.824
 7701SOL     OW24001   6.391   2.186   5.384
 7701SOL    HW124002   6.406   2.256   5.454
 7701SOL    HW224003   6.468   2.184   5.321
 7702SOL     OW24004   2.250   6.078   6.024
 7702SOL    HW124005   2.179   6.143   5.997
 7702SOL    HW224006   2.216   6.019   6.098
 7703SOL     OW24007   0.723   2.506   5.403
 7703SOL    HW124008   0.646   2.442   5.399
 7703SOL    HW224009   0.793   2.469   5.464
 7704SOL     OW24010   2.837   4.338   0.922
 7704SOL    HW124011   2.773   4.286   0.865
 7704SOL    HW224012   2.877   4.277   0.991
 7705SOL     OW24013   3.820   4.361   5.429
 7705SOL    HW124014   3.828   4.334   5.524
 7705SOL    HW224015   3.790   4.457   5.424
 7706SOL     OW24016   6.709   0.764   5.090
 7706SOL    HW124017   6.654   0.723   5.163
 7706SOL    HW224018   6.705   0.863   5.097
 7707SOL     OW24019   0.307   5.605   6.438
 7707SOL    HW124020   0.360   5.520   6.437
 7707SOL    HW224021   0.232   5.598   6.372
 7708SOL     OW24022   4.894   1.399   4.632
 7708SOL    HW124023   4.890   1.351   4.720
 7708SOL    HW224024   4.900   1.497   4.649
 7709SOL     OW24025   3.710   2.261   1.593
 7709SOL    HW124026   3.678   2.286   1.685
 7709SOL    HW224027   3.679   2.329   1.527
 7710SOL     OW24028   3.053   2.384   6.402
 7710SOL    HW124029   3.076   2.320   6.329
 7710SOL    HW224030   3.008   2.464   6.363
 7711SOL     OW24031   4.363   6.089   5.049
 7711SOL    HW124032   4.446   6.134   5.082
 7711SOL    HW224033   4.302   6.157   5.009
 7712SOL     OW24034   4.859   4.770   0.451
 7712SOL    HW124035   4.838   4.868   0.454
 7712SOL    HW224036   4.775   4.718   0.464
 7713SOL     OW24037   0.976   5.416   6.501
 7713SOL    HW124038   0.944   5.477   6.574
 7713SOL    HW224039   1.074   5.397   6.515
 7714SOL     OW24040   5.241   3.597   4.247
 7714SOL    HW124041   5.218   3.638   4.159
 7714SOL    HW224042   5.177   3.522   4.267
 7715SOL     OW24043   3.948   2.286   1.816
 7715SOL    HW124044   3.860   2.277   1.863
 7715SOL    HW224045   4.022   2.288   1.884
 7716SOL     OW24046   4.553   2.473   3.522
 7716SOL    HW124047   4.594   2.565   3.520
 7716SOL    HW224048   4.496   2.464   3.603
 7717SOL     OW24049   3.218   0.170   6.750
 7717SOL    HW124050   3.233   0.188   6.652
 7717SOL    HW224051   3.206   0.072   6.764
 7718SOL     OW24052   3.094   6.330   4.300
 7718SOL    HW124053   3.179   6.289   4.267
 7718SOL    HW224054   3.034   6.258   4.336
 7719SOL     OW24055   6.091   2.865   5.379
 7719SOL    HW124056   6.077   2.894   5.474
 7719SOL    HW224057   6.052   2.774   5.366
 7720SOL     OW24058   5.746   6.477   1.925
 7720SOL    HW124059   5.709   6.419   1.998
 7720SOL    HW224060   5.827   6.525   1.958
 7721SOL     OW24061   0.777   4.784   2.826
 7721SOL    HW124062   0.850   4.717   2.842
 7721SOL    HW224063   0.734   4.807   2.914
 7722SOL     OW24064   0.551   6.131   4.168
 7722SOL    HW124065   0.571   6.117   4.265
 7722SOL    HW224066   0.523   6.045   4.127
 7723SOL     OW24067   0.197   2.327   0.585
 7723SOL    HW124068   0.142   2.341   0.503
 7723SOL    HW224069   0.234   2.234   0.584
 7724SOL     OW24070   1.642   5.842   0.434
 7724SOL    HW124071   1.622   5.898   0.514
 7724SOL    HW224072   1.713   5.775   0.456
 7725SOL     OW24073   4.974   3.528   4.310
 7725SOL    HW124074   4.956   3.541   4.408
 7725SOL    HW224075   4.930   3.601   4.259
 7726SOL     OW24076   5.757   4.107   3.424
 7726SOL    HW124077   5.678   4.111   3.484
 7726SOL    HW224078   5.735   4.053   3.343
 7727SOL     OW24079   5.610   3.188   1.939
 7727SOL    HW124080   5.524   3.171   1.988
 7727SOL    HW224081   5.598   3.266   1.878
 7728SOL     OW24082   2.525   2.560   2.249
 7728SOL    HW124083   2.565   2.468   2.255
 7728SOL    HW224084   2.563   2.608   2.170
 7729SOL     OW24085   4.979   2.486   0.361
 7729SOL    HW124086   4.976   2.560   0.428
 7729SOL    HW224087   5.072   2.449   0.357
 7730SOL     OW24088   4.652   0.310   2.371
 7730SOL    HW124089   4.582   0.381   2.379
 7730SOL    HW224090   4.679   0.300   2.275
 7731SOL     OW24091   6.981   2.002   4.891
 7731SOL    HW124092   0.021   1.971   4.960
 7731SOL    HW224093   7.007   1.965   4.802
 7732SOL     OW24094   4.260   5.143   0.721
 7732SOL    HW124095   4.182   5.083   0.707
 7732SOL    HW224096   4.241   5.204   0.798
 7733SOL     OW24097   2.552   6.564   0.843
 7733SOL    HW124098   2.500   6.599   0.921
 7733SOL    HW224099   2.648   6.588   0.853
 7734SOL     OW24100   1.571   2.678   2.529
 7734SOL    HW124101   1.566   2.735   2.610
 7734SOL    HW224102   1.488   2.623   2.521
 7735SOL     OW24103   5.108   4.814   0.735
 7735SOL    HW124104   5.107   4.786   0.831
 7735SOL    HW224105   5.123   4.913   0.729
 7736SOL     OW24106   5.721   4.520   6.116
 7736SOL    HW124107   5.669   4.511   6.201
 7736SOL    HW224108   5.690   4.451   6.050
 7737SOL     OW24109   4.921   2.508   0.794
 7737SOL    HW124110   5.019   2.524   0.781
 7737SOL    HW224111   4.871   2.593   0.780
 7738SOL     OW24112   2.191   5.020   0.016
 7738SOL    HW124113   2.158   4.945   6.983
 7738SOL    HW224114   2.269   4.988   0.069
 7739SOL     OW24115   5.816   3.384   2.503
 7739SOL    HW124116   5.747   3.342   2.444
 7739SOL    HW224117   5.808   3.484   2.498
 7740SOL     OW24118   0.585   5.971   3.798
 7740SOL    HW124119   0.497   6.015   3.783
 7740SOL    HW224120   0.596   5.896   3.732
 7741SOL     OW24121   3.259   5.744   4.778
 7741SOL    HW124122   3.290   5.668   4.836
 7741SOL    HW224123   3.159   5.752   4.785
 7742SOL     OW24124   6.719   1.240   3.948
 7742SOL    HW124125   6.684   1.148   3.930
 7742SOL    HW224126   6.686   1.302   3.876
 7743SOL     OW24127   5.264   2.907   2.415
 7743SOL    HW124128   5.165   2.919   2.406
 7743SOL    HW224129   5.295   2.947   2.501
 7744SOL     OW24130   0.555   6.731   5.184
 7744SOL    HW124131   0.535   6.656   5.247
 7744SOL    HW224132   0.469   6.773   5.153
 7745SOL     OW24133   4.883   3.410   5.263
 7745SOL    HW124134   4.812   3.479   5.257
 7745SOL    HW224135   4.874   3.346   5.186
 7746SOL     OW24136   1.388   0.284   6.763
 7746SOL    HW124137   1.422   0.364   6.712
 7746SOL    HW224138   1.437   0.277   6.850
 7747SOL     OW24139   5.020   5.222   1.131
 7747SOL    HW124140   5.056   5.313   1.150
 7747SOL    HW224141   5.093   5.154   1.141
 7748SOL     OW24142   2.678   3.796   5.997
 7748SOL    HW124143   2.682   3.880   5.942
 7748SOL    HW224144   2.718   3.814   6.087
 7749SOL     OW24145   5.560   4.301   5.894
 7749SOL    HW124146   5.585   4.242   5.971
 7749SOL    HW224147   5.504   4.249   5.829
 7750SOL     OW24148   5.493   5.023   3.069
 7750SOL    HW124149   5.505   4.929   3.037
 7750SOL    HW224150   5.545   5.085   3.010
 7751SOL     OW24151   0.348   2.860   1.050
 7751SOL    HW124152   0.258   2.866   1.092
 7751SOL    HW224153   0.411   2.922   1.096
 7752SOL     OW24154   3.987   1.625   3.142
 7752SOL    HW124155   4.084   1.623   3.169
 7752SOL    HW224156   3.939   1.551   3.189
 7753SOL     OW24157   3.575   2.154   5.243
 7753SOL    HW124158   3.517   2.215   5.297
 7753SOL    HW224159   3.518   2.101   5.180
 7754SOL     OW24160   5.545   5.406   1.577
 7754SOL    HW124161   5.628   5.442   1.535
 7754SOL    HW224162   5.548   5.423   1.675
 7755SOL     OW24163   0.704   5.194   5.160
 7755SOL    HW124164   0.686   5.222   5.066
 7755SOL    HW224165   0.727   5.097   5.162
 7756SOL     OW24166   2.098   5.144   2.168
 7756SOL    HW124167   2.105   5.072   2.237
 7756SOL    HW224168   2.151   5.118   2.087
 7757SOL     OW24169   6.957   4.160   1.112
 7757SOL    HW124170   6.967   4.213   1.028
 7757SOL    HW224171   6.928   4.067   1.091
 7758SOL     OW24172   1.028   2.065   5.254
 7758SOL    HW124173   0.981   2.084   5.341
 7758SOL    HW224174   1.116   2.111   5.254
 7759SOL     OW24175   3.551   1.288   2.521
 7759SOL    HW124176   3.609   1.248   2.450
 7759SOL    HW224177   3.518   1.215   2.582
 7760SOL     OW24178   5.256   3.273   0.253
 7760SOL    HW124179   5.292   3.262   0.160
 7760SOL    HW224180   5.157   3.277   0.250
 7761SOL     OW24181   4.786   5.334   3.485
 7761SOL    HW124182   4.725   5.356   3.409
 7761SOL    HW224183   4.864   5.397   3.484
 7762SOL     OW24184   5.544   2.264   1.893
 7762SOL    HW124185   5.577   2.354   1.868
 7762SOL    HW224186   5.563   2.247   1.990
 7763SOL     OW24187   2.429   0.174   3.409
 7763SOL    HW124188   2.335   0.141   3.419
 7763SOL    HW224189   2.432   0.247   3.341
 7764SOL     OW24190   2.959   4.393   5.581
 7764SOL    HW124191   3.008   4.468   5.537
 7764SOL    HW224192   2.954   4.410   5.680
 7765SOL     OW24193   5.382   4.087   4.537
 7765SOL    HW124194   5.449   4.087   4.463
 7765SOL    HW224195   5.319   4.164   4.525
 7766SOL     OW24196   6.671   2.805   6.334
 7766SOL    HW124197   6.623   2.731   6.381
 7766SOL    HW224198   6.769   2.798   6.352
 7767SOL     OW24199   4.591   0.069   3.726
 7767SOL    HW124200   4.548   0.012   3.797
 7767SOL    HW224201   4.558   0.163   3.734
 7768SOL     OW24202   3.872   5.532   4.559
 7768SOL    HW124203   3.959   5.582   4.552
 7768SOL    HW224204   3.889   5.444   4.602
 7769SOL     OW24205   3.623   3.039   6.906
 7769SOL    HW124206   3.590   2.952   6.869
 7769SOL    HW224207   3.664   3.024   6.996
 7770SOL     OW24208   1.291   3.684   3.809
 7770SOL    HW124209   1.347   3.756   3.766
 7770SOL    HW224210   1.254   3.718   3.895
 7771SOL     OW24211   1.292   3.862   5.274
 7771SOL    HW124212   1.329   3.926   5.208
 7771SOL    HW224213   1.303   3.768   5.240
 7772SOL     OW24214   5.515   6.670   1.972
 7772SOL    HW124215   5.555   6.639   2.058
 7772SOL    HW224216   5.425   6.710   1.989
 7773SOL     OW24217   2.532   7.014   6.634
 7773SOL    HW124218   2.539   6.928   6.584
 7773SOL    HW224219   2.623   0.015   6.669
 7774SOL     OW24220   5.005   1.173   2.272
 7774SOL    HW124221   5.022   1.131   2.361
 7774SOL    HW224222   4.924   1.133   2.231
 7775SOL     OW24223   3.205   1.948   1.176
 7775SOL    HW124224   3.119   1.932   1.126
 7775SOL    HW224225   3.196   1.913   1.269
 7776SOL     OW24226   2.956   1.206   4.126
 7776SOL    HW124227   2.863   1.204   4.162
 7776SOL    HW224228   3.016   1.150   4.183
 7777SOL     OW24229   5.839   5.371   3.172
 7777SOL    HW124230   5.896   5.453   3.180
 7777SOL    HW224231   5.757   5.382   3.229
 7778SOL     OW24232   0.652   4.399   2.655
 7778SOL    HW124233   0.726   4.347   2.698
 7778SOL    HW224234   0.564   4.366   2.688
 7779SOL     OW24235   3.331   6.478   2.166
 7779SOL    HW124236   3.422   6.441   2.151
 7779SOL    HW224237   3.295   6.443   2.253
 7780SOL     OW24238   6.550   5.658   4.241
 7780SOL    HW124239   6.492   5.590   4.197
 7780SOL    HW224240   6.630   5.677   4.183
 7781SOL     OW24241   2.735   3.107   0.514
 7781SOL    HW124242   2.638   3.123   0.531
 7781SOL    HW224243   2.748   3.073   0.421
 7782SOL     OW24244   5.962   4.012   4.702
 7782SOL    HW124245   6.006   4.082   4.645
 7782SOL    HW224246   6.006   4.010   4.792
 7783SOL     OW24247   1.708   6.398   4.101
 7783SOL    HW124248   1.746   6.306   4.111
 7783SOL    HW224249   1.759   6.463   4.157
 7784SOL     OW24250   1.800   1.867   2.361
 7784SOL    HW124251   1.823   1.963   2.374
 7784SOL    HW224252   1.834   1.836   2.272
 7785SOL     OW24253   6.693   5.843   2.898
 7785SOL    HW124254   6.735   5.832   2.988
 7785SOL    HW224255   6.738   5.784   2.832
 7786SOL     OW24256   5.100   1.152   6.277
 7786SOL    HW124257   5.021   1.120   6.329
 7786SOL    HW224258   5.079   1.150   6.179
 7787SOL     OW24259   1.797   2.620   1.243
 7787SOL    HW124260   1.871   2.596   1.180
 7787SOL    HW224261   1.836   2.643   1.332
 7788SOL     OW24262   0.907   3.495   1.958
 7788SOL    HW124263   0.814   3.479   1.990
 7788SOL    HW224264   0.950   3.407   1.935
 7789SOL     OW24265   3.596   1.014   6.196
 7789SOL    HW124266   3.560   0.986   6.107
 7789SOL    HW224267   3.690   0.982   6.205
 7790SOL     OW24268   4.143   5.139   4.044
 7790SOL    HW124269   4.159   5.200   3.966
 7790SOL    HW224270   4.048   5.109   4.043
 7791SOL     OW24271   2.929   5.353   1.856
 7791SOL    HW124272   2.988   5.419   1.810
 7791SOL    HW224273   2.935   5.265   1.809
 7792SOL     OW24274   1.098   1.422   2.605
 7792SOL    HW124275   1.027   1.384   2.546
 7792SOL    HW224276   1.091   1.522   2.606
 7793SOL     OW24277   5.226   1.317   0.744
 7793SOL    HW124278   5.146   1.260   0.761
 7793SOL    HW224279   5.297   1.294   0.811
 7794SOL     OW24280   1.621   0.709   3.218
 7794SOL    HW124281   1.682   0.641   3.178
 7794SOL    HW224282   1.646   0.725   3.313
 7795SOL     OW24283   3.934   4.118   1.439
 7795SOL    HW124284   3.912   4.031   1.482
 7795SOL    HW224285   4.033   4.132   1.441
 7796SOL     OW24286   3.195   1.444   0.275
 7796SOL    HW124287   3.158   1.360   0.235
 7796SOL    HW224288   3.289   1.428   0.304
 7797SOL     OW24289   1.281   5.654   2.773
 7797SOL    HW124290   1.347   5.621   2.706
 7797SOL    HW224291   1.194   5.606   2.761
 7798SOL     OW24292   2.187   3.270   0.819
 7798SOL    HW124293   2.167   3.355   0.771
 7798SOL    HW224294   2.117   3.253   0.888
 7799SOL     OW24295   2.952   6.566   4.505
 7799SOL    HW124296   2.960   6.489   4.442
 7799SOL    HW224297   2.880   6.627   4.474
 7800SOL     OW24298   1.732   1.107   2.650
 7800SOL    HW124299   1.762   1.106   2.745
 7800SOL    HW224300   1.802   1.150   2.593
 7801SOL     OW24301   1.670   2.571   0.467
 7801SOL    HW124302   1.612   2.503   0.513
 7801SOL    HW224303   1.620   2.657   0.460
 7802SOL     OW24304   6.414   4.571   3.804
 7802SOL    HW124305   6.382   4.583   3.898
 7802SOL    HW224306   6.337   4.546   3.745
 7803SOL     OW24307   3.265   2.596   5.840
 7803SOL    HW124308   3.231   2.657   5.768
 7803SOL    HW224309   3.329   2.530   5.801
 7804SOL     OW24310   3.001   1.473   5.342
 7804SOL    HW124311   3.022   1.559   5.389
 7804SOL    HW224312   2.921   1.431   5.384
 7805SOL     OW24313   5.652   3.149   6.584
 7805SOL    HW124314   5.624   3.218   6.651
 7805SOL    HW224315   5.573   3.094   6.558
 7806SOL     OW24316   6.142   1.567   5.392
 7806SOL    HW124317   6.134   1.628   5.471
 7806SOL    HW224318   6.218   1.504   5.406
 7807SOL     OW24319   1.774   5.469   5.437
 7807SOL    HW124320   1.864   5.462   5.479
 7807SOL    HW224321   1.704   5.457   5.508
 7808SOL     OW24322   6.439   3.947   3.738
 7808SOL    HW124323   6.351   3.915   3.703
 7808SOL    HW224324   6.501   3.869   3.749
 7809SOL     OW24325   4.620   6.459   2.251
 7809SOL    HW124326   4.579   6.379   2.294
 7809SOL    HW224327   4.619   6.536   2.314
 7810SOL     OW24328   1.590   6.859   5.884
 7810SOL    HW124329   1.565   6.806   5.965
 7810SOL    HW224330   1.683   6.896   5.896
 7811SOL     OW24331   1.438   6.095   2.941
 7811SOL    HW124332   1.379   6.031   2.892
 7811SOL    HW224333   1.454   6.176   2.884
 7812SOL     OW24334   2.889   1.314   5.758
 7812SOL    HW124335   2.806   1.362   5.786
 7812SOL    HW224336   2.953   1.312   5.834
 7813SOL     OW24337   5.735   0.936   1.005
 7813SOL    HW124338   5.784   0.992   0.939
 7813SOL    HW224339   5.677   0.870   0.957
 7814SOL     OW24340   5.791   2.190   2.118
 7814SOL    HW124341   5.811   2.092   2.108
 7814SOL    HW224342   5.811   2.237   2.032
 7815SOL     OW24343   4.924   5.215   3.705
 7815SOL    HW124344   4.954   5.124   3.678
 7815SOL    HW224345   4.867   5.255   3.633
 7816SOL     OW24346   1.139   1.450   5.162
 7816SOL    HW124347   1.201   1.442   5.240
 7816SOL    HW224348   1.162   1.381   5.093
 7817SOL     OW24349   4.748   1.983   6.883
 7817SOL    HW124350   4.678   2.007   6.950
 7817SOL    HW224351   4.751   2.052   6.811
 7818SOL     OW24352   6.233   1.182   3.403
 7818SOL    HW124353   6.208   1.190   3.499
 7818SOL    HW224354   6.171   1.118   3.357
 7819SOL     OW24355   1.567   2.830   5.237
 7819SOL    HW124356   1.499   2.768   5.199
 7819SOL    HW224357   1.531   2.875   5.318
 7820SOL     OW24358   1.227   1.369   5.425
 7820SOL    HW124359   1.140   1.329   5.452
 7820SOL    HW224360   1.291   1.295   5.403
 7821SOL     OW24361   3.706   5.492   6.674
 7821SOL    HW124362   3.673   5.572   6.724
 7821SOL    HW224363   3.805   5.487   6.679
 7822SOL     OW24364   0.562   1.554   4.762
 7822SOL    HW124365   0.597   1.511   4.845
 7822SOL    HW224366   0.466   1.577   4.775
 7823SOL     OW24367   2.827   3.092   5.999
 7823SOL    HW124368   2.849   3.008   6.050
 7823SOL    HW224369   2.911   3.132   5.962
 7824SOL     OW24370   6.100   3.933   3.204
 7824SOL    HW124371   6.113   3.857   3.267
 7824SOL    HW224372   6.003   3.958   3.200
 7825SOL     OW24373   3.957   3.387   2.765
 7825SOL    HW124374   4.024   3.444   2.717
 7825SOL    HW224375   3.981   3.291   2.752
 7826SOL     OW24376   6.691   7.016   0.894
 7826SOL    HW124377   6.770   0.050   0.884
 7826SOL    HW224378   6.625   0.034   0.956
 7827SOL     OW24379   4.112   3.622   0.416
 7827SOL    HW124380   4.150   3.684   0.484
 7827SOL    HW224381   4.137   3.528   0.438
 7828SOL     OW24382   1.294   6.535   1.332
 7828SOL    HW124383   1.377   6.502   1.377
 7828SOL    HW224384   1.283   6.487   1.244
 7829SOL     OW24385   3.677   3.827   3.091
 7829SOL    HW124386   3.619   3.798   3.167
 7829SOL    HW224387   3.668   3.926   3.079
 7830SOL     OW24388   6.592   4.133   0.475
 7830SOL    HW124389   6.591   4.034   0.493
 7830SOL    HW224390   6.501   4.161   0.445
 7831SOL     OW24391   1.955   2.706   0.256
 7831SOL    HW124392   1.907   2.624   0.224
 7831SOL    HW224393   1.890   2.779   0.273
 7832SOL     OW24394   3.590   2.610   6.007
 7832SOL    HW124395   3.639   2.564   6.081
 7832SOL    HW224396   3.505   2.649   6.042
 7833SOL     OW24397   6.595   6.523   1.616
 7833SOL    HW124398   6.616   6.427   1.594
 7833SOL    HW224399   6.496   6.534   1.625
 7834SOL     OW24400   5.884   0.797   1.195
 7834SOL    HW124401   5.892   0.868   1.266
 7834SOL    HW224402   5.815   0.824   1.129
 7835SOL     OW24403   1.949   1.895   4.168
 7835SOL    HW124404   1.901   1.888   4.256
 7835SOL    HW224405   2.020   1.824   4.163
 7836SOL     OW24406   2.005   0.601   0.396
 7836SOL    HW124407   1.972   0.510   0.374
 7836SOL    HW224408   1.990   0.619   0.494
 7837SOL     OW24409   5.565   5.946   2.620
 7837SOL    HW124410   5.627   6.004   2.674
 7837SOL    HW224411   5.472   5.981   2.627
 7838SOL     OW24412   4.399   6.280   3.999
 7838SOL    HW124413   4.432   6.209   4.062
 7838SOL    HW224414   4.317   6.247   3.953
 7839SOL     OW24415   0.148   4.652   3.608
 7839SOL    HW124416   0.185   4.559   3.612
 7839SOL    HW224417   0.055   4.649   3.573
 7840SOL     OW24418   5.325   3.647   6.172
 7840SOL    HW124419   5.322   3.578   6.100
 7840SOL    HW224420   5.233   3.660   6.209
 7841SOL     OW24421   1.002   2.113   6.452
 7841SOL    HW124422   1.067   2.075   6.517
 7841SOL    HW224423   1.049   2.132   6.366
 7842SOL     OW24424   2.694   0.102   2.570
 7842SOL    HW124425   2.641   0.066   2.493
 7842SOL    HW224426   2.731   0.026   2.623
 7843SOL     OW24427   0.207   3.026   2.111
 7843SOL    HW124428   0.108   3.038   2.115
 7843SOL    HW224429   0.237   2.975   2.192
 7844SOL     OW24430   3.765   2.039   3.561
 7844SOL    HW124431   3.688   2.084   3.606
 7844SOL    HW224432   3.825   1.998   3.629
 7845SOL     OW24433   1.101   1.047   3.938
 7845SOL    HW124434   1.154   1.131   3.946
 7845SOL    HW224435   1.018   1.065   3.885
 7846SOL     OW24436   4.463   6.720   2.554
 7846SOL    HW124437   4.392   6.768   2.605
 7846SOL    HW224438   4.553   6.755   2.581
 7847SOL     OW24439   0.175   0.001   6.964
 7847SOL    HW124440   0.192   6.987   6.874
 7847SOL    HW224441   0.211   0.094   6.968
 7848SOL     OW24442   3.615   4.035   1.452
 7848SOL    HW124443   3.654   4.026   1.544
 7848SOL    HW224444   3.527   4.081   1.458
 7849SOL     OW24445   5.258   4.312   5.058
 7849SOL    HW124446   5.249   4.214   5.040
 7849SOL    HW224447   5.299   4.358   4.979
 7850SOL     OW24448   0.702   2.754   4.582
 7850SOL    HW124449   0.761   2.705   4.518
 7850SOL    HW224450   0.697   2.702   4.668
 7851SOL     OW24451   3.853   6.381   1.360
 7851SOL    HW124452   3.878   6.426   1.274
 7851SOL    HW224453   3.773   6.427   1.400
 7852SOL     OW24454   2.458   6.773   0.251
 7852SOL    HW124455   2.394   6.849   0.243
 7852SOL    HW224456   2.543   6.804   0.295
 7853SOL     OW24457   2.209   2.740   0.047
 7853SOL    HW124458   2.258   2.719   0.132
 7853SOL    HW224459   2.219   2.663   7.008
 7854SOL     OW24460   3.269   4.126   3.600
 7854SOL    HW124461   3.295   4.034   3.629
 7854SOL    HW224462   3.202   4.163   3.665
 7855SOL     OW24463   3.428   7.022   5.111
 7855SOL    HW124464   3.347   6.977   5.071
 7855SOL    HW224465   3.508   6.964   5.098
 7856SOL     OW24466   3.003   3.495   6.867
 7856SOL    HW124467   2.924   3.545   6.904
 7856SOL    HW224468   3.087   3.547   6.884
 7857SOL     OW24469   0.503   2.906   5.683
 7857SOL    HW124470   0.483   2.936   5.590
 7857SOL    HW224471   0.440   2.950   5.747
 7858SOL     OW24472   6.107   3.529   2.770
 7858SOL    HW124473   6.086   3.479   2.855
 7858SOL    HW224474   6.087   3.470   2.692
 7859SOL     OW24475   0.630   6.547   0.319
 7859SOL    HW124476   0.628   6.447   0.316
 7859SOL    HW224477   0.625   6.584   0.227
 7860SOL     OW24478   3.681   6.609   1.789
 7860SOL    HW124479   3.592   6.651   1.775
 7860SOL    HW224480   3.753   6.677   1.775
 7861SOL     OW24481   5.287   3.712   0.711
 7861SOL    HW124482   5.264   3.638   0.774
 7861SOL    HW224483   5.358   3.682   0.648
 7862SOL     OW24484   3.073   4.617   1.691
 7862SOL    HW124485   3.007   4.589   1.761
 7862SOL    HW224486   3.153   4.657   1.735
 7863SOL     OW24487   5.209   5.664   2.703
 7863SOL    HW124488   5.271   5.642   2.627
 7863SOL    HW224489   5.115   5.650   2.673
 7864SOL     OW24490   1.132   5.747   4.960
 7864SOL    HW124491   1.168   5.654   4.965
 7864SOL    HW224492   1.043   5.751   5.006
 7865SOL     OW24493   4.442   0.849   3.441
 7865SOL    HW124494   4.452   0.943   3.408
 7865SOL    HW224495   4.380   0.848   3.520
 7866SOL     OW24496   2.536   2.222   5.308
 7866SOL    HW124497   2.612   2.284   5.290
 7866SOL    HW224498   2.450   2.268   5.286
 7867SOL     OW24499   5.870   3.637   1.335
 7867SOL    HW124500   5.879   3.706   1.408
 7867SOL    HW224501   5.787   3.654   1.283
 7868SOL     OW24502   4.899   0.488   0.638
 7868SOL    HW124503   4.803   0.461   0.641
 7868SOL    HW224504   4.906   0.586   0.620
 7869SOL     OW24505   5.992   1.653   4.351
 7869SOL    HW124506   6.039   1.670   4.264
 7869SOL    HW224507   6.047   1.689   4.426
 7870SOL     OW24508   6.888   0.087   2.861
 7870SOL    HW124509   6.853   0.093   2.768
 7870SOL    HW224510   6.885   0.177   2.904
 7871SOL     OW24511   6.254   3.042   4.095
 7871SOL    HW124512   6.227   3.041   4.191
 7871SOL    HW224513   6.200   3.109   4.045
 7872SOL     OW24514   0.428   4.063   4.657
 7872SOL    HW124515   0.346   4.007   4.662
 7872SOL    HW224516   0.509   4.005   4.649
 7873SOL     OW24517   7.010   5.686   5.094
 7873SOL    HW124518   6.996   5.690   5.193
 7873SOL    HW224519   0.058   5.621   5.073
 7874SOL     OW24520   6.380   0.450   0.675
 7874SOL    HW124521   6.286   0.435   0.706
 7874SOL    HW224522   6.442   0.442   0.753
 7875SOL     OW24523   4.764   3.324   0.373
 7875SOL    HW124524   4.686   3.372   0.334
 7875SOL    HW224525   4.773   3.347   0.470
 7876SOL     OW24526   6.882   1.368   5.040
 7876SOL    HW124527   6.853   1.283   4.997
 7876SOL    HW224528   6.852   1.371   5.135
 7877SOL     OW24529   5.916   2.793   2.850
 7877SOL    HW124530   5.921   2.795   2.750
 7877SOL    HW224531   5.985   2.853   2.889
 7878SOL     OW24532   3.895   3.811   1.504
 7878SOL    HW124533   3.864   3.716   1.499
 7878SOL    HW224534   3.980   3.821   1.452
 7879SOL     OW24535   6.485   1.257   4.839
 7879SOL    HW124536   6.397   1.285   4.877
 7879SOL    HW224537   6.511   1.319   4.766
 7880SOL     OW24538   1.761   6.304   6.403
 7880SOL    HW124539   1.759   6.205   6.416
 7880SOL    HW224540   1.670   6.341   6.421
 7881SOL     OW24541   0.880   5.672   4.395
 7881SOL    HW124542   0.956   5.607   4.402
 7881SOL    HW224543   0.914   5.765   4.408
 7882SOL     OW24544   1.449   4.951   1.725
 7882SOL    HW124545   1.364   5.004   1.715
 7882SOL    HW224546   1.453   4.883   1.652
 7883SOL     OW24547   3.427   1.438   2.797
 7883SOL    HW124548   3.501   1.477   2.742
 7883SOL    HW224549   3.424   1.339   2.784
 7884SOL     OW24550   0.384   2.838   4.302
 7884SOL    HW124551   0.321   2.795   4.238
 7884SOL    HW224552   0.333   2.893   4.368
 7885SOL     OW24553   6.231   5.422   2.481
 7885SOL    HW124554   6.140   5.440   2.445
 7885SOL    HW224555   6.300   5.467   2.424
 7886SOL     OW24556   4.705   4.160   2.639
 7886SOL    HW124557   4.798   4.195   2.633
 7886SOL    HW224558   4.708   4.060   2.649
 7887SOL     OW24559   0.700   3.101   1.203
 7887SOL    HW124560   0.760   3.041   1.149
 7887SOL    HW224561   0.697   3.192   1.162
 7888SOL     OW24562   6.232   1.301   4.928
 7888SOL    HW124563   6.249   1.245   5.008
 7888SOL    HW224564   6.227   1.397   4.955
 7889SOL     OW24565   5.418   5.004   0.935
 7889SOL    HW124566   5.418   4.908   0.963
 7889SOL    HW224567   5.504   5.026   0.889
 7890SOL     OW24568   2.198   2.808   3.429
 7890SOL    HW124569   2.138   2.851   3.496
 7890SOL    HW224570   2.197   2.709   3.441
 7891SOL     OW24571   6.269   1.528   4.470
 7891SOL    HW124572   6.247   1.603   4.409
 7891SOL    HW224573   6.331   1.464   4.424
 7892SOL     OW24574   1.111   1.672   5.026
 7892SOL    HW124575   1.096   1.587   5.075
 7892SOL    HW224576   1.189   1.721   5.067
 7893SOL     OW24577   6.143   6.759   1.012
 7893SOL    HW124578   6.243   6.759   1.009
 7893SOL    HW224579   6.109   6.667   0.992
 7894SOL     OW24580   3.240   0.955   7.003
 7894SOL    HW124581   3.183   0.878   0.005
 7894SOL    HW224582   3.200   0.999   6.922
 7895SOL     OW24583   6.413   6.469   2.860
 7895SOL    HW124584   6.423   6.370   2.874
 7895SOL    HW224585   6.479   6.517   2.918
 7896SOL     OW24586   2.440   1.480   0.448
 7896SOL    HW124587   2.453   1.496   0.351
 7896SOL    HW224588   2.461   1.563   0.499
 7897SOL     OW24589   3.952   1.782   0.794
 7897SOL    HW124590   4.000   1.720   0.733
 7897SOL    HW224591   4.017   1.825   0.857
 7898SOL     OW24592   5.240   6.852   3.543
 7898SOL    HW124593   5.298   6.933   3.558
 7898SOL    HW224594   5.250   6.789   3.619
 7899SOL     OW24595   6.103   4.134   3.561
 7899SOL    HW124596   6.111   4.231   3.586
 7899SOL    HW224597   6.179   4.109   3.501
 7900SOL     OW24598   0.465   3.609   0.345
 7900SOL    HW124599   0.460   3.663   0.261
 7900SOL    HW224600   0.428   3.518   0.329
 7901SOL     OW24601   0.626   2.341   0.129
 7901SOL    HW124602   0.551   2.297   0.081
 7901SOL    HW224603   0.596   2.368   0.221
 7902SOL     OW24604   1.883   6.453   1.617
 7902SOL    HW124605   1.825   6.372   1.632
 7902SOL    HW224606   1.978   6.429   1.637
 7903SOL     OW24607   3.086   2.352   5.591
 7903SOL    HW124608   3.126   2.360   5.682
 7903SOL    HW224609   3.069   2.444   5.554
 7904SOL     OW24610   4.499   2.450   2.681
 7904SOL    HW124611   4.548   2.364   2.694
 7904SOL    HW224612   4.539   2.521   2.739
 7905SOL     OW24613   6.253   2.336   1.040
 7905SOL    HW124614   6.290   2.408   0.981
 7905SOL    HW224615   6.170   2.299   0.998
 7906SOL     OW24616   0.942   5.564   6.763
 7906SOL    HW124617   0.991   5.537   6.846
 7906SOL    HW224618   1.000   5.626   6.709
 7907SOL     OW24619   6.039   6.272   2.997
 7907SOL    HW124620   6.026   6.225   2.910
 7907SOL    HW224621   6.011   6.368   2.988
 7908SOL     OW24622   1.694   6.850   6.684
 7908SOL    HW124623   1.651   6.940   6.685
 7908SOL    HW224624   1.726   6.830   6.591
 7909SOL     OW24625   6.423   3.686   0.959
 7909SOL    HW124626   6.392   3.597   0.993
 7909SOL    HW224627   6.469   3.736   1.033
 7910SOL     OW24628   1.420   4.210   5.538
 7910SOL    HW124629   1.453   4.120   5.507
 7910SOL    HW224630   1.383   4.201   5.631
 7911SOL     OW24631   5.596   4.755   5.635
 7911SOL    HW124632   5.548   4.773   5.721
 7911SOL    HW224633   5.632   4.662   5.636
 7912SOL     OW24634   5.635   5.688   0.816
 7912SOL    HW124635   5.637   5.753   0.740
 7912SOL    HW224636   5.681   5.728   0.895
 7913SOL     OW24637   1.586   5.154   6.627
 7913SOL    HW124638   1.533   5.170   6.711
 7913SOL    HW224639   1.625   5.062   6.629
 7914SOL     OW24640   0.973   6.853   4.732
 7914SOL    HW124641   1.017   6.859   4.822
 7914SOL    HW224642   0.874   6.847   4.745
 7915SOL     OW24643   2.639   5.012   2.531
 7915SOL    HW124644   2.551   5.000   2.485
 7915SOL    HW224645   2.625   5.051   2.622
 7916SOL     OW24646   1.253   0.192   3.890
 7916SOL    HW124647   1.325   0.249   3.930
 7916SOL    HW224648   1.222   0.126   3.959
 7917SOL     OW24649   4.960   2.227   1.983
 7917SOL    HW124650   4.921   2.316   2.003
 7917SOL    HW224651   4.906   2.183   1.910
 7918SOL     OW24652   2.285   2.877   3.174
 7918SOL    HW124653   2.257   2.863   3.269
 7918SOL    HW224654   2.257   2.968   3.144
 7919SOL     OW24655   1.164   6.732   4.607
 7919SOL    HW124656   1.235   6.800   4.594
 7919SOL    HW224657   1.087   6.773   4.656
 7920SOL     OW24658   4.494   0.412   1.418
 7920SOL    HW124659   4.529   0.319   1.415
 7920SOL    HW224660   4.410   0.414   1.473
 7921SOL     OW24661   5.382   2.508   0.951
 7921SOL    HW124662   5.431   2.455   0.882
 7921SOL    HW224663   5.374   2.455   1.035
 7922SOL     OW24664   2.872   0.282   2.497
 7922SOL    HW124665   2.811   0.210   2.528
 7922SOL    HW224666   2.878   0.281   2.397
 7923SOL     OW24667   3.973   1.055   0.019
 7923SOL    HW124668   3.933   1.015   6.961
 7923SOL    HW224669   4.015   0.983   0.074
 7924SOL     OW24670   5.565   5.673   0.373
 7924SOL    HW124671   5.642   5.610   0.359
 7924SOL    HW224672   5.479   5.622   0.373
 7925SOL     OW24673   1.403   5.548   6.326
 7925SOL    HW124674   1.440   5.612   6.393
 7925SOL    HW224675   1.424   5.454   6.355
 7926SOL     OW24676   5.319   5.971   6.057
 7926SOL    HW124677   5.343   6.068   6.061
 7926SOL    HW224678   5.398   5.916   6.084
 7927SOL     OW24679   4.178   0.094   3.278
 7927SOL    HW124680   4.225   0.164   3.225
 7927SOL    HW224681   4.155   0.017   3.218
 7928SOL     OW24682   5.670   1.884   3.491
 7928SOL    HW124683   5.598   1.845   3.549
 7928SOL    HW224684   5.736   1.813   3.468
 7929SOL     OW24685   4.938   4.227   5.740
 7929SOL    HW124686   4.982   4.188   5.820
 7929SOL    HW224687   4.992   4.208   5.658
 7930SOL     OW24688   4.081   6.440   6.311
 7930SOL    HW124689   4.137   6.407   6.235
 7930SOL    HW224690   4.102   6.536   6.329
 7931SOL     OW24691   4.515   1.357   1.226
 7931SOL    HW124692   4.535   1.391   1.318
 7931SOL    HW224693   4.438   1.407   1.188
 7932SOL     OW24694   1.036   3.921   1.784
 7932SOL    HW124695   1.129   3.944   1.756
 7932SOL    HW224696   1.007   3.836   1.740
 7933SOL     OW24697   0.937   1.662   6.832
 7933SOL    HW124698   0.867   1.712   6.781
 7933SOL    HW224699   0.979   1.723   6.899
 7934SOL     OW24700   0.385   5.273   0.944
 7934SOL    HW124701   0.325   5.215   1.000
 7934SOL    HW224702   0.450   5.217   0.895
 7935SOL     OW24703   6.522   3.010   3.160
 7935SOL    HW124704   6.508   2.960   3.075
 7935SOL    HW224705   6.491   3.105   3.148
 7936SOL     OW24706   2.253   5.669   3.376
 7936SOL    HW124707   2.280   5.689   3.470
 7936SOL    HW224708   2.229   5.755   3.329
 7937SOL     OW24709   4.371   0.970   0.996
 7937SOL    HW124710   4.363   0.892   0.934
 7937SOL    HW224711   4.286   1.024   0.993
 7938SOL     OW24712   2.502   0.267   3.139
 7938SOL    HW124713   2.572   0.313   3.193
 7938SOL    HW224714   2.545   0.207   3.071
 7939SOL     OW24715   0.825   0.751   2.772
 7939SOL    HW124716   0.893   0.678   2.771
 7939SOL    HW224717   0.859   0.828   2.826
 7940SOL     OW24718   5.818   1.665   4.775
 7940SOL    HW124719   5.841   1.569   4.786
 7940SOL    HW224720   5.781   1.701   4.861
 7941SOL     OW24721   3.240   6.915   0.894
 7941SOL    HW124722   3.210   6.880   0.805
 7941SOL    HW224723   3.181   6.879   0.966
 7942SOL     OW24724   1.381   4.116   0.858
 7942SOL    HW124725   1.466   4.092   0.905
 7942SOL    HW224726   1.392   4.101   0.760
 7943SOL     OW24727   1.504   6.422   6.424
 7943SOL    HW124728   1.473   6.507   6.382
 7943SOL    HW224729   1.425   6.366   6.448
 7944SOL     OW24730   1.132   1.956   1.278
 7944SOL    HW124731   1.173   1.997   1.360
 7944SOL    HW224732   1.079   2.026   1.230
 7945SOL     OW24733   6.270   3.750   2.396
 7945SOL    HW124734   6.176   3.741   2.363
 7945SOL    HW224735   6.303   3.661   2.429
 7946SOL     OW24736   4.610   2.200   6.724
 7946SOL    HW124737   4.522   2.248   6.725
 7946SOL    HW224738   4.662   2.227   6.643
 7947SOL     OW24739   6.979   3.841   6.135
 7947SOL    HW124740   6.915   3.824   6.060
 7947SOL    HW224741   6.944   3.916   6.191
 7948SOL     OW24742   0.934   5.933   1.248
 7948SOL    HW124743   0.983   5.930   1.334
 7948SOL    HW224744   0.963   6.012   1.195
 7949SOL     OW24745   2.381   5.497   5.674
 7949SOL    HW124746   2.295   5.450   5.692
 7949SOL    HW224747   2.362   5.594   5.654
 7950SOL     OW24748   6.651   4.479   5.907
 7950SOL    HW124749   6.749   4.464   5.902
 7950SOL    HW224750   6.629   4.573   5.881
 7951SOL     OW24751   4.115   6.920   3.081
 7951SOL    HW124752   4.058   6.915   2.999
 7951SOL    HW224753   4.188   6.852   3.076
 7952SOL     OW24754   6.834   4.137   4.985
 7952SOL    HW124755   6.735   4.149   4.984
 7952SOL    HW224756   6.869   4.132   4.891
 7953SOL     OW24757   1.752   0.169   0.174
 7953SOL    HW124758   1.680   0.101   0.189
 7953SOL    HW224759   1.808   0.141   0.096
 7954SOL     OW24760   3.664   3.563   6.925
 7954SOL    HW124761   3.683   3.661   6.933
 7954SOL    HW224762   3.698   3.530   6.837
 7955SOL     OW24763   0.881   1.539   6.297
 7955SOL    HW124764   0.927   1.468   6.245
 7955SOL    HW224765   0.879   1.624   6.244
 7956SOL     OW24766   0.387   6.558   0.422
 7956SOL    HW124767   0.351   6.648   0.398
 7956SOL    HW224768   0.468   6.539   0.367
 7957SOL     OW24769   5.279   1.533   5.816
 7957SOL    HW124770   5.372   1.559   5.791
 7957SOL    HW224771   5.214   1.592   5.770
 7958SOL     OW24772   4.169   2.549   6.737
 7958SOL    HW124773   4.142   2.479   6.671
 7958SOL    HW224774   4.120   2.634   6.718
 7959SOL     OW24775   5.503   2.411   0.256
 7959SOL    HW124776   5.538   2.374   0.342
 7959SOL    HW224777   5.444   2.343   0.212
 7960SOL     OW24778   0.809   1.916   5.179
 7960SOL    HW124779   0.759   1.971   5.113
 7960SOL    HW224780   0.884   1.970   5.218
 7961SOL     OW24781   5.891   0.183   0.704
 7961SOL    HW124782   5.897   0.280   0.727
 7961SOL    HW224783   5.880   0.129   0.787
 7962SOL     OW24784   5.892   6.908   5.264
 7962SOL    HW124785   5.990   6.924   5.273
 7962SOL    HW224786   5.847   6.990   5.229
 7963SOL     OW24787   5.911   6.267   3.605
 7963SOL    HW124788   5.897   6.366   3.596
 7963SOL    HW224789   6.002   6.250   3.644
 7964SOL     OW24790   6.180   3.606   1.087
 7964SOL    HW124791   6.217   3.602   1.179
 7964SOL    HW224792   6.211   3.690   1.042
 7965SOL     OW24793   5.277   2.096   6.169
 7965SOL    HW124794   5.247   2.159   6.240
 7965SOL    HW224795   5.236   2.006   6.183
 7966SOL     OW24796   5.627   3.644   5.031
 7966SOL    HW124797   5.581   3.670   5.116
 7966SOL    HW224798   5.711   3.697   5.021
 7967SOL     OW24799   1.175   4.591   0.297
 7967SOL    HW124800   1.197   4.495   0.279
 7967SOL    HW224801   1.178   4.642   0.211
 7968SOL     OW24802   1.969   2.341   3.818
 7968SOL    HW124803   2.023   2.288   3.752
 7968SOL    HW224804   1.988   2.309   3.910
 7969SOL     OW24805   3.298   4.344   6.846
 7969SOL    HW124806   3.366   4.385   6.784
 7969SOL    HW224807   3.215   4.323   6.795
 7970SOL     OW24808   5.800   2.611   4.318
 7970SOL    HW124809   5.731   2.643   4.253
 7970SOL    HW224810   5.890   2.641   4.288
 7971SOL     OW24811   3.005   1.058   6.826
 7971SOL    HW124812   2.928   1.120   6.838
 7971SOL    HW224813   2.972   0.964   6.820
 7972SOL     OW24814   3.521   4.108   4.529
 7972SOL    HW124815   3.515   4.137   4.625
 7972SOL    HW224816   3.607   4.138   4.490
 7973SOL     OW24817   6.094   5.074   2.016
 7973SOL    HW124818   6.058   5.149   2.072
 7973SOL    HW224819   6.169   5.029   2.065
 7974SOL     OW24820   0.720   3.062   4.696
 7974SOL    HW124821   0.813   3.065   4.659
 7974SOL    HW224822   0.666   2.997   4.644
 7975SOL     OW24823   4.685   0.607   0.141
 7975SOL    HW124824   4.764   0.621   0.200
 7975SOL    HW224825   4.711   0.547   0.065
 7976SOL     OW24826   0.755   0.588   0.330
 7976SOL    HW124827   0.655   0.589   0.326
 7976SOL    HW224828   0.788   0.495   0.317
 7977SOL     OW24829   5.556   5.492   3.302
 7977SOL    HW124830   5.506   5.529   3.380
 7977SOL    HW224831   5.546   5.553   3.223
 7978SOL     OW24832   0.419   3.726   1.448
 7978SOL    HW124833   0.389   3.801   1.388
 7978SOL    HW224834   0.444   3.764   1.537
 7979SOL     OW24835   2.778   2.391   5.280
 7979SOL    HW124836   2.859   2.345   5.319
 7979SOL    HW224837   2.777   2.486   5.309
 7980SOL     OW24838   3.657   5.309   1.702
 7980SOL    HW124839   3.604   5.235   1.743
 7980SOL    HW224840   3.712   5.273   1.626
 7981SOL     OW24841   1.822   3.639   4.312
 7981SOL    HW124842   1.858   3.552   4.279
 7981SOL    HW224843   1.843   3.648   4.409
 7982SOL     OW24844   6.964   0.975   6.033
 7982SOL    HW124845   7.022   1.046   6.072
 7982SOL    HW224846   6.871   0.983   6.071
 7983SOL     OW24847   3.697   0.967   1.845
 7983SOL    HW124848   3.711   0.868   1.854
 7983SOL    HW224849   3.607   0.985   1.808
 7984SOL     OW24850   6.334   2.746   2.746
 7984SOL    HW124851   6.280   2.663   2.763
 7984SOL    HW224852   6.278   2.813   2.698
 7985SOL     OW24853   3.169   3.103   5.349
 7985SOL    HW124854   3.207   3.017   5.316
 7985SOL    HW224855   3.070   3.104   5.332
 7986SOL     OW24856   4.094   0.892   3.975
 7986SOL    HW124857   4.048   0.978   3.954
 7986SOL    HW224858   4.061   0.821   3.912
 7987SOL     OW24859   0.911   3.411   6.389
 7987SOL    HW124860   0.957   3.476   6.329
 7987SOL    HW224861   0.946   3.420   6.482
 7988SOL     OW24862   6.614   0.612   1.055
 7988SOL    HW124863   6.701   0.624   1.009
 7988SOL    HW224864   6.574   0.701   1.076
 7989SOL     OW24865   0.621   4.507   1.108
 7989SOL    HW124866   0.579   4.458   1.032
 7989SOL    HW224867   0.556   4.513   1.184
 7990SOL     OW24868   4.869   5.006   4.718
 7990SOL    HW124869   4.957   4.962   4.738
 7990SOL    HW224870   4.885   5.097   4.681
 7991SOL     OW24871   5.770   0.864   4.521
 7991SOL    HW124872   5.809   0.956   4.517
 7991SOL    HW224873   5.795   0.821   4.608
 7992SOL     OW24874   2.060   0.269   6.973
 7992SOL    HW124875   2.003   0.261   0.030
 7992SOL    HW224876   2.033   0.350   6.920
 7993SOL     OW24877   6.122   5.758   0.750
 7993SOL    HW124878   6.120   5.789   0.655
 7993SOL    HW224879   6.053   5.686   0.762
 7994SOL     OW24880   6.829   0.749   4.398
 7994SOL    HW124881   6.760   0.804   4.445
 7994SOL    HW224882   6.853   0.670   4.454
 7995SOL     OW24883   0.369   5.858   1.258
 7995SOL    HW124884   0.467   5.837   1.257
 7995SOL    HW224885   0.341   5.884   1.351
 7996SOL     OW24886   2.426   6.713   3.184
 7996SOL    HW124887   2.384   6.635   3.230
 7996SOL    HW224888   2.365   6.747   3.112
 7997SOL     OW24889   2.588   2.134   5.575
 7997SOL    HW124890   2.505   2.078   5.581
 7997SOL    HW224891   2.604   2.160   5.480
 7998SOL     OW24892   2.069   0.936   1.178
 7998SOL    HW124893   2.000   0.880   1.223
 7998SOL    HW224894   2.157   0.890   1.182
 7999SOL     OW24895   0.898   6.950   3.542
 7999SOL    HW124896   0.998   6.946   3.543
 7999SOL    HW224897   0.867   7.019   3.609
 8000SOL     OW24898   4.381   5.874   0.921
 8000SOL    HW124899   4.461   5.848   0.867
 8000SOL    HW224900   4.317   5.925   0.864
 8001SOL     OW24901   4.847   4.381   1.585
 8001SOL    HW124902   4.795   4.387   1.670
 8001SOL    HW224903   4.800   4.321   1.520
 8002SOL     OW24904   1.147   0.303   4.579
 8002SOL    HW124905   1.058   0.258   4.569
 8002SOL    HW224906   1.180   0.290   4.673
 8003SOL     OW24907   2.721   5.924   2.935
 8003SOL    HW124908   2.768   5.988   2.997
 8003SOL    HW224909   2.626   5.913   2.965
 8004SOL     OW24910   1.500   3.681   4.095
 8004SOL    HW124911   1.598   3.701   4.088
 8004SOL    HW224912   1.454   3.755   4.145
 8005SOL     OW24913   2.253   0.434   3.787
 8005SOL    HW124914   2.249   0.338   3.761
 8005SOL    HW224915   2.161   0.472   3.791
 8006SOL     OW24916   4.943   5.535   5.781
 8006SOL    HW124917   4.856   5.494   5.807
 8006SOL    HW224918   4.969   5.605   5.848
 8007SOL     OW24919   0.435   0.844   1.126
 8007SOL    HW124920   0.486   0.821   1.043
 8007SOL    HW224921   0.399   0.937   1.118
 8008SOL     OW24922   4.498   5.219   0.564
 8008SOL    HW124923   4.586   5.177   0.584
 8008SOL    HW224924   4.427   5.178   0.622
 8009SOL     OW24925   6.546   1.276   0.451
 8009SOL    HW124926   6.499   1.307   0.534
 8009SOL    HW224927   6.645   1.278   0.466
 8010SOL     OW24928   3.471   0.939   5.946
 8010SOL    HW124929   3.385   0.889   5.960
 8010SOL    HW224930   3.521   0.898   5.869
 8011SOL     OW24931   3.974   1.798   2.483
 8011SOL    HW124932   3.913   1.847   2.546
 8011SOL    HW224933   4.067   1.833   2.493
 8012SOL     OW24934   6.763   1.099   4.239
 8012SOL    HW124935   6.752   1.197   4.218
 8012SOL    HW224936   6.795   1.052   4.157
 8013SOL     OW24937   3.594   0.756   2.919
 8013SOL    HW124938   3.620   0.694   2.845
 8013SOL    HW224939   3.496   0.775   2.913
 8014SOL     OW24940   2.630   2.443   2.903
 8014SOL    HW124941   2.596   2.408   2.815
 8014SOL    HW224942   2.729   2.457   2.897
 8015SOL     OW24943   3.664   0.248   4.418
 8015SOL    HW124944   3.746   0.275   4.369
 8015SOL    HW224945   3.634   0.158   4.386
 8016SOL     OW24946   3.454   2.472   5.594
 8016SOL    HW124947   3.370   2.431   5.558
 8016SOL    HW224948   3.526   2.402   5.596
 8017SOL     OW24949   6.146   5.776   1.465
 8017SOL    HW124950   6.137   5.677   1.480
 8017SOL    HW224951   6.205   5.792   1.386
 8018SOL     OW24952   3.189   3.762   0.705
 8018SOL    HW124953   3.131   3.746   0.784
 8018SOL    HW224954   3.225   3.856   0.708
 8019SOL     OW24955   2.716   3.318   0.286
 8019SOL    HW124956   2.705   3.219   0.274
 8019SOL    HW224957   2.812   3.339   0.297
 8020SOL     OW24958   0.121   0.390   6.443
 8020SOL    HW124959   0.130   0.298   6.482
 8020SOL    HW224960   0.062   0.445   6.502
 8021SOL     OW24961   0.985   3.274   0.449
 8021SOL    HW124962   0.977   3.373   0.457
 8021SOL    HW224963   1.051   3.240   0.516
 8022SOL     OW24964   4.177   6.901   2.179
 8022SOL    HW124965   4.139   6.982   2.223
 8022SOL    HW224966   4.255   6.867   2.232
 8023SOL     OW24967   4.041   5.629   2.575
 8023SOL    HW124968   3.954   5.659   2.613
 8023SOL    HW224969   4.034   5.532   2.549
 8024SOL     OW24970   2.787   0.550   0.029
 8024SOL    HW124971   2.764   0.470   6.997
 8024SOL    HW224972   2.850   0.523   0.101
 8025SOL     OW24973   0.820   6.567   1.855
 8025SOL    HW124974   0.864   6.504   1.791
 8025SOL    HW224975   0.883   6.642   1.876
 8026SOL     OW24976   0.989   6.590   6.556
 8026SOL    HW124977   1.037   6.531   6.491
 8026SOL    HW224978   1.053   6.659   6.591
 8027SOL     OW24979   3.627   0.595   6.553
 8027SOL    HW124980   3.568   0.578   6.475
 8027SOL    HW224981   3.571   0.612   6.634
 8028SOL     OW24982   3.408   6.196   6.383
 8028SOL    HW124983   3.465   6.278   6.386
 8028SOL    HW224984   3.347   6.201   6.304
 8029SOL     OW24985   0.985   0.574   1.799
 8029SOL    HW124986   1.059   0.624   1.844
 8029SOL    HW224987   0.948   0.629   1.725
 8030SOL     OW24988   0.904   4.323   1.179
 8030SOL    HW124989   0.867   4.251   1.238
 8030SOL    HW224990   0.882   4.303   1.084
 8031SOL     OW24991   6.391   0.333   1.911
 8031SOL    HW124992   6.394   0.376   1.821
 8031SOL    HW224993   6.484   0.320   1.945
 8032SOL     OW24994   0.277   2.584   0.433
 8032SOL    HW124995   0.291   2.599   0.335
 8032SOL    HW224996   0.248   2.489   0.448
 8033SOL     OW24997   3.838   4.272   1.661
 8033SOL    HW124998   3.889   4.240   1.581
 8033SOL    HW224999   3.821   4.196   1.723
 8034SOL     OW25000   0.450   6.995   5.552
 8034SOL    HW125001   0.402   0.018   5.625
 8034SOL    HW225002   0.461   6.898   5.578
 8035SOL     OW25003   6.212   7.024   4.342
 8035SOL    HW125004   6.300   6.997   4.301
 8035SOL    HW225005   6.208   0.099   4.347
 8036SOL     OW25006   5.151   3.133   3.942
 8036SOL    HW125007   5.067   3.186   3.935
 8036SOL    HW225008   5.220   3.187   3.991
 8037SOL     OW25009   2.826   0.923   6.004
 8037SOL    HW125010   2.852   0.947   6.097
 8037SOL    HW225011   2.746   0.863   6.007
 8038SOL     OW25012   6.423   5.598   2.044
 8038SOL    HW125013   6.359   5.669   2.075
 8038SOL    HW225014   6.515   5.637   2.037
 8039SOL     OW25015   2.355   2.356   5.192
 8039SOL    HW125016   2.263   2.371   5.227
 8039SOL    HW225017   2.393   2.443   5.160
 8040SOL     OW25018   0.654   6.084   6.401
 8040SOL    HW125019   0.680   5.990   6.377
 8040SOL    HW225020   0.611   6.084   6.491
 8041SOL     OW25021   3.419   1.472   3.327
 8041SOL    HW125022   3.470   1.480   3.242
 8041SOL    HW225023   3.343   1.537   3.327
 8042SOL     OW25024   3.583   3.983   5.968
 8042SOL    HW125025   3.614   3.933   6.049
 8042SOL    HW225026   3.544   4.070   5.995
 8043SOL     OW25027   4.714   5.556   0.524
 8043SOL    HW125028   4.635   5.558   0.586
 8043SOL    HW225029   4.782   5.492   0.560
 8044SOL     OW25030   1.621   3.053   1.268
 8044SOL    HW125031   1.573   3.130   1.225
 8044SOL    HW225032   1.592   3.044   1.363
 8045SOL     OW25033   6.214   3.348   4.332
 8045SOL    HW125034   6.210   3.366   4.233
 8045SOL    HW225035   6.233   3.434   4.380
 8046SOL     OW25036   0.329   4.030   1.567
 8046SOL    HW125037   0.418   3.998   1.532
 8046SOL    HW225038   0.293   3.963   1.631
 8047SOL     OW25039   2.865   6.044   6.833
 8047SOL    HW125040   2.900   6.000   6.750
 8047SOL    HW225041   2.848   6.141   6.815
 8048SOL     OW25042   3.898   2.274   6.105
 8048SOL    HW125043   3.986   2.264   6.058
 8048SOL    HW225044   3.833   2.208   6.067
 8049SOL     OW25045   1.661   1.542   0.373
 8049SOL    HW125046   1.696   1.448   0.376
 8049SOL    HW225047   1.589   1.553   0.441
 8050SOL     OW25048   0.328   5.148   6.148
 8050SOL    HW125049   0.419   5.184   6.128
 8050SOL    HW225050   0.284   5.119   6.063
 8051SOL     OW25051   4.749   6.801   2.951
 8051SOL    HW125052   4.825   6.799   3.015
 8051SOL    HW225053   4.708   6.892   2.951
 8052SOL     OW25054   3.018   1.884   2.567
 8052SOL    HW125055   2.950   1.948   2.531
 8052SOL    HW225056   3.093   1.877   2.502
 8053SOL     OW25057   1.149   2.452   6.848
 8053SOL    HW125058   1.187   2.529   6.797
 8053SOL    HW225059   1.210   2.428   6.924
 8054SOL     OW25060   5.036   3.564   4.879
 8054SOL    HW125061   4.944   3.577   4.916
 8054SOL    HW225062   5.042   3.474   4.835
 8055SOL     OW25063   6.543   0.576   0.029
 8055SOL    HW125064   6.562   0.671   0.055
 8055SOL    HW225065   6.527   0.573   6.955
 8056SOL     OW25066   2.316   1.361   3.931
 8056SOL    HW125067   2.394   1.345   3.871
 8056SOL    HW225068   2.307   1.283   3.994
 8057SOL     OW25069   3.138   2.067   2.010
 8057SOL    HW125070   3.083   2.150   2.021
 8057SOL    HW225071   3.149   2.022   2.099
 8058SOL     OW25072   3.888   6.124   2.199
 8058SOL    HW125073   3.865   6.116   2.296
 8058SOL    HW225074   3.836   6.056   2.147
 8059SOL     OW25075   3.235   2.727   5.583
 8059SOL    HW125076   3.180   2.653   5.544
 8059SOL    HW225077   3.330   2.717   5.554
 8060SOL     OW25078   0.051   1.127   6.269
 8060SOL    HW125079   0.080   1.036   6.298
 8060SOL    HW225080   7.007   1.163   6.332
 8061SOL     OW25081   6.840   1.092   1.711
 8061SOL    HW125082   6.754   1.044   1.731
 8061SOL    HW225083   6.916   1.045   1.757
 8062SOL     OW25084   4.274   4.612   5.796
 8062SOL    HW125085   4.333   4.691   5.779
 8062SOL    HW225086   4.196   4.616   5.734
 8063SOL     OW25087   2.448   4.662   3.213
 8063SOL    HW125088   2.432   4.756   3.243
 8063SOL    HW225089   2.373   4.631   3.156
 8064SOL     OW25090   0.124   1.702   0.465
 8064SOL    HW125091   0.062   1.744   0.532
 8064SOL    HW225092   0.098   1.606   0.452
 8065SOL     OW25093   4.561   6.879   6.775
 8065SOL    HW125094   4.657   6.861   6.799
 8065SOL    HW225095   4.540   6.835   6.688
 8066SOL     OW25096   0.398   6.974   5.982
 8066SOL    HW125097   0.469   0.020   5.987
 8066SOL    HW225098   0.404   6.914   6.061
 8067SOL     OW25099   5.765   0.643   4.217
 8067SOL    HW125100   5.716   0.651   4.130
 8067SOL    HW225101   5.703   0.666   4.292
 8068SOL     OW25102   6.790   3.496   1.653
 8068SOL    HW125103   6.756   3.565   1.590
 8068SOL    HW225104   6.805   3.538   1.743
 8069SOL     OW25105   1.048   2.903   2.414
 8069SOL    HW125106   0.961   2.868   2.380
 8069SOL    HW225107   1.031   2.977   2.479
 8070SOL     OW25108   5.203   3.864   0.964
 8070SOL    HW125109   5.208   3.829   0.870
 8070SOL    HW225110   5.288   3.843   1.012
 8071SOL     OW25111   2.938   0.205   6.178
 8071SOL    HW125112   2.974   0.298   6.182
 8071SOL    HW225113   2.844   0.207   6.143
 8072SOL     OW25114   2.358   2.141   5.018
 8072SOL    HW125115   2.366   2.230   5.064
 8072SOL    HW225116   2.445   2.092   5.026
 8073SOL     OW25117   5.423   0.255   7.007
 8073SOL    HW125118   5.497   0.196   0.015
 8073SOL    HW225119   5.360   0.202   6.951
 8074SOL     OW25120   6.814   0.638   0.145
 8074SOL    HW125121   6.844   0.591   0.062
 8074SOL    HW225122   6.762   0.576   0.202
 8075SOL     OW25123   0.215   0.244   1.468
 8075SOL    HW125124   0.262   0.190   1.538
 8075SOL    HW225125   0.233   0.341   1.483
 8076SOL     OW25126   6.834   6.144   0.408
 8076SOL    HW125127   6.851   6.224   0.350
 8076SOL    HW225128   6.797   6.174   0.496
 8077SOL     OW25129   5.800   4.520   1.018
 8077SOL    HW125130   5.874   4.455   1.035
 8077SOL    HW225131   5.838   4.610   1.000
 8078SOL     OW25132   6.557   0.964   1.497
 8078SOL    HW125133   6.515   0.882   1.457
 8078SOL    HW225134   6.595   0.942   1.587
 8079SOL     OW25135   0.685   1.041   6.770
 8079SOL    HW125136   0.726   1.092   6.846
 8079SOL    HW225137   0.620   0.974   6.806
 8080SOL     OW25138   1.424   3.390   3.390
 8080SOL    HW125139   1.434   3.303   3.438
 8080SOL    HW225140   1.367   3.376   3.308
 8081SOL     OW25141   6.572   0.096   5.203
 8081SOL    HW125142   6.602   0.100   5.107
 8081SOL    HW225143   6.574   0.001   5.234
 8082SOL     OW25144   3.597   2.119   4.625
 8082SOL    HW125145   3.509   2.126   4.671
 8082SOL    HW225146   3.670   2.105   4.693
 8083SOL     OW25147   6.676   2.642   4.422
 8083SOL    HW125148   6.667   2.545   4.444
 8083SOL    HW225149   6.760   2.678   4.462
 8084SOL     OW25150   4.202   1.747   5.913
 8084SOL    HW125151   4.202   1.829   5.971
 8084SOL    HW225152   4.198   1.666   5.971
 8085SOL     OW25153   1.965   5.910   4.366
 8085SOL    HW125154   1.966   5.917   4.266
 8085SOL    HW225155   2.031   5.975   4.404
 8086SOL     OW25156   6.425   1.500   2.718
 8086SOL    HW125157   6.433   1.532   2.623
 8086SOL    HW225158   6.481   1.418   2.730
 8087SOL     OW25159   6.807   1.289   6.633
 8087SOL    HW125160   6.827   1.374   6.681
 8087SOL    HW225161   6.720   1.252   6.665
 8088SOL     OW25162   6.811   0.090   5.012
 8088SOL    HW125163   6.876   0.078   5.087
 8088SOL    HW225164   6.787   0.001   4.975
 8089SOL     OW25165   6.422   1.956   6.900
 8089SOL    HW125166   6.360   2.032   6.920
 8089SOL    HW225167   6.505   1.965   6.956
 8090SOL     OW25168   4.509   2.421   5.222
 8090SOL    HW125169   4.532   2.477   5.302
 8090SOL    HW225170   4.591   2.407   5.166
 8091SOL     OW25171   0.998   4.060   4.383
 8091SOL    HW125172   0.937   4.059   4.462
 8091SOL    HW225173   0.969   4.131   4.319
 8092SOL     OW25174   4.762   0.677   6.027
 8092SOL    HW125175   4.677   0.705   5.983
 8092SOL    HW225176   4.839   0.691   5.965
 8093SOL     OW25177   3.474   6.425   3.557
 8093SOL    HW125178   3.500   6.518   3.581
 8093SOL    HW225179   3.435   6.423   3.465
 8094SOL     OW25180   2.014   3.808   3.956
 8094SOL    HW125181   2.063   3.741   4.011
 8094SOL    HW225182   2.003   3.892   4.008
 8095SOL     OW25183   1.351   4.847   5.163
 8095SOL    HW125184   1.394   4.823   5.076
 8095SOL    HW225185   1.418   4.841   5.236
 8096SOL     OW25186   1.019   4.655   0.510
 8096SOL    HW125187   1.050   4.630   0.418
 8096SOL    HW225188   0.934   4.608   0.531
 8097SOL     OW25189   4.214   6.634   6.890
 8097SOL    HW125190   4.188   6.601   6.800
 8097SOL    HW225191   4.314   6.640   6.897
 8098SOL     OW25192   2.434   5.846   5.108
 8098SOL    HW125193   2.387   5.822   5.023
 8098SOL    HW225194   2.366   5.874   5.177
 8099SOL     OW25195   2.231   4.118   2.503
 8099SOL    HW125196   2.289   4.194   2.531
 8099SOL    HW225197   2.146   4.152   2.465
 8100SOL     OW25198   6.762   0.461   6.636
 8100SOL    HW125199   6.709   0.541   6.607
 8100SOL    HW225200   6.713   0.414   6.710
 8101SOL     OW25201   2.439   5.217   1.303
 8101SOL    HW125202   2.488   5.298   1.271
 8101SOL    HW225203   2.370   5.192   1.235
 8102SOL     OW25204   0.649   3.961   3.801
 8102SOL    HW125205   0.722   3.940   3.866
 8102SOL    HW225206   0.683   4.027   3.734
 8103SOL     OW25207   4.039   0.852   1.054
 8103SOL    HW125208   4.032   0.774   0.992
 8103SOL    HW225209   4.038   0.937   1.001
 8104SOL     OW25210   1.887   5.176   6.769
 8104SOL    HW125211   1.969   5.185   6.713
 8104SOL    HW225212   1.806   5.179   6.710
 8105SOL     OW25213   6.911   0.060   3.659
 8105SOL    HW125214   6.900   7.003   3.603
 8105SOL    HW225215   6.935   0.034   3.753
 8106SOL     OW25216   2.745   6.389   6.345
 8106SOL    HW125217   2.707   6.417   6.257
 8106SOL    HW225218   2.698   6.306   6.377
 8107SOL     OW25219   1.451   6.534   0.005
 8107SOL    HW125220   1.388   6.540   6.953
 8107SOL    HW225221   1.462   6.439   0.033
 8108SOL     OW25222   1.442   1.486   6.794
 8108SOL    HW125223   1.432   1.391   6.825
 8108SOL    HW225224   1.353   1.530   6.789
 8109SOL     OW25225   6.489   2.903   1.876
 8109SOL    HW125226   6.468   2.805   1.881
 8109SOL    HW225227   6.504   2.928   1.780
 8110SOL     OW25228   4.104   4.705   0.989
 8110SOL    HW125229   4.082   4.666   0.900
 8110SOL    HW225230   4.096   4.805   0.986
 8111SOL     OW25231   6.408   0.919   2.776
 8111SOL    HW125232   6.393   0.867   2.860
 8111SOL    HW225233   6.327   0.910   2.717
 8112SOL     OW25234   1.539   5.317   6.420
 8112SOL    HW125235   1.611   5.281   6.361
 8112SOL    HW225236   1.545   5.275   6.510
 8113SOL     OW25237   4.972   5.042   6.223
 8113SOL    HW125238   4.908   4.966   6.236
 8113SOL    HW225239   4.953   5.114   6.290
 8114SOL     OW25240   2.052   3.667   2.811
 8114SOL    HW125241   2.120   3.599   2.782
 8114SOL    HW225242   1.977   3.669   2.745
 8115SOL     OW25243   2.365   0.945   5.864
 8115SOL    HW125244   2.436   0.971   5.799
 8115SOL    HW225245   2.313   1.025   5.892
 8116SOL     OW25246   4.091   3.411   1.648
 8116SOL    HW125247   4.152   3.470   1.700
 8116SOL    HW225248   4.089   3.320   1.690
 8117SOL     OW25249   2.516   6.793   3.991
 8117SOL    HW125250   2.540   6.890   3.986
 8117SOL    HW225251   2.420   6.784   4.019
 8118SOL     OW25252   6.646   3.189   6.767
 8118SOL    HW125253   6.718   3.223   6.828
 8118SOL    HW225254   6.656   3.232   6.677
 8119SOL     OW25255   5.507   6.324   6.569
 8119SOL    HW125256   5.493   6.352   6.475
 8119SOL    HW225257   5.507   6.224   6.574
 8120SOL     OW25258   2.281   6.387   2.284
 8120SOL    HW125259   2.184   6.366   2.276
 8120SOL    HW225260   2.296   6.484   2.267
 8121SOL     OW25261   1.337   2.438   2.120
 8121SOL    HW125262   1.295   2.519   2.161
 8121SOL    HW225263   1.272   2.363   2.118
 8122SOL     OW25264   0.542   4.353   1.551
 8122SOL    HW125265   0.561   4.332   1.454
 8122SOL    HW225266   0.607   4.302   1.608
 8123SOL     OW25267   6.791   2.275   0.021
 8123SOL    HW125268   6.772   2.262   0.118
 8123SOL    HW225269   6.890   2.274   0.006
 8124SOL     OW25270   6.243   6.166   5.862
 8124SOL    HW125271   6.195   6.204   5.782
 8124SOL    HW225272   6.287   6.240   5.913
 8125SOL     OW25273   1.041   5.645   1.963
 8125SOL    HW125274   1.055   5.601   2.052
 8125SOL    HW225275   1.039   5.575   1.892
 8126SOL     OW25276   3.658   5.565   5.361
 8126SOL    HW125277   3.574   5.557   5.414
 8126SOL    HW225278   3.695   5.657   5.371
 8127SOL     OW25279   3.829   1.470   6.241
 8127SOL    HW125280   3.843   1.561   6.280
 8127SOL    HW225281   3.846   1.473   6.143
 8128SOL     OW25282   3.079   2.830   1.258
 8128SOL    HW125283   3.075   2.782   1.171
 8128SOL    HW225284   3.088   2.764   1.333
 8129SOL     OW25285   0.455   2.149   2.711
 8129SOL    HW125286   0.458   2.115   2.805
 8129SOL    HW225287   0.360   2.164   2.684
 8130SOL     OW25288   6.708   6.172   6.732
 8130SOL    HW125289   6.645   6.249   6.726
 8130SOL    HW225290   6.728   6.139   6.640
 8131SOL     OW25291   1.556   2.679   0.063
 8131SOL    HW125292   1.645   2.635   0.075
 8131SOL    HW225293   1.496   2.656   0.139
 8132SOL     OW25294   6.379   1.696   5.264
 8132SOL    HW125295   6.330   1.764   5.319
 8132SOL    HW225296   6.396   1.615   5.319
 8133SOL     OW25297   3.250   5.082   1.424
 8133SOL    HW125298   3.245   4.986   1.450
 8133SOL    HW225299   3.300   5.091   1.337
 8134SOL     OW25300   5.444   2.134   5.793
 8134SOL    HW125301   5.505   2.166   5.865
 8134SOL    HW225302   5.350   2.134   5.826
 8135SOL     OW25303   2.525   6.752   1.886
 8135SOL    HW125304   2.488   6.660   1.894
 8135SOL    HW225305   2.574   6.762   1.800
 8136SOL     OW25306   4.644   4.323   2.165
 8136SOL    HW125307   4.675   4.262   2.238
 8136SOL    HW225308   4.599   4.269   2.094
 8137SOL     OW25309   4.325   2.213   6.108
 8137SOL    HW125310   4.239   2.187   6.063
 8137SOL    HW225311   4.385   2.133   6.114
 8138SOL     OW25312   5.136   1.249   2.044
 8138SOL    HW125313   5.074   1.221   2.117
 8138SOL    HW225314   5.231   1.232   2.072
 8139SOL     OW25315   0.230   1.687   3.213
 8139SOL    HW125316   0.226   1.587   3.211
 8139SOL    HW225317   0.291   1.716   3.286
 8140SOL     OW25318   5.049   2.647   3.069
 8140SOL    HW125319   5.053   2.656   3.168
 8140SOL    HW225320   5.141   2.627   3.034
 8141SOL     OW25321   5.626   3.856   4.163
 8141SOL    HW125322   5.526   3.860   4.162
 8141SOL    HW225323   5.659   3.818   4.077
 8142SOL     OW25324   0.035   6.279   0.079
 8142SOL    HW125325   6.999   6.327   0.142
 8142SOL    HW225326   0.007   6.298   7.010
 8143SOL     OW25327   6.225   3.563   5.381
 8143SOL    HW125328   6.182   3.477   5.354
 8143SOL    HW225329   6.321   3.547   5.405
 8144SOL     OW25330   5.032   6.723   0.083
 8144SOL    HW125331   4.982   6.743   0.167
 8144SOL    HW225332   5.125   6.695   0.106
 8145SOL     OW25333   5.007   6.294   3.270
 8145SOL    HW125334   5.029   6.382   3.229
 8145SOL    HW225335   5.016   6.300   3.369
 8146SOL     OW25336   3.794   1.308   4.564
 8146SOL    HW125337   3.702   1.343   4.546
 8146SOL    HW225338   3.796   1.209   4.551
 8147SOL     OW25339   5.086   1.116   2.789
 8147SOL    HW125340   5.094   1.120   2.889
 8147SOL    HW225341   5.173   1.087   2.749
 8148SOL     OW25342   6.242   4.231   3.122
 8148SOL    HW125343   6.224   4.232   3.024
 8148SOL    HW225344   6.157   4.212   3.171
 8149SOL     OW25345   3.553   5.195   3.314
 8149SOL    HW125346   3.532   5.249   3.396
 8149SOL    HW225347   3.508   5.237   3.235
 8150SOL     OW25348   1.077   6.151   1.134
 8150SOL    HW125349   1.164   6.200   1.128
 8150SOL    HW225350   1.043   6.134   1.042
 8151SOL     OW25351   0.350   1.675   4.331
 8151SOL    HW125352   0.398   1.653   4.246
 8151SOL    HW225353   0.407   1.650   4.409
 8152SOL     OW25354   1.525   0.672   3.656
 8152SOL    HW125355   1.534   0.770   3.674
 8152SOL    HW225356   1.485   0.659   3.565
 8153SOL     OW25357   1.836   6.667   0.649
 8153SOL    HW125358   1.833   6.700   0.744
 8153SOL    HW225359   1.923   6.619   0.634
 8154SOL     OW25360   2.792   6.722   3.424
 8154SOL    HW125361   2.716   6.785   3.408
 8154SOL    HW225362   2.845   6.710   3.340
 8155SOL     OW25363   3.303   3.845   4.913
 8155SOL    HW125364   3.360   3.784   4.968
 8155SOL    HW225365   3.209   3.809   4.911
 8156SOL     OW25366   0.429   0.488   5.668
 8156SOL    HW125367   0.331   0.475   5.654
 8156SOL    HW225368   0.479   0.407   5.635
 8157SOL     OW25369   6.031   2.112   0.133
 8157SOL    HW125370   5.942   2.156   0.144
 8157SOL    HW225371   6.056   2.067   0.219
 8158SOL     OW25372   1.645   5.019   2.101
 8158SOL    HW125373   1.564   5.013   2.160
 8158SOL    HW225374   1.711   4.950   2.128
 8159SOL     OW25375   0.597   5.716   1.686
 8159SOL    HW125376   0.499   5.697   1.689
 8159SOL    HW225377   0.634   5.715   1.779
 8160SOL     OW25378   4.556   1.836   1.809
 8160SOL    HW125379   4.594   1.857   1.899
 8160SOL    HW225380   4.462   1.871   1.804
 8161SOL     OW25381   3.974   2.488   1.570
 8161SOL    HW125382   4.018   2.415   1.623
 8161SOL    HW225383   3.898   2.526   1.623
 8162SOL     OW25384   5.760   0.766   1.758
 8162SOL    HW125385   5.675   0.818   1.773
 8162SOL    HW225386   5.830   0.828   1.722
 8163SOL     OW25387   1.911   3.089   4.998
 8163SOL    HW125388   1.972   3.053   5.068
 8163SOL    HW225389   1.853   3.160   5.038
 8164SOL     OW25390   4.885   2.523   2.651
 8164SOL    HW125391   4.851   2.567   2.568
 8164SOL    HW225392   4.821   2.539   2.726
 8165SOL     OW25393   2.205   4.851   1.794
 8165SOL    HW125394   2.259   4.868   1.876
 8165SOL    HW225395   2.110   4.878   1.811
 8166SOL     OW25396   3.517   6.754   1.406
 8166SOL    HW125397   3.577   6.692   1.456
 8166SOL    HW225398   3.560   6.781   1.320
 8167SOL     OW25399   5.424   2.848   4.261
 8167SOL    HW125400   5.461   2.824   4.171
 8167SOL    HW225401   5.476   2.924   4.299
 8168SOL     OW25402   3.140   2.008   2.290
 8168SOL    HW125403   3.045   2.038   2.285
 8168SOL    HW225404   3.191   2.067   2.352
 8169SOL     OW25405   5.454   3.888   4.937
 8169SOL    HW125406   5.537   3.902   4.884
 8169SOL    HW225407   5.396   3.820   4.892
 8170SOL     OW25408   1.106   5.175   4.437
 8170SOL    HW125409   1.038   5.102   4.442
 8170SOL    HW225410   1.166   5.160   4.359
 8171SOL     OW25411   1.416   1.221   6.215
 8171SOL    HW125412   1.407   1.313   6.254
 8171SOL    HW225413   1.457   1.160   6.283
 8172SOL     OW25414   0.088   6.302   1.347
 8172SOL    HW125415   0.169   6.251   1.317
 8172SOL    HW225416   0.077   6.290   1.446
 8173SOL     OW25417   5.609   2.780   0.027
 8173SOL    HW125418   5.699   2.753   7.018
 8173SOL    HW225419   5.604   2.880   0.031
 8174SOL     OW25420   5.329   6.777   2.179
 8174SOL    HW125421   5.254   6.713   2.192
 8174SOL    HW225422   5.380   6.786   2.265
 8175SOL     OW25423   1.669   2.630   4.487
 8175SOL    HW125424   1.646   2.610   4.392
 8175SOL    HW225425   1.625   2.716   4.514
 8176SOL     OW25426   3.763   5.788   3.551
 8176SOL    HW125427   3.816   5.739   3.481
 8176SOL    HW225428   3.801   5.770   3.641
 8177SOL     OW25429   1.035   6.614   5.313
 8177SOL    HW125430   0.997   6.703   5.288
 8177SOL    HW225431   1.129   6.625   5.344
 8178SOL     OW25432   1.876   6.886   5.925
 8178SOL    HW125433   1.904   6.810   5.867
 8178SOL    HW225434   1.948   6.955   5.929
 8179SOL     OW25435   3.276   0.379   0.258
 8179SOL    HW125436   3.250   0.473   0.278
 8179SOL    HW225437   3.350   0.378   0.190
 8180SOL     OW25438   4.647   4.589   5.834
 8180SOL    HW125439   4.601   4.678   5.834
 8180SOL    HW225440   4.607   4.531   5.905
 8181SOL     OW25441   2.268   2.314   1.989
 8181SOL    HW125442   2.322   2.241   2.031
 8181SOL    HW225443   2.313   2.345   1.905
 8182SOL     OW25444   5.350   2.642   5.941
 8182SOL    HW125445   5.363   2.643   5.842
 8182SOL    HW225446   5.420   2.584   5.983
 8183SOL     OW25447   2.018   2.821   3.717
 8183SOL    HW125448   2.102   2.854   3.761
 8183SOL    HW225449   1.986   2.889   3.651
 8184SOL     OW25450   5.963   6.139   4.370
 8184SOL    HW125451   6.056   6.166   4.393
 8184SOL    HW225452   5.913   6.117   4.454
 8185SOL     OW25453   1.790   1.889   3.229
 8185SOL    HW125454   1.800   1.894   3.328
 8185SOL    HW225455   1.857   1.950   3.186
 8186SOL     OW25456   4.174   4.233   6.639
 8186SOL    HW125457   4.230   4.315   6.628
 8186SOL    HW225458   4.178   4.178   6.556
 8187SOL     OW25459   2.033   1.001   5.748
 8187SOL    HW125460   2.003   1.082   5.697
 8187SOL    HW225461   2.042   1.025   5.845
 8188SOL     OW25462   5.452   2.665   2.402
 8188SOL    HW125463   5.379   2.733   2.396
 8188SOL    HW225464   5.533   2.707   2.445
 8189SOL     OW25465   6.973   4.926   2.854
 8189SOL    HW125466   6.879   4.950   2.832
 8189SOL    HW225467   6.998   4.965   2.943
 8190SOL     OW25468   5.776   3.888   2.032
 8190SOL    HW125469   5.794   3.828   2.110
 8190SOL    HW225470   5.704   3.849   1.975
 8191SOL     OW25471   6.594   4.998   1.955
 8191SOL    HW125472   6.569   4.979   1.860
 8191SOL    HW225473   6.669   4.937   1.982
 8192SOL     OW25474   1.366   2.913   0.668
 8192SOL    HW125475   1.430   2.891   0.742
 8192SOL    HW225476   1.308   2.833   0.650
 8193SOL     OW25477   3.849   7.021   5.525
 8193SOL    HW125478   3.926   6.997   5.466
 8193SOL    HW225479   3.875   7.006   5.621
 8194SOL     OW25480   1.912   0.374   2.204
 8194SOL    HW125481   1.903   0.373   2.105
 8194SOL    HW225482   1.950   0.286   2.235
 8195SOL     OW25483   5.249   1.743   1.341
 8195SOL    HW125484   5.326   1.682   1.321
 8195SOL    HW225485   5.279   1.838   1.333
 8196SOL     OW25486   2.250   0.651   0.002
 8196SOL    HW125487   2.157   0.662   0.038
 8196SOL    HW225488   2.247   0.653   6.927
 8197SOL     OW25489   0.493   0.407   1.354
 8197SOL    HW125490   0.457   0.321   1.392
 8197SOL    HW225491   0.519   0.393   1.259
 8198SOL     OW25492   3.279   0.125   2.650
 8198SOL    HW125493   3.201   0.171   2.693
 8198SOL    HW225494   3.324   0.066   2.717
 8199SOL     OW25495   5.853   4.900   1.290
 8199SOL    HW125496   5.915   4.961   1.339
 8199SOL    HW225497   5.775   4.879   1.349
 8200SOL     OW25498   4.258   3.569   1.835
 8200SOL    HW125499   4.325   3.543   1.765
 8200SOL    HW225500   4.266   3.667   1.853
 8201SOL     OW25501   6.716   0.787   4.809
 8201SOL    HW125502   6.699   0.757   4.903
 8201SOL    HW225503   6.698   0.885   4.802
 8202SOL     OW25504   1.775   3.898   4.356
 8202SOL    HW125505   1.787   3.809   4.311
 8202SOL    HW225506   1.690   3.940   4.325
 8203SOL     OW25507   6.039   4.398   7.013
 8203SOL    HW125508   5.974   4.418   0.062
 8203SOL    HW225509   6.105   4.473   7.006
 8204SOL     OW25510   3.141   0.489   0.911
 8204SOL    HW125511   3.160   0.429   0.833
 8204SOL    HW225512   3.069   0.554   0.885
 8205SOL     OW25513   5.166   6.528   3.379
 8205SOL    HW125514   5.215   6.611   3.352
 8205SOL    HW225515   5.226   6.449   3.365
 8206SOL     OW25516   3.838   1.908   4.300
 8206SOL    HW125517   3.887   1.981   4.347
 8206SOL    HW225518   3.836   1.826   4.357
 8207SOL     OW25519   2.710   5.917   0.001
 8207SOL    HW125520   2.773   5.964   6.965
 8207SOL    HW225521   2.622   5.964   0.001
 8208SOL     OW25522   1.865   5.834   0.113
 8208SOL    HW125523   1.965   5.832   0.114
 8208SOL    HW225524   1.829   5.792   0.196
 8209SOL     OW25525   1.250   5.490   4.999
 8209SOL    HW125526   1.228   5.428   5.074
 8209SOL    HW225527   1.188   5.474   4.923
 8210SOL     OW25528   2.442   1.633   0.217
 8210SOL    HW125529   2.360   1.638   0.161
 8210SOL    HW225530   2.492   1.719   0.211
 8211SOL     OW25531   3.640   3.912   3.397
 8211SOL    HW125532   3.585   3.994   3.383
 8211SOL    HW225533   3.604   3.861   3.475
 8212SOL     OW25534   3.912   5.251   6.926
 8212SOL    HW125535   3.969   5.169   6.935
 8212SOL    HW225536   3.835   5.245   6.989
 8213SOL     OW25537   4.691   4.410   1.791
 8213SOL    HW125538   4.695   4.505   1.823
 8213SOL    HW225539   4.646   4.354   1.860
 8214SOL     OW25540   3.678   5.324   3.079
 8214SOL    HW125541   3.743   5.256   3.111
 8214SOL    HW225542   3.614   5.281   3.015
 8215SOL     OW25543   2.109   6.184   6.537
 8215SOL    HW125544   2.051   6.233   6.601
 8215SOL    HW225545   2.054   6.156   6.458
 8216SOL     OW25546   5.269   5.918   1.206
 8216SOL    HW125547   5.222   5.844   1.255
 8216SOL    HW225548   5.204   5.992   1.188
 8217SOL     OW25549   3.754   6.596   4.039
 8217SOL    HW125550   3.706   6.682   4.056
 8217SOL    HW225551   3.824   6.611   3.969
 8218SOL     OW25552   2.220   6.425   4.695
 8218SOL    HW125553   2.312   6.429   4.655
 8218SOL    HW225554   2.194   6.516   4.727
 8219SOL     OW25555   4.130   3.276   3.221
 8219SOL    HW125556   4.093   3.228   3.300
 8219SOL    HW225557   4.202   3.221   3.179
 8220SOL     OW25558   3.929   4.064   5.587
 8220SOL    HW125559   3.844   4.068   5.534
 8220SOL    HW225560   3.967   4.156   5.597
 8221SOL     OW25561   6.321   3.408   4.062
 8221SOL    HW125562   6.380   3.426   4.141
 8221SOL    HW225563   6.327   3.485   3.998
 8222SOL     OW25564   5.913   3.139   6.665
 8222SOL    HW125565   5.819   3.154   6.633
 8222SOL    HW225566   5.948   3.054   6.626
 8223SOL     OW25567   1.524   6.455   5.563
 8223SOL    HW125568   1.478   6.489   5.481
 8223SOL    HW225569   1.461   6.458   5.641
 8224SOL     OW25570   5.682   1.545   6.006
 8224SOL    HW125571   5.626   1.624   6.030
 8224SOL    HW225572   5.766   1.546   6.061
 8225SOL     OW25573   5.880   2.953   0.013
 8225SOL    HW125574   5.894   2.875   6.976
 8225SOL    HW225575   5.966   3.003   0.023
 8226SOL     OW25576   3.656   1.268   6.901
 8226SOL    HW125577   3.624   1.355   6.937
 8226SOL    HW225578   3.582   1.201   6.903
 8227SOL     OW25579   4.682   2.659   2.789
 8227SOL    HW125580   4.668   2.637   2.885
 8227SOL    HW225581   4.737   2.742   2.782
 8228SOL     OW25582   3.234   0.951   4.901
 8228SOL    HW125583   3.180   1.008   4.962
 8228SOL    HW225584   3.262   1.004   4.821
 8229SOL     OW25585   4.698   4.572   1.069
 8229SOL    HW125586   4.794   4.596   1.061
 8229SOL    HW225587   4.652   4.638   1.129
 8230SOL     OW25588   5.919   1.275   6.120
 8230SOL    HW125589   5.897   1.219   6.041
 8230SOL    HW225590   5.839   1.285   6.178
 8231SOL     OW25591   3.153   1.502   2.219
 8231SOL    HW125592   3.189   1.596   2.225
 8231SOL    HW225593   3.209   1.442   2.275
 8232SOL     OW25594   3.947   6.306   3.210
 8232SOL    HW125595   3.954   6.350   3.120
 8232SOL    HW225596   4.035   6.315   3.258
 8233SOL     OW25597   2.258   1.632   0.013
 8233SOL    HW125598   2.281   1.677   6.952
 8233SOL    HW225599   2.159   1.618   0.019
 8234SOL     OW25600   1.482   2.932   6.986
 8234SOL    HW125601   1.449   2.918   6.892
 8234SOL    HW225602   1.518   2.845   7.021
 8235SOL     OW25603   0.665   0.715   1.288
 8235SOL    HW125604   0.568   0.733   1.306
 8235SOL    HW225605   0.699   0.649   1.354
 8236SOL     OW25606   0.704   0.007   1.146
 8236SOL    HW125607   0.751   7.010   1.232
 8236SOL    HW225608   0.766   0.057   1.085
 8237SOL     OW25609   4.142   4.901   5.288
 8237SOL    HW125610   4.121   4.962   5.364
 8237SOL    HW225611   4.129   4.806   5.316
 8238SOL     OW25612   0.284   5.671   0.276
 8238SOL    HW125613   0.331   5.583   0.270
 8238SOL    HW225614   0.211   5.674   0.208
 8239SOL     OW25615   3.751   2.017   5.442
 8239SOL    HW125616   3.801   1.948   5.389
 8239SOL    HW225617   3.672   2.049   5.391
 8240SOL     OW25618   3.760   4.118   5.208
 8240SOL    HW125619   3.844   4.173   5.213
 8240SOL    HW225620   3.688   4.162   5.262
 8241SOL     OW25621   0.903   3.128   5.349
 8241SOL    HW125622   0.833   3.183   5.394
 8241SOL    HW225623   0.994   3.163   5.372
 8242SOL     OW25624   0.252   2.512   2.577
 8242SOL    HW125625   0.344   2.476   2.590
 8242SOL    HW225626   0.242   2.597   2.629
 8243SOL     OW25627   1.421   6.845   3.636
 8243SOL    HW125628   1.362   6.768   3.661
 8243SOL    HW225629   1.444   6.898   3.718
 8244SOL     OW25630   6.054   0.337   3.885
 8244SOL    HW125631   6.121   0.366   3.953
 8244SOL    HW225632   5.997   0.415   3.859
 8245SOL     OW25633   4.954   2.961   2.454
 8245SOL    HW125634   4.910   2.945   2.365
 8245SOL    HW225635   4.917   2.898   2.521
 8246SOL     OW25636   1.949   4.355   6.571
 8246SOL    HW125637   1.919   4.284   6.635
 8246SOL    HW225638   1.909   4.337   6.481
 8247SOL     OW25639   2.478   4.807   3.543
 8247SOL    HW125640   2.537   4.762   3.610
 8247SOL    HW225641   2.383   4.778   3.557
 8248SOL     OW25642   6.788   5.631   3.159
 8248SOL    HW125643   6.704   5.684   3.168
 8248SOL    HW225644   6.819   5.602   3.249
 8249SOL     OW25645   3.010   1.287   6.419
 8249SOL    HW125646   2.951   1.365   6.437
 8249SOL    HW225647   2.956   1.210   6.384
 8250SOL     OW25648   1.629   1.866   6.900
 8250SOL    HW125649   1.640   1.781   6.951
 8250SOL    HW225650   1.600   1.938   6.963
 8251SOL     OW25651   1.194   1.727   5.664
 8251SOL    HW125652   1.185   1.803   5.729
 8251SOL    HW225653   1.139   1.747   5.582
 8252SOL     OW25654   0.577   2.152   6.564
 8252SOL    HW125655   0.598   2.175   6.470
 8252SOL    HW225656   0.652   2.181   6.624
 8253SOL     OW25657   5.973   5.000   6.170
 8253SOL    HW125658   6.010   5.031   6.083
 8253SOL    HW225659   5.890   5.051   6.191
 8254SOL     OW25660   6.058   5.651   0.115
 8254SOL    HW125661   6.155   5.629   0.101
 8254SOL    HW225662   6.025   5.706   0.039
 8255SOL     OW25663   1.089   0.341   5.409
 8255SOL    HW125664   1.159   0.345   5.338
 8255SOL    HW225665   1.040   0.254   5.403
 8256SOL     OW25666   1.384   6.211   3.808
 8256SOL    HW125667   1.432   6.180   3.890
 8256SOL    HW225668   1.379   6.137   3.741
 8257SOL     OW25669   4.985   3.254   3.612
 8257SOL    HW125670   4.972   3.252   3.513
 8257SOL    HW225671   4.968   3.347   3.646
 8258SOL     OW25672   0.150   2.633   3.136
 8258SOL    HW125673   0.120   2.540   3.116
 8258SOL    HW225674   0.097   2.670   3.213
 8259SOL     OW25675   5.672   2.209   4.236
 8259SOL    HW125676   5.635   2.279   4.299
 8259SOL    HW225677   5.624   2.123   4.251
 8260SOL     OW25678   5.196   2.735   6.467
 8260SOL    HW125679   5.179   2.736   6.566
 8260SOL    HW225680   5.135   2.669   6.423
 8261SOL     OW25681   6.101   1.352   2.991
 8261SOL    HW125682   6.128   1.447   2.979
 8261SOL    HW225683   6.166   1.293   2.943
 8262SOL     OW25684   5.133   4.206   2.059
 8262SOL    HW125685   5.166   4.152   1.982
 8262SOL    HW225686   5.068   4.274   2.026
 8263SOL     OW25687   6.311   1.850   6.179
 8263SOL    HW125688   6.378   1.776   6.179
 8263SOL    HW225689   6.291   1.877   6.085
 8264SOL     OW25690   2.983   0.940   1.419
 8264SOL    HW125691   3.075   0.962   1.449
 8264SOL    HW225692   2.919   1.011   1.450
 8265SOL     OW25693   4.709   5.936   0.127
 8265SOL    HW125694   4.639   5.963   0.060
 8265SOL    HW225695   4.669   5.873   0.193
 8266SOL     OW25696   3.274   1.271   2.987
 8266SOL    HW125697   3.203   1.278   3.057
 8266SOL    HW225698   3.320   1.359   2.978
 8267SOL     OW25699   1.829   2.798   3.123
 8267SOL    HW125700   1.731   2.811   3.111
 8267SOL    HW225701   1.878   2.878   3.087
 8268SOL     OW25702   2.941   4.595   0.886
 8268SOL    HW125703   2.879   4.517   0.886
 8268SOL    HW225704   3.026   4.570   0.931
 8269SOL     OW25705   6.365   2.382   4.644
 8269SOL    HW125706   6.271   2.375   4.678
 8269SOL    HW225707   6.416   2.444   4.703
 8270SOL     OW25708   3.530   4.582   6.899
 8270SOL    HW125709   3.625   4.552   6.886
 8270SOL    HW225710   3.511   4.589   6.997
 8271SOL     OW25711   3.579   6.948   5.784
 8271SOL    HW125712   3.595   6.874   5.850
 8271SOL    HW225713   3.577   0.011   5.832
 8272SOL     OW25714   0.473   0.690   1.766
 8272SOL    HW125715   0.380   0.676   1.733
 8272SOL    HW225716   0.480   0.659   1.861
 8273SOL     OW25717   3.872   0.244   6.791
 8273SOL    HW125718   3.969   0.268   6.789
 8273SOL    HW225719   3.851   0.180   6.717
 8274SOL     OW25720   5.482   6.577   4.917
 8274SOL    HW125721   5.382   6.582   4.910
 8274SOL    HW225722   5.506   6.508   4.986
 8275SOL     OW25723   4.673   1.288   5.258
 8275SOL    HW125724   4.640   1.323   5.170
 8275SOL    HW225725   4.769   1.263   5.250
 8276SOL     OW25726   5.719   2.903   0.735
 8276SOL    HW125727   5.635   2.850   0.721
 8276SOL    HW225728   5.757   2.929   0.646
 8277SOL     OW25729   1.172   6.915   1.425
 8277SOL    HW125730   1.249   6.975   1.403
 8277SOL    HW225731   1.194   6.863   1.508
 8278SOL     OW25732   1.398   0.653   1.102
 8278SOL    HW125733   1.495   0.656   1.081
 8278SOL    HW225734   1.347   0.702   1.031
 8279SOL     OW25735   4.864   5.812   5.875
 8279SOL    HW125736   4.962   5.820   5.888
 8279SOL    HW225737   4.816   5.851   5.954
 8280SOL     OW25738   5.588   4.487   6.401
 8280SOL    HW125739   5.571   4.393   6.430
 8280SOL    HW225740   5.509   4.544   6.424
 8281SOL     OW25741   3.307   4.897   6.113
 8281SOL    HW125742   3.329   4.820   6.174
 8281SOL    HW225743   3.381   4.909   6.047
 8282SOL     OW25744   4.385   2.974   1.163
 8282SOL    HW125745   4.349   2.933   1.079
 8282SOL    HW225746   4.311   2.985   1.229
 8283SOL     OW25747   0.637   7.017   3.044
 8283SOL    HW125748   0.648   6.931   3.094
 8283SOL    HW225749   0.637   0.069   3.109
 8284SOL     OW25750   5.214   2.175   2.026
 8284SOL    HW125751   5.266   2.221   1.955
 8284SOL    HW225752   5.116   2.187   2.008
 8285SOL     OW25753   1.028   4.340   0.551
 8285SOL    HW125754   0.995   4.370   0.640
 8285SOL    HW225755   1.128   4.348   0.548
 8286SOL     OW25756   6.403   2.330   6.858
 8286SOL    HW125757   6.326   2.268   6.872
 8286SOL    HW225758   6.401   2.367   6.765
 8287SOL     OW25759   0.827   0.763   3.310
 8287SOL    HW125760   0.757   0.712   3.361
 8287SOL    HW225761   0.865   0.705   3.238
 8288SOL     OW25762   2.344   0.272   2.284
 8288SOL    HW125763   2.404   0.347   2.311
 8288SOL    HW225764   2.303   0.293   2.195
 8289SOL     OW25765   6.018   0.023   0.524
 8289SOL    HW125766   5.925   7.022   0.500
 8289SOL    HW225767   6.017   0.079   0.607
 8290SOL     OW25768   5.272   2.854   1.891
 8290SOL    HW125769   5.295   2.853   1.989
 8290SOL    HW225770   5.180   2.891   1.878
 8291SOL     OW25771   5.101   5.642   6.720
 8291SOL    HW125772   5.027   5.653   6.654
 8291SOL    HW225773   5.123   5.730   6.761
 8292SOL     OW25774   0.298   3.783   5.423
 8292SOL    HW125775   0.213   3.780   5.476
 8292SOL    HW225776   0.281   3.745   5.332
 8293SOL     OW25777   3.079   4.872   3.887
 8293SOL    HW125778   3.068   4.928   3.970
 8293SOL    HW225779   3.170   4.886   3.849
 8294SOL     OW25780   6.454   3.528   5.568
 8294SOL    HW125781   6.480   3.571   5.655
 8294SOL    HW225782   6.516   3.452   5.549
 8295SOL     OW25783   4.785   5.334   2.799
 8295SOL    HW125784   4.741   5.350   2.888
 8295SOL    HW225785   4.876   5.296   2.814
 8296SOL     OW25786   3.504   0.668   2.582
 8296SOL    HW125787   3.503   0.574   2.616
 8296SOL    HW225788   3.592   0.687   2.540
 8297SOL     OW25789   5.783   4.214   1.771
 8297SOL    HW125790   5.852   4.192   1.702
 8297SOL    HW225791   5.823   4.210   1.862
 8298SOL     OW25792   6.862   6.173   0.928
 8298SOL    HW125793   6.907   6.085   0.944
 8298SOL    HW225794   6.868   6.230   1.010
 8299SOL     OW25795   1.232   2.855   6.403
 8299SOL    HW125796   1.165   2.854   6.329
 8299SOL    HW225797   1.288   2.773   6.399
 8300SOL     OW25798   5.851   5.229   4.515
 8300SOL    HW125799   5.759   5.191   4.524
 8300SOL    HW225800   5.847   5.318   4.469
 8301SOL     OW25801   6.603   4.742   0.349
 8301SOL    HW125802   6.589   4.643   0.346
 8301SOL    HW225803   6.700   4.762   0.330
 8302SOL     OW25804   3.605   6.724   6.000
 8302SOL    HW125805   3.541   6.692   5.931
 8302SOL    HW225806   3.555   6.750   6.083
 8303SOL     OW25807   1.305   5.099   4.233
 8303SOL    HW125808   1.387   5.070   4.281
 8303SOL    HW225809   1.314   5.079   4.135
 8304SOL     OW25810   6.320   2.352   3.953
 8304SOL    HW125811   6.246   2.290   3.979
 8304SOL    HW225812   6.381   2.305   3.888
 8305SOL     OW25813   4.840   6.947   5.217
 8305SOL    HW125814   4.936   6.957   5.242
 8305SOL    HW225815   4.828   6.968   5.119
 8306SOL     OW25816   5.653   0.895   3.704
 8306SOL    HW125817   5.573   0.954   3.711
 8306SOL    HW225818   5.716   0.915   3.779
 8307SOL     OW25819   0.484   4.997   3.964
 8307SOL    HW125820   0.565   5.049   3.991
 8307SOL    HW225821   0.510   4.902   3.947
 8308SOL     OW25822   1.199   5.325   0.603
 8308SOL    HW125823   1.286   5.276   0.606
 8308SOL    HW225824   1.123   5.260   0.609
 8309SOL     OW25825   6.410   4.827   2.963
 8309SOL    HW125826   6.430   4.820   2.865
 8309SOL    HW225827   6.476   4.772   3.014
 8310SOL     OW25828   2.647   6.622   3.030
 8310SOL    HW125829   2.713   6.581   3.093
 8310SOL    HW225830   2.558   6.628   3.075
 8311SOL     OW25831   4.359   6.248   2.074
 8311SOL    HW125832   4.422   6.269   2.000
 8311SOL    HW225833   4.293   6.323   2.084
 8312SOL     OW25834   6.945   2.056   0.483
 8312SOL    HW125835   6.919   1.975   0.536
 8312SOL    HW225836   6.915   2.138   0.532
 8313SOL     OW25837   5.137   3.299   6.084
 8313SOL    HW125838   5.201   3.297   6.160
 8313SOL    HW225839   5.091   3.211   6.076
 8314SOL     OW25840   4.256   5.528   3.821
 8314SOL    HW125841   4.346   5.549   3.860
 8314SOL    HW225842   4.193   5.604   3.838
 8315SOL     OW25843   3.292   2.747   6.832
 8315SOL    HW125844   3.240   2.689   6.769
 8315SOL    HW225845   3.247   2.747   6.922
 8316SOL     OW25846   1.348   1.713   5.201
 8316SOL    HW125847   1.402   1.656   5.263
 8316SOL    HW225848   1.373   1.691   5.107
 8317SOL     OW25849   1.477   2.125   5.404
 8317SOL    HW125850   1.562   2.177   5.406
 8317SOL    HW225851   1.476   2.065   5.325
 8318SOL     OW25852   4.476   6.577   5.968
 8318SOL    HW125853   4.448   6.611   6.058
 8318SOL    HW225854   4.576   6.578   5.962
 8319SOL     OW25855   2.403   5.591   6.924
 8319SOL    HW125856   2.315   5.629   6.894
 8319SOL    HW225857   2.418   5.612   7.020
 8320SOL     OW25858   4.002   4.329   5.641
 8320SOL    HW125859   3.989   4.349   5.738
 8320SOL    HW225860   4.033   4.412   5.594
 8321SOL     OW25861   0.476   0.539   0.914
 8321SOL    HW125862   0.504   0.629   0.881
 8321SOL    HW225863   0.387   0.547   0.959
 8322SOL     OW25864   1.571   1.001   1.064
 8322SOL    HW125865   1.481   1.015   1.105
 8322SOL    HW225866   1.578   1.055   0.980
 8323SOL     OW25867   5.903   5.036   6.884
 8323SOL    HW125868   5.876   4.942   6.904
 8323SOL    HW225869   5.857   5.098   6.948
 8324SOL     OW25870   5.182   6.503   6.480
 8324SOL    HW125871   5.223   6.452   6.405
 8324SOL    HW225872   5.237   6.492   6.562
 8325SOL     OW25873   1.523   6.166   4.766
 8325SOL    HW125874   1.510   6.256   4.809
 8325SOL    HW225875   1.609   6.166   4.715
 8326SOL     OW25876   2.067   2.037   6.602
 8326SOL    HW125877   2.112   2.031   6.514
 8326SOL    HW225878   2.089   2.125   6.646
 8327SOL     OW25879   1.296   6.718   5.002
 8327SOL    HW125880   1.323   6.791   4.938
 8327SOL    HW225881   1.201   6.733   5.030
 8328SOL     OW25882   0.902   6.537   0.992
 8328SOL    HW125883   0.975   6.469   0.990
 8328SOL    HW225884   0.899   6.581   1.081
 8329SOL     OW25885   1.613   2.595   5.434
 8329SOL    HW125886   1.521   2.556   5.434
 8329SOL    HW225887   1.634   2.631   5.344
 8330SOL     OW25888   2.864   6.640   0.077
 8330SOL    HW125889   2.853   6.541   0.071
 8330SOL    HW225890   2.776   6.685   0.057
 8331SOL     OW25891   2.329   2.461   5.817
 8331SOL    HW125892   2.297   2.475   5.723
 8331SOL    HW225893   2.393   2.385   5.819
 8332SOL     OW25894   5.563   4.014   1.257
 8332SOL    HW125895   5.608   4.081   1.317
 8332SOL    HW225896   5.570   4.045   1.162
 8333SOL     OW25897   2.826   4.433   6.400
 8333SOL    HW125898   2.894   4.368   6.434
 8333SOL    HW225899   2.868   4.523   6.388
 8334SOL     OW25900   3.354   2.278   5.367
 8334SOL    HW125901   3.310   2.208   5.424
 8334SOL    HW225902   3.287   2.315   5.302
 8335SOL     OW25903   5.293   4.239   5.804
 8335SOL    HW125904   5.290   4.323   5.858
 8335SOL    HW225905   5.210   4.231   5.750
 8336SOL     OW25906   1.086   3.957   3.505
 8336SOL    HW125907   1.143   3.876   3.517
 8336SOL    HW225908   0.997   3.931   3.466
 8337SOL     OW25909   6.771   1.363   4.215
 8337SOL    HW125910   6.759   1.362   4.116
 8337SOL    HW225911   6.868   1.354   4.237
 8338SOL     OW25912   2.590   5.740   1.181
 8338SOL    HW125913   2.672   5.737   1.123
 8338SOL    HW225914   2.609   5.793   1.264
 8339SOL     OW25915   6.137   0.480   1.944
 8339SOL    HW125916   6.202   0.541   1.898
 8339SOL    HW225917   6.177   0.388   1.950
 8340SOL     OW25918   5.920   2.685   6.619
 8340SOL    HW125919   5.869   2.719   6.698
 8340SOL    HW225920   5.875   2.603   6.583
 8341SOL     OW25921   3.881   0.316   1.117
 8341SOL    HW125922   3.788   0.313   1.079
 8341SOL    HW225923   3.889   0.392   1.181
 8342SOL     OW25924   4.128   1.285   0.582
 8342SOL    HW125925   4.051   1.295   0.519
 8342SOL    HW225926   4.154   1.189   0.589
 8343SOL     OW25927   5.523   5.691   3.071
 8343SOL    HW125928   5.438   5.670   3.024
 8343SOL    HW225929   5.601   5.666   3.014
 8344SOL     OW25930   2.260   4.908   6.316
 8344SOL    HW125931   2.271   4.809   6.328
 8344SOL    HW225932   2.346   4.948   6.284
 8345SOL     OW25933   6.207   0.039   3.897
 8345SOL    HW125934   6.120   0.059   3.943
 8345SOL    HW225935   6.264   0.121   3.896
 8346SOL     OW25936   5.870   3.556   4.077
 8346SOL    HW125937   5.963   3.563   4.042
 8346SOL    HW225938   5.817   3.635   4.048
 8347SOL     OW25939   1.818   1.670   5.912
 8347SOL    HW125940   1.823   1.711   5.821
 8347SOL    HW225941   1.788   1.575   5.903
 8348SOL     OW25942   3.539   5.576   1.652
 8348SOL    HW125943   3.546   5.649   1.721
 8348SOL    HW225944   3.592   5.497   1.682
 8349SOL     OW25945   4.438   6.149   1.504
 8349SOL    HW125946   4.477   6.100   1.583
 8349SOL    HW225947   4.379   6.086   1.452
 8350SOL     OW25948   0.875   0.332   6.853
 8350SOL    HW125949   0.894   0.415   6.905
 8350SOL    HW225950   0.958   0.275   6.849
 8351SOL     OW25951   6.876   2.800   3.017
 8351SOL    HW125952   6.857   2.704   2.997
 8351SOL    HW225953   6.820   2.830   3.094
 8352SOL     OW25954   2.801   6.627   6.458
 8352SOL    HW125955   2.885   6.666   6.422
 8352SOL    HW225956   2.776   6.546   6.405
 8353SOL     OW25957   0.559   6.130   2.652
 8353SOL    HW125958   0.487   6.178   2.701
 8353SOL    HW225959   0.597   6.190   2.581
 8354SOL     OW25960   4.614   1.908   3.051
 8354SOL    HW125961   4.640   1.956   3.135
 8354SOL    HW225962   4.550   1.835   3.073
 8355SOL     OW25963   2.753   5.229   6.015
 8355SOL    HW125964   2.670   5.254   5.965
 8355SOL    HW225965   2.750   5.132   6.037
 8356SOL     OW25966   2.931   4.343   1.425
 8356SOL    HW125967   2.939   4.351   1.524
 8356SOL    HW225968   2.857   4.402   1.393
 8357SOL     OW25969   3.533   6.897   4.684
 8357SOL    HW125970   3.535   6.801   4.712
 8357SOL    HW225971   3.624   6.937   4.696
 8358SOL     OW25972   0.373   0.801   4.409
 8358SOL    HW125973   0.391   0.835   4.502
 8358SOL    HW225974   0.457   0.761   4.371
 8359SOL     OW25975   4.107   2.302   5.679
 8359SOL    HW125976   4.095   2.384   5.735
 8359SOL    HW225977   4.017   2.267   5.652
 8360SOL     OW25978   3.433   6.705   1.781
 8360SOL    HW125979   3.362   6.635   1.769
 8360SOL    HW225980   3.393   6.795   1.769
 8361SOL     OW25981   4.814   1.310   0.354
 8361SOL    HW125982   4.827   1.404   0.383
 8361SOL    HW225983   4.767   1.308   0.265
 8362SOL     OW25984   0.091   3.787   1.227
 8362SOL    HW125985   0.181   3.830   1.227
 8362SOL    HW225986   0.037   3.823   1.150
 8363SOL     OW25987   1.137   2.695   1.403
 8363SOL    HW125988   1.157   2.597   1.399
 8363SOL    HW225989   1.110   2.728   1.313
 8364SOL     OW25990   0.722   2.228   4.018
 8364SOL    HW125991   0.810   2.185   4.001
 8364SOL    HW225992   0.716   2.314   3.966
 8365SOL     OW25993   1.449   2.885   1.696
 8365SOL    HW125994   1.482   2.799   1.735
 8365SOL    HW225995   1.411   2.867   1.605
 8366SOL     OW25996   5.140   5.736   2.250
 8366SOL    HW125997   5.126   5.678   2.169
 8366SOL    HW225998   5.053   5.748   2.297
 8367SOL     OW25999   2.187   4.535   3.342
 8367SOL    HW126000   2.211   4.630   3.358
 8367SOL    HW226001   2.191   4.484   3.428
 8368SOL     OW26002   6.411   4.480   5.411
 8368SOL    HW126003   6.382   4.575   5.412
 8368SOL    HW226004   6.431   4.450   5.504
 8369SOL     OW26005   1.858   6.818   6.996
 8369SOL    HW126006   1.782   6.765   0.007
 8369SOL    HW226007   1.943   6.790   0.015
 8370SOL     OW26008   3.218   2.931   0.567
 8370SOL    HW126009   3.250   2.890   0.652
 8370SOL    HW226010   3.295   2.976   0.521
 8371SOL     OW26011   2.890   4.114   6.286
 8371SOL    HW126012   2.927   4.022   6.272
 8371SOL    HW226013   2.909   4.143   6.380
 8372SOL     OW26014   1.912   0.157   1.745
 8372SOL    HW126015   1.841   0.198   1.802
 8372SOL    HW226016   1.906   0.057   1.751
 8373SOL     OW26017   6.251   0.304   4.125
 8373SOL    HW126018   6.195   0.376   4.168
 8373SOL    HW226019   6.319   0.272   4.190
 8374SOL     OW26020   1.046   1.191   3.371
 8374SOL    HW126021   1.024   1.097   3.396
 8374SOL    HW226022   0.963   1.247   3.375
 8375SOL     OW26023   1.743   1.784   5.646
 8375SOL    HW126024   1.786   1.872   5.668
 8375SOL    HW226025   1.644   1.792   5.657
 8376SOL     OW26026   1.025   1.662   3.598
 8376SOL    HW126027   1.096   1.727   3.625
 8376SOL    HW226028   1.005   1.673   3.500
 8377SOL     OW26029   3.384   5.158   0.792
 8377SOL    HW126030   3.341   5.104   0.864
 8377SOL    HW226031   3.368   5.256   0.809
 8378SOL     OW26032   4.182   5.311   4.798
 8378SOL    HW126033   4.236   5.302   4.881
 8378SOL    HW226034   4.239   5.294   4.718
 8379SOL     OW26035   6.085   1.994   1.816
 8379SOL    HW126036   6.184   2.011   1.810
 8379SOL    HW226037   6.067   1.926   1.887
 8380SOL     OW26038   0.733   6.101   2.313
 8380SOL    HW126039   0.662   6.033   2.296
 8380SOL    HW226040   0.808   6.059   2.365
 8381SOL     OW26041   1.311   1.887   2.193
 8381SOL    HW126042   1.335   1.937   2.276
 8381SOL    HW226043   1.218   1.910   2.166
 8382SOL     OW26044   0.361   6.813   1.722
 8382SOL    HW126045   0.428   6.766   1.780
 8382SOL    HW226046   0.333   6.753   1.647
 8383SOL     OW26047   2.977   6.743   5.646
 8383SOL    HW126048   3.019   6.833   5.647
 8383SOL    HW226049   2.904   6.740   5.577
 8384SOL     OW26050   0.461   3.384   3.036
 8384SOL    HW126051   0.386   3.326   3.068
 8384SOL    HW226052   0.487   3.356   2.943
 8385SOL     OW26053   4.633   2.170   2.073
 8385SOL    HW126054   4.727   2.194   2.096
 8385SOL    HW226055   4.570   2.236   2.114
 8386SOL     OW26056   0.929   5.504   1.290
 8386SOL    HW126057   0.909   5.406   1.282
 8386SOL    HW226058   0.879   5.555   1.221
 8387SOL     OW26059   0.949   1.429   3.076
 8387SOL    HW126060   0.889   1.419   2.996
 8387SOL    HW226061   1.014   1.353   3.078
 8388SOL     OW26062   3.908   4.911   1.645
 8388SOL    HW126063   4.001   4.941   1.666
 8388SOL    HW226064   3.911   4.839   1.575
 8389SOL     OW26065   1.388   2.774   3.502
 8389SOL    HW126066   1.341   2.778   3.590
 8389SOL    HW226067   1.487   2.782   3.517
 8390SOL     OW26068   2.857   0.404   6.609
 8390SOL    HW126069   2.940   0.394   6.665
 8390SOL    HW226070   2.798   0.474   6.648
 8391SOL     OW26071   4.643   6.115   0.712
 8391SOL    HW126072   4.703   6.065   0.774
 8391SOL    HW226073   4.561   6.144   0.761
 8392SOL     OW26074   4.374   6.160   0.251
 8392SOL    HW126075   4.364   6.232   0.183
 8392SOL    HW226076   4.343   6.073   0.213
 8393SOL     OW26077   0.703   5.145   2.087
 8393SOL    HW126078   0.766   5.204   2.036
 8393SOL    HW226079   0.753   5.069   2.127
 8394SOL     OW26080   1.584   1.412   3.737
 8394SOL    HW126081   1.589   1.483   3.667
 8394SOL    HW226082   1.489   1.402   3.767
 8395SOL     OW26083   1.188   6.572   5.891
 8395SOL    HW126084   1.280   6.556   5.856
 8395SOL    HW226085   1.123   6.517   5.840
 8396SOL     OW26086   4.422   2.528   1.252
 8396SOL    HW126087   4.470   2.601   1.300
 8396SOL    HW226088   4.354   2.487   1.313
 8397SOL     OW26089   1.854   5.107   3.050
 8397SOL    HW126090   1.867   5.185   3.112
 8397SOL    HW226091   1.933   5.047   3.056
 8398SOL     OW26092   6.074   1.748   0.176
 8398SOL    HW126093   6.056   1.786   0.085
 8398SOL    HW226094   5.989   1.747   0.229
 8399SOL     OW26095   5.372   5.778   6.659
 8399SOL    HW126096   5.303   5.715   6.622
 8399SOL    HW226097   5.421   5.734   6.734
 8400SOL     OW26098   6.711   6.680   3.942
 8400SOL    HW126099   6.769   6.682   4.023
 8400SOL    HW226100   6.683   6.585   3.924
 8401SOL     OW26101   3.001   3.479   5.667
 8401SOL    HW126102   2.963   3.551   5.608
 8401SOL    HW226103   3.034   3.404   5.610
 8402SOL     OW26104   4.996   0.285   5.497
 8402SOL    HW126105   4.918   0.243   5.543
 8402SOL    HW226106   4.963   0.354   5.433
 8403SOL     OW26107   0.907   2.845   5.414
 8403SOL    HW126108   0.921   2.939   5.381
 8403SOL    HW226109   0.815   2.815   5.388
 8404SOL     OW26110   4.437   4.919   5.580
 8404SOL    HW126111   4.414   5.015   5.564
 8404SOL    HW226112   4.516   4.893   5.523
 8405SOL     OW26113   2.105   2.452   5.270
 8405SOL    HW126114   2.105   2.463   5.369
 8405SOL    HW226115   2.025   2.497   5.231
 8406SOL     OW26116   4.988   3.853   2.059
 8406SOL    HW126117   5.066   3.914   2.074
 8406SOL    HW226118   4.911   3.906   2.026
 8407SOL     OW26119   4.984   3.406   3.295
 8407SOL    HW126120   4.993   3.339   3.221
 8407SOL    HW226121   4.948   3.492   3.258
 8408SOL     OW26122   5.000   3.720   3.863
 8408SOL    HW126123   4.994   3.814   3.897
 8408SOL    HW226124   5.089   3.681   3.888
 8409SOL     OW26125   0.860   1.271   3.636
 8409SOL    HW126126   0.806   1.295   3.555
 8409SOL    HW226127   0.954   1.301   3.624
 8410SOL     OW26128   2.433   5.860   2.536
 8410SOL    HW126129   2.505   5.862   2.466
 8410SOL    HW226130   2.446   5.781   2.595
 8411SOL     OW26131   2.097   3.251   3.393
 8411SOL    HW126132   2.135   3.325   3.447
 8411SOL    HW226133   2.088   3.280   3.298
 8412SOL     OW26134   6.609   1.810   2.331
 8412SOL    HW126135   6.652   1.899   2.312
 8412SOL    HW226136   6.668   1.737   2.295
 8413SOL     OW26137   1.800   4.986   1.244
 8413SOL    HW126138   1.856   4.913   1.204
 8413SOL    HW226139   1.841   5.075   1.223
 8414SOL     OW26140   6.290   0.527   3.396
 8414SOL    HW126141   6.264   0.476   3.478
 8414SOL    HW226142   6.299   0.624   3.419
 8415SOL     OW26143   6.897   4.488   1.913
 8415SOL    HW126144   6.815   4.445   1.877
 8415SOL    HW226145   6.876   4.581   1.943
 8416SOL     OW26146   4.823   4.695   2.688
 8416SOL    HW126147   4.810   4.766   2.757
 8416SOL    HW226148   4.734   4.672   2.647
 8417SOL     OW26149   1.735   6.000   6.763
 8417SOL    HW126150   1.825   6.003   6.808
 8417SOL    HW226151   1.689   5.914   6.786
 8418SOL     OW26152   6.082   5.703   2.888
 8418SOL    HW126153   6.146   5.748   2.826
 8418SOL    HW226154   6.129   5.676   2.972
 8419SOL     OW26155   5.082   0.130   4.214
 8419SOL    HW126156   5.118   0.039   4.197
 8419SOL    HW226157   5.037   0.132   4.303
 8420SOL     OW26158   4.158   2.549   5.810
 8420SOL    HW126159   4.187   2.639   5.777
 8420SOL    HW226160   4.093   2.561   5.885
 8421SOL     OW26161   0.250   1.148   1.158
 8421SOL    HW126162   0.321   1.193   1.211
 8421SOL    HW226163   0.190   1.097   1.220
 8422SOL     OW26164   3.364   6.923   2.058
 8422SOL    HW126165   3.297   6.938   2.131
 8422SOL    HW226166   3.417   6.841   2.078
 8423SOL     OW26167   2.195   3.687   1.051
 8423SOL    HW126168   2.110   3.738   1.062
 8423SOL    HW226169   2.234   3.707   0.962
 8424SOL     OW26170   2.698   2.773   1.596
 8424SOL    HW126171   2.789   2.766   1.638
 8424SOL    HW226172   2.701   2.842   1.524
 8425SOL     OW26173   6.221   4.877   6.207
 8425SOL    HW126174   6.144   4.937   6.228
 8425SOL    HW226175   6.243   4.884   6.110
 8426SOL     OW26176   3.384   3.655   2.506
 8426SOL    HW126177   3.340   3.656   2.596
 8426SOL    HW226178   3.368   3.567   2.462
 8427SOL     OW26179   2.099   2.177   0.054
 8427SOL    HW126180   2.010   2.131   0.058
 8427SOL    HW226181   2.168   2.119   0.098
 8428SOL     OW26182   6.132   3.907   0.597
 8428SOL    HW126183   6.093   3.823   0.633
 8428SOL    HW226184   6.165   3.891   0.504
 8429SOL     OW26185   1.447   6.633   3.129
 8429SOL    HW126186   1.494   6.546   3.135
 8429SOL    HW226187   1.446   6.678   3.218
 8430SOL     OW26188   4.998   4.235   2.991
 8430SOL    HW126189   4.907   4.198   2.974
 8430SOL    HW226190   5.066   4.168   2.959
 8431SOL     OW26191   2.916   3.314   2.252
 8431SOL    HW126192   2.819   3.338   2.244
 8431SOL    HW226193   2.948   3.275   2.166
 8432SOL     OW26194   4.642   6.054   6.893
 8432SOL    HW126195   4.543   6.069   6.896
 8432SOL    HW226196   4.689   6.137   6.925
 8433SOL     OW26197   0.696   1.303   4.110
 8433SOL    HW126198   0.598   1.295   4.089
 8433SOL    HW226199   0.742   1.217   4.088
 8434SOL     OW26200   5.849   6.283   6.375
 8434SOL    HW126201   5.916   6.346   6.336
 8434SOL    HW226202   5.800   6.329   6.450
 8435SOL     OW26203   4.617   2.215   1.558
 8435SOL    HW126204   4.596   2.313   1.557
 8435SOL    HW226205   4.717   2.203   1.560
 8436SOL     OW26206   3.027   4.314   1.692
 8436SOL    HW126207   3.023   4.215   1.707
 8436SOL    HW226208   2.959   4.359   1.749
 8437SOL     OW26209   0.472   1.705   1.000
 8437SOL    HW126210   0.386   1.690   1.049
 8437SOL    HW226211   0.455   1.704   0.902
 8438SOL     OW26212   2.113   5.743   0.781
 8438SOL    HW126213   2.096   5.645   0.783
 8438SOL    HW226214   2.095   5.782   0.872
 8439SOL     OW26215   5.707   0.530   1.931
 8439SOL    HW126216   5.652   0.447   1.944
 8439SOL    HW226217   5.664   0.587   1.861
 8440SOL     OW26218   1.136   2.976   3.932
 8440SOL    HW126219   1.175   3.061   3.966
 8440SOL    HW226220   1.121   2.913   4.008
 8441SOL     OW26221   4.731   5.815   2.601
 8441SOL    HW126222   4.655   5.811   2.537
 8441SOL    HW226223   4.696   5.821   2.694
 8442SOL     OW26224   2.771   2.849   0.572
 8442SOL    HW126225   2.753   2.947   0.567
 8442SOL    HW226226   2.720   2.802   0.500
 8443SOL     OW26227   0.427   1.598   1.407
 8443SOL    HW126228   0.373   1.524   1.367
 8443SOL    HW226229   0.437   1.671   1.340
 8444SOL     OW26230   4.050   1.240   3.313
 8444SOL    HW126231   4.006   1.328   3.330
 8444SOL    HW226232   4.139   1.254   3.271
 8445SOL     OW26233   4.702   5.504   2.214
 8445SOL    HW126234   4.677   5.439   2.143
 8445SOL    HW226235   4.673   5.596   2.188
 8446SOL     OW26236   0.040   3.015   2.994
 8446SOL    HW126237   0.013   2.922   2.968
 8446SOL    HW226238   7.013   3.081   2.939
 8447SOL     OW26239   4.562   3.804   1.133
 8447SOL    HW126240   4.475   3.828   1.090
 8447SOL    HW226241   4.544   3.758   1.220
 8448SOL     OW26242   1.906   3.436   5.731
 8448SOL    HW126243   1.850   3.403   5.656
 8448SOL    HW226244   1.866   3.410   5.819
 8449SOL     OW26245   0.851   0.949   4.896
 8449SOL    HW126246   0.803   1.008   4.961
 8449SOL    HW226247   0.843   0.853   4.925
 8450SOL     OW26248   1.774   5.595   1.311
 8450SOL    HW126249   1.729   5.646   1.238
 8450SOL    HW226250   1.728   5.507   1.323
 8451SOL     OW26251   3.260   3.247   0.928
 8451SOL    HW126252   3.324   3.208   0.863
 8451SOL    HW226253   3.171   3.261   0.884
 8452SOL     OW26254   0.239   5.492   1.426
 8452SOL    HW126255   0.183   5.562   1.383
 8452SOL    HW226256   0.325   5.534   1.458
 8453SOL     OW26257   6.409   5.473   5.348
 8453SOL    HW126258   6.402   5.523   5.262
 8453SOL    HW226259   6.506   5.457   5.368
 8454SOL     OW26260   2.373   6.831   4.793
 8454SOL    HW126261   2.398   6.865   4.883
 8454SOL    HW226262   2.324   6.903   4.743
 8455SOL     OW26263   6.197   2.564   0.826
 8455SOL    HW126264   6.109   2.538   0.865
 8455SOL    HW226265   6.245   2.625   0.889
 8456SOL     OW26266   5.072   4.932   3.722
 8456SOL    HW126267   5.027   4.949   3.634
 8456SOL    HW226268   5.026   4.856   3.768
 8457SOL     OW26269   6.686   6.030   6.009
 8457SOL    HW126270   6.659   5.937   6.030
 8457SOL    HW226271   6.689   6.043   5.910
 8458SOL     OW26272   1.633   2.324   1.032
 8458SOL    HW126273   1.706   2.272   1.076
 8458SOL    HW226274   1.547   2.275   1.042
 8459SOL     OW26275   2.531   5.069   3.608
 8459SOL    HW126276   2.530   4.974   3.577
 8459SOL    HW226277   2.558   5.129   3.532
 8460SOL     OW26278   4.212   1.398   1.276
 8460SOL    HW126279   4.221   1.488   1.233
 8460SOL    HW226280   4.164   1.337   1.214
 8461SOL     OW26281   5.157   3.796   3.245
 8461SOL    HW126282   5.117   3.887   3.238
 8461SOL    HW226283   5.196   3.769   3.157
 8462SOL     OW26284   1.666   3.848   0.782
 8462SOL    HW126285   1.602   3.871   0.855
 8462SOL    HW226286   1.749   3.809   0.822
 8463SOL     OW26287   6.869   0.322   1.035
 8463SOL    HW126288   6.832   0.297   1.125
 8463SOL    HW226289   6.849   0.249   0.970
 8464SOL     OW26290   6.206   3.521   6.342
 8464SOL    HW126291   6.237   3.540   6.249
 8464SOL    HW226292   6.163   3.603   6.380
 8465SOL     OW26293   4.974   3.670   0.920
 8465SOL    HW126294   5.001   3.581   0.885
 8465SOL    HW226295   5.055   3.723   0.944
 8466SOL     OW26296   0.421   1.470   5.481
 8466SOL    HW126297   0.473   1.438   5.560
 8466SOL    HW226298   0.396   1.392   5.423
 8467SOL     OW26299   3.007   1.356   0.522
 8467SOL    HW126300   3.036   1.271   0.566
 8467SOL    HW226301   3.060   1.370   0.438
 8468SOL     OW26302   5.436   4.471   0.502
 8468SOL    HW126303   5.400   4.378   0.513
 8468SOL    HW226304   5.369   4.537   0.536
 8469SOL     OW26305   3.857   2.927   5.525
 8469SOL    HW126306   3.784   2.885   5.579
 8469SOL    HW226307   3.939   2.934   5.582
 8470SOL     OW26308   1.108   5.853   1.464
 8470SOL    HW126309   1.016   5.858   1.503
 8470SOL    HW226310   1.147   5.763   1.482
 8471SOL     OW26311   4.439   1.931   4.651
 8471SOL    HW126312   4.343   1.959   4.658
 8471SOL    HW226313   4.448   1.835   4.676
 8472SOL     OW26314   5.431   1.987   6.741
 8472SOL    HW126315   5.449   1.894   6.775
 8472SOL    HW226316   5.344   2.019   6.777
 8473SOL     OW26317   5.095   5.048   5.926
 8473SOL    HW126318   5.060   5.135   5.961
 8473SOL    HW226319   5.174   5.020   5.981
 8474SOL     OW26320   2.837   4.049   5.324
 8474SOL    HW126321   2.866   4.139   5.356
 8474SOL    HW226322   2.738   4.049   5.309
 8475SOL     OW26323   6.765   1.564   3.042
 8475SOL    HW126324   6.696   1.636   3.035
 8475SOL    HW226325   6.732   1.492   3.102
 8476SOL     OW26326   6.084   1.483   1.697
 8476SOL    HW126327   6.183   1.477   1.688
 8476SOL    HW226328   6.042   1.464   1.608
 8477SOL     OW26329   5.815   0.926   1.468
 8477SOL    HW126330   5.880   0.918   1.544
 8477SOL    HW226331   5.722   0.910   1.502
 8478SOL     OW26332   0.514   6.429   5.659
 8478SOL    HW126333   0.455   6.355   5.627
 8478SOL    HW226334   0.548   6.481   5.580
 8479SOL     OW26335   1.014   2.784   0.377
 8479SOL    HW126336   1.006   2.726   0.296
 8479SOL    HW226337   0.952   2.862   0.369
 8480SOL     OW26338   3.636   4.512   0.723
 8480SOL    HW126339   3.643   4.429   0.778
 8480SOL    HW226340   3.546   4.552   0.735
 8481SOL     OW26341   4.288   2.265   2.499
 8481SOL    HW126342   4.349   2.312   2.563
 8481SOL    HW226343   4.202   2.316   2.490
 8482SOL     OW26344   4.270   0.804   6.543
 8482SOL    HW126345   4.245   0.900   6.533
 8482SOL    HW226346   4.356   0.787   6.495
 8483SOL     OW26347   4.070   4.750   3.514
 8483SOL    HW126348   4.110   4.839   3.491
 8483SOL    HW226349   4.111   4.680   3.456
 8484SOL     OW26350   5.877   6.129   5.414
 8484SOL    HW126351   5.873   6.062   5.340
 8484SOL    HW226352   5.839   6.216   5.383
 8485SOL     OW26353   4.186   1.265   6.111
 8485SOL    HW126354   4.193   1.353   6.063
 8485SOL    HW226355   4.271   1.246   6.160
 8486SOL     OW26356   5.932   2.436   5.203
 8486SOL    HW126357   5.837   2.410   5.190
 8486SOL    HW226358   5.991   2.378   5.146
 8487SOL     OW26359   6.674   2.627   5.881
 8487SOL    HW126360   6.623   2.709   5.855
 8487SOL    HW226361   6.761   2.625   5.832
 8488SOL     OW26362   4.578   4.395   2.661
 8488SOL    HW126363   4.624   4.468   2.611
 8488SOL    HW226364   4.597   4.307   2.617
 8489SOL     OW26365   5.959   1.916   2.365
 8489SOL    HW126366   6.050   1.948   2.337
 8489SOL    HW226367   5.896   1.993   2.367
 8490SOL     OW26368   3.032   6.659   0.348
 8490SOL    HW126369   3.050   6.748   0.390
 8490SOL    HW226370   2.951   6.666   0.289
 8491SOL     OW26371   3.112   5.582   2.323
 8491SOL    HW126372   3.028   5.541   2.360
 8491SOL    HW226373   3.178   5.509   2.304
 8492SOL     OW26374   6.364   5.787   3.964
 8492SOL    HW126375   6.409   5.712   3.917
 8492SOL    HW226376   6.432   5.843   4.011
 8493SOL     OW26377   4.987   1.098   6.026
 8493SOL    HW126378   5.069   1.084   5.971
 8493SOL    HW226379   4.912   1.042   5.989
 8494SOL     OW26380   6.985   3.053   2.233
 8494SOL    HW126381   6.939   3.132   2.274
 8494SOL    HW226382   7.012   2.990   2.306
 8495SOL     OW26383   5.824   5.741   6.300
 8495SOL    HW126384   5.829   5.840   6.315
 8495SOL    HW226385   5.743   5.704   6.345
 8496SOL     OW26386   5.452   1.900   2.486
 8496SOL    HW126387   5.369   1.860   2.526
 8496SOL    HW226388   5.435   1.926   2.391
 8497SOL     OW26389   6.965   0.403   2.669
 8497SOL    HW126390   0.002   0.344   2.723
 8497SOL    HW226391   7.004   0.416   2.578
 8498SOL     OW26392   5.040   6.231   4.276
 8498SOL    HW126393   4.970   6.175   4.320
 8498SOL    HW226394   5.065   6.192   4.188
 8499SOL     OW26395   5.760   6.954   5.515
 8499SOL    HW126396   5.797   6.938   5.423
 8499SOL    HW226397   5.836   6.972   5.578
 8500SOL     OW26398   0.943   0.554   6.985
 8500SOL    HW126399   0.875   0.615   0.001
 8500SOL    HW226400   1.008   0.526   0.031
 8501SOL     OW26401   2.581   1.048   6.128
 8501SOL    HW126402   2.576   0.961   6.080
 8501SOL    HW226403   2.662   1.098   6.097
 8502SOL     OW26404   6.155   3.028   6.918
 8502SOL    HW126405   6.184   2.993   6.829
 8502SOL    HW226406   6.222   3.096   6.950
 8503SOL     OW26407   4.574   2.537   5.462
 8503SOL    HW126408   4.637   2.614   5.473
 8503SOL    HW226409   4.480   2.569   5.474
 8504SOL     OW26410   1.072   0.041   2.322
 8504SOL    HW126411   1.048   0.093   2.403
 8504SOL    HW226412   1.143   6.999   2.346
 8505SOL     OW26413   5.484   2.060   2.862
 8505SOL    HW126414   5.541   2.106   2.794
 8505SOL    HW226415   5.404   2.021   2.817
 8506SOL     OW26416   1.200   6.794   6.063
 8506SOL    HW126417   1.202   6.718   5.998
 8506SOL    HW226418   1.113   6.792   6.113
 8507SOL     OW26419   3.882   5.461   5.718
 8507SOL    HW126420   3.908   5.402   5.794
 8507SOL    HW226421   3.797   5.509   5.740
 8508SOL     OW26422   3.182   0.887   6.417
 8508SOL    HW126423   3.261   0.942   6.390
 8508SOL    HW226424   3.187   0.867   6.515
 8509SOL     OW26425   5.186   2.345   2.495
 8509SOL    HW126426   5.136   2.268   2.455
 8509SOL    HW226427   5.194   2.418   2.427
 8510SOL     OW26428   0.526   2.083   4.637
 8510SOL    HW126429   0.473   2.148   4.583
 8510SOL    HW226430   0.533   1.996   4.588
 8511SOL     OW26431   5.981   1.756   3.814
 8511SOL    HW126432   6.076   1.787   3.821
 8511SOL    HW226433   5.920   1.834   3.828
 8512SOL     OW26434   2.005   6.068   5.700
 8512SOL    HW126435   1.965   6.119   5.624
 8512SOL    HW226436   1.964   6.098   5.786
 8513SOL     OW26437   4.821   5.854   6.789
 8513SOL    HW126438   4.885   5.857   6.866
 8513SOL    HW226439   4.742   5.913   6.809
 8514SOL     OW26440   3.589   5.544   4.172
 8514SOL    HW126441   3.518   5.500   4.116
 8514SOL    HW226442   3.565   5.536   4.269
 8515SOL     OW26443   6.089   2.242   1.960
 8515SOL    HW126444   6.184   2.267   1.982
 8515SOL    HW226445   6.090   2.165   1.897
 8516SOL     OW26446   6.682   1.491   2.361
 8516SOL    HW126447   6.764   1.530   2.321
 8516SOL    HW226448   6.644   1.422   2.299
 8517SOL     OW26449   1.197   3.590   5.264
 8517SOL    HW126450   1.099   3.610   5.265
 8517SOL    HW226451   1.239   3.634   5.185
 8518SOL     OW26452   2.855   5.970   0.995
 8518SOL    HW126453   2.819   5.879   1.016
 8518SOL    HW226454   2.882   5.973   0.898
 8519SOL     OW26455   2.772   5.904   3.467
 8519SOL    HW126456   2.774   5.806   3.489
 8519SOL    HW226457   2.866   5.937   3.455
 8520SOL     OW26458   3.286   6.295   6.856
 8520SOL    HW126459   3.192   6.287   6.822
 8520SOL    HW226460   3.349   6.297   6.778
 8521SOL     OW26461   2.055   0.160   2.279
 8521SOL    HW126462   2.031   0.063   2.277
 8521SOL    HW226463   2.151   0.171   2.304
 8522SOL     OW26464   2.517   6.615   4.710
 8522SOL    HW126465   2.426   6.652   4.728
 8522SOL    HW226466   2.534   6.537   4.771
 8523SOL     OW26467   1.706   6.627   6.843
 8523SOL    HW126468   1.705   6.709   6.786
 8523SOL    HW226469   1.636   6.634   6.914
 8524SOL     OW26470   1.916   1.499   6.971
 8524SOL    HW126471   1.984   1.430   6.996
 8524SOL    HW226472   1.947   1.548   6.889
 8525SOL     OW26473   6.084   3.466   3.644
 8525SOL    HW126474   6.084   3.543   3.707
 8525SOL    HW226475   5.999   3.415   3.653
 8526SOL     OW26476   1.704   3.390   2.041
 8526SOL    HW126477   1.623   3.418   1.990
 8526SOL    HW226478   1.724   3.458   2.112
 8527SOL     OW26479   4.472   0.246   4.465
 8527SOL    HW126480   4.553   0.305   4.471
 8527SOL    HW226481   4.459   0.217   4.371
 8528SOL     OW26482   5.722   1.700   6.714
 8528SOL    HW126483   5.768   1.779   6.674
 8528SOL    HW226484   5.625   1.721   6.727
 8529SOL     OW26485   6.750   6.718   5.427
 8529SOL    HW126486   6.809   6.639   5.445
 8529SOL    HW226487   6.776   6.760   5.340
 8530SOL     OW26488   1.698   5.299   5.976
 8530SOL    HW126489   1.680   5.201   5.965
 8530SOL    HW226490   1.735   5.316   6.067
 8531SOL     OW26491   4.159   5.285   1.659
 8531SOL    HW126492   4.246   5.331   1.644
 8531SOL    HW226493   4.098   5.345   1.710
 8532SOL     OW26494   1.748   4.032   0.564
 8532SOL    HW126495   1.734   3.962   0.635
 8532SOL    HW226496   1.768   4.120   0.607
 8533SOL     OW26497   3.727   6.560   5.579
 8533SOL    HW126498   3.641   6.543   5.628
 8533SOL    HW226499   3.763   6.473   5.544
 8534SOL     OW26500   1.983   2.592   1.014
 8534SOL    HW126501   2.070   2.580   1.061
 8534SOL    HW226502   1.953   2.505   0.975
 8535SOL     OW26503   0.269   3.373   5.556
 8535SOL    HW126504   0.321   3.458   5.569
 8535SOL    HW226505   0.205   3.363   5.632
 8536SOL     OW26506   6.158   1.103   5.781
 8536SOL    HW126507   6.245   1.084   5.826
 8536SOL    HW226508   6.085   1.101   5.849
 8537SOL     OW26509   4.597   6.357   3.534
 8537SOL    HW126510   4.539   6.361   3.453
 8537SOL    HW226511   4.647   6.444   3.543
 8538SOL     OW26512   5.213   0.185   5.098
 8538SOL    HW126513   5.168   0.101   5.129
 8538SOL    HW226514   5.236   0.177   5.001
 8539SOL     OW26515   0.962   3.130   2.557
 8539SOL    HW126516   0.988   3.226   2.560
 8539SOL    HW226517   0.868   3.119   2.591
 8540SOL     OW26518   4.144   0.301   6.825
 8540SOL    HW126519   4.179   0.207   6.821
 8540SOL    HW226520   4.212   0.360   6.869
 8541SOL     OW26521   2.530   6.548   5.359
 8541SOL    HW126522   2.553   6.481   5.429
 8541SOL    HW226523   2.577   6.525   5.274
 8542SOL     OW26524   0.945   5.357   5.710
 8542SOL    HW126525   1.039   5.334   5.685
 8542SOL    HW226526   0.932   5.342   5.808
 8543SOL     OW26527   2.990   2.231   5.347
 8543SOL    HW126528   3.038   2.282   5.276
 8543SOL    HW226529   3.031   2.249   5.436
 8544SOL     OW26530   5.145   4.191   5.558
 8544SOL    HW126531   5.212   4.119   5.576
 8544SOL    HW226532   5.133   4.201   5.459
 8545SOL     OW26533   1.792   6.979   6.164
 8545SOL    HW126534   1.870   0.017   6.167
 8545SOL    HW226535   1.811   6.904   6.101
 8546SOL     OW26536   3.819   1.502   3.836
 8546SOL    HW126537   3.916   1.507   3.816
 8546SOL    HW226538   3.777   1.429   3.782
 8547SOL     OW26539   5.098   6.124   5.744
 8547SOL    HW126540   5.181   6.176   5.720
 8547SOL    HW226541   5.124   6.033   5.775
 8548SOL     OW26542   1.307   4.346   4.151
 8548SOL    HW126543   1.237   4.372   4.085
 8548SOL    HW226544   1.277   4.266   4.203
 8549SOL     OW26545   2.297   0.439   4.075
 8549SOL    HW126546   2.269   0.475   3.985
 8549SOL    HW226547   2.288   0.340   4.075
 8550SOL     OW26548   0.285   4.825   5.528
 8550SOL    HW126549   0.289   4.863   5.435
 8550SOL    HW226550   0.378   4.807   5.560
 8551SOL     OW26551   3.696   1.051   4.589
 8551SOL    HW126552   3.601   1.026   4.570
 8551SOL    HW226553   3.714   1.041   4.687
 8552SOL     OW26554   3.555   1.753   1.822
 8552SOL    HW126555   3.568   1.842   1.865
 8552SOL    HW226556   3.593   1.755   1.729
 8553SOL     OW26557   4.824   4.102   0.830
 8553SOL    HW126558   4.917   4.098   0.794
 8553SOL    HW226559   4.803   4.016   0.877
 8554SOL     OW26560   1.108   1.012   6.513
 8554SOL    HW126561   1.143   1.045   6.600
 8554SOL    HW226562   1.174   1.030   6.441
 8555SOL     OW26563   3.169   1.814   3.449
 8555SOL    HW126564   3.234   1.868   3.395
 8555SOL    HW226565   3.098   1.873   3.486
 8556SOL     OW26566   0.118   5.544   5.538
 8556SOL    HW126567   0.155   5.598   5.614
 8556SOL    HW226568   0.187   5.478   5.508
 8557SOL     OW26569   6.376   1.016   0.001
 8557SOL    HW126570   6.466   0.980   0.026
 8557SOL    HW226571   6.370   1.112   0.027
 8558SOL     OW26572   3.175   6.577   4.207
 8558SOL    HW126573   3.138   6.485   4.219
 8558SOL    HW226574   3.100   6.643   4.216
 8559SOL     OW26575   1.732   3.494   2.302
 8559SOL    HW126576   1.823   3.525   2.329
 8559SOL    HW226577   1.717   3.401   2.337
 8560SOL     OW26578   3.586   3.922   1.197
 8560SOL    HW126579   3.619   3.870   1.118
 8560SOL    HW226580   3.537   3.860   1.259
 8561SOL     OW26581   4.081   0.709   2.969
 8561SOL    HW126582   4.173   0.670   2.958
 8561SOL    HW226583   4.031   0.660   3.040
 8562SOL     OW26584   5.488   2.470   6.488
 8562SOL    HW126585   5.587   2.479   6.498
 8562SOL    HW226586   5.467   2.408   6.412
 8563SOL     OW26587   1.963   5.291   2.784
 8563SOL    HW126588   2.045   5.236   2.797
 8563SOL    HW226589   1.885   5.246   2.828
 8564SOL     OW26590   3.745   5.885   0.240
 8564SOL    HW126591   3.746   5.985   0.249
 8564SOL    HW226592   3.839   5.851   0.246
 8565SOL     OW26593   1.123   5.092   1.071
 8565SOL    HW126594   1.165   5.082   0.981
 8565SOL    HW226595   1.082   5.183   1.078
 8566SOL     OW26596   3.698   0.704   3.154
 8566SOL    HW126597   3.777   0.643   3.154
 8566SOL    HW226598   3.661   0.712   3.062
 8567SOL     OW26599   1.790   2.560   1.672
 8567SOL    HW126600   1.873   2.546   1.727
 8567SOL    HW226601   1.711   2.569   1.732
 8568SOL     OW26602   6.195   0.307   6.103
 8568SOL    HW126603   6.173   0.343   6.012
 8568SOL    HW226604   6.208   0.383   6.167
 8569SOL     OW26605   5.281   1.810   0.149
 8569SOL    HW126606   5.250   1.779   0.059
 8569SOL    HW226607   5.202   1.835   0.205
 8570SOL     OW26608   2.137   1.531   3.141
 8570SOL    HW126609   2.082   1.477   3.205
 8570SOL    HW226610   2.077   1.583   3.081
 8571SOL     OW26611   1.281   0.402   3.699
 8571SOL    HW126612   1.236   0.459   3.767
 8571SOL    HW226613   1.216   0.376   3.628
 8572SOL     OW26614   3.066   4.151   5.639
 8572SOL    HW126615   3.077   4.095   5.557
 8572SOL    HW226616   3.044   4.245   5.611
 8573SOL     OW26617   2.206   5.902   6.299
 8573SOL    HW126618   2.250   5.927   6.385
 8573SOL    HW226619   2.152   5.819   6.311
 8574SOL     OW26620   5.421   1.420   5.304
 8574SOL    HW126621   5.366   1.429   5.387
 8574SOL    HW226622   5.365   1.445   5.225
 8575SOL     OW26623   3.395   6.436   4.660
 8575SOL    HW126624   3.402   6.443   4.560
 8575SOL    HW226625   3.462   6.497   4.702
 8576SOL     OW26626   1.334   4.477   4.411
 8576SOL    HW126627   1.317   4.453   4.315
 8576SOL    HW226628   1.423   4.523   4.418
 8577SOL     OW26629   2.292   0.398   0.439
 8577SOL    HW126630   2.330   0.445   0.359
 8577SOL    HW226631   2.298   0.457   0.519
 8578SOL     OW26632   0.949   0.031   5.879
 8578SOL    HW126633   0.903   0.038   5.967
 8578SOL    HW226634   1.047   0.015   5.893
 8579SOL     OW26635   3.393   0.209   1.876
 8579SOL    HW126636   3.346   0.281   1.928
 8579SOL    HW226637   3.491   0.218   1.890
 8580SOL     OW26638   2.049   0.514   1.878
 8580SOL    HW126639   1.993   0.474   1.806
 8580SOL    HW226640   2.146   0.498   1.858
 8581SOL     OW26641   3.882   3.992   2.089
 8581SOL    HW126642   3.912   4.068   2.032
 8581SOL    HW226643   3.818   3.934   2.038
 8582SOL     OW26644   4.546   5.613   6.009
 8582SOL    HW126645   4.452   5.583   5.991
 8582SOL    HW226646   4.565   5.698   5.961
 8583SOL     OW26647   3.015   0.145   2.953
 8583SOL    HW126648   2.964   0.205   3.016
 8583SOL    HW226649   3.025   0.190   2.865
 8584SOL     OW26650   6.352   1.669   4.732
 8584SOL    HW126651   6.262   1.655   4.774
 8584SOL    HW226652   6.341   1.678   4.633
 8585SOL     OW26653   4.874   2.460   2.092
 8585SOL    HW126654   4.951   2.511   2.130
 8585SOL    HW226655   4.788   2.501   2.123
 8586SOL     OW26656   5.813   5.671   5.649
 8586SOL    HW126657   5.799   5.754   5.594
 8586SOL    HW226658   5.902   5.676   5.694
 8587SOL     OW26659   6.692   1.525   0.031
 8587SOL    HW126660   6.776   1.472   0.014
 8587SOL    HW226661   6.640   1.483   0.105
 8588SOL     OW26662   1.695   0.893   5.264
 8588SOL    HW126663   1.695   0.838   5.181
 8588SOL    HW226664   1.691   0.832   5.344
 8589SOL     OW26665   5.409   2.981   6.810
 8589SOL    HW126666   5.506   3.005   6.812
 8589SOL    HW226667   5.363   3.038   6.743
 8590SOL     OW26668   1.125   1.401   3.639
 8590SOL    HW126669   1.173   1.414   3.725
 8590SOL    HW226670   1.111   1.489   3.594
 8591SOL     OW26671   0.502   3.977   5.083
 8591SOL    HW126672   0.529   4.059   5.033
 8591SOL    HW226673   0.505   3.995   5.181
 8592SOL     OW26674   0.008   1.849   3.980
 8592SOL    HW126675   7.022   1.935   4.030
 8592SOL    HW226676   6.942   1.815   3.954
 8593SOL     OW26677   6.324   1.293   0.090
 8593SOL    HW126678   6.265   1.298   0.170
 8593SOL    HW226679   6.269   1.303   0.007
 8594SOL     OW26680   6.048   4.455   6.219
 8594SOL    HW126681   6.147   4.462   6.205
 8594SOL    HW226682   6.011   4.387   6.157
 8595SOL     OW26683   4.980   6.548   3.074
 8595SOL    HW126684   4.933   6.538   2.986
 8595SOL    HW226685   4.926   6.607   3.134
 8596SOL     OW26686   1.353   2.600   5.389
 8596SOL    HW126687   1.335   2.650   5.474
 8596SOL    HW226688   1.268   2.591   5.337
 8597SOL     OW26689   6.063   2.217   6.504
 8597SOL    HW126690   6.011   2.187   6.584
 8597SOL    HW226691   6.155   2.178   6.507
 8598SOL     OW26692   7.005   0.532   5.739
 8598SOL    HW126693   0.039   0.612   5.725
 8598SOL    HW226694   0.037   0.449   5.739
 8599SOL     OW26695   6.211   4.476   5.056
 8599SOL    HW126696   6.229   4.446   5.150
 8599SOL    HW226697   6.196   4.396   4.998
 8600SOL     OW26698   4.580   2.892   1.675
 8600SOL    HW126699   4.504   2.927   1.621
 8600SOL    HW226700   4.616   2.965   1.734
 8601SOL     OW26701   5.826   5.761   2.948
 8601SOL    HW126702   5.920   5.741   2.922
 8601SOL    HW226703   5.768   5.681   2.931
 8602SOL     OW26704   1.792   0.244   5.470
 8602SOL    HW126705   1.723   0.269   5.403
 8602SOL    HW226706   1.753   0.180   5.536
 8603SOL     OW26707   0.702   1.148   6.484
 8603SOL    HW126708   0.660   1.169   6.572
 8603SOL    HW226709   0.647   1.079   6.437
 8604SOL     OW26710   1.862   5.591   6.057
 8604SOL    HW126711   1.942   5.534   6.044
 8604SOL    HW226712   1.783   5.549   6.013
 8605SOL     OW26713   7.004   4.406   3.767
 8605SOL    HW126714   7.006   4.411   3.867
 8605SOL    HW226715   6.913   4.431   3.734
 8606SOL     OW26716   1.357   0.515   0.008
 8606SOL    HW126717   1.299   0.554   6.961
 8606SOL    HW226718   1.413   0.442   6.994
 8607SOL     OW26719   2.991   3.295   1.502
 8607SOL    HW126720   3.013   3.219   1.441
 8607SOL    HW226721   2.892   3.311   1.500
 8608SOL     OW26722   1.380   5.668   1.948
 8608SOL    HW126723   1.407   5.752   1.901
 8608SOL    HW226724   1.296   5.632   1.908
 8609SOL     OW26725   5.126   1.988   4.685
 8609SOL    HW126726   5.079   1.899   4.687
 8609SOL    HW226727   5.199   1.985   4.616
 8610SOL     OW26728   0.003   5.244   2.777
 8610SOL    HW126729   6.929   5.259   2.780
 8610SOL    HW226730   0.042   5.259   2.868
 8611SOL     OW26731   2.277   1.349   5.088
 8611SOL    HW126732   2.282   1.448   5.083
 8611SOL    HW226733   2.369   1.311   5.081
 8612SOL     OW26734   3.647   3.450   4.997
 8612SOL    HW126735   3.691   3.470   4.910
 8612SOL    HW226736   3.563   3.503   5.005
 8613SOL     OW26737   4.018   3.335   3.629
 8613SOL    HW126738   4.061   3.425   3.622
 8613SOL    HW226739   3.921   3.347   3.654
 8614SOL     OW26740   0.830   1.960   3.391
 8614SOL    HW126741   0.803   2.056   3.396
 8614SOL    HW226742   0.832   1.931   3.295
 8615SOL     OW26743   3.374   1.597   5.466
 8615SOL    HW126744   3.285   1.637   5.491
 8615SOL    HW226745   3.411   1.645   5.386
 8616SOL     OW26746   5.801   4.449   4.972
 8616SOL    HW126747   5.869   4.516   4.943
 8616SOL    HW226748   5.757   4.409   4.892
 8617SOL     OW26749   1.180   6.702   3.013
 8617SOL    HW126750   1.191   6.791   3.057
 8617SOL    HW226751   1.240   6.635   3.056
 8618SOL     OW26752   5.750   4.233   0.860
 8618SOL    HW126753   5.833   4.238   0.915
 8618SOL    HW226754   5.768   4.181   0.777
 8619SOL     OW26755   4.998   5.994   0.470
 8619SOL    HW126756   5.078   5.961   0.421
 8619SOL    HW226757   4.943   5.917   0.502
 8620SOL     OW26758   1.942   6.296   3.860
 8620SOL    HW126759   2.013   6.235   3.824
 8620SOL    HW226760   1.967   6.327   3.951
 8621SOL     OW26761   5.690   3.501   2.029
 8621SOL    HW126762   5.657   3.452   1.949
 8621SOL    HW226763   5.723   3.592   2.001
 8622SOL     OW26764   0.326   5.446   2.509
 8622SOL    HW126765   0.323   5.391   2.426
 8622SOL    HW226766   0.339   5.387   2.588
 8623SOL     OW26767   1.928   1.882   3.463
 8623SOL    HW126768   2.002   1.931   3.418
 8623SOL    HW226769   1.889   1.938   3.536
 8624SOL     OW26770   3.588   4.258   5.367
 8624SOL    HW126771   3.517   4.287   5.432
 8624SOL    HW226772   3.677   4.291   5.397
 8625SOL     OW26773   4.708   3.608   6.062
 8625SOL    HW126774   4.635   3.670   6.033
 8625SOL    HW226775   4.723   3.619   6.160
 8626SOL     OW26776   5.044   2.166   1.599
 8626SOL    HW126777   5.010   2.076   1.627
 8626SOL    HW226778   4.973   2.215   1.549
 8627SOL     OW26779   1.471   0.064   2.732
 8627SOL    HW126780   1.554   0.082   2.680
 8627SOL    HW226781   1.411   0.003   2.680
 8628SOL     OW26782   1.090   7.006   1.083
 8628SOL    HW126783   1.074   0.061   1.140
 8628SOL    HW226784   1.016   6.940   1.094
 8629SOL     OW26785   0.606   6.706   4.627
 8629SOL    HW126786   0.550   6.641   4.575
 8629SOL    HW226787   0.612   6.792   4.576
 8630SOL     OW26788   4.949   2.879   1.652
 8630SOL    HW126789   5.034   2.845   1.611
 8630SOL    HW226790   4.871   2.845   1.601
 8631SOL     OW26791   2.410   5.778   6.108
 8631SOL    HW126792   2.365   5.862   6.138
 8631SOL    HW226793   2.366   5.744   6.025
 8632SOL     OW26794   6.235   5.330   3.991
 8632SOL    HW126795   6.250   5.269   4.068
 8632SOL    HW226796   6.205   5.277   3.912
 8633SOL     OW26797   6.115   4.122   5.191
 8633SOL    HW126798   6.148   4.208   5.228
 8633SOL    HW226799   6.173   4.047   5.223
 8634SOL     OW26800   5.139   4.802   6.730
 8634SOL    HW126801   5.212   4.867   6.713
 8634SOL    HW226802   5.055   4.833   6.686
 8635SOL     OW26803   4.604   2.894   6.913
 8635SOL    HW126804   4.689   2.896   6.861
 8635SOL    HW226805   4.624   2.885   7.011
 8636SOL     OW26806   4.309   5.802   1.996
 8636SOL    HW126807   4.236   5.824   2.061
 8636SOL    HW226808   4.393   5.850   2.022
 8637SOL     OW26809   1.856   2.392   6.755
 8637SOL    HW126810   1.785   2.337   6.711
 8637SOL    HW226811   1.930   2.409   6.690
 8638SOL     OW26812   4.711   2.898   4.323
 8638SOL    HW126813   4.676   2.936   4.237
 8638SOL    HW226814   4.811   2.910   4.326
 8639SOL     OW26815   3.182   4.574   0.440
 8639SOL    HW126816   3.124   4.584   0.521
 8639SOL    HW226817   3.211   4.665   0.409
 8640SOL     OW26818   4.300   2.574   0.492
 8640SOL    HW126819   4.297   2.526   0.580
 8640SOL    HW226820   4.362   2.652   0.499
 8641SOL     OW26821   3.236   4.899   3.165
 8641SOL    HW126822   3.285   4.902   3.078
 8641SOL    HW226823   3.141   4.871   3.149
 8642SOL     OW26824   2.492   5.907   3.058
 8642SOL    HW126825   2.423   5.862   3.001
 8642SOL    HW226826   2.503   5.855   3.143
 8643SOL     OW26827   3.421   6.407   1.532
 8643SOL    HW126828   3.382   6.410   1.440
 8643SOL    HW226829   3.358   6.449   1.597
 8644SOL     OW26830   5.841   2.843   6.131
 8644SOL    HW126831   5.772   2.820   6.062
 8644SOL    HW226832   5.798   2.898   6.203
 8645SOL     OW26833   5.326   5.345   2.973
 8645SOL    HW126834   5.248   5.313   3.027
 8645SOL    HW226835   5.327   5.445   2.972
 8646SOL     OW26836   0.247   2.794   5.231
 8646SOL    HW126837   0.254   2.699   5.203
 8646SOL    HW226838   0.265   2.802   5.329
 8647SOL     OW26839   1.389   5.215   1.574
 8647SOL    HW126840   1.315   5.212   1.506
 8647SOL    HW226841   1.465   5.158   1.542
 8648SOL     OW26842   4.451   5.283   0.301
 8648SOL    HW126843   4.443   5.238   0.391
 8648SOL    HW226844   4.442   5.382   0.312
 8649SOL     OW26845   5.469   1.575   0.967
 8649SOL    HW126846   5.391   1.532   1.014
 8649SOL    HW226847   5.517   1.635   1.030
 8650SOL     OW26848   1.954   0.227   5.912
 8650SOL    HW126849   2.046   0.196   5.889
 8650SOL    HW226850   1.945   0.324   5.890
 8651SOL     OW26851   4.047   1.889   1.688
 8651SOL    HW126852   4.030   1.800   1.647
 8651SOL    HW226853   3.962   1.940   1.695
 8652SOL     OW26854   0.738   2.401   3.813
 8652SOL    HW126855   0.655   2.440   3.774
 8652SOL    HW226856   0.799   2.475   3.841
 8653SOL     OW26857   6.064   1.242   6.987
 8653SOL    HW126858   6.033   1.150   6.965
 8653SOL    HW226859   6.071   1.296   6.903
 8654SOL     OW26860   6.952   4.781   3.101
 8654SOL    HW126861   6.985   4.754   3.011
 8654SOL    HW226862   6.869   4.836   3.092
 8655SOL     OW26863   0.842   0.215   4.813
 8655SOL    HW126864   0.773   0.147   4.790
 8655SOL    HW226865   0.840   0.232   4.912
 8656SOL     OW26866   4.147   6.621   1.005
 8656SOL    HW126867   4.204   6.703   1.010
 8656SOL    HW226868   4.163   6.565   1.087
 8657SOL     OW26869   2.944   1.886   2.833
 8657SOL    HW126870   2.878   1.814   2.854
 8657SOL    HW226871   2.980   1.873   2.741
 8658SOL     OW26872   6.505   4.072   1.317
 8658SOL    HW126873   6.457   4.122   1.245
 8658SOL    HW226874   6.457   4.084   1.404
 8659SOL     OW26875   3.911   0.754   2.751
 8659SOL    HW126876   3.958   0.751   2.840
 8659SOL    HW226877   3.929   0.842   2.707
 8660SOL     OW26878   0.510   3.734   1.731
 8660SOL    HW126879   0.538   3.771   1.820
 8660SOL    HW226880   0.566   3.654   1.709
 8661SOL     OW26881   6.368   3.532   2.055
 8661SOL    HW126882   6.280   3.488   2.038
 8661SOL    HW226883   6.360   3.630   2.037
 8662SOL     OW26884   1.149   2.055   2.456
 8662SOL    HW126885   1.145   2.108   2.541
 8662SOL    HW226886   1.241   2.063   2.417
 8663SOL     OW26887   4.148   4.864   2.524
 8663SOL    HW126888   4.218   4.901   2.463
 8663SOL    HW226889   4.073   4.930   2.533
 8664SOL     OW26890   3.428   6.375   4.371
 8664SOL    HW126891   3.385   6.306   4.313
 8664SOL    HW226892   3.521   6.393   4.339
 8665SOL     OW26893   5.957   3.984   6.796
 8665SOL    HW126894   6.057   3.994   6.803
 8665SOL    HW226895   5.917   3.979   6.887
 8666SOL     OW26896   4.863   0.601   3.009
 8666SOL    HW126897   4.784   0.562   3.057
 8666SOL    HW226898   4.934   0.531   2.999
 8667SOL     OW26899   5.699   2.480   2.168
 8667SOL    HW126900   5.715   2.423   2.088
 8667SOL    HW226901   5.751   2.565   2.160
 8668SOL     OW26902   4.440   2.040   4.370
 8668SOL    HW126903   4.436   1.996   4.459
 8668SOL    HW226904   4.363   2.104   4.362
 8669SOL     OW26905   6.701   6.014   6.473
 8669SOL    HW126906   6.604   6.025   6.450
 8669SOL    HW226907   6.754   6.085   6.426
 8670SOL     OW26908   0.276   5.289   5.493
 8670SOL    HW126909   0.282   5.273   5.395
 8670SOL    HW226910   0.299   5.205   5.542
 8671SOL     OW26911   0.359   2.865   3.052
 8671SOL    HW126912   0.355   2.770   3.084
 8671SOL    HW226913   0.266   2.901   3.045
 8672SOL     OW26914   7.010   1.252   2.554
 8672SOL    HW126915   7.014   1.196   2.637
 8672SOL    HW226916   6.950   1.330   2.570
 8673SOL     OW26917   0.981   1.402   1.160
 8673SOL    HW126918   1.018   1.399   1.067
 8673SOL    HW226919   0.943   1.493   1.177
 8674SOL     OW26920   6.966   4.122   3.296
 8674SOL    HW126921   7.019   4.040   3.274
 8674SOL    HW226922   0.001   4.190   3.338
 8675SOL     OW26923   4.468   2.573   4.982
 8675SOL    HW126924   4.406   2.636   4.935
 8675SOL    HW226925   4.417   2.519   5.049
 8676SOL     OW26926   4.639   2.354   1.126
 8676SOL    HW126927   4.546   2.391   1.127
 8676SOL    HW226928   4.635   2.255   1.112
 8677SOL     OW26929   2.794   0.100   6.622
 8677SOL    HW126930   2.841   0.050   6.695
 8677SOL    HW226931   2.825   0.195   6.622
 8678SOL     OW26932   2.841   2.304   0.052
 8678SOL    HW126933   2.851   2.354   0.138
 8678SOL    HW226934   2.895   2.220   0.055
 8679SOL     OW26935   1.800   2.033   6.529
 8679SOL    HW126936   1.877   2.009   6.588
 8679SOL    HW226937   1.834   2.066   6.441
 8680SOL     OW26938   0.120   0.349   0.698
 8680SOL    HW126939   0.027   0.384   0.687
 8680SOL    HW226940   0.148   0.358   0.794
 8681SOL     OW26941   5.638   5.100   1.539
 8681SOL    HW126942   5.599   5.025   1.485
 8681SOL    HW226943   5.632   5.185   1.487
 8682SOL     OW26944   2.597   0.730   2.605
 8682SOL    HW126945   2.537   0.651   2.594
 8682SOL    HW226946   2.542   0.812   2.618
 8683SOL     OW26947   2.379   4.427   4.012
 8683SOL    HW126948   2.317   4.350   3.996
 8683SOL    HW226949   2.367   4.460   4.105
 8684SOL     OW26950   2.362   4.317   3.304
 8684SOL    HW126951   2.437   4.350   3.361
 8684SOL    HW226952   2.304   4.393   3.277
 8685SOL     OW26953   4.897   3.287   4.798
 8685SOL    HW126954   4.861   3.338   4.720
 8685SOL    HW226955   4.859   3.194   4.797
 8686SOL     OW26956   1.400   4.964   2.819
 8686SOL    HW126957   1.457   4.907   2.879
 8686SOL    HW226958   1.459   5.020   2.762
 8687SOL     OW26959   5.429   4.469   5.546
 8687SOL    HW126960   5.515   4.475   5.596
 8687SOL    HW226961   5.361   4.421   5.602
 8688SOL     OW26962   1.316   4.007   4.648
 8688SOL    HW126963   1.325   3.920   4.598
 8688SOL    HW226964   1.379   4.074   4.609
 8689SOL     OW26965   4.506   3.638   0.924
 8689SOL    HW126966   4.517   3.560   0.985
 8689SOL    HW226967   4.545   3.719   0.967
 8690SOL     OW26968   1.243   1.684   2.369
 8690SOL    HW126969   1.280   1.754   2.308
 8690SOL    HW226970   1.242   1.595   2.322
 8691SOL     OW26971   3.499   2.394   6.589
 8691SOL    HW126972   3.555   2.439   6.659
 8691SOL    HW226973   3.495   2.296   6.608
 8692SOL     OW26974   5.518   2.692   4.492
 8692SOL    HW126975   5.459   2.710   4.570
 8692SOL    HW226976   5.476   2.727   4.409
 8693SOL     OW26977   6.912   6.805   5.213
 8693SOL    HW126978   6.987   6.756   5.257
 8693SOL    HW226979   6.933   6.903   5.211
 8694SOL     OW26980   4.482   3.728   6.000
 8694SOL    HW126981   4.453   3.640   5.962
 8694SOL    HW226982   4.411   3.796   5.987
 8695SOL     OW26983   3.412   5.111   1.211
 8695SOL    HW126984   3.382   5.089   1.118
 8695SOL    HW226985   3.501   5.157   1.207
 8696SOL     OW26986   2.270   5.832   6.568
 8696SOL    HW126987   2.343   5.869   6.625
 8696SOL    HW226988   2.289   5.737   6.545
 8697SOL     OW26989   1.022   3.350   5.098
 8697SOL    HW126990   1.098   3.327   5.159
 8697SOL    HW226991   0.990   3.443   5.119
 8698SOL     OW26992   4.332   4.462   6.638
 8698SOL    HW126993   4.297   4.544   6.682
 8698SOL    HW226994   4.361   4.484   6.545
 8699SOL     OW26995   2.502   2.386   0.813
 8699SOL    HW126996   2.510   2.286   0.813
 8699SOL    HW226997   2.408   2.412   0.832
 8700SOL     OW26998   0.299   1.770   4.629
 8700SOL    HW126999   0.343   1.805   4.712
 8700SOL    HW227000   0.351   1.800   4.549
 8701SOL     OW27001   1.922   3.859   6.610
 8701SOL    HW127002   2.009   3.811   6.607
 8701SOL    HW227003   1.883   3.864   6.518
 8702SOL     OW27004   5.974   4.404   1.514
 8702SOL    HW127005   5.915   4.407   1.433
 8702SOL    HW227006   6.030   4.487   1.517
 8703SOL     OW27007   2.243   5.737   1.797
 8703SOL    HW127008   2.327   5.702   1.839
 8703SOL    HW227009   2.184   5.777   1.867
 8704SOL     OW27010   6.928   1.871   4.379
 8704SOL    HW127011   6.889   1.791   4.425
 8704SOL    HW227012   6.861   1.945   4.377
 8705SOL     OW27013   3.662   2.034   0.544
 8705SOL    HW127014   3.647   1.947   0.497
 8705SOL    HW227015   3.575   2.084   0.551
 8706SOL     OW27016   4.947   2.610   6.440
 8706SOL    HW127017   4.915   2.566   6.524
 8706SOL    HW227018   4.897   2.695   6.426
 8707SOL     OW27019   1.055   1.097   4.199
 8707SOL    HW127020   0.983   1.062   4.258
 8707SOL    HW227021   1.048   1.054   4.109
 8708SOL     OW27022   5.993   2.500   1.008
 8708SOL    HW127023   5.976   2.598   1.004
 8708SOL    HW227024   6.045   2.478   1.091
 8709SOL     OW27025   6.792   6.041   3.998
 8709SOL    HW127026   6.749   6.123   3.960
 8709SOL    HW227027   6.888   6.061   4.019
 8710SOL     OW27028   2.149   2.173   3.709
 8710SOL    HW127029   2.187   2.185   3.617
 8710SOL    HW227030   2.129   2.076   3.725
 8711SOL     OW27031   1.826   1.171   2.122
 8711SOL    HW127032   1.849   1.213   2.034
 8711SOL    HW227033   1.802   1.241   2.188
 8712SOL     OW27034   0.867   4.231   4.191
 8712SOL    HW127035   0.779   4.199   4.154
 8712SOL    HW227036   0.910   4.292   4.125
 8713SOL     OW27037   0.138   3.831   2.504
 8713SOL    HW127038   0.236   3.833   2.522
 8713SOL    HW227039   0.098   3.748   2.541
 8714SOL     OW27040   6.370   4.258   6.286
 8714SOL    HW127041   6.322   4.301   6.362
 8714SOL    HW227042   6.451   4.312   6.262
 8715SOL     OW27043   2.278   4.907   1.281
 8715SOL    HW127044   2.272   4.993   1.230
 8715SOL    HW227045   2.366   4.902   1.328
 8716SOL     OW27046   5.948   0.561   2.118
 8716SOL    HW127047   5.879   0.530   2.053
 8716SOL    HW227048   6.039   0.546   2.079
 8717SOL     OW27049   3.376   2.181   0.462
 8717SOL    HW127050   3.370   2.186   0.562
 8717SOL    HW227051   3.285   2.161   0.424
 8718SOL     OW27052   2.786   5.639   6.308
 8718SOL    HW127053   2.854   5.593   6.251
 8718SOL    HW227054   2.796   5.611   6.403
 8719SOL     OW27055   3.016   1.318   4.903
 8719SOL    HW127056   3.089   1.333   4.836
 8719SOL    HW227057   2.941   1.268   4.860
 8720SOL     OW27058   0.658   6.122   4.432
 8720SOL    HW127059   0.624   6.063   4.504
 8720SOL    HW227060   0.756   6.136   4.444
 8721SOL     OW27061   1.415   0.266   1.169
 8721SOL    HW127062   1.329   0.308   1.141
 8721SOL    HW227063   1.449   0.209   1.095
 8722SOL     OW27064   3.495   1.326   0.500
 8722SOL    HW127065   3.433   1.251   0.522
 8722SOL    HW227066   3.586   1.306   0.537
 8723SOL     OW27067   3.716   6.518   2.687
 8723SOL    HW127068   3.690   6.473   2.773
 8723SOL    HW227069   3.699   6.616   2.694
 8724SOL     OW27070   3.652   1.251   5.007
 8724SOL    HW127071   3.670   1.308   4.927
 8724SOL    HW227072   3.563   1.274   5.045
 8725SOL     OW27073   0.079   0.589   2.365
 8725SOL    HW127074   0.074   0.684   2.397
 8725SOL    HW227075   0.149   0.540   2.418
 8726SOL     OW27076   6.556   0.981   0.332
 8726SOL    HW127077   6.630   0.981   0.400
 8726SOL    HW227078   6.485   1.045   0.359
 8727SOL     OW27079   5.057   5.371   6.333
 8727SOL    HW127080   5.097   5.390   6.423
 8727SOL    HW227081   5.118   5.405   6.262
 8728SOL     OW27082   6.164   6.310   4.466
 8728SOL    HW127083   6.209   6.368   4.398
 8728SOL    HW227084   6.079   6.354   4.495
 8729SOL     OW27085   5.773   5.911   5.975
 8729SOL    HW127086   5.703   5.847   6.006
 8729SOL    HW227087   5.855   5.861   5.948
 8730SOL     OW27088   3.977   4.712   1.858
 8730SOL    HW127089   4.072   4.686   1.841
 8730SOL    HW227090   3.974   4.803   1.898
 8731SOL     OW27091   0.162   1.877   3.763
 8731SOL    HW127092   0.111   1.878   3.677
 8731SOL    HW227093   0.098   1.878   3.839
 8732SOL     OW27094   4.965   6.283   5.492
 8732SOL    HW127095   4.959   6.286   5.392
 8732SOL    HW227096   4.988   6.190   5.521
 8733SOL     OW27097   6.938   4.708   2.111
 8733SOL    HW127098   6.963   4.783   2.049
 8733SOL    HW227099   7.010   4.639   2.111
 8734SOL     OW27100   1.387   4.986   0.482
 8734SOL    HW127101   1.465   4.924   0.475
 8734SOL    HW227102   1.305   4.933   0.504
 8735SOL     OW27103   1.296   2.794   5.965
 8735SOL    HW127104   1.200   2.821   5.971
 8735SOL    HW227105   1.333   2.822   5.877
 8736SOL     OW27106   1.941   5.587   3.347
 8736SOL    HW127107   2.020   5.600   3.407
 8736SOL    HW227108   1.867   5.647   3.377
 8737SOL     OW27109   0.297   5.533   6.958
 8737SOL    HW127110   0.262   5.546   6.865
 8737SOL    HW227111   0.228   5.563   7.024
 8738SOL     OW27112   1.691   2.636   1.947
 8738SOL    HW127113   1.644   2.579   2.014
 8738SOL    HW227114   1.769   2.680   1.991
 8739SOL     OW27115   5.456   4.384   2.938
 8739SOL    HW127116   5.492   4.466   2.894
 8739SOL    HW227117   5.363   4.403   2.972
 8740SOL     OW27118   3.245   1.233   3.323
 8740SOL    HW127119   3.312   1.307   3.324
 8740SOL    HW227120   3.167   1.259   3.265
 8741SOL     OW27121   1.098   1.722   2.605
 8741SOL    HW127122   1.170   1.698   2.540
 8741SOL    HW227123   1.043   1.796   2.567
 8742SOL     OW27124   2.563   3.030   1.686
 8742SOL    HW127125   2.660   3.008   1.689
 8742SOL    HW227126   2.509   2.947   1.697
 8743SOL     OW27127   0.974   3.335   0.108
 8743SOL    HW127128   1.040   3.383   0.166
 8743SOL    HW227129   0.897   3.304   0.163
 8744SOL     OW27130   3.266   4.018   6.038
 8744SOL    HW127131   3.270   3.951   5.964
 8744SOL    HW227132   3.175   4.019   6.078
 8745SOL     OW27133   5.795   1.949   6.589
 8745SOL    HW127134   5.740   2.006   6.650
 8745SOL    HW227135   5.788   1.984   6.496
 8746SOL     OW27136   4.203   4.861   4.857
 8746SOL    HW127137   4.176   4.860   4.761
 8746SOL    HW227138   4.148   4.929   4.907
 8747SOL     OW27139   1.090   0.145   2.079
 8747SOL    HW127140   1.035   0.096   2.012
 8747SOL    HW227141   1.086   0.097   2.167
 8748SOL     OW27142   5.557   1.672   4.355
 8748SOL    HW127143   5.579   1.729   4.434
 8748SOL    HW227144   5.566   1.725   4.271
 8749SOL     OW27145   2.743   1.394   4.221
 8749SOL    HW127146   2.746   1.314   4.280
 8749SOL    HW227147   2.685   1.464   4.262
 8750SOL     OW27148   4.549   3.619   1.363
 8750SOL    HW127149   4.550   3.520   1.347
 8750SOL    HW227150   4.630   3.644   1.416
 8751SOL     OW27151   2.295   0.144   0.513
 8751SOL    HW127152   2.215   0.101   0.555
 8751SOL    HW227153   2.268   0.229   0.469
 8752SOL     OW27154   6.820   3.489   5.847
 8752SOL    HW127155   6.815   3.437   5.932
 8752SOL    HW227156   6.810   3.586   5.866
 8753SOL     OW27157   1.798   1.960   0.951
 8753SOL    HW127158   1.847   1.914   1.025
 8753SOL    HW227159   1.701   1.937   0.956
 8754SOL     OW27160   0.887   6.129   6.542
 8754SOL    HW127161   0.797   6.117   6.500
 8754SOL    HW227162   0.888   6.213   6.597
 8755SOL     OW27163   0.323   2.722   1.423
 8755SOL    HW127164   0.323   2.814   1.463
 8755SOL    HW227165   0.294   2.655   1.491
 8756SOL     OW27166   1.526   1.807   1.831
 8756SOL    HW127167   1.445   1.749   1.833
 8756SOL    HW227168   1.543   1.845   1.922
 8757SOL     OW27169   5.833   5.893   4.798
 8757SOL    HW127170   5.782   5.974   4.825
 8757SOL    HW227171   5.912   5.881   4.858
 8758SOL     OW27172   3.480   5.627   6.135
 8758SOL    HW127173   3.459   5.591   6.226
 8758SOL    HW227174   3.552   5.696   6.141
 8759SOL     OW27175   6.172   1.222   1.467
 8759SOL    HW127176   6.234   1.211   1.545
 8759SOL    HW227177   6.150   1.319   1.457
 8760SOL     OW27178   1.974   2.582   4.349
 8760SOL    HW127179   2.046   2.518   4.323
 8760SOL    HW227180   1.925   2.547   4.429
 8761SOL     OW27181   4.868   2.854   3.089
 8761SOL    HW127182   4.913   2.775   3.045
 8761SOL    HW227183   4.773   2.831   3.108
 8762SOL     OW27184   4.293   6.704   3.113
 8762SOL    HW127185   4.373   6.700   3.053
 8762SOL    HW227186   4.311   6.651   3.196
 8763SOL     OW27187   6.892   1.638   4.964
 8763SOL    HW127188   6.885   1.695   5.046
 8763SOL    HW227189   6.879   1.542   4.989
 8764SOL     OW27190   3.383   4.645   6.278
 8764SOL    HW127191   3.353   4.559   6.236
 8764SOL    HW227192   3.482   4.655   6.268
 8765SOL     OW27193   4.867   6.653   4.202
 8765SOL    HW127194   4.907   6.589   4.267
 8765SOL    HW227195   4.769   6.635   4.194
 8766SOL     OW27196   5.749   0.057   4.582
 8766SOL    HW127197   5.666   0.104   4.552
 8766SOL    HW227198   5.770   7.006   4.520
 8767SOL     OW27199   1.913   0.937   4.636
 8767SOL    HW127200   1.837   0.944   4.571
 8767SOL    HW227201   1.950   0.844   4.633
 8768SOL     OW27202   6.501   1.943   0.810
 8768SOL    HW127203   6.505   1.844   0.799
 8768SOL    HW227204   6.453   1.983   0.732
 8769SOL     OW27205   5.951   7.005   6.615
 8769SOL    HW127206   5.880   6.937   6.597
 8769SOL    HW227207   6.037   6.959   6.637
 8770SOL     OW27208   5.131   2.161   0.103
 8770SOL    HW127209   5.076   2.078   0.097
 8770SOL    HW227210   5.114   2.219   0.024
 8771SOL     OW27211   0.828   2.289   6.136
 8771SOL    HW127212   0.829   2.327   6.229
 8771SOL    HW227213   0.901   2.329   6.082
 8772SOL     OW27214   0.775   6.731   3.705
 8772SOL    HW127215   0.787   6.812   3.647
 8772SOL    HW227216   0.831   6.741   3.787
 8773SOL     OW27217   0.323   1.660   3.782
 8773SOL    HW127218   0.254   1.732   3.778
 8773SOL    HW227219   0.401   1.691   3.836
 8774SOL     OW27220   1.611   1.870   6.629
 8774SOL    HW127221   1.616   1.877   6.729
 8774SOL    HW227222   1.680   1.930   6.588
 8775SOL     OW27223   5.284   2.335   2.920
 8775SOL    HW127224   5.196   2.314   2.964
 8775SOL    HW227225   5.349   2.262   2.940
 8776SOL     OW27226   4.793   3.163   1.386
 8776SOL    HW127227   4.878   3.120   1.415
 8776SOL    HW227228   4.813   3.234   1.318
 8777SOL     OW27229   6.689   2.177   3.396
 8777SOL    HW127230   6.683   2.167   3.297
 8777SOL    HW227231   6.638   2.103   3.440
 8778SOL     OW27232   2.592   3.998   0.050
 8778SOL    HW127233   2.626   4.067   7.010
 8778SOL    HW227234   2.568   3.915   7.025
 8779SOL     OW27235   3.898   5.606   3.393
 8779SOL    HW127236   3.967   5.642   3.330
 8779SOL    HW227237   3.943   5.569   3.474
 8780SOL     OW27238   0.605   4.144   4.028
 8780SOL    HW127239   0.570   4.112   4.116
 8780SOL    HW227240   0.616   4.067   3.966
 8781SOL     OW27241   3.117   1.546   1.332
 8781SOL    HW127242   3.101   1.490   1.414
 8781SOL    HW227243   3.200   1.600   1.344
 8782SOL     OW27244   6.846   2.514   0.357
 8782SOL    HW127245   6.760   2.516   0.305
 8782SOL    HW227246   6.893   2.601   0.346
 8783SOL     OW27247   4.363   4.077   5.414
 8783SOL    HW127248   4.387   4.046   5.506
 8783SOL    HW227249   4.289   4.145   5.421
 8784SOL     OW27250   4.300   0.855   6.835
 8784SOL    HW127251   4.313   0.833   6.739
 8784SOL    HW227252   4.252   0.779   6.880
 8785SOL     OW27253   6.998   5.843   5.729
 8785SOL    HW127254   0.049   5.778   5.726
 8785SOL    HW227255   7.024   5.921   5.785
 8786SOL     OW27256   5.888   1.576   3.254
 8786SOL    HW127257   5.820   1.554   3.324
 8786SOL    HW227258   5.953   1.501   3.245
 8787SOL     OW27259   3.520   5.255   2.238
 8787SOL    HW127260   3.529   5.216   2.329
 8787SOL    HW227261   3.542   5.186   2.169
 8788SOL     OW27262   0.123   5.995   4.335
 8788SOL    HW127263   0.156   5.955   4.420
 8788SOL    HW227264   0.149   5.936   4.258
 8789SOL     OW27265   1.265   2.939   6.705
 8789SOL    HW127266   1.230   3.025   6.742
 8789SOL    HW227267   1.300   2.955   6.613
 8790SOL     OW27268   4.784   2.673   5.083
 8790SOL    HW127269   4.724   2.618   5.025
 8790SOL    HW227270   4.729   2.730   5.144
 8791SOL     OW27271   3.943   6.164   5.261
 8791SOL    HW127272   3.891   6.101   5.319
 8791SOL    HW227273   3.890   6.247   5.246
 8792SOL     OW27274   5.813   5.564   1.428
 8792SOL    HW127275   5.904   5.531   1.452
 8792SOL    HW227276   5.789   5.531   1.337
 8793SOL     OW27277   6.180   6.096   5.379
 8793SOL    HW127278   6.195   6.014   5.435
 8793SOL    HW227279   6.104   6.149   5.418
 8794SOL     OW27280   0.154   1.571   2.854
 8794SOL    HW127281   0.228   1.632   2.883
 8794SOL    HW227282   0.070   1.624   2.841
 8795SOL     OW27283   1.148   6.779   6.714
 8795SOL    HW127284   1.079   6.831   6.765
 8795SOL    HW227285   1.213   6.842   6.672
 8796SOL     OW27286   5.715   4.253   4.726
 8796SOL    HW127287   5.616   4.257   4.740
 8796SOL    HW227288   5.746   4.158   4.739
 8797SOL     OW27289   4.805   6.198   4.515
 8797SOL    HW127290   4.786   6.295   4.498
 8797SOL    HW227291   4.864   6.190   4.595
 8798SOL     OW27292   1.976   6.139   5.971
 8798SOL    HW127293   1.937   6.202   6.038
 8798SOL    HW227294   1.964   6.045   6.003
 8799SOL     OW27295   1.214   6.084   1.412
 8799SOL    HW127296   1.174   5.993   1.421
 8799SOL    HW227297   1.173   6.131   1.334
 8800SOL     OW27298   6.854   5.844   3.815
 8800SOL    HW127299   6.870   5.889   3.727
 8800SOL    HW227300   6.834   5.912   3.885
 8801SOL     OW27301   5.026   3.377   5.520
 8801SOL    HW127302   4.968   3.371   5.440
 8801SOL    HW227303   4.972   3.406   5.599
 8802SOL     OW27304   1.268   6.157   6.867
 8802SOL    HW127305   1.208   6.226   6.909
 8802SOL    HW227306   1.362   6.190   6.868
 8803SOL     OW27307   5.498   5.468   5.340
 8803SOL    HW127308   5.486   5.371   5.361
 8803SOL    HW227309   5.566   5.479   5.268
 8804SOL     OW27310   1.786   6.290   2.115
 8804SOL    HW127311   1.727   6.230   2.169
 8804SOL    HW227312   1.843   6.344   2.175
 8805SOL     OW27313   5.245   4.882   2.552
 8805SOL    HW127314   5.246   4.981   2.559
 8805SOL    HW227315   5.156   4.851   2.520
 8806SOL     OW27316   1.041   0.794   2.481
 8806SOL    HW127317   0.978   0.871   2.468
 8806SOL    HW227318   1.119   0.825   2.536
 8807SOL     OW27319   5.707   2.272   1.468
 8807SOL    HW127320   5.757   2.358   1.469
 8807SOL    HW227321   5.713   2.231   1.378
 8808SOL     OW27322   1.908   1.967   0.039
 8808SOL    HW127323   1.887   1.876   0.074
 8808SOL    HW227324   1.828   2.027   0.050
 8809SOL     OW27325   0.907   3.359   3.374
 8809SOL    HW127326   0.965   3.299   3.319
 8809SOL    HW227327   0.814   3.359   3.337
 8810SOL     OW27328   0.057   2.573   4.647
 8810SOL    HW127329   0.014   2.647   4.595
 8810SOL    HW227330   0.039   2.486   4.601
 8811SOL     OW27331   4.542   4.778   2.211
 8811SOL    HW127332   4.513   4.685   2.232
 8811SOL    HW227333   4.477   4.843   2.251
 8812SOL     OW27334   5.483   0.838   0.373
 8812SOL    HW127335   5.498   0.826   0.275
 8812SOL    HW227336   5.419   0.914   0.388
 8813SOL     OW27337   1.822   3.147   2.036
 8813SOL    HW127338   1.816   3.132   1.938
 8813SOL    HW227339   1.787   3.239   2.058
 8814SOL     OW27340   6.079   6.801   4.946
 8814SOL    HW127341   5.989   6.779   4.983
 8814SOL    HW227342   6.083   6.772   4.850
 8815SOL     OW27343   5.171   1.081   1.390
 8815SOL    HW127344   5.162   1.043   1.482
 8815SOL    HW227345   5.112   1.030   1.327
 8816SOL     OW27346   0.233   0.248   3.551
 8816SOL    HW127347   0.313   0.308   3.556
 8816SOL    HW227348   0.247   0.170   3.612
 8817SOL     OW27349   1.325   2.883   3.247
 8817SOL    HW127350   1.365   2.875   3.339
 8817SOL    HW227351   1.261   2.808   3.232
 8818SOL     OW27352   1.229   6.237   6.409
 8818SOL    HW127353   1.152   6.264   6.350
 8818SOL    HW227354   1.220   6.141   6.433
 8819SOL     OW27355   5.181   6.032   6.267
 8819SOL    HW127356   5.214   5.992   6.352
 8819SOL    HW227357   5.225   5.987   6.190
 8820SOL     OW27358   3.938   6.715   5.690
 8820SOL    HW127359   3.988   6.678   5.769
 8820SOL    HW227360   3.856   6.661   5.674
 8821SOL     OW27361   0.730   5.103   5.879
 8821SOL    HW127362   0.704   5.080   5.785
 8821SOL    HW227363   0.806   5.045   5.908
 8822SOL     OW27364   6.159   0.356   4.839
 8822SOL    HW127365   6.064   0.332   4.859
 8822SOL    HW227366   6.170   0.374   4.741
 8823SOL     OW27367   4.226   1.902   2.535
 8823SOL    HW127368   4.199   1.957   2.614
 8823SOL    HW227369   4.292   1.954   2.480
 8824SOL     OW27370   2.000   0.633   4.009
 8824SOL    HW127371   1.913   0.676   4.033
 8824SOL    HW227372   2.067   0.703   3.986
 8825SOL     OW27373   0.691   6.799   0.448
 8825SOL    HW127374   0.696   6.703   0.419
 8825SOL    HW227375   0.601   6.836   0.424
 8826SOL     OW27376   0.673   4.228   0.183
 8826SOL    HW127377   0.755   4.284   0.175
 8826SOL    HW227378   0.656   4.207   0.279
 8827SOL     OW27379   5.071   6.574   3.919
 8827SOL    HW127380   5.159   6.619   3.936
 8827SOL    HW227381   5.058   6.563   3.820
 8828SOL     OW27382   5.229   2.213   5.915
 8828SOL    HW127383   5.203   2.304   5.883
 8828SOL    HW227384   5.245   2.216   6.014
 8829SOL     OW27385   6.657   0.751   2.543
 8829SOL    HW127386   6.617   0.841   2.524
 8829SOL    HW227387   6.753   0.751   2.514
 8830SOL     OW27388   3.385   0.549   3.083
 8830SOL    HW127389   3.374   0.642   3.046
 8830SOL    HW227390   3.437   0.554   3.168
 8831SOL     OW27391   0.110   2.826   2.369
 8831SOL    HW127392   0.052   2.866   2.440
 8831SOL    HW227393   0.195   2.793   2.411
 8832SOL     OW27394   5.560   0.416   5.836
 8832SOL    HW127395   5.464   0.441   5.849
 8832SOL    HW227396   5.618   0.484   5.881
 8833SOL     OW27397   4.874   2.874   1.377
 8833SOL    HW127398   4.868   2.784   1.421
 8833SOL    HW227399   4.782   2.912   1.366
 8834SOL     OW27400   5.215   4.721   6.259
 8834SOL    HW127401   5.249   4.714   6.353
 8834SOL    HW227402   5.115   4.722   6.260
 8835SOL     OW27403   6.172   1.137   5.145
 8835SOL    HW127404   6.118   1.142   5.229
 8835SOL    HW227405   6.119   1.092   5.074
 8836SOL     OW27406   4.137   1.215   1.100
 8836SOL    HW127407   4.068   1.244   1.034
 8836SOL    HW227408   4.099   1.144   1.159
 8837SOL     OW27409   4.553   5.971   0.464
 8837SOL    HW127410   4.578   6.067   0.456
 8837SOL    HW227411   4.458   5.958   0.434
 8838SOL     OW27412   2.070   3.367   3.138
 8838SOL    HW127413   2.085   3.463   3.162
 8838SOL    HW227414   2.000   3.361   3.067
 8839SOL     OW27415   4.583   5.167   1.353
 8839SOL    HW127416   4.548   5.257   1.380
 8839SOL    HW227417   4.512   5.098   1.367
 8840SOL     OW27418   6.889   0.892   1.199
 8840SOL    HW127419   6.812   0.945   1.165
 8840SOL    HW227420   6.918   0.827   1.129
 8841SOL     OW27421   3.648   1.306   0.928
 8841SOL    HW127422   3.716   1.282   0.998
 8841SOL    HW227423   3.575   1.359   0.970
 8842SOL     OW27424   3.501   3.051   4.040
 8842SOL    HW127425   3.500   3.150   4.024
 8842SOL    HW227426   3.554   3.032   4.122
 8843SOL     OW27427   2.325   5.557   5.337
 8843SOL    HW127428   2.419   5.559   5.303
 8843SOL    HW227429   2.310   5.472   5.388
 8844SOL     OW27430   3.121   2.871   5.988
 8844SOL    HW127431   3.135   2.910   5.897
 8844SOL    HW227432   3.025   2.844   5.999
 8845SOL     OW27433   0.651   3.390   2.035
 8845SOL    HW127434   0.616   3.424   1.948
 8845SOL    HW227435   0.622   3.295   2.048
 8846SOL     OW27436   5.544   5.301   4.214
 8846SOL    HW127437   5.607   5.224   4.216
 8846SOL    HW227438   5.450   5.268   4.205
 8847SOL     OW27439   1.271   1.750   3.975
 8847SOL    HW127440   1.287   1.837   4.023
 8847SOL    HW227441   1.276   1.765   3.877
 8848SOL     OW27442   6.791   2.331   0.583
 8848SOL    HW127443   6.815   2.390   0.506
 8848SOL    HW227444   6.692   2.322   0.588
 8849SOL     OW27445   3.458   5.738   4.592
 8849SOL    HW127446   3.542   5.719   4.644
 8849SOL    HW227447   3.384   5.758   4.655
 8850SOL     OW27448   2.958   1.964   1.014
 8850SOL    HW127449   2.861   1.964   0.991
 8850SOL    HW227450   3.013   1.962   0.930
 8851SOL     OW27451   0.135   5.039   2.617
 8851SOL    HW127452   0.098   5.116   2.668
 8851SOL    HW227453   0.123   5.054   2.518
 8852SOL     OW27454   5.170   3.413   4.615
 8852SOL    HW127455   5.247   3.449   4.563
 8852SOL    HW227456   5.196   3.326   4.657
 8853SOL     OW27457   4.478   2.009   5.566
 8853SOL    HW127458   4.480   2.084   5.632
 8853SOL    HW227459   4.500   2.044   5.475
 8854SOL     OW27460   2.186   0.732   5.981
 8854SOL    HW127461   2.220   0.793   5.909
 8854SOL    HW227462   2.259   0.672   6.012
 8855SOL     OW27463   6.318   5.138   6.022
 8855SOL    HW127464   6.236   5.181   6.058
 8855SOL    HW227465   6.293   5.078   5.945
 8856SOL     OW27466   5.850   1.037   5.094
 8856SOL    HW127467   5.860   1.136   5.104
 8856SOL    HW227468   5.794   1.017   5.014
 8857SOL     OW27469   1.382   3.378   4.678
 8857SOL    HW127470   1.413   3.456   4.624
 8857SOL    HW227471   1.453   3.307   4.679
 8858SOL     OW27472   0.084   3.699   5.568
 8858SOL    HW127473   0.104   3.721   5.664
 8858SOL    HW227474   0.009   3.633   5.564
 8859SOL     OW27475   2.985   6.313   5.390
 8859SOL    HW127476   2.942   6.328   5.480
 8859SOL    HW227477   2.932   6.361   5.320
 8860SOL     OW27478   1.777   2.100   0.728
 8860SOL    HW127479   1.761   2.195   0.753
 8860SOL    HW227480   1.793   2.046   0.811
 8861SOL     OW27481   2.520   2.662   1.231
 8861SOL    HW127482   2.593   2.655   1.162
 8861SOL    HW227483   2.543   2.606   1.310
 8862SOL     OW27484   6.463   2.136   5.005
 8862SOL    HW127485   6.376   2.142   4.956
 8862SOL    HW227486   6.472   2.212   5.069
 8863SOL     OW27487   1.311   6.011   5.735
 8863SOL    HW127488   1.220   6.034   5.771
 8863SOL    HW227489   1.330   5.914   5.753
 8864SOL     OW27490   1.560   3.770   5.939
 8864SOL    HW127491   1.480   3.761   5.999
 8864SOL    HW227492   1.569   3.687   5.883
 8865SOL     OW27493   3.063   2.168   5.964
 8865SOL    HW127494   3.094   2.075   5.946
 8865SOL    HW227495   3.112   2.232   5.905
 8866SOL     OW27496   5.079   6.403   4.958
 8866SOL    HW127497   5.168   6.448   4.951
 8866SOL    HW227498   5.033   6.407   4.869
 8867SOL     OW27499   6.545   0.997   3.981
 8867SOL    HW127500   6.521   1.040   4.068
 8867SOL    HW227501   6.635   0.954   3.988
 8868SOL     OW27502   5.052   3.608   0.605
 8868SOL    HW127503   5.140   3.632   0.644
 8868SOL    HW227504   5.034   3.666   0.525
 8869SOL     OW27505   3.056   2.102   2.913
 8869SOL    HW127506   3.006   2.016   2.901
 8869SOL    HW227507   3.069   2.119   3.011
 8870SOL     OW27508   4.705   1.292   2.237
 8870SOL    HW127509   4.693   1.347   2.154
 8870SOL    HW227510   4.716   1.353   2.315
 8871SOL     OW27511   1.831   2.104   3.601
 8871SOL    HW127512   1.856   2.198   3.579
 8871SOL    HW227513   1.862   2.083   3.694
 8872SOL     OW27514   1.245   2.247   1.916
 8872SOL    HW127515   1.236   2.343   1.888
 8872SOL    HW227516   1.265   2.191   1.835
 8873SOL     OW27517   6.817   5.967   4.760
 8873SOL    HW127518   6.782   6.025   4.833
 8873SOL    HW227519   6.905   5.927   4.789
 8874SOL     OW27520   0.796   1.732   6.066
 8874SOL    HW127521   0.802   1.832   6.062
 8874SOL    HW227522   0.700   1.705   6.071
 8875SOL     OW27523   1.152   1.465   4.531
 8875SOL    HW127524   1.252   1.470   4.530
 8875SOL    HW227525   1.123   1.372   4.508
 8876SOL     OW27526   2.838   0.701   4.174
 8876SOL    HW127527   2.805   0.763   4.103
 8876SOL    HW227528   2.925   0.660   4.144
 8877SOL     OW27529   3.264   6.919   4.593
 8877SOL    HW127530   3.348   6.895   4.642
 8877SOL    HW227531   3.241   6.846   4.528
 8878SOL     OW27532   5.833   4.830   5.324
 8878SOL    HW127533   5.744   4.795   5.354
 8878SOL    HW227534   5.829   4.855   5.227
 8879SOL     OW27535   4.456   5.341   4.310
 8879SOL    HW127536   4.506   5.299   4.385
 8879SOL    HW227537   4.377   5.390   4.346
 8880SOL     OW27538   7.021   6.452   5.124
 8880SOL    HW127539   0.014   6.354   5.121
 8880SOL    HW227540   0.001   6.484   5.219
 8881SOL     OW27541   6.502   1.534   1.441
 8881SOL    HW127542   6.511   1.619   1.388
 8881SOL    HW227543   6.542   1.458   1.390
 8882SOL     OW27544   5.403   2.615   0.459
 8882SOL    HW127545   5.471   2.646   0.526
 8882SOL    HW227546   5.446   2.608   0.369
 8883SOL     OW27547   6.395   1.392   5.331
 8883SOL    HW127548   6.436   1.313   5.375
 8883SOL    HW227549   6.346   1.363   5.248
 8884SOL     OW27550   6.765   1.202   6.020
 8884SOL    HW127551   6.790   1.239   5.931
 8884SOL    HW227552   6.724   1.274   6.076
 8885SOL     OW27553   5.591   3.763   1.873
 8885SOL    HW127554   5.520   3.707   1.831
 8885SOL    HW227555   5.621   3.834   1.809
 8886SOL     OW27556   3.047   5.029   6.187
 8886SOL    HW127557   3.128   4.971   6.182
 8886SOL    HW227558   3.064   5.115   6.138
 8887SOL     OW27559   1.926   0.874   0.903
 8887SOL    HW127560   1.934   0.964   0.859
 8887SOL    HW227561   1.989   0.869   0.980
 8888SOL     OW27562   2.902   2.249   2.757
 8888SOL    HW127563   2.974   2.200   2.806
 8888SOL    HW227564   2.824   2.188   2.743
 8889SOL     OW27565   3.646   0.208   4.928
 8889SOL    HW127566   3.685   0.199   4.836
 8889SOL    HW227567   3.686   0.140   4.989
 8890SOL     OW27568   0.549   3.689   3.509
 8890SOL    HW127569   0.619   3.690   3.437
 8890SOL    HW227570   0.476   3.626   3.484
 8891SOL     OW27571   3.073   1.828   6.188
 8891SOL    HW127572   2.993   1.768   6.187
 8891SOL    HW227573   3.101   1.847   6.094
 8892SOL     OW27574   1.388   6.403   2.732
 8892SOL    HW127575   1.352   6.385   2.823
 8892SOL    HW227576   1.394   6.502   2.717
 8893SOL     OW27577   0.459   0.623   0.020
 8893SOL    HW127578   0.370   0.591   7.011
 8893SOL    HW227579   0.492   0.562   0.092
 8894SOL     OW27580   4.710   2.801   6.540
 8894SOL    HW127581   4.696   2.721   6.598
 8894SOL    HW227582   4.635   2.810   6.475
 8895SOL     OW27583   2.073   0.991   2.636
 8895SOL    HW127584   2.047   1.039   2.552
 8895SOL    HW227585   2.129   1.051   2.693
 8896SOL     OW27586   2.193   4.274   4.962
 8896SOL    HW127587   2.198   4.301   5.058
 8896SOL    HW227588   2.240   4.186   4.950
 8897SOL     OW27589   1.371   2.397   0.858
 8897SOL    HW127590   1.397   2.305   0.829
 8897SOL    HW227591   1.394   2.410   0.954
 8898SOL     OW27592   6.966   3.062   4.878
 8898SOL    HW127593   0.017   3.024   4.932
 8898SOL    HW227594   6.906   3.115   4.938
 8899SOL     OW27595   3.159   5.296   1.534
 8899SOL    HW127596   3.086   5.271   1.597
 8899SOL    HW227597   3.207   5.214   1.504
 8900SOL     OW27598   0.027   1.423   3.468
 8900SOL    HW127599   0.104   1.487   3.472
 8900SOL    HW227600   0.046   1.346   3.529
 8901SOL     OW27601   1.731   6.665   1.796
 8901SOL    HW127602   1.762   6.601   1.725
 8901SOL    HW227603   1.685   6.615   1.869
 8902SOL     OW27604   3.287   6.309   5.626
 8902SOL    HW127605   3.219   6.381   5.637
 8902SOL    HW227606   3.290   6.280   5.530
 8903SOL     OW27607   0.358   0.233   2.621
 8903SOL    HW127608   0.434   0.267   2.677
 8903SOL    HW227609   0.298   0.177   2.678
 8904SOL     OW27610   1.491   4.954   3.102
 8904SOL    HW127611   1.415   4.989   3.158
 8904SOL    HW227612   1.546   4.892   3.157
 8905SOL     OW27613   2.154   4.317   4.680
 8905SOL    HW127614   2.166   4.225   4.643
 8905SOL    HW227615   2.120   4.310   4.774
 8906SOL     OW27616   1.625   5.323   4.196
 8906SOL    HW127617   1.674   5.268   4.129
 8906SOL    HW227618   1.552   5.268   4.238
 8907SOL     OW27619   3.758   2.701   6.588
 8907SOL    HW127620   3.714   2.790   6.596
 8907SOL    HW227621   3.852   2.707   6.622
 8908SOL     OW27622   0.763   2.346   2.553
 8908SOL    HW127623   0.845   2.401   2.569
 8908SOL    HW227624   0.776   2.289   2.473
 8909SOL     OW27625   3.573   0.211   5.611
 8909SOL    HW127626   3.655   0.240   5.660
 8909SOL    HW227627   3.574   0.112   5.599
 8910SOL     OW27628   3.888   3.326   0.288
 8910SOL    HW127629   3.976   3.349   0.330
 8910SOL    HW227630   3.904   3.289   0.196
 8911SOL     OW27631   4.564   2.277   3.924
 8911SOL    HW127632   4.541   2.180   3.909
 8911SOL    HW227633   4.619   2.286   4.007
 8912SOL     OW27634   5.095   1.801   6.386
 8912SOL    HW127635   5.048   1.860   6.321
 8912SOL    HW227636   5.131   1.721   6.339
 8913SOL     OW27637   4.266   4.364   1.457
 8913SOL    HW127638   4.218   4.282   1.426
 8913SOL    HW227639   4.280   4.358   1.556
 8914SOL     OW27640   5.119   1.887   3.572
 8914SOL    HW127641   5.143   1.951   3.644
 8914SOL    HW227642   5.019   1.876   3.569
 8915SOL     OW27643   0.872   5.804   2.813
 8915SOL    HW127644   0.861   5.771   2.907
 8915SOL    HW227645   0.786   5.847   2.783
 8916SOL     OW27646   5.951   2.943   2.326
 8916SOL    HW127647   5.916   2.873   2.263
 8916SOL    HW227648   5.931   2.915   2.420
 8917SOL     OW27649   5.651   5.301   5.017
 8917SOL    HW127650   5.583   5.334   4.952
 8917SOL    HW227651   5.650   5.359   5.099
 8918SOL     OW27652   5.023   4.141   5.998
 8918SOL    HW127653   4.958   4.067   6.016
 8918SOL    HW227654   5.116   4.105   6.005
 8919SOL     OW27655   2.467   3.371   1.311
 8919SOL    HW127656   2.522   3.291   1.288
 8919SOL    HW227657   2.478   3.440   1.240
 8920SOL     OW27658   6.700   5.704   5.593
 8920SOL    HW127659   6.770   5.672   5.530
 8920SOL    HW227660   6.726   5.683   5.687
 8921SOL     OW27661   1.572   5.627   3.796
 8921SOL    HW127662   1.487   5.604   3.748
 8921SOL    HW227663   1.559   5.618   3.895
 8922SOL     OW27664   6.294   3.907   6.364
 8922SOL    HW127665   6.353   3.957   6.300
 8922SOL    HW227666   6.350   3.850   6.424
 8923SOL     OW27667   2.198   4.193   4.010
 8923SOL    HW127668   2.231   4.104   4.040
 8923SOL    HW227669   2.099   4.193   4.008
 8924SOL     OW27670   2.582   5.629   5.252
 8924SOL    HW127671   2.657   5.688   5.282
 8924SOL    HW227672   2.523   5.680   5.190
 8925SOL     OW27673   4.561   5.822   1.537
 8925SOL    HW127674   4.526   5.855   1.624
 8925SOL    HW227675   4.601   5.731   1.549
 8926SOL     OW27676   5.371   0.435   6.496
 8926SOL    HW127677   5.304   0.362   6.482
 8926SOL    HW227678   5.372   0.494   6.415
 8927SOL     OW27679   2.598   1.823   4.379
 8927SOL    HW127680   2.611   1.789   4.285
 8927SOL    HW227681   2.565   1.917   4.376
 8928SOL     OW27682   0.651   6.978   4.430
 8928SOL    HW127683   0.578   0.000   4.479
 8928SOL    HW227684   0.728   6.963   4.491
 8929SOL     OW27685   5.267   4.126   3.495
 8929SOL    HW127686   5.301   4.218   3.478
 8929SOL    HW227687   5.231   4.088   3.409
 8930SOL     OW27688   0.768   5.218   5.575
 8930SOL    HW127689   0.818   5.284   5.632
 8930SOL    HW227690   0.735   5.264   5.492
 8931SOL     OW27691   4.923   1.225   1.629
 8931SOL    HW127692   4.938   1.318   1.662
 8931SOL    HW227693   4.963   1.215   1.537
 8932SOL     OW27694   5.814   0.824   0.132
 8932SOL    HW127695   5.726   0.867   0.151
 8932SOL    HW227696   5.799   0.742   0.078
 8933SOL     OW27697   1.450   0.683   5.424
 8933SOL    HW127698   1.455   0.715   5.519
 8933SOL    HW227699   1.388   0.742   5.372
 8934SOL     OW27700   4.247   6.754   3.633
 8934SOL    HW127701   4.231   6.845   3.594
 8934SOL    HW227702   4.344   6.730   3.625
 8935SOL     OW27703   5.692   1.473   2.698
 8935SOL    HW127704   5.762   1.541   2.677
 8935SOL    HW227705   5.607   1.519   2.726
 8936SOL     OW27706   1.913   3.925   2.234
 8936SOL    HW127707   1.895   3.913   2.332
 8936SOL    HW227708   1.981   3.858   2.204
 8937SOL     OW27709   4.380   0.409   4.970
 8937SOL    HW127710   4.334   0.367   4.892
 8937SOL    HW227711   4.369   0.351   5.051
 8938SOL     OW27712   5.830   6.610   1.315
 8938SOL    HW127713   5.894   6.543   1.278
 8938SOL    HW227714   5.765   6.565   1.377
 8939SOL     OW27715   0.662   2.972   4.401
 8939SOL    HW127716   0.572   2.974   4.358
 8939SOL    HW227717   0.665   2.897   4.467
 8940SOL     OW27718   6.388   3.114   2.033
 8940SOL    HW127719   6.313   3.094   2.096
 8940SOL    HW227720   6.406   3.034   1.976
 8941SOL     OW27721   5.936   1.885   3.308
 8941SOL    HW127722   5.897   1.851   3.223
 8941SOL    HW227723   5.931   1.813   3.378
 8942SOL     OW27724   5.008   4.227   3.546
 8942SOL    HW127725   4.957   4.233   3.460
 8942SOL    HW227726   5.067   4.147   3.545
 8943SOL     OW27727   4.585   3.009   0.430
 8943SOL    HW127728   4.554   3.066   0.506
 8943SOL    HW227729   4.681   2.983   0.444
 8944SOL     OW27730   4.208   5.895   5.468
 8944SOL    HW127731   4.203   5.798   5.444
 8944SOL    HW227732   4.122   5.940   5.444
 8945SOL     OW27733   6.506   4.533   2.037
 8945SOL    HW127734   6.561   4.608   2.073
 8945SOL    HW227735   6.553   4.446   2.053
 8946SOL     OW27736   3.934   1.502   5.006
 8946SOL    HW127737   3.926   1.562   4.926
 8946SOL    HW227738   3.847   1.454   5.019
 8947SOL     OW27739   1.836   4.864   0.819
 8947SOL    HW127740   1.874   4.806   0.748
 8947SOL    HW227741   1.881   4.845   0.906
 8948SOL     OW27742   5.395   0.519   2.998
 8948SOL    HW127743   5.413   0.612   2.963
 8948SOL    HW227744   5.476   0.462   2.982
 8949SOL     OW27745   3.324   6.453   1.011
 8949SOL    HW127746   3.365   6.544   1.008
 8949SOL    HW227747   3.347   6.403   0.927
 8950SOL     OW27748   3.241   3.682   2.740
 8950SOL    HW127749   3.269   3.646   2.829
 8950SOL    HW227750   3.141   3.683   2.734
 8951SOL     OW27751   0.667   0.597   3.886
 8951SOL    HW127752   0.665   0.500   3.908
 8951SOL    HW227753   0.614   0.648   3.954
 8952SOL     OW27754   1.754   4.235   4.482
 8952SOL    HW127755   1.748   4.182   4.566
 8952SOL    HW227756   1.704   4.321   4.493
 8953SOL     OW27757   0.603   5.439   1.546
 8953SOL    HW127758   0.606   5.509   1.618
 8953SOL    HW227759   0.691   5.391   1.544
 8954SOL     OW27760   1.974   4.064   5.497
 8954SOL    HW127761   2.045   4.076   5.428
 8954SOL    HW227762   2.006   4.099   5.585
 8955SOL     OW27763   6.114   2.979   5.614
 8955SOL    HW127764   6.155   3.061   5.573
 8955SOL    HW227765   6.021   3.001   5.646
 8956SOL     OW27766   0.451   6.070   0.901
 8956SOL    HW127767   0.519   6.016   0.951
 8956SOL    HW227768   0.366   6.072   0.952
 8957SOL     OW27769   1.315   6.687   2.768
 8957SOL    HW127770   1.280   6.700   2.860
 8957SOL    HW227771   1.400   6.739   2.757
 8958SOL     OW27772   6.847   3.773   4.466
 8958SOL    HW127773   6.830   3.686   4.512
 8958SOL    HW227774   6.925   3.763   4.403
 8959SOL     OW27775   5.531   1.980   4.248
 8959SOL    HW127776   5.593   1.927   4.190
 8959SOL    HW227777   5.441   1.937   4.249
 8960SOL     OW27778   5.517   5.122   2.643
 8960SOL    HW127779   5.583   5.052   2.671
 8960SOL    HW227780   5.513   5.126   2.543
 8961SOL     OW27781   2.828   1.501   4.983
 8961SOL    HW127782   2.897   1.429   4.974
 8961SOL    HW227783   2.740   1.466   4.950
 8962SOL     OW27784   6.924   5.905   2.382
 8962SOL    HW127785   6.938   5.810   2.411
 8962SOL    HW227786   6.938   5.967   2.459
 8963SOL     OW27787   2.517   6.134   6.115
 8963SOL    HW127788   2.422   6.122   6.085
 8963SOL    HW227789   2.526   6.223   6.160
 8964SOL     OW27790   1.692   2.538   3.302
 8964SOL    HW127791   1.759   2.491   3.245
 8964SOL    HW227792   1.635   2.597   3.245
 8965SOL     OW27793   3.974   6.101   0.608
 8965SOL    HW127794   3.886   6.143   0.631
 8965SOL    HW227795   4.020   6.157   0.539
 8966SOL     OW27796   5.178   6.775   5.432
 8966SOL    HW127797   5.210   6.760   5.525
 8966SOL    HW227798   5.086   6.737   5.421
 8967SOL     OW27799   2.870   0.233   3.172
 8967SOL    HW127800   2.827   0.310   3.219
 8967SOL    HW227801   2.802   0.163   3.151
 8968SOL     OW27802   3.402   4.908   2.596
 8968SOL    HW127803   3.335   4.881   2.527
 8968SOL    HW227804   3.366   4.887   2.687
 8969SOL     OW27805   6.758   1.223   2.995
 8969SOL    HW127806   6.695   1.155   3.035
 8969SOL    HW227807   6.851   1.187   2.998
 8970SOL     OW27808   2.350   1.356   3.100
 8970SOL    HW127809   2.282   1.285   3.115
 8970SOL    HW227810   2.307   1.434   3.054
 8971SOL     OW27811   3.368   4.070   1.098
 8971SOL    HW127812   3.315   4.102   1.177
 8971SOL    HW227813   3.458   4.039   1.129
 8972SOL     OW27814   5.509   4.257   6.788
 8972SOL    HW127815   5.498   4.345   6.833
 8972SOL    HW227816   5.484   4.266   6.691
 8973SOL     OW27817   2.423   1.805   3.398
 8973SOL    HW127818   2.499   1.744   3.420
 8973SOL    HW227819   2.350   1.754   3.353
 8974SOL     OW27820   1.970   4.276   4.160
 8974SOL    HW127821   1.985   4.329   4.243
 8974SOL    HW227822   1.951   4.181   4.184
 8975SOL     OW27823   0.216   3.796   6.162
 8975SOL    HW127824   0.262   3.758   6.081
 8975SOL    HW227825   0.128   3.835   6.135
 8976SOL     OW27826   5.906   0.410   1.759
 8976SOL    HW127827   5.986   0.384   1.813
 8976SOL    HW227828   5.834   0.442   1.821
 8977SOL     OW27829   6.731   4.726   6.452
 8977SOL    HW127830   6.660   4.749   6.518
 8977SOL    HW227831   6.762   4.632   6.468
 8978SOL     OW27832   6.413   5.679   5.680
 8978SOL    HW127833   6.492   5.671   5.619
 8978SOL    HW227834   6.398   5.591   5.726
 8979SOL     OW27835   1.935   4.941   3.697
 8979SOL    HW127836   2.015   5.001   3.688
 8979SOL    HW227837   1.960   4.861   3.752
 8980SOL     OW27838   4.077   0.966   0.631
 8980SOL    HW127839   4.129   0.881   0.629
 8980SOL    HW227840   4.037   0.983   0.541
 8981SOL     OW27841   3.963   2.187   7.001
 8981SOL    HW127842   3.886   2.160   0.034
 8981SOL    HW227843   4.012   2.263   0.021
 8982SOL     OW27844   6.818   1.397   1.806
 8982SOL    HW127845   6.866   1.312   1.784
 8982SOL    HW227846   6.858   1.437   1.889
 8983SOL     OW27847   1.512   6.873   2.518
 8983SOL    HW127848   1.511   6.773   2.512
 8983SOL    HW227849   1.605   6.906   2.505
 8984SOL     OW27850   6.618   1.985   4.676
 8984SOL    HW127851   6.642   1.964   4.581
 8984SOL    HW227852   6.609   1.900   4.727
 8985SOL     OW27853   4.198   1.056   2.217
 8985SOL    HW127854   4.136   1.076   2.142
 8985SOL    HW227855   4.292   1.052   2.183
 8986SOL     OW27856   6.785   5.829   0.584
 8986SOL    HW127857   6.712   5.810   0.649
 8986SOL    HW227858   6.763   5.911   0.530
 8987SOL     OW27859   2.288   6.562   1.999
 8987SOL    HW127860   2.365   6.508   1.964
 8987SOL    HW227861   2.309   6.594   2.092
 8988SOL     OW27862   2.298   0.304   1.199
 8988SOL    HW127863   2.379   0.281   1.252
 8988SOL    HW227864   2.320   0.306   1.102
 8989SOL     OW27865   5.755   1.133   2.575
 8989SOL    HW127866   5.747   1.199   2.501
 8989SOL    HW227867   5.806   1.053   2.544
 8990SOL     OW27868   3.446   1.104   3.087
 8990SOL    HW127869   3.363   1.151   3.057
 8990SOL    HW227870   3.519   1.119   3.021
 8991SOL     OW27871   1.194   2.194   0.467
 8991SOL    HW127872   1.128   2.157   0.402
 8991SOL    HW227873   1.191   2.140   0.551
 8992SOL     OW27874   6.877   4.386   6.223
 8992SOL    HW127875   6.903   4.425   6.311
 8992SOL    HW227876   6.777   4.387   6.215
 8993SOL     OW27877   5.090   3.920   3.575
 8993SOL    HW127878   5.173   3.973   3.557
 8993SOL    HW227879   5.110   3.823   3.564
 8994SOL     OW27880   1.234   6.365   2.997
 8994SOL    HW127881   1.151   6.407   3.036
 8994SOL    HW227882   1.271   6.300   3.063
 8995SOL     OW27883   2.108   3.818   3.686
 8995SOL    HW127884   2.067   3.809   3.777
 8995SOL    HW227885   2.161   3.903   3.682
 8996SOL     OW27886   2.264   3.753   0.765
 8996SOL    HW127887   2.282   3.845   0.801
 8996SOL    HW227888   2.329   3.733   0.691
 8997SOL     OW27889   4.715   0.841   5.184
 8997SOL    HW127890   4.800   0.888   5.161
 8997SOL    HW227891   4.649   0.851   5.110
 8998SOL     OW27892   1.105   1.783   6.350
 8998SOL    HW127893   1.087   1.689   6.379
 8998SOL    HW227894   1.136   1.837   6.427
 8999SOL     OW27895   5.344   2.686   5.668
 8999SOL    HW127896   5.351   2.786   5.674
 8999SOL    HW227897   5.386   2.654   5.583
 9000SOL     OW27898   3.874   4.888   1.295
 9000SOL    HW127899   3.892   4.806   1.350
 9000SOL    HW227900   3.832   4.861   1.208
 9001SOL     OW27901   1.649   4.256   3.155
 9001SOL    HW127902   1.643   4.353   3.177
 9001SOL    HW227903   1.719   4.242   3.085
 9002SOL     OW27904   5.663   3.387   5.344
 9002SOL    HW127905   5.619   3.472   5.316
 9002SOL    HW227906   5.712   3.402   5.430
 9003SOL     OW27907   6.399   3.348   6.933
 9003SOL    HW127908   6.462   3.273   6.955
 9003SOL    HW227909   6.449   3.435   6.934
 9004SOL     OW27910   4.842   5.558   1.319
 9004SOL    HW127911   4.766   5.507   1.279
 9004SOL    HW227912   4.902   5.591   1.246
 9005SOL     OW27913   5.153   2.849   3.709
 9005SOL    HW127914   5.182   2.851   3.805
 9005SOL    HW227915   5.233   2.853   3.650
 9006SOL     OW27916   2.055   6.370   1.208
 9006SOL    HW127917   1.990   6.321   1.150
 9006SOL    HW227918   2.075   6.315   1.289
 9007SOL     OW27919   2.038   6.259   5.284
 9007SOL    HW127920   1.948   6.293   5.259
 9007SOL    HW227921   2.034   6.160   5.296
 9008SOL     OW27922   0.197   4.407   2.261
 9008SOL    HW127923   0.146   4.363   2.187
 9008SOL    HW227924   0.275   4.455   2.223
 9009SOL     OW27925   3.682   5.683   6.877
 9009SOL    HW127926   3.657   5.612   6.943
 9009SOL    HW227927   3.703   5.768   6.925
 9010SOL     OW27928   6.977   5.715   4.569
 9010SOL    HW127929   7.000   5.762   4.654
 9010SOL    HW227930   0.036   5.694   4.518
 9011SOL     OW27931   4.591   2.478   2.417
 9011SOL    HW127932   4.552   2.466   2.509
 9011SOL    HW227933   4.676   2.426   2.410
 9012SOL     OW27934   5.500   5.087   2.355
 9012SOL    HW127935   5.487   5.056   2.261
 9012SOL    HW227936   5.597   5.087   2.377
 9013SOL     OW27937   4.507   6.207   2.459
 9013SOL    HW127938   4.446   6.150   2.402
 9013SOL    HW227939   4.470   6.299   2.464
 9014SOL     OW27940   2.313   0.454   1.932
 9014SOL    HW127941   2.407   0.469   1.901
 9014SOL    HW227942   2.301   0.357   1.954
 9015SOL     OW27943   6.111   1.699   4.895
 9015SOL    HW127944   6.051   1.732   4.968
 9015SOL    HW227945   6.082   1.740   4.808
 9016SOL     OW27946   6.957   5.944   6.859
 9016SOL    HW127947   6.929   5.867   6.802
 9016SOL    HW227948   6.933   6.030   6.814
 9017SOL     OW27949   0.215   3.270   2.833
 9017SOL    HW127950   0.297   3.271   2.776
 9017SOL    HW227951   0.134   3.280   2.776
 9018SOL     OW27952   4.702   2.005   6.327
 9018SOL    HW127953   4.737   2.095   6.353
 9018SOL    HW227954   4.635   1.975   6.395
 9019SOL     OW27955   1.752   5.565   0.245
 9019SOL    HW127956   1.695   5.550   0.165
 9019SOL    HW227957   1.720   5.509   0.321
 9020SOL     OW27958   0.701   5.062   3.716
 9020SOL    HW127959   0.618   5.032   3.667
 9020SOL    HW227960   0.778   5.065   3.653
 9021SOL     OW27961   5.632   5.150   5.299
 9021SOL    HW127962   5.633   5.115   5.205
 9021SOL    HW227963   5.592   5.081   5.360
 9022SOL     OW27964   2.773   6.769   6.876
 9022SOL    HW127965   2.680   6.754   6.909
 9022SOL    HW227966   2.801   6.693   6.818
 9023SOL     OW27967   3.016   3.361   3.759
 9023SOL    HW127968   3.038   3.266   3.737
 9023SOL    HW227969   2.977   3.406   3.679
 9024SOL     OW27970   1.092   0.627   6.480
 9024SOL    HW127971   1.094   0.693   6.556
 9024SOL    HW227972   0.999   0.621   6.444
 9025SOL     OW27973   0.497   3.459   0.038
 9025SOL    HW127974   0.509   3.381   7.000
 9025SOL    HW227975   0.463   3.538   7.011
 9026SOL     OW27976   2.604   3.566   5.673
 9026SOL    HW127977   2.693   3.610   5.664
 9026SOL    HW227978   2.536   3.634   5.701
 9027SOL     OW27979   1.926   2.790   2.461
 9027SOL    HW127980   1.848   2.780   2.400
 9027SOL    HW227981   1.980   2.706   2.461
 9028SOL     OW27982   2.348   4.528   4.279
 9028SOL    HW127983   2.447   4.542   4.277
 9028SOL    HW227984   2.326   4.459   4.348
 9029SOL     OW27985   5.976   5.446   2.432
 9029SOL    HW127986   5.923   5.395   2.365
 9029SOL    HW227987   5.967   5.544   2.415
 9030SOL     OW27988   3.765   2.013   2.220
 9030SOL    HW127989   3.764   2.081   2.147
 9030SOL    HW227990   3.687   2.029   2.281
 9031SOL     OW27991   2.131   1.326   1.291
 9031SOL    HW127992   2.143   1.408   1.236
 9031SOL    HW227993   2.091   1.350   1.379
 9032SOL     OW27994   0.547   2.784   1.777
 9032SOL    HW127995   0.561   2.792   1.678
 9032SOL    HW227996   0.479   2.851   1.807
 9033SOL     OW27997   1.338   4.002   2.628
 9033SOL    HW127998   1.385   4.016   2.715
 9033SOL    HW227999   1.400   4.019   2.552
 9034SOL     OW28000   1.957   6.532   6.860
 9034SOL    HW128001   1.868   6.576   6.857
 9034SOL    HW228002   1.964   6.476   6.943
 9035SOL     OW28003   6.840   1.475   4.584
 9035SOL    HW128004   6.895   1.393   4.566
 9035SOL    HW228005   6.743   1.449   4.590
 9036SOL     OW28006   0.720   0.993   4.623
 9036SOL    HW128007   0.622   1.006   4.607
 9036SOL    HW228008   0.734   0.949   4.712
 9037SOL     OW28009   2.371   3.611   5.811
 9037SOL    HW128010   2.272   3.629   5.814
 9037SOL    HW228011   2.388   3.530   5.757
 9038SOL     OW28012   4.533   5.357   5.670
 9038SOL    HW128013   4.507   5.277   5.615
 9038SOL    HW228014   4.493   5.439   5.629
 9039SOL     OW28015   2.400   4.552   6.767
 9039SOL    HW128016   2.327   4.523   6.705
 9039SOL    HW228017   2.475   4.591   6.715
 9040SOL     OW28018   2.429   1.889   2.023
 9040SOL    HW128019   2.338   1.890   2.065
 9040SOL    HW228020   2.422   1.854   1.930
 9041SOL     OW28021   1.733   2.941   5.999
 9041SOL    HW128022   1.683   2.854   6.007
 9041SOL    HW228023   1.795   2.937   5.921
 9042SOL     OW28024   1.729   5.613   3.163
 9042SOL    HW128025   1.820   5.574   3.182
 9042SOL    HW228026   1.659   5.544   3.180
 9043SOL     OW28027   0.050   2.509   6.705
 9043SOL    HW128028   0.082   2.456   6.626
 9043SOL    HW228029   0.098   2.478   6.787
 9044SOL     OW28030   0.174   3.973   0.465
 9044SOL    HW128031   0.076   3.993   0.470
 9044SOL    HW228032   0.192   3.916   0.385
 9045SOL     OW28033   2.165   4.697   4.194
 9045SOL    HW128034   2.203   4.788   4.208
 9045SOL    HW228035   2.217   4.631   4.248
 9046SOL     OW28036   3.647   4.678   6.227
 9046SOL    HW128037   3.728   4.623   6.209
 9046SOL    HW228038   3.661   4.770   6.191
 9047SOL     OW28039   0.818   4.652   4.576
 9047SOL    HW128040   0.728   4.632   4.614
 9047SOL    HW228041   0.874   4.569   4.575
 9048SOL     OW28042   2.111   1.939   5.575
 9048SOL    HW128043   2.074   1.856   5.532
 9048SOL    HW228044   2.037   1.991   5.617
 9049SOL     OW28045   4.742   6.593   5.920
 9049SOL    HW128046   4.832   6.615   5.957
 9049SOL    HW228047   4.753   6.541   5.835
 9050SOL     OW28048   6.992   5.420   5.871
 9050SOL    HW128049   0.066   5.429   5.858
 9050SOL    HW228050   6.950   5.387   5.786
 9051SOL     OW28051   5.631   6.575   6.634
 9051SOL    HW128052   5.575   6.541   6.559
 9051SOL    HW228053   5.721   6.533   6.631
 9052SOL     OW28054   2.839   4.886   5.021
 9052SOL    HW128055   2.768   4.923   5.080
 9052SOL    HW228056   2.831   4.786   5.018
 9053SOL     OW28057   2.509   1.496   2.447
 9053SOL    HW128058   2.526   1.459   2.538
 9053SOL    HW228059   2.521   1.595   2.448
 9054SOL     OW28060   1.893   6.891   1.771
 9054SOL    HW128061   1.958   6.881   1.696
 9054SOL    HW228062   1.847   6.803   1.786
 9055SOL     OW28063   0.769   2.214   4.358
 9055SOL    HW128064   0.731   2.233   4.268
 9055SOL    HW228065   0.867   2.192   4.349
 9056SOL     OW28066   4.676   2.762   1.902
 9056SOL    HW128067   4.722   2.844   1.938
 9056SOL    HW228068   4.634   2.784   1.814
 9057SOL     OW28069   3.740   6.446   6.891
 9057SOL    HW128070   3.695   6.503   6.960
 9057SOL    HW228071   3.672   6.410   6.828
 9058SOL     OW28072   2.512   2.228   4.633
 9058SOL    HW128073   2.462   2.173   4.700
 9058SOL    HW228074   2.459   2.309   4.609
 9059SOL     OW28075   0.221   1.502   2.365
 9059SOL    HW128076   0.209   1.561   2.445
 9059SOL    HW228077   0.195   1.409   2.388
 9060SOL     OW28078   7.018   4.937   1.104
 9060SOL    HW128079   6.975   4.848   1.120
 9060SOL    HW228080   6.985   5.002   1.172
 9061SOL     OW28081   5.038   4.107   2.399
 9061SOL    HW128082   5.027   4.013   2.365
 9061SOL    HW228083   5.128   4.142   2.373
 9062SOL     OW28084   0.757   5.709   3.080
 9062SOL    HW128085   0.719   5.790   3.124
 9062SOL    HW228086   0.702   5.629   3.104
 9063SOL     OW28087   4.758   0.843   1.218
 9063SOL    HW128088   4.716   0.758   1.251
 9063SOL    HW228089   4.688   0.914   1.212
 9064SOL     OW28090   1.543   5.506   3.473
 9064SOL    HW128091   1.583   5.598   3.478
 9064SOL    HW228092   1.581   5.458   3.395
 9065SOL     OW28093   3.772   4.238   6.977
 9065SOL    HW128094   3.692   4.184   6.952
 9065SOL    HW228095   3.751   4.335   6.971
 9066SOL     OW28096   4.874   4.715   3.779
 9066SOL    HW128097   4.824   4.653   3.719
 9066SOL    HW228098   4.816   4.742   3.855
 9067SOL     OW28099   2.211   6.560   4.400
 9067SOL    HW128100   2.277   6.506   4.452
 9067SOL    HW228101   2.259   6.637   4.357
 9068SOL     OW28102   4.473   6.908   6.115
 9068SOL    HW128103   4.476   6.980   6.046
 9068SOL    HW228104   4.377   6.892   6.142
 9069SOL     OW28105   5.101   2.526   2.259
 9069SOL    HW128106   5.185   2.542   2.207
 9069SOL    HW228107   5.103   2.581   2.342
 9070SOL     OW28108   1.730   0.792   6.369
 9070SOL    HW128109   1.676   0.708   6.367
 9070SOL    HW228110   1.827   0.768   6.377
 9071SOL     OW28111   5.075   2.699   6.758
 9071SOL    HW128112   5.133   2.734   6.832
 9071SOL    HW228113   4.980   2.698   6.789
 9072SOL     OW28114   5.811   6.820   2.005
 9072SOL    HW128115   5.748   6.769   1.946
 9072SOL    HW228116   5.821   6.913   1.971
 9073SOL     OW28117   4.645   3.372   5.610
 9073SOL    HW128118   4.620   3.434   5.536
 9073SOL    HW228119   4.719   3.312   5.580
 9074SOL     OW28120   1.936   0.899   3.262
 9074SOL    HW128121   1.880   0.852   3.330
 9074SOL    HW228122   1.947   0.840   3.182
 9075SOL     OW28123   4.916   5.735   0.596
 9075SOL    HW128124   4.977   5.691   0.661
 9075SOL    HW228125   4.853   5.667   0.559
 9076SOL     OW28126   1.036   5.997   2.681
 9076SOL    HW128127   1.048   6.057   2.759
 9076SOL    HW228128   0.974   5.922   2.705
 9077SOL     OW28129   6.320   2.167   6.490
 9077SOL    HW128130   6.352   2.190   6.398
 9077SOL    HW228131   6.358   2.078   6.517
 9078SOL     OW28132   5.252   6.782   0.433
 9078SOL    HW128133   5.282   6.851   0.367
 9078SOL    HW228134   5.308   6.787   0.515
 9079SOL     OW28135   1.290   1.245   5.973
 9079SOL    HW128136   1.332   1.230   6.063
 9079SOL    HW228137   1.196   1.213   5.974
 9080SOL     OW28138   6.464   4.370   2.396
 9080SOL    HW128139   6.423   4.348   2.308
 9080SOL    HW228140   6.459   4.289   2.456
 9081SOL     OW28141   5.034   1.541   0.694
 9081SOL    HW128142   5.103   1.480   0.732
 9081SOL    HW228143   4.998   1.601   0.767
 9082SOL     OW28144   3.413   4.827   6.767
 9082SOL    HW128145   3.402   4.806   6.670
 9082SOL    HW228146   3.432   4.743   6.818
 9083SOL     OW28147   3.426   0.292   0.756
 9083SOL    HW128148   3.334   0.325   0.733
 9083SOL    HW228149   3.489   0.312   0.682
 9084SOL     OW28150   0.027   3.983   4.837
 9084SOL    HW128151   0.097   3.947   4.775
 9084SOL    HW228152   0.072   4.028   4.914
 9085SOL     OW28153   2.846   4.851   0.828
 9085SOL    HW128154   2.833   4.901   0.913
 9085SOL    HW228155   2.884   4.760   0.848
 9086SOL     OW28156   0.147   3.038   0.435
 9086SOL    HW128157   0.119   2.975   0.507
 9086SOL    HW228158   0.192   3.118   0.476
 9087SOL     OW28159   5.117   1.698   1.820
 9087SOL    HW128160   5.043   1.632   1.808
 9087SOL    HW228161   5.205   1.652   1.806
 9088SOL     OW28162   5.890   5.444   0.196
 9088SOL    HW128163   5.964   5.381   0.219
 9088SOL    HW228164   5.928   5.532   0.167
 9089SOL     OW28165   5.335   5.068   3.344
 9089SOL    HW128166   5.391   5.055   3.262
 9089SOL    HW228167   5.301   4.979   3.375
 9090SOL     OW28168   5.168   5.825   5.866
 9090SOL    HW128169   5.194   5.730   5.850
 9090SOL    HW228170   5.245   5.874   5.908
 9091SOL     OW28171   2.692   2.148   1.960
 9091SOL    HW128172   2.766   2.208   1.990
 9091SOL    HW228173   2.710   2.055   1.991
 9092SOL     OW28174   2.258   1.647   5.037
 9092SOL    HW128175   2.190   1.716   5.064
 9092SOL    HW228176   2.247   1.627   4.940
 9093SOL     OW28177   2.175   3.503   0.685
 9093SOL    HW128178   2.205   3.481   0.592
 9093SOL    HW228179   2.206   3.595   0.709
 9094SOL     OW28180   6.190   3.856   0.863
 9094SOL    HW128181   6.214   3.938   0.810
 9094SOL    HW228182   6.246   3.779   0.833
 9095SOL     OW28183   2.256   3.006   0.092
 9095SOL    HW128184   2.220   2.913   0.088
 9095SOL    HW228185   2.232   3.055   0.008
 9096SOL     OW28186   6.437   3.722   3.104
 9096SOL    HW128187   6.536   3.727   3.092
 9096SOL    HW228188   6.409   3.778   3.181
 9097SOL     OW28189   6.369   6.406   5.978
 9097SOL    HW128190   6.287   6.463   5.970
 9097SOL    HW228191   6.405   6.414   6.071
 9098SOL     OW28192   3.426   4.205   4.777
 9098SOL    HW128193   3.331   4.197   4.748
 9098SOL    HW228194   3.433   4.186   4.874
 9099SOL     OW28195   1.618   2.088   0.081
 9099SOL    HW128196   1.680   2.153   0.038
 9099SOL    HW228197   1.565   2.133   0.153
 9100SOL     OW28198   1.681   3.086   0.097
 9100SOL    HW128199   1.619   3.031   0.040
 9100SOL    HW228200   1.645   3.179   0.105
 9101SOL     OW28201   2.054   1.885   6.847
 9101SOL    HW128202   2.009   1.918   6.930
 9101SOL    HW228203   2.064   1.960   6.782
 9102SOL     OW28204   5.170   6.297   2.816
 9102SOL    HW128205   5.088   6.254   2.777
 9102SOL    HW228206   5.181   6.268   2.911
 9103SOL     OW28207   0.552   4.950   6.060
 9103SOL    HW128208   0.580   4.934   6.155
 9103SOL    HW228209   0.601   5.029   6.023
 9104SOL     OW28210   5.226   0.161   2.731
 9104SOL    HW128211   5.251   0.121   2.819
 9104SOL    HW228212   5.131   0.139   2.710
 9105SOL     OW28213   2.776   1.323   5.477
 9105SOL    HW128214   2.682   1.350   5.496
 9105SOL    HW228215   2.830   1.328   5.562
 9106SOL     OW28216   6.287   4.812   1.753
 9106SOL    HW128217   6.232   4.745   1.703
 9106SOL    HW228218   6.325   4.769   1.835
 9107SOL     OW28219   4.543   0.372   0.216
 9107SOL    HW128220   4.600   0.447   0.182
 9107SOL    HW228221   4.481   0.406   0.286
 9108SOL     OW28222   3.912   5.869   6.867
 9108SOL    HW128223   3.883   5.961   6.895
 9108SOL    HW228224   3.953   5.822   6.946
 9109SOL     OW28225   3.221   1.248   4.736
 9109SOL    HW128226   3.177   1.177   4.681
 9109SOL    HW228227   3.320   1.232   4.737
 9110SOL     OW28228   1.364   3.099   3.088
 9110SOL    HW128229   1.357   3.010   3.133
 9110SOL    HW228230   1.452   3.141   3.109
 9111SOL     OW28231   4.164   4.112   1.644
 9111SOL    HW128232   4.099   4.047   1.682
 9111SOL    HW228233   4.231   4.138   1.714
 9112SOL     OW28234   0.856   5.273   1.899
 9112SOL    HW128235   0.838   5.217   1.817
 9112SOL    HW228236   0.945   5.317   1.889
 9113SOL     OW28237   3.185   5.987   0.040
 9113SOL    HW128238   3.096   6.012   0.078
 9113SOL    HW228239   3.257   6.039   0.085
 9114SOL     OW28240   2.742   4.122   1.598
 9114SOL    HW128241   2.676   4.193   1.623
 9114SOL    HW228242   2.749   4.117   1.498
 9115SOL     OW28243   1.759   4.553   3.995
 9115SOL    HW128244   1.715   4.584   3.911
 9115SOL    HW228245   1.856   4.536   3.977
 9116SOL     OW28246   2.240   1.547   5.780
 9116SOL    HW128247   2.307   1.620   5.769
 9116SOL    HW228248   2.259   1.495   5.863
 9117SOL     OW28249   6.760   3.268   6.513
 9117SOL    HW128250   6.672   3.283   6.468
 9117SOL    HW228251   6.801   3.184   6.478
 9118SOL     OW28252   0.261   5.289   1.248
 9118SOL    HW128253   0.326   5.225   1.289
 9118SOL    HW228254   0.227   5.351   1.319
 9119SOL     OW28255   6.222   6.995   0.759
 9119SOL    HW128256   6.147   6.960   0.815
 9119SOL    HW228257   6.197   6.991   0.662
 9120SOL     OW28258   5.715   1.293   6.329
 9120SOL    HW128259   5.667   1.349   6.396
 9120SOL    HW228260   5.788   1.242   6.374
 9121SOL     OW28261   1.420   0.980   6.734
 9121SOL    HW128262   1.471   0.913   6.787
 9121SOL    HW228263   1.335   1.003   6.781
 9122SOL     OW28264   0.752   2.408   0.802
 9122SOL    HW128265   0.677   2.425   0.738
 9122SOL    HW228266   0.717   2.414   0.896
 9123SOL     OW28267   2.710   6.389   6.909
 9123SOL    HW128268   2.618   6.407   6.943
 9123SOL    HW228269   2.769   6.360   6.985
 9124SOL     OW28270   5.934   4.590   5.754
 9124SOL    HW128271   5.955   4.635   5.668
 9124SOL    HW228272   5.957   4.650   5.830
 9125SOL     OW28273   4.781   5.968   1.803
 9125SOL    HW128274   4.769   5.870   1.813
 9125SOL    HW228275   4.857   5.987   1.741
 9126SOL     OW28276   5.773   0.122   2.408
 9126SOL    HW128277   5.814   0.212   2.397
 9126SOL    HW228278   5.824   0.055   2.354
 9127SOL     OW28279   5.036   6.554   6.777
 9127SOL    HW128280   4.969   6.536   6.849
 9127SOL    HW228281   5.122   6.508   6.800
 9128SOL     OW28282   5.057   2.735   5.136
 9128SOL    HW128283   4.962   2.715   5.113
 9128SOL    HW228284   5.093   2.662   5.195
 9129SOL     OW28285   2.110   1.577   6.510
 9129SOL    HW128286   2.196   1.628   6.499
 9129SOL    HW228287   2.044   1.608   6.441
 9130SOL     OW28288   6.002   5.480   1.045
 9130SOL    HW128289   5.990   5.416   1.121
 9130SOL    HW228290   5.913   5.511   1.013
 9131SOL     OW28291   0.349   4.468   3.976
 9131SOL    HW128292   0.297   4.458   4.060
 9131SOL    HW228293   0.300   4.425   3.900
 9132SOL     OW28294   1.699   3.125   4.368
 9132SOL    HW128295   1.612   3.079   4.380
 9132SOL    HW228296   1.766   3.061   4.330
 9133SOL     OW28297   1.470   4.510   0.964
 9133SOL    HW128298   1.489   4.564   0.882
 9133SOL    HW228299   1.429   4.569   1.034
 9134SOL     OW28300   2.747   4.939   6.118
 9134SOL    HW128301   2.706   4.857   6.077
 9134SOL    HW228302   2.846   4.937   6.104
 9135SOL     OW28303   0.192   5.827   4.094
 9135SOL    HW128304   0.288   5.825   4.120
 9135SOL    HW228305   0.183   5.813   3.995
 9136SOL     OW28306   4.213   5.289   6.257
 9136SOL    HW128307   4.222   5.309   6.160
 9136SOL    HW228308   4.275   5.214   6.282
 9137SOL     OW28309   4.255   1.224   2.456
 9137SOL    HW128310   4.277   1.315   2.421
 9137SOL    HW228311   4.210   1.170   2.385
 9138SOL     OW28312   3.419   4.677   0.814
 9138SOL    HW128313   3.464   4.705   0.898
 9138SOL    HW228314   3.429   4.749   0.745
 9139SOL     OW28315   3.662   1.003   5.478
 9139SOL    HW128316   3.690   1.037   5.389
 9139SOL    HW228317   3.614   1.075   5.528
 9140SOL     OW28318   0.198   2.265   3.416
 9140SOL    HW128319   0.160   2.179   3.382
 9140SOL    HW228320   0.295   2.252   3.438
 9141SOL     OW28321   6.004   0.731   5.859
 9141SOL    HW128322   5.964   0.791   5.789
 9141SOL    HW228323   5.973   0.760   5.950
 9142SOL     OW28324   1.088   4.212   6.158
 9142SOL    HW128325   1.070   4.137   6.094
 9142SOL    HW228326   1.187   4.226   6.166
 9143SOL     OW28327   5.269   4.265   1.040
 9143SOL    HW128328   5.269   4.258   1.140
 9143SOL    HW228329   5.236   4.355   1.013
 9144SOL     OW28330   1.448   4.758   4.929
 9144SOL    HW128331   1.477   4.664   4.913
 9144SOL    HW228332   1.406   4.795   4.846
 9145SOL     OW28333   0.252   4.020   6.608
 9145SOL    HW128334   0.328   3.954   6.606
 9145SOL    HW228335   0.165   3.970   6.610
 9146SOL     OW28336   6.908   1.606   1.654
 9146SOL    HW128337   6.865   1.526   1.697
 9146SOL    HW228338   6.845   1.684   1.658
 9147SOL     OW28339   4.220   6.371   6.088
 9147SOL    HW128340   4.198   6.377   5.991
 9147SOL    HW228341   4.294   6.305   6.102
 9148SOL     OW28342   3.657   5.860   3.103
 9148SOL    HW128343   3.735   5.811   3.065
 9148SOL    HW228344   3.674   5.959   3.096
 9149SOL     OW28345   5.810   3.342   3.581
 9149SOL    HW128346   5.732   3.317   3.639
 9149SOL    HW228347   5.873   3.265   3.576
 9150SOL     OW28348   4.288   1.312   3.201
 9150SOL    HW128349   4.286   1.295   3.102
 9150SOL    HW228350   4.285   1.410   3.218
 9151SOL     OW28351   1.489   3.652   2.146
 9151SOL    HW128352   1.461   3.562   2.179
 9151SOL    HW228353   1.589   3.658   2.146
 9152SOL     OW28354   2.443   5.599   2.705
 9152SOL    HW128355   2.430   5.516   2.651
 9152SOL    HW228356   2.387   5.595   2.788
 9153SOL     OW28357   1.449   3.292   6.235
 9153SOL    HW128358   1.469   3.258   6.143
 9153SOL    HW228359   1.376   3.238   6.275
 9154SOL     OW28360   2.025   5.850   0.530
 9154SOL    HW128361   2.064   5.835   0.620
 9154SOL    HW228362   2.055   5.939   0.495
 9155SOL     OW28363   1.577   4.221   0.297
 9155SOL    HW128364   1.568   4.282   0.376
 9155SOL    HW228365   1.497   4.161   0.292
 9156SOL     OW28366   5.602   2.840   2.078
 9156SOL    HW128367   5.586   2.938   2.065
 9156SOL    HW228368   5.517   2.789   2.063
 9157SOL     OW28369   5.118   3.810   5.715
 9157SOL    HW128370   5.126   3.811   5.815
 9157SOL    HW228371   5.188   3.869   5.675
 9158SOL     OW28372   0.686   3.767   3.260
 9158SOL    HW128373   0.781   3.739   3.276
 9158SOL    HW228374   0.680   3.867   3.263
 9159SOL     OW28375   0.233   4.178   3.123
 9159SOL    HW128376   0.311   4.196   3.184
 9159SOL    HW228377   0.199   4.086   3.140
 9160SOL     OW28378   6.883   6.931   0.260
 9160SOL    HW128379   6.953   6.934   0.332
 9160SOL    HW228380   6.794   6.952   0.300
 9161SOL     OW28381   5.441   3.751   3.921
 9161SOL    HW128382   5.380   3.791   3.988
 9161SOL    HW228383   5.478   3.823   3.861
 9162SOL     OW28384   5.182   1.904   2.261
 9162SOL    HW128385   5.163   1.916   2.164
 9162SOL    HW228386   5.158   1.811   2.288
 9163SOL     OW28387   3.471   1.818   3.924
 9163SOL    HW128388   3.439   1.763   4.001
 9163SOL    HW228389   3.500   1.757   3.850
 9164SOL     OW28390   2.701   6.887   0.312
 9164SOL    HW128391   2.760   6.928   0.243
 9164SOL    HW228392   2.654   6.960   0.363
 9165SOL     OW28393   5.256   6.509   0.197
 9165SOL    HW128394   5.323   6.445   0.232
 9165SOL    HW228395   5.200   6.543   0.273
 9166SOL     OW28396   3.035   5.611   1.689
 9166SOL    HW128397   3.015   5.709   1.688
 9166SOL    HW228398   3.132   5.597   1.668
 9167SOL     OW28399   0.980   4.428   4.575
 9167SOL    HW128400   0.928   4.415   4.491
 9167SOL    HW228401   1.034   4.345   4.593
 9168SOL     OW28402   2.254   0.272   6.448
 9168SOL    HW128403   2.155   0.268   6.459
 9168SOL    HW228404   2.298   0.230   6.527
 9169SOL     OW28405   6.539   6.592   3.079
 9169SOL    HW128406   6.539   6.507   3.132
 9169SOL    HW228407   6.620   6.646   3.103
 9170SOL     OW28408   6.277   5.935   6.740
 9170SOL    HW128409   6.326   5.973   6.819
 9170SOL    HW228410   6.184   5.911   6.767
 9171SOL     OW28411   2.536   5.721   5.800
 9171SOL    HW128412   2.563   5.688   5.890
 9171SOL    HW228413   2.479   5.803   5.811
 9172SOL     OW28414   2.560   2.363   4.009
 9172SOL    HW128415   2.589   2.369   3.913
 9172SOL    HW228416   2.522   2.272   4.026
 9173SOL     OW28417   0.488   4.851   5.155
 9173SOL    HW128418   0.585   4.850   5.179
 9173SOL    HW228419   0.477   4.824   5.059
 9174SOL     OW28420   0.099   5.143   0.307
 9174SOL    HW128421   0.025   5.119   0.369
 9174SOL    HW228422   0.181   5.166   0.359
 9175SOL     OW28423   1.683   0.258   5.092
 9175SOL    HW128424   1.627   0.295   5.018
 9175SOL    HW228425   1.671   0.159   5.096
 9176SOL     OW28426   1.602   1.041   5.604
 9176SOL    HW128427   1.615   0.942   5.613
 9176SOL    HW228428   1.687   1.088   5.629
 9177SOL     OW28429   1.241   4.871   3.551
 9177SOL    HW128430   1.189   4.811   3.491
 9177SOL    HW228431   1.231   4.966   3.520
 9178SOL     OW28432   2.105   4.546   0.888
 9178SOL    HW128433   2.201   4.521   0.885
 9178SOL    HW228434   2.080   4.572   0.981
 9179SOL     OW28435   2.838   4.973   4.712
 9179SOL    HW128436   2.832   4.948   4.809
 9179SOL    HW228437   2.845   5.072   4.704
 9180SOL     OW28438   4.985   2.113   2.925
 9180SOL    HW128439   4.963   2.158   3.012
 9180SOL    HW228440   4.967   2.176   2.850
 9181SOL     OW28441   3.963   1.329   2.407
 9181SOL    HW128442   4.027   1.400   2.435
 9181SOL    HW228443   3.941   1.340   2.310
 9182SOL     OW28444   1.522   6.853   1.711
 9182SOL    HW128445   1.594   6.813   1.655
 9182SOL    HW228446   1.501   6.945   1.678
 9183SOL     OW28447   5.198   5.418   6.605
 9183SOL    HW128448   5.297   5.430   6.597
 9183SOL    HW228449   5.161   5.487   6.666
 9184SOL     OW28450   4.831   6.718   0.283
 9184SOL    HW128451   4.762   6.755   0.220
 9184SOL    HW228452   4.788   6.700   0.372
 9185SOL     OW28453   4.388   1.234   5.435
 9185SOL    HW128454   4.450   1.164   5.400
 9185SOL    HW228455   4.295   1.198   5.437
 9186SOL     OW28456   5.527   6.801   6.751
 9186SOL    HW128457   5.565   6.711   6.730
 9186SOL    HW228458   5.428   6.795   6.755
 9187SOL     OW28459   2.699   6.123   2.088
 9187SOL    HW128460   2.634   6.160   2.156
 9187SOL    HW228461   2.780   6.181   2.086
 9188SOL     OW28462   2.397   6.075   1.655
 9188SOL    HW128463   2.432   5.983   1.636
 9188SOL    HW228464   2.370   6.081   1.752
 9189SOL     OW28465   5.642   5.130   1.807
 9189SOL    HW128466   5.696   5.052   1.839
 9189SOL    HW228467   5.625   5.120   1.709
 9190SOL     OW28468   1.524   5.201   0.586
 9190SOL    HW128469   1.471   5.149   0.519
 9190SOL    HW228470   1.598   5.144   0.622
 9191SOL     OW28471   6.880   0.544   6.206
 9191SOL    HW128472   6.874   0.636   6.246
 9191SOL    HW228473   6.871   0.476   6.278
 9192SOL     OW28474   0.098   3.626   3.563
 9192SOL    HW128475   0.140   3.715   3.581
 9192SOL    HW228476   0.163   3.553   3.582
 9193SOL     OW28477   2.909   3.296   6.710
 9193SOL    HW128478   2.923   3.375   6.769
 9193SOL    HW228479   2.997   3.253   6.690
 9194SOL     OW28480   3.445   0.405   4.482
 9194SOL    HW128481   3.470   0.464   4.558
 9194SOL    HW228482   3.513   0.333   4.471
 9195SOL     OW28483   1.680   1.161   3.624
 9195SOL    HW128484   1.672   1.253   3.661
 9195SOL    HW228485   1.652   1.161   3.528
 9196SOL     OW28486   4.874   2.314   5.636
 9196SOL    HW128487   4.921   2.227   5.646
 9196SOL    HW228488   4.778   2.298   5.612
 9197SOL     OW28489   2.373   3.794   1.265
 9197SOL    HW128490   2.307   3.750   1.204
 9197SOL    HW228491   2.466   3.777   1.231
 9198SOL     OW28492   0.284   4.781   4.105
 9198SOL    HW128493   0.342   4.759   4.027
 9198SOL    HW228494   0.268   4.880   4.109
 9199SOL     OW28495   6.317   4.944   4.846
 9199SOL    HW128496   6.310   4.865   4.907
 9199SOL    HW228497   6.239   4.945   4.784
 9200SOL     OW28498   2.668   0.213   0.197
 9200SOL    HW128499   2.613   0.195   0.116
 9200SOL    HW228500   2.764   0.225   0.171
 9201SOL     OW28501   1.836   4.139   0.329
 9201SOL    HW128502   1.845   4.098   0.420
 9201SOL    HW228503   1.740   4.144   0.303
 9202SOL     OW28504   2.487   0.588   3.756
 9202SOL    HW128505   2.554   0.580   3.830
 9202SOL    HW228506   2.424   0.510   3.760
 9203SOL     OW28507   6.880   0.149   0.820
 9203SOL    HW128508   6.882   0.218   0.748
 9203SOL    HW228509   6.971   0.108   0.831
 9204SOL     OW28510   5.138   0.424   5.685
 9204SOL    HW128511   5.195   0.496   5.645
 9204SOL    HW228512   5.095   0.371   5.613
 9205SOL     OW28513   0.185   4.721   1.511
 9205SOL    HW128514   0.165   4.638   1.564
 9205SOL    HW228515   0.259   4.702   1.447
 9206SOL     OW28516   3.371   6.009   0.475
 9206SOL    HW128517   3.401   6.014   0.380
 9206SOL    HW228518   3.316   6.090   0.497
 9207SOL     OW28519   5.438   5.453   6.415
 9207SOL    HW128520   5.422   5.362   6.375
 9207SOL    HW228521   5.484   5.443   6.503
 9208SOL     OW28522   1.385   3.822   3.017
 9208SOL    HW128523   1.356   3.747   2.958
 9208SOL    HW228524   1.421   3.896   2.961
 9209SOL     OW28525   3.227   0.239   6.492
 9209SOL    HW128526   3.280   0.181   6.429
 9209SOL    HW228527   3.200   0.323   6.445
 9210SOL     OW28528   0.033   0.460   3.656
 9210SOL    HW128529   0.014   0.406   3.738
 9210SOL    HW228530   0.077   0.402   3.588
 9211SOL     OW28531   0.732   1.767   2.174
 9211SOL    HW128532   0.805   1.824   2.213
 9211SOL    HW228533   0.761   1.730   2.086
 9212SOL     OW28534   3.229   4.948   4.459
 9212SOL    HW128535   3.148   5.007   4.464
 9212SOL    HW228536   3.241   4.900   4.546
 9213SOL     OW28537   6.260   4.258   6.572
 9213SOL    HW128538   6.193   4.185   6.566
 9213SOL    HW228539   6.215   4.347   6.560
 9214SOL     OW28540   0.297   4.753   1.015
 9214SOL    HW128541   0.347   4.762   0.929
 9214SOL    HW228542   0.221   4.688   1.003
 9215SOL     OW28543   1.233   1.146   0.943
 9215SOL    HW128544   1.172   1.104   0.876
 9215SOL    HW228545   1.201   1.238   0.963
 9216SOL     OW28546   1.899   6.913   3.204
 9216SOL    HW128547   1.951   6.859   3.270
 9216SOL    HW228548   1.821   6.955   3.250
 9217SOL     OW28549   0.725   2.701   0.247
 9217SOL    HW128550   0.764   2.786   0.212
 9217SOL    HW228551   0.629   2.715   0.270
 9218SOL     OW28552   2.825   0.874   0.606
 9218SOL    HW128553   2.884   0.954   0.611
 9218SOL    HW228554   2.732   0.903   0.584
 9219SOL     OW28555   7.018   1.560   0.676
 9219SOL    HW128556   0.054   1.591   0.748
 9219SOL    HW228557   0.014   1.465   0.653
 9220SOL     OW28558   2.938   6.264   2.048
 9220SOL    HW128559   2.935   6.363   2.063
 9220SOL    HW228560   3.001   6.244   1.973
 9221SOL     OW28561   2.878   5.482   4.607
 9221SOL    HW128562   2.978   5.485   4.604
 9221SOL    HW228563   2.849   5.439   4.693
 9222SOL     OW28564   2.795   2.308   5.976
 9222SOL    HW128565   2.892   2.326   5.989
 9222SOL    HW228566   2.769   2.335   5.883
 9223SOL     OW28567   2.778   3.105   5.342
 9223SOL    HW128568   2.814   3.185   5.295
 9223SOL    HW228569   2.688   3.082   5.305
 9224SOL     OW28570   2.283   5.155   4.911
 9224SOL    HW128571   2.191   5.169   4.949
 9224SOL    HW228572   2.293   5.207   4.827
 9225SOL     OW28573   2.224   6.401   0.144
 9225SOL    HW128574   2.282   6.418   0.224
 9225SOL    HW228575   2.223   6.482   0.086
 9226SOL     OW28576   3.679   6.539   1.499
 9226SOL    HW128577   3.709   6.584   1.583
 9226SOL    HW228578   3.591   6.495   1.514
 9227SOL     OW28579   1.600   6.180   1.862
 9227SOL    HW128580   1.694   6.212   1.879
 9227SOL    HW228581   1.579   6.191   1.765
 9228SOL     OW28582   0.623   0.244   6.958
 9228SOL    HW128583   0.685   0.312   6.919
 9228SOL    HW228584   0.649   0.153   6.926
 9229SOL     OW28585   0.551   5.830   5.446
 9229SOL    HW128586   0.570   5.746   5.496
 9229SOL    HW228587   0.495   5.810   5.366
 9230SOL     OW28588   5.669   0.707   3.976
 9230SOL    HW128589   5.619   0.669   3.897
 9230SOL    HW228590   5.627   0.793   4.003
 9231SOL     OW28591   1.912   3.049   3.118
 9231SOL    HW128592   1.870   3.090   3.199
 9231SOL    HW228593   2.011   3.044   3.131
 9232SOL     OW28594   4.246   4.760   1.529
 9232SOL    HW128595   4.244   4.692   1.456
 9232SOL    HW228596   4.178   4.831   1.511
 9233SOL     OW28597   4.693   4.897   1.201
 9233SOL    HW128598   4.694   4.976   1.262
 9233SOL    HW228599   4.666   4.816   1.254
 9234SOL     OW28600   2.406   6.095   3.719
 9234SOL    HW128601   2.412   6.021   3.652
 9234SOL    HW228602   2.440   6.062   3.807
 9235SOL     OW28603   0.751   2.023   3.116
 9235SOL    HW128604   0.754   1.946   3.052
 9235SOL    HW228605   0.834   2.078   3.106
 9236SOL     OW28606   3.709   2.794   5.711
 9236SOL    HW128607   3.736   2.827   5.801
 9236SOL    HW228608   3.711   2.694   5.710
 9237SOL     OW28609   1.813   3.373   3.930
 9237SOL    HW128610   1.823   3.287   3.881
 9237SOL    HW228611   1.733   3.423   3.895
 9238SOL     OW28612   4.650   3.446   6.584
 9238SOL    HW128613   4.562   3.443   6.630
 9238SOL    HW228614   4.724   3.440   6.651
 9239SOL     OW28615   1.858   4.050   6.973
 9239SOL    HW128616   1.926   4.103   0.000
 9239SOL    HW228617   1.811   4.111   6.909
 9240SOL     OW28618   4.487   0.750   2.766
 9240SOL    HW128619   4.551   0.700   2.707
 9240SOL    HW228620   4.537   0.822   2.815
 9241SOL     OW28621   0.624   6.092   0.077
 9241SOL    HW128622   0.708   6.086   0.023
 9241SOL    HW228623   0.550   6.046   0.029
 9242SOL     OW28624   6.433   6.108   1.494
 9242SOL    HW128625   6.517   6.146   1.532
 9242SOL    HW228626   6.437   6.111   1.394
 9243SOL     OW28627   6.514   6.476   4.576
 9243SOL    HW128628   6.565   6.479   4.490
 9243SOL    HW228629   6.422   6.514   4.561
 9244SOL     OW28630   2.969   5.222   6.916
 9244SOL    HW128631   3.057   5.245   6.956
 9244SOL    HW228632   2.907   5.301   6.922
 9245SOL     OW28633   0.618   5.942   1.058
 9245SOL    HW128634   0.682   5.875   1.095
 9245SOL    HW228635   0.659   6.033   1.062
 9246SOL     OW28636   0.223   4.724   4.359
 9246SOL    HW128637   0.180   4.634   4.367
 9246SOL    HW228638   0.247   4.740   4.263
 9247SOL     OW28639   1.819   6.597   2.391
 9247SOL    HW128640   1.826   6.510   2.439
 9247SOL    HW228641   1.836   6.584   2.294
 9248SOL     OW28642   3.434   1.841   6.270
 9248SOL    HW128643   3.367   1.891   6.325
 9248SOL    HW228644   3.496   1.906   6.226
 9249SOL     OW28645   4.648   6.768   3.365
 9249SOL    HW128646   4.668   6.865   3.350
 9249SOL    HW228647   4.659   6.718   3.279
 9250SOL     OW28648   5.596   3.530   3.819
 9250SOL    HW128649   5.522   3.479   3.775
 9250SOL    HW228650   5.557   3.602   3.876
 9251SOL     OW28651   3.424   1.801   2.824
 9251SOL    HW128652   3.391   1.824   2.733
 9251SOL    HW228653   3.523   1.810   2.827
 9252SOL     OW28654   1.749   6.677   4.565
 9252SOL    HW128655   1.823   6.611   4.576
 9252SOL    HW228656   1.754   6.719   4.474
 9253SOL     OW28657   0.978   0.058   5.444
 9253SOL    HW128658   1.043   0.057   5.519
 9253SOL    HW228659   0.891   0.019   5.474
 9254SOL     OW28660   5.658   3.403   1.526
 9254SOL    HW128661   5.625   3.496   1.506
 9254SOL    HW228662   5.635   3.343   1.450
 9255SOL     OW28663   0.014   4.593   0.232
 9255SOL    HW128664   6.956   4.558   0.189
 9255SOL    HW228665   0.094   4.556   0.186
 9256SOL     OW28666   4.152   5.023   1.711
 9256SOL    HW128667   4.195   5.003   1.800
 9256SOL    HW228668   4.150   5.122   1.697
 9257SOL     OW28669   1.066   3.599   1.093
 9257SOL    HW128670   1.064   3.589   1.192
 9257SOL    HW228671   1.132   3.671   1.068
 9258SOL     OW28672   3.991   3.940   3.710
 9258SOL    HW128673   4.046   3.933   3.794
 9258SOL    HW228674   3.935   4.022   3.713
 9259SOL     OW28675   0.925   2.758   0.018
 9259SOL    HW128676   1.000   2.824   0.029
 9259SOL    HW228677   0.883   2.769   6.953
 9260SOL     OW28678   5.759   3.592   6.734
 9260SOL    HW128679   5.796   3.597   6.827
 9260SOL    HW228680   5.757   3.683   6.693
 9261SOL     OW28681   4.318   0.244   0.018
 9261SOL    HW128682   4.255   0.229   0.094
 9261SOL    HW228683   4.376   0.323   0.037
 9262SOL     OW28684   5.082   0.972   5.523
 9262SOL    HW128685   5.159   0.945   5.465
 9262SOL    HW228686   5.019   0.895   5.533
 9263SOL     OW28687   5.463   3.776   2.152
 9263SOL    HW128688   5.492   3.703   2.214
 9263SOL    HW228689   5.486   3.750   2.058
 9264SOL     OW28690   6.496   2.849   0.176
 9264SOL    HW128691   6.406   2.875   0.143
 9264SOL    HW228692   6.487   2.805   0.266
 9265SOL     OW28693   1.914   1.141   5.350
 9265SOL    HW128694   1.833   1.083   5.356
 9265SOL    HW228695   1.889   1.235   5.372
 9266SOL     OW28696   2.040   6.226   2.336
 9266SOL    HW128697   2.128   6.187   2.364
 9266SOL    HW228698   1.971   6.153   2.333
 9267SOL     OW28699   2.648   4.958   5.201
 9267SOL    HW128700   2.575   4.890   5.196
 9267SOL    HW228701   2.674   4.973   5.297
 9268SOL     OW28702   0.276   0.963   2.692
 9268SOL    HW128703   0.368   0.951   2.729
 9268SOL    HW228704   0.250   0.880   2.642
 9269SOL     OW28705   3.715   1.757   5.643
 9269SOL    HW128706   3.762   1.752   5.731
 9269SOL    HW228707   3.782   1.748   5.569
 9270SOL     OW28708   0.886   6.788   5.711
 9270SOL    HW128709   0.979   6.763   5.684
 9270SOL    HW228710   0.888   6.873   5.765
 9271SOL     OW28711   1.045   4.898   6.955
 9271SOL    HW128712   0.954   4.940   6.956
 9271SOL    HW228713   1.097   4.932   6.877
 9272SOL     OW28714   2.773   4.896   6.839
 9272SOL    HW128715   2.835   4.918   6.915
 9272SOL    HW228716   2.786   4.801   6.812
 9273SOL     OW28717   3.925   5.878   5.530
 9273SOL    HW128718   3.848   5.922   5.484
 9273SOL    HW228719   3.925   5.903   5.627
 9274SOL     OW28720   5.667   2.208   1.199
 9274SOL    HW128721   5.651   2.129   1.139
 9274SOL    HW228722   5.697   2.285   1.143
 9275SOL     OW28723   0.674   0.379   6.202
 9275SOL    HW128724   0.757   0.347   6.249
 9275SOL    HW228725   0.598   0.319   6.224
 9276SOL     OW28726   4.609   6.064   4.852
 9276SOL    HW128727   4.542   6.032   4.918
 9276SOL    HW228728   4.646   5.986   4.802
 9277SOL     OW28729   3.627   2.615   0.569
 9277SOL    HW128730   3.600   2.541   0.508
 9277SOL    HW228731   3.719   2.646   0.545
 9278SOL     OW28732   1.195   2.345   1.510
 9278SOL    HW128733   1.288   2.381   1.507
 9278SOL    HW228734   1.168   2.328   1.605
 9279SOL     OW28735   3.182   0.222   1.542
 9279SOL    HW128736   3.238   0.204   1.461
 9279SOL    HW228737   3.233   0.281   1.605
 9280SOL     OW28738   2.026   0.351   2.993
 9280SOL    HW128739   1.957   0.345   3.065
 9280SOL    HW228740   1.985   0.320   2.906
 9281SOL     OW28741   1.827   3.006   0.587
 9281SOL    HW128742   1.799   2.932   0.648
 9281SOL    HW228743   1.809   2.980   0.492
 9282SOL     OW28744   4.598   2.310   6.461
 9282SOL    HW128745   4.507   2.346   6.479
 9282SOL    HW228746   4.649   2.376   6.405
 9283SOL     OW28747   5.833   1.676   2.561
 9283SOL    HW128748   5.910   1.686   2.498
 9283SOL    HW228749   5.797   1.766   2.584
 9284SOL     OW28750   3.128   3.690   1.974
 9284SOL    HW128751   3.200   3.742   2.019
 9284SOL    HW228752   3.164   3.602   1.943
 9285SOL     OW28753   6.158   2.629   6.504
 9285SOL    HW128754   6.080   2.675   6.546
 9285SOL    HW228755   6.242   2.682   6.520
 9286SOL     OW28756   5.391   6.332   5.105
 9286SOL    HW128757   5.351   6.398   5.169
 9286SOL    HW228758   5.384   6.240   5.142
 9287SOL     OW28759   2.903   6.598   1.982
 9287SOL    HW128760   2.983   6.634   2.030
 9287SOL    HW228761   2.820   6.627   2.029
 9288SOL     OW28762   4.636   2.784   5.679
 9288SOL    HW128763   4.564   2.852   5.661
 9288SOL    HW228764   4.693   2.774   5.597
 9289SOL     OW28765   4.836   3.120   2.844
 9289SOL    HW128766   4.867   3.145   2.936
 9289SOL    HW228767   4.761   3.180   2.816
 9290SOL     OW28768   4.578   2.104   4.815
 9290SOL    HW128769   4.549   2.030   4.753
 9290SOL    HW228770   4.550   2.192   4.776
 9291SOL     OW28771   0.770   2.039   4.794
 9291SOL    HW128772   0.745   2.095   4.874
 9291SOL    HW228773   0.704   2.056   4.720
 9292SOL     OW28774   6.606   3.564   6.870
 9292SOL    HW128775   6.586   3.660   6.893
 9292SOL    HW228776   6.701   3.544   6.891
 9293SOL     OW28777   5.781   4.211   6.857
 9293SOL    HW128778   5.690   4.192   6.820
 9293SOL    HW228779   5.849   4.198   6.786
 9294SOL     OW28780   5.711   5.922   0.063
 9294SOL    HW128781   5.668   5.971   7.012
 9294SOL    HW228782   5.646   5.913   0.139
 9295SOL     OW28783   4.876   1.777   3.590
 9295SOL    HW128784   4.827   1.707   3.538
 9295SOL    HW228785   4.811   1.847   3.620
 9296SOL     OW28786   6.414   6.778   5.871
 9296SOL    HW128787   6.448   6.872   5.874
 9296SOL    HW228788   6.394   6.753   5.776
 9297SOL     OW28789   0.730   0.758   0.589
 9297SOL    HW128790   0.780   0.842   0.567
 9297SOL    HW228791   0.725   0.700   0.508
 9298SOL     OW28792   1.182   6.516   4.827
 9298SOL    HW128793   1.220   6.583   4.891
 9298SOL    HW228794   1.158   6.563   4.741
 9299SOL     OW28795   2.260   2.932   4.205
 9299SOL    HW128796   2.255   3.027   4.172
 9299SOL    HW228797   2.280   2.872   4.128
 9300SOL     OW28798   5.537   4.286   4.101
 9300SOL    HW128799   5.541   4.223   4.178
 9300SOL    HW228800   5.512   4.377   4.133
 9301SOL     OW28801   5.987   4.085   2.651
 9301SOL    HW128802   6.042   4.105   2.732
 9301SOL    HW228803   5.921   4.014   2.672
 9302SOL     OW28804   2.523   2.030   2.526
 9302SOL    HW128805   2.538   2.116   2.574
 9302SOL    HW228806   2.425   2.013   2.517
 9303SOL     OW28807   3.538   4.754   1.046
 9303SOL    HW128808   3.634   4.784   1.038
 9303SOL    HW228809   3.503   4.777   1.137
 9304SOL     OW28810   4.362   3.475   0.582
 9304SOL    HW128811   4.328   3.522   0.664
 9304SOL    HW228812   4.290   3.419   0.543
 9305SOL     OW28813   5.158   2.779   2.733
 9305SOL    HW128814   5.198   2.688   2.726
 9305SOL    HW228815   5.230   2.848   2.722
 9306SOL     OW28816   6.593   4.356   3.823
 9306SOL    HW128817   6.571   4.325   3.915
 9306SOL    HW228818   6.541   4.440   3.803
 9307SOL     OW28819   2.148   1.303   6.637
 9307SOL    HW128820   2.192   1.242   6.571
 9307SOL    HW228821   2.123   1.388   6.591
 9308SOL     OW28822   6.696   2.752   0.860
 9308SOL    HW128823   6.628   2.819   0.889
 9308SOL    HW228824   6.651   2.680   0.806
 9309SOL     OW28825   4.887   3.829   6.635
 9309SOL    HW128826   4.788   3.813   6.635
 9309SOL    HW228827   4.913   3.884   6.557
 9310SOL     OW28828   3.750   6.207   0.691
 9310SOL    HW128829   3.670   6.151   0.713
 9310SOL    HW228830   3.726   6.271   0.618
 9311SOL     OW28831   6.369   3.097   1.153
 9311SOL    HW128832   6.289   3.146   1.187
 9311SOL    HW228833   6.447   3.116   1.213
 9312SOL     OW28834   1.500   4.839   5.400
 9312SOL    HW128835   1.504   4.938   5.413
 9312SOL    HW228836   1.437   4.800   5.466
 9313SOL     OW28837   6.001   6.779   2.408
 9313SOL    HW128838   6.061   6.700   2.425
 9313SOL    HW228839   6.003   6.840   2.486
 9314SOL     OW28840   5.114   4.968   0.418
 9314SOL    HW128841   5.108   5.055   0.467
 9314SOL    HW228842   5.136   4.895   0.483
 9315SOL     OW28843   6.584   6.459   6.449
 9315SOL    HW128844   6.618   6.447   6.542
 9315SOL    HW228845   6.515   6.389   6.430
 9316SOL     OW28846   3.863   5.958   4.297
 9316SOL    HW128847   3.824   5.877   4.339
 9316SOL    HW228848   3.942   5.931   4.241
 9317SOL     OW28849   6.112   4.221   4.591
 9317SOL    HW128850   6.080   4.315   4.604
 9317SOL    HW228851   6.175   4.218   4.513
 9318SOL     OW28852   6.161   0.143   6.439
 9318SOL    HW128853   6.175   0.131   6.537
 9318SOL    HW228854   6.183   0.058   6.391
 9319SOL     OW28855   6.902   3.709   4.912
 9319SOL    HW128856   6.968   3.635   4.925
 9319SOL    HW228857   6.951   3.793   4.890
 9320SOL     OW28858   4.325   3.080   6.743
 9320SOL    HW128859   4.330   2.982   6.725
 9320SOL    HW228860   4.342   3.131   6.658
 9321SOL     OW28861   6.628   6.034   3.305
 9321SOL    HW128862   6.721   6.071   3.303
 9321SOL    HW228863   6.632   5.935   3.292
 9322SOL     OW28864   0.665   6.371   6.870
 9322SOL    HW128865   0.567   6.352   6.876
 9322SOL    HW228866   0.712   6.290   6.836
 9323SOL     OW28867   6.958   1.553   6.070
 9323SOL    HW128868   6.940   1.623   6.139
 9323SOL    HW228869   6.897   1.475   6.085
 9324SOL     OW28870   2.173   5.439   0.026
 9324SOL    HW128871   2.129   5.483   6.973
 9324SOL    HW228872   2.203   5.347   0.000
 9325SOL     OW28873   0.292   2.729   0.672
 9325SOL    HW128874   0.344   2.689   0.747
 9325SOL    HW228875   0.307   2.676   0.588
 9326SOL     OW28876   2.413   6.110   1.358
 9326SOL    HW128877   2.425   6.086   1.455
 9326SOL    HW228878   2.454   6.200   1.341
 9327SOL     OW28879   3.822   1.111   3.415
 9327SOL    HW128880   3.749   1.160   3.367
 9327SOL    HW228881   3.908   1.161   3.405
 9328SOL     OW28882   3.026   1.169   2.356
 9328SOL    HW128883   3.117   1.145   2.388
 9328SOL    HW228884   2.957   1.135   2.421
 9329SOL     OW28885   1.388   3.484   1.915
 9329SOL    HW128886   1.398   3.548   1.992
 9329SOL    HW228887   1.315   3.515   1.855
 9330SOL     OW28888   5.707   0.470   0.394
 9330SOL    HW128889   5.774   0.543   0.384
 9330SOL    HW228890   5.616   0.509   0.406
 9331SOL     OW28891   0.454   1.355   6.673
 9331SOL    HW128892   0.433   1.447   6.640
 9331SOL    HW228893   0.520   1.361   6.748
 9332SOL     OW28894   3.603   3.830   4.573
 9332SOL    HW128895   3.691   3.815   4.529
 9332SOL    HW228896   3.561   3.913   4.537
 9333SOL     OW28897   5.514   4.924   1.368
 9333SOL    HW128898   5.521   4.982   1.287
 9333SOL    HW228899   5.527   4.829   1.342
 9334SOL     OW28900   3.060   0.156   4.775
 9334SOL    HW128901   3.025   0.226   4.838
 9334SOL    HW228902   3.047   0.187   4.681
 9335SOL     OW28903   0.720   1.000   0.861
 9335SOL    HW128904   0.809   1.039   0.836
 9335SOL    HW228905   0.729   0.946   0.944
 9336SOL     OW28906   3.104   6.983   5.638
 9336SOL    HW128907   3.157   7.002   5.721
 9336SOL    HW228908   3.157   7.010   5.558
 9337SOL     OW28909   4.805   7.018   2.672
 9337SOL    HW128910   4.806   0.093   2.658
 9337SOL    HW228911   4.744   6.976   2.605
 9338SOL     OW28912   3.944   0.192   1.576
 9338SOL    HW128913   4.013   0.260   1.554
 9338SOL    HW228914   3.867   0.236   1.622
 9339SOL     OW28915   3.992   5.782   0.852
 9339SOL    HW128916   3.914   5.841   0.827
 9339SOL    HW228917   4.069   5.840   0.879
 9340SOL     OW28918   5.520   3.142   0.812
 9340SOL    HW128919   5.441   3.157   0.872
 9340SOL    HW228920   5.562   3.054   0.835
 9341SOL     OW28921   6.805   5.339   6.046
 9341SOL    HW128922   6.891   5.372   6.006
 9341SOL    HW228923   6.748   5.300   5.975
 9342SOL     OW28924   0.913   6.168   6.097
 9342SOL    HW128925   0.940   6.129   6.185
 9342SOL    HW228926   0.931   6.102   6.024
 9343SOL     OW28927   6.439   5.556   4.662
 9343SOL    HW128928   6.480   5.469   4.634
 9343SOL    HW228929   6.345   5.541   4.692
 9344SOL     OW28930   4.521   6.333   1.257
 9344SOL    HW128931   4.567   6.345   1.345
 9344SOL    HW228932   4.571   6.383   1.186
 9345SOL     OW28933   6.988   2.751   0.349
 9345SOL    HW128934   6.899   2.790   0.325
 9345SOL    HW228935   0.026   2.763   0.273
 9346SOL     OW28936   6.183   0.164   0.329
 9346SOL    HW128937   6.160   0.230   0.258
 9346SOL    HW228938   6.103   0.108   0.351
 9347SOL     OW28939   1.460   6.525   1.925
 9347SOL    HW128940   1.422   6.443   1.969
 9347SOL    HW228941   1.484   6.592   1.995
 9348SOL     OW28942   2.843   5.024   0.603
 9348SOL    HW128943   2.842   4.959   0.678
 9348SOL    HW228944   2.895   4.986   0.526
 9349SOL     OW28945   1.965   5.823   2.657
 9349SOL    HW128946   2.000   5.791   2.569
 9349SOL    HW228947   2.001   5.914   2.676
 9350SOL     OW28948   0.770   2.752   5.940
 9350SOL    HW128949   0.820   2.826   5.895
 9350SOL    HW228950   0.718   2.700   5.872
 9351SOL     OW28951   2.497   1.088   6.800
 9351SOL    HW128952   2.524   1.155   6.732
 9351SOL    HW228953   2.400   1.102   6.823
 9352SOL     OW28954   2.346   4.718   5.568
 9352SOL    HW128955   2.293   4.642   5.530
 9352SOL    HW228956   2.336   4.719   5.667
 9353SOL     OW28957   6.375   0.737   0.808
 9353SOL    HW128958   6.384   0.688   0.722
 9353SOL    HW228959   6.355   0.673   0.882
 9354SOL     OW28960   0.829   1.885   6.423
 9354SOL    HW128961   0.912   1.832   6.406
 9354SOL    HW228962   0.849   1.982   6.409
 9355SOL     OW28963   0.309   1.847   5.248
 9355SOL    HW128964   0.391   1.796   5.272
 9355SOL    HW228965   0.311   1.936   5.293
 9356SOL     OW28966   5.515   0.247   3.741
 9356SOL    HW128967   5.450   0.256   3.665
 9356SOL    HW228968   5.468   0.269   3.827
 9357SOL     OW28969   0.722   1.621   7.016
 9357SOL    HW128970   0.751   1.655   0.081
 9357SOL    HW228971   0.798   1.625   6.952
 9358SOL     OW28972   1.065   2.658   1.704
 9358SOL    HW128973   0.973   2.671   1.741
 9358SOL    HW228974   1.066   2.679   1.606
 9359SOL     OW28975   0.637   0.172   5.098
 9359SOL    HW128976   0.595   0.231   5.168
 9359SOL    HW228977   0.661   0.084   5.138
 9360SOL     OW28978   0.560   0.185   5.941
 9360SOL    HW128979   0.652   0.196   5.905
 9360SOL    HW228980   0.505   0.265   5.917
 9361SOL     OW28981   2.179   5.638   4.048
 9361SOL    HW128982   2.085   5.629   4.082
 9361SOL    HW228983   2.243   5.628   4.123
 9362SOL     OW28984   2.108   0.666   2.134
 9362SOL    HW128985   2.090   0.616   2.049
 9362SOL    HW228986   2.107   0.601   2.210
 9363SOL     OW28987   2.059   4.735   2.591
 9363SOL    HW128988   2.124   4.757   2.519
 9363SOL    HW228989   1.998   4.662   2.559
 9364SOL     OW28990   0.865   2.764   0.618
 9364SOL    HW128991   0.862   2.665   0.635
 9364SOL    HW228992   0.927   2.783   0.543
 9365SOL     OW28993   3.483   0.846   4.921
 9365SOL    HW128994   3.499   0.754   4.886
 9365SOL    HW228995   3.386   0.870   4.908
 9366SOL     OW28996   4.103   6.175   2.716
 9366SOL    HW128997   4.086   6.085   2.675
 9366SOL    HW228998   4.127   6.241   2.644
 9367SOL     OW28999   6.497   1.154   1.344
 9367SOL    HW129000   6.533   1.088   1.410
 9367SOL    HW229001   6.397   1.160   1.355
 9368SOL     OW29002   2.726   0.542   2.802
 9368SOL    HW129003   2.658   0.500   2.862
 9368SOL    HW229004   2.810   0.557   2.853
 9369SOL     OW29005   3.387   5.233   0.527
 9369SOL    HW129006   3.430   5.322   0.542
 9369SOL    HW229007   3.389   5.180   0.612
 9370SOL     OW29008   4.268   1.698   5.108
 9370SOL    HW129009   4.184   1.744   5.136
 9370SOL    HW229010   4.275   1.610   5.154
 9371SOL     OW29011   4.383   5.008   0.962
 9371SOL    HW129012   4.316   5.078   0.938
 9371SOL    HW229013   4.452   5.001   0.890
 9372SOL     OW29014   4.136   5.856   1.636
 9372SOL    HW129015   4.194   5.775   1.629
 9372SOL    HW229016   4.068   5.842   1.708
 9373SOL     OW29017   6.809   2.987   1.110
 9373SOL    HW129018   6.824   2.916   1.041
 9373SOL    HW229019   6.898   3.019   1.144
 9374SOL     OW29020   0.263   5.829   6.153
 9374SOL    HW129021   0.360   5.855   6.146
 9374SOL    HW229022   0.207   5.893   6.102
 9375SOL     OW29023   0.622   1.386   6.866
 9375SOL    HW129024   0.631   1.477   6.907
 9375SOL    HW229025   0.637   1.316   6.936
 9376SOL     OW29026   2.632   3.802   1.131
 9376SOL    HW129027   2.583   3.880   1.094
 9376SOL    HW229028   2.591   3.717   1.096
 9377SOL     OW29029   2.194   0.833   3.512
 9377SOL    HW129030   2.096   0.832   3.490
 9377SOL    HW229031   2.245   0.784   3.441
 9378SOL     OW29032   3.755   1.146   5.264
 9378SOL    HW129033   3.788   1.220   5.322
 9378SOL    HW229034   3.714   1.185   5.181
 9379SOL     OW29035   5.190   6.914   4.126
 9379SOL    HW129036   5.211   6.822   4.160
 9379SOL    HW229037   5.203   6.916   4.027
 9380SOL     OW29038   5.348   5.485   0.417
 9380SOL    HW129039   5.292   5.442   0.346
 9380SOL    HW229040   5.305   5.571   0.445
 9381SOL     OW29041   5.499   1.154   5.620
 9381SOL    HW129042   5.466   1.115   5.534
 9381SOL    HW229043   5.447   1.236   5.642
 9382SOL     OW29044   2.961   5.112   5.893
 9382SOL    HW129045   2.904   5.171   5.950
 9382SOL    HW229046   2.946   5.134   5.797
 9383SOL     OW29047   5.812   3.867   2.625
 9383SOL    HW129048   5.906   3.836   2.635
 9383SOL    HW229049   5.750   3.797   2.659
 9384SOL     OW29050   3.542   0.460   1.527
 9384SOL    HW129051   3.461   0.478   1.584
 9384SOL    HW229052   3.596   0.387   1.569
 9385SOL     OW29053   4.221   1.121   4.096
 9385SOL    HW129054   4.145   1.058   4.088
 9385SOL    HW229055   4.186   1.214   4.111
 9386SOL     OW29056   4.908   6.609   0.749
 9386SOL    HW129057   4.871   6.594   0.840
 9386SOL    HW229058   4.973   6.535   0.727
 9387SOL     OW29059   2.787   1.239   6.873
 9387SOL    HW129060   2.790   1.339   6.882
 9387SOL    HW229061   2.728   1.201   6.944
 9388SOL     OW29062   2.462   0.090   5.572
 9388SOL    HW129063   2.495   0.163   5.631
 9388SOL    HW229064   2.417   0.020   5.627
 9389SOL     OW29065   2.216   3.896   1.534
 9389SOL    HW129066   2.162   3.869   1.454
 9389SOL    HW229067   2.227   3.818   1.595
 9390SOL     OW29068   5.098   4.444   4.446
 9390SOL    HW129069   5.161   4.395   4.505
 9390SOL    HW229070   5.021   4.479   4.500
 9391SOL     OW29071   1.475   4.178   4.501
 9391SOL    HW129072   1.567   4.143   4.482
 9391SOL    HW229073   1.471   4.275   4.478
 9392SOL     OW29074   5.245   4.411   2.615
 9392SOL    HW129075   5.298   4.494   2.598
 9392SOL    HW229076   5.307   4.334   2.631
 9393SOL     OW29077   1.731   5.997   6.168
 9393SOL    HW129078   1.669   6.048   6.227
 9393SOL    HW229079   1.686   5.978   6.080
 9394SOL     OW29080   4.286   0.483   0.348
 9394SOL    HW129081   4.272   0.409   0.414
 9394SOL    HW229082   4.274   0.571   0.394
 9395SOL     OW29083   1.131   1.395   0.907
 9395SOL    HW129084   1.189   1.476   0.907
 9395SOL    HW229085   1.089   1.383   0.817
 9396SOL     OW29086   1.006   0.494   6.007
 9396SOL    HW129087   0.918   0.488   5.960
 9396SOL    HW229088   1.014   0.583   6.052
 9397SOL     OW29089   3.992   1.105   4.963
 9397SOL    HW129090   3.992   1.029   5.029
 9397SOL    HW229091   3.948   1.075   4.879
 9398SOL     OW29092   0.613   1.956   0.260
 9398SOL    HW129093   0.519   1.950   0.225
 9398SOL    HW229094   0.657   1.867   0.251
 9399SOL     OW29095   0.942   1.951   4.302
 9399SOL    HW129096   0.880   1.962   4.224
 9399SOL    HW229097   0.997   2.034   4.314
 9400SOL     OW29098   5.905   1.502   0.794
 9400SOL    HW129099   5.902   1.591   0.841
 9400SOL    HW229100   5.829   1.446   0.825
 9401SOL     OW29101   0.471   2.231   3.480
 9401SOL    HW129102   0.496   2.150   3.427
 9401SOL    HW229103   0.515   2.227   3.570
 9402SOL     OW29104   2.777   6.818   4.410
 9402SOL    HW129105   2.827   6.878   4.473
 9402SOL    HW229106   2.682   6.846   4.405
 9403SOL     OW29107   5.238   2.156   1.244
 9403SOL    HW129108   5.286   2.107   1.317
 9403SOL    HW229109   5.277   2.248   1.235
 9404SOL     OW29110   2.251   2.628   1.117
 9404SOL    HW129111   2.343   2.639   1.155
 9404SOL    HW229112   2.190   2.696   1.158
 9405SOL     OW29113   6.257   5.709   5.437
 9405SOL    HW129114   6.268   5.720   5.535
 9405SOL    HW229115   6.335   5.659   5.400
 9406SOL     OW29116   1.016   2.086   0.304
 9406SOL    HW129117   0.934   2.125   0.346
 9406SOL    HW229118   1.002   2.080   0.205
 9407SOL     OW29119   1.750   4.731   4.762
 9407SOL    HW129120   1.672   4.692   4.811
 9407SOL    HW229121   1.759   4.828   4.786
 9408SOL     OW29122   6.256   4.421   4.390
 9408SOL    HW129123   6.216   4.434   4.300
 9408SOL    HW229124   6.189   4.445   4.460
 9409SOL     OW29125   6.191   5.834   2.036
 9409SOL    HW129126   6.174   5.825   1.938
 9409SOL    HW229127   6.282   5.874   2.050
 9410SOL     OW29128   4.071   0.433   0.738
 9410SOL    HW129129   4.145   0.399   0.680
 9410SOL    HW229130   4.007   0.358   0.757
 9411SOL     OW29131   3.222   4.113   3.127
 9411SOL    HW129132   3.163   4.110   3.208
 9411SOL    HW229133   3.193   4.044   3.061
 9412SOL     OW29134   4.793   6.904   1.893
 9412SOL    HW129135   4.732   6.888   1.970
 9412SOL    HW229136   4.760   6.852   1.814
 9413SOL     OW29137   4.828   3.942   3.056
 9413SOL    HW129138   4.831   3.950   3.156
 9413SOL    HW229139   4.789   4.026   3.018
 9414SOL     OW29140   2.290   2.268   2.315
 9414SOL    HW129141   2.215   2.203   2.301
 9414SOL    HW229142   2.367   2.242   2.256
 9415SOL     OW29143   5.497   0.323   1.918
 9415SOL    HW129144   5.466   0.283   2.004
 9415SOL    HW229145   5.435   0.396   1.891
 9416SOL     OW29146   5.725   5.181   5.555
 9416SOL    HW129147   5.659   5.179   5.480
 9416SOL    HW229148   5.797   5.247   5.535
 9417SOL     OW29149   3.337   5.362   2.688
 9417SOL    HW129150   3.334   5.458   2.661
 9417SOL    HW229151   3.245   5.322   2.682
 9418SOL     OW29152   3.126   1.773   5.145
 9418SOL    HW129153   3.097   1.784   5.239
 9418SOL    HW229154   3.054   1.804   5.083
 9419SOL     OW29155   2.109   2.798   6.665
 9419SOL    HW129156   2.061   2.738   6.602
 9419SOL    HW229157   2.111   2.757   6.756
 9420SOL     OW29158   5.741   4.130   5.399
 9420SOL    HW129159   5.790   4.195   5.457
 9420SOL    HW229160   5.753   4.154   5.303
 9421SOL     OW29161   3.545   6.298   6.738
 9421SOL    HW129162   3.541   6.206   6.777
 9421SOL    HW229163   3.545   6.292   6.638
 9422SOL     OW29164   2.503   6.244   5.659
 9422SOL    HW129165   2.430   6.313   5.655
 9422SOL    HW229166   2.478   6.173   5.724
 9423SOL     OW29167   4.697   5.123   2.256
 9423SOL    HW129168   4.685   5.205   2.200
 9423SOL    HW229169   4.734   5.049   2.199
 9424SOL     OW29170   6.752   0.374   4.359
 9424SOL    HW129171   6.840   0.391   4.316
 9424SOL    HW229172   6.711   0.460   4.389
 9425SOL     OW29173   6.948   4.078   0.461
 9425SOL    HW129174   6.916   4.171   0.442
 9425SOL    HW229175   6.872   4.023   0.496
 9426SOL     OW29176   4.985   3.029   6.102
 9426SOL    HW129177   4.957   2.933   6.106
 9426SOL    HW229178   4.911   3.086   6.138
 9427SOL     OW29179   4.614   4.615   2.474
 9427SOL    HW129180   4.549   4.592   2.402
 9427SOL    HW229181   4.707   4.615   2.437
 9428SOL     OW29182   0.808   6.286   5.610
 9428SOL    HW129183   0.794   6.196   5.567
 9428SOL    HW229184   0.838   6.274   5.704
 9429SOL     OW29185   2.826   2.152   3.799
 9429SOL    HW129186   2.864   2.183   3.886
 9429SOL    HW229187   2.726   2.149   3.805
 9430SOL     OW29188   1.998   0.973   4.228
 9430SOL    HW129189   2.047   1.020   4.155
 9430SOL    HW229190   1.908   0.945   4.196
 9431SOL     OW29191   0.804   4.519   5.603
 9431SOL    HW129192   0.879   4.477   5.654
 9431SOL    HW229193   0.749   4.448   5.559
 9432SOL     OW29194   7.023   1.400   4.346
 9432SOL    HW129195   0.007   1.340   4.426
 9432SOL    HW229196   0.051   1.484   4.362
 9433SOL     OW29197   4.833   5.368   2.429
 9433SOL    HW129198   4.753   5.339   2.482
 9433SOL    HW229199   4.802   5.404   2.341
 9434SOL     OW29200   3.981   5.616   4.016
 9434SOL    HW129201   3.967   5.523   3.982
 9434SOL    HW229202   3.946   5.681   3.948
 9435SOL     OW29203   5.932   3.847   0.937
 9435SOL    HW129204   6.024   3.848   0.897
 9435SOL    HW229205   5.897   3.754   0.940
 9436SOL     OW29206   3.012   0.926   3.329
 9436SOL    HW129207   2.972   0.901   3.241
 9436SOL    HW229208   3.094   0.871   3.345
 9437SOL     OW29209   5.510   0.665   4.789
 9437SOL    HW129210   5.553   0.732   4.849
 9437SOL    HW229211   5.446   0.609   4.842
 9438SOL     OW29212   4.527   0.346   2.790
 9438SOL    HW129213   4.600   0.316   2.851
 9438SOL    HW229214   4.460   0.400   2.842
 9439SOL     OW29215   2.109   4.076   0.619
 9439SOL    HW129216   2.095   4.002   0.554
 9439SOL    HW229217   2.203   4.110   0.611
 9440SOL     OW29218   1.527   5.539   4.038
 9440SOL    HW129219   1.594   5.468   4.062
 9440SOL    HW229220   1.439   5.496   4.018
 9441SOL     OW29221   0.469   6.536   4.483
 9441SOL    HW129222   0.419   6.476   4.547
 9441SOL    HW229223   0.486   6.487   4.398
 9442SOL     OW29224   5.807   3.167   1.085
 9442SOL    HW129225   5.847   3.227   1.154
 9442SOL    HW229226   5.826   3.204   0.994
 9443SOL     OW29227   2.280   4.252   1.326
 9443SOL    HW129228   2.345   4.180   1.300
 9443SOL    HW229229   2.297   4.333   1.270
 9444SOL     OW29230   1.952   5.037   6.473
 9444SOL    HW129231   1.995   4.953   6.439
 9444SOL    HW229232   1.894   5.077   6.403
 9445SOL     OW29233   0.414   1.344   4.041
 9445SOL    HW129234   0.423   1.350   3.941
 9445SOL    HW229235   0.324   1.308   4.065
 9446SOL     OW29236   6.311   4.150   4.410
 9446SOL    HW129237   6.328   4.248   4.413
 9446SOL    HW229238   6.324   4.117   4.316
 9447SOL     OW29239   5.152   5.120   2.107
 9447SOL    HW129240   5.102   5.052   2.054
 9447SOL    HW229241   5.249   5.098   2.106
 9448SOL     OW29242   5.690   2.053   6.847
 9448SOL    HW129243   5.597   2.089   6.852
 9448SOL    HW229244   5.705   1.987   6.920
 9449SOL     OW29245   5.500   7.008   2.137
 9449SOL    HW129246   5.527   7.006   2.041
 9449SOL    HW229247   5.540   6.929   2.184
 9450SOL     OW29248   1.167   6.963   3.156
 9450SOL    HW129249   1.176   6.981   3.058
 9450SOL    HW229250   1.091   7.017   3.193
 9451SOL     OW29251   4.154   5.116   0.304
 9451SOL    HW129252   4.220   5.054   0.347
 9451SOL    HW229253   4.095   5.064   0.241
 9452SOL     OW29254   6.036   3.985   6.057
 9452SOL    HW129255   6.079   3.900   6.027
 9452SOL    HW229256   6.105   4.057   6.062
 9453SOL     OW29257   5.784   4.602   1.889
 9453SOL    HW129258   5.833   4.623   1.805
 9453SOL    HW229259   5.831   4.528   1.938
 9454SOL     OW29260   6.278   4.857   0.466
 9454SOL    HW129261   6.346   4.785   0.480
 9454SOL    HW229262   6.278   4.919   0.544
 9455SOL     OW29263   4.085   0.621   1.330
 9455SOL    HW129264   4.112   0.569   1.249
 9455SOL    HW229265   4.151   0.695   1.344
 9456SOL     OW29266   6.644   2.096   3.138
 9456SOL    HW129267   6.550   2.070   3.115
 9456SOL    HW229268   6.702   2.015   3.135
 9457SOL     OW29269   6.691   6.361   4.065
 9457SOL    HW129270   6.670   6.299   3.989
 9457SOL    HW229271   6.622   6.432   4.071
 9458SOL     OW29272   5.967   3.951   0.238
 9458SOL    HW129273   6.048   3.922   0.187
 9458SOL    HW229274   5.979   4.046   0.268
 9459SOL     OW29275   4.741   4.269   4.934
 9459SOL    HW129276   4.748   4.218   5.019
 9459SOL    HW229277   4.659   4.326   4.935
 9460SOL     OW29278   1.040   2.768   2.110
 9460SOL    HW129279   0.952   2.749   2.067
 9460SOL    HW229280   1.065   2.864   2.096
 9461SOL     OW29281   1.725   1.276   1.629
 9461SOL    HW129282   1.781   1.210   1.578
 9461SOL    HW229283   1.777   1.311   1.707
 9462SOL     OW29284   6.834   1.255   5.737
 9462SOL    HW129285   6.913   1.303   5.698
 9462SOL    HW229286   6.773   1.226   5.663
 9463SOL     OW29287   6.688   4.005   0.095
 9463SOL    HW129288   6.757   4.077   0.102
 9463SOL    HW229289   6.601   4.039   0.131
 9464SOL     OW29290   1.281   0.621   1.539
 9464SOL    HW129291   1.296   0.714   1.572
 9464SOL    HW229292   1.322   0.556   1.602
 9465SOL     OW29293   6.520   5.560   0.400
 9465SOL    HW129294   6.490   5.577   0.306
 9465SOL    HW229295   6.471   5.621   0.462
 9466SOL     OW29296   4.641   3.705   5.575
 9466SOL    HW129297   4.728   3.718   5.528
 9466SOL    HW229298   4.569   3.689   5.508
 9467SOL     OW29299   1.468   3.777   0.582
 9467SOL    HW129300   1.476   3.704   0.514
 9467SOL    HW229301   1.542   3.769   0.648
 9468SOL     OW29302   6.184   1.475   0.792
 9468SOL    HW129303   6.088   1.500   0.779
 9468SOL    HW229304   6.194   1.424   0.878
 9469SOL     OW29305   6.484   6.936   1.227
 9469SOL    HW129306   6.544   6.891   1.162
 9469SOL    HW229307   6.463   0.004   1.196
 9470SOL     OW29308   4.069   3.078   0.506
 9470SOL    HW129309   4.138   3.055   0.574
 9470SOL    HW229310   3.978   3.064   0.544
 9471SOL     OW29311   6.305   2.575   4.984
 9471SOL    HW129312   6.287   2.668   5.016
 9471SOL    HW229313   6.337   2.579   4.889
 9472SOL     OW29314   1.552   3.261   5.355
 9472SOL    HW129315   1.625   3.219   5.409
 9472SOL    HW229316   1.519   3.343   5.402
 9473SOL     OW29317   3.450   3.383   1.305
 9473SOL    HW129318   3.544   3.385   1.273
 9473SOL    HW229319   3.390   3.423   1.236
 9474SOL     OW29320   5.892   4.580   0.720
 9474SOL    HW129321   5.835   4.501   0.696
 9474SOL    HW229322   5.835   4.651   0.760
 9475SOL     OW29323   5.080   3.783   5.975
 9475SOL    HW129324   4.992   3.829   5.967
 9475SOL    HW229325   5.073   3.708   6.040
 9476SOL     OW29326   4.181   4.133   1.331
 9476SOL    HW129327   4.211   4.139   1.236
 9476SOL    HW229328   4.250   4.084   1.385
 9477SOL     OW29329   1.955   4.792   1.061
 9477SOL    HW129330   2.042   4.810   1.014
 9477SOL    HW229331   1.959   4.704   1.108
 9478SOL     OW29332   5.555   4.094   6.070
 9478SOL    HW129333   5.495   4.078   6.148
 9478SOL    HW229334   5.579   4.007   6.027
 9479SOL     OW29335   4.003   0.859   2.263
 9479SOL    HW129336   3.978   0.857   2.360
 9479SOL    HW229337   4.093   0.900   2.252
 9480SOL     OW29338   5.900   0.683   0.394
 9480SOL    HW129339   5.975   0.722   0.447
 9480SOL    HW229340   5.906   0.715   0.299
 9481SOL     OW29341   4.684   0.410   3.403
 9481SOL    HW129342   4.651   0.484   3.462
 9481SOL    HW229343   4.778   0.387   3.429
 9482SOL     OW29344   6.486   5.107   5.289
 9482SOL    HW129345   6.564   5.147   5.241
 9482SOL    HW229346   6.470   5.014   5.256
 9483SOL     OW29347   6.093   5.785   6.440
 9483SOL    HW129348   6.173   5.749   6.489
 9483SOL    HW229349   6.114   5.791   6.343
 9484SOL     OW29350   2.607   6.059   5.076
 9484SOL    HW129351   2.643   6.074   4.985
 9484SOL    HW229352   2.548   5.978   5.076
 9485SOL     OW29353   0.520   1.678   5.289
 9485SOL    HW129354   0.553   1.611   5.222
 9485SOL    HW229355   0.494   1.631   5.374
 9486SOL     OW29356   6.323   5.712   6.579
 9486SOL    HW129357   6.315   5.782   6.651
 9486SOL    HW229358   6.402   5.733   6.521
 9487SOL     OW29359   3.516   3.775   3.588
 9487SOL    HW129360   3.514   3.697   3.652
 9487SOL    HW229361   3.442   3.765   3.522
 9488SOL     OW29362   1.892   1.056   1.529
 9488SOL    HW129363   1.894   1.028   1.625
 9488SOL    HW229364   1.985   1.052   1.492
 9489SOL     OW29365   6.144   3.905   0.021
 9489SOL    HW129366   6.216   3.844   0.053
 9489SOL    HW229367   6.185   3.991   7.014
 9490SOL     OW29368   6.071   3.338   4.754
 9490SOL    HW129369   6.054   3.403   4.680
 9490SOL    HW229370   6.132   3.265   4.722
 9491SOL     OW29371   5.757   0.080   2.899
 9491SOL    HW129372   5.791   0.002   2.847
 9491SOL    HW229373   5.738   0.051   2.993
 9492SOL     OW29374   4.749   2.451   3.827
 9492SOL    HW129375   4.695   2.368   3.843
 9492SOL    HW229376   4.699   2.530   3.863
 9493SOL     OW29377   3.686   5.995   2.040
 9493SOL    HW129378   3.656   6.035   2.127
 9493SOL    HW229379   3.648   5.903   2.031
 9494SOL     OW29380   5.393   2.568   2.153
 9494SOL    HW129381   5.410   2.612   2.242
 9494SOL    HW229382   5.472   2.512   2.128
 9495SOL     OW29383   5.486   2.850   1.025
 9495SOL    HW129384   5.459   2.773   0.968
 9495SOL    HW229385   5.584   2.868   1.012
 9496SOL     OW29386   5.891   2.725   1.126
 9496SOL    HW129387   5.942   2.744   1.210
 9496SOL    HW229388   5.820   2.793   1.114
 9497SOL     OW29389   4.963   5.242   5.022
 9497SOL    HW129390   4.905   5.178   5.073
 9497SOL    HW229391   4.911   5.324   4.998
 9498SOL     OW29392   1.058   6.190   5.172
 9498SOL    HW129393   1.153   6.163   5.191
 9498SOL    HW229394   1.014   6.120   5.117
 9499SOL     OW29395   5.839   6.480   4.187
 9499SOL    HW129396   5.835   6.381   4.199
 9499SOL    HW229397   5.778   6.507   4.113
 9500SOL     OW29398   3.161   1.789   0.554
 9500SOL    HW129399   3.074   1.829   0.524
 9500SOL    HW229400   3.146   1.694   0.581
 9501SOL     OW29401   2.098   3.906   5.150
 9501SOL    HW129402   2.126   3.815   5.181
 9501SOL    HW229403   2.167   3.942   5.087
 9502SOL     OW29404   5.886   4.826   4.028
 9502SOL    HW129405   5.897   4.926   4.028
 9502SOL    HW229406   5.963   4.785   3.979
 9503SOL     OW29407   6.206   0.722   0.153
 9503SOL    HW129408   6.159   0.679   0.076
 9503SOL    HW229409   6.303   0.733   0.131
 9504SOL     OW29410   6.446   5.906   2.112
 9504SOL    HW129411   6.546   5.907   2.124
 9504SOL    HW229412   6.416   5.993   2.075
 9505SOL     OW29413   4.488   4.079   6.587
 9505SOL    HW129414   4.502   4.173   6.554
 9505SOL    HW229415   4.519   4.073   6.682
 9506SOL     OW29416   2.668   1.076   0.959
 9506SOL    HW129417   2.723   1.152   0.925
 9506SOL    HW229418   2.714   1.035   1.038
 9507SOL     OW29419   6.375   7.013   1.627
 9507SOL    HW129420   6.448   0.024   1.569
 9507SOL    HW229421   6.286   0.011   1.586
 9508SOL     OW29422   4.248   0.819   2.603
 9508SOL    HW129423   4.199   0.735   2.579
 9508SOL    HW229424   4.304   0.802   2.684
 9509SOL     OW29425   5.375   1.512   3.469
 9509SOL    HW129426   5.325   1.595   3.443
 9509SOL    HW229427   5.470   1.519   3.437
 9510SOL     OW29428   1.892   2.866   2.744
 9510SOL    HW129429   1.934   2.778   2.765
 9510SOL    HW229430   1.888   2.879   2.645
 9511SOL     OW29431   0.676   1.532   0.949
 9511SOL    HW129432   0.744   1.577   1.007
 9511SOL    HW229433   0.584   1.560   0.977
 9512SOL     OW29434   6.447   1.569   2.048
 9512SOL    HW129435   6.518   1.577   1.978
 9512SOL    HW229436   6.357   1.586   2.008
 9513SOL     OW29437   4.739   3.870   5.282
 9513SOL    HW129438   4.763   3.922   5.364
 9513SOL    HW229439   4.663   3.809   5.303
 9514SOL     OW29440   3.602   3.178   0.590
 9514SOL    HW129441   3.581   3.272   0.563
 9514SOL    HW229442   3.574   3.164   0.685
 9515SOL     OW29443   0.356   5.425   2.938
 9515SOL    HW129444   0.428   5.492   2.918
 9515SOL    HW229445   0.270   5.473   2.951
 9516SOL     OW29446   0.436   3.763   5.675
 9516SOL    HW129447   0.397   3.763   5.583
 9516SOL    HW229448   0.512   3.827   5.678
 9517SOL     OW29449   6.996   0.046   1.277
 9517SOL    HW129450   6.987   0.019   1.373
 9517SOL    HW229451   0.061   0.087   1.262
 9518SOL     OW29452   0.755   1.075   1.404
 9518SOL    HW129453   0.833   1.134   1.381
 9518SOL    HW229454   0.772   0.982   1.371
 9519SOL     OW29455   1.079   2.655   5.229
 9519SOL    HW129456   1.058   2.719   5.303
 9519SOL    HW229457   0.995   2.635   5.178
 9520SOL     OW29458   3.857   6.443   1.903
 9520SOL    HW129459   3.851   6.355   1.856
 9520SOL    HW229460   3.783   6.503   1.872
 9521SOL     OW29461   5.253   4.794   3.351
 9521SOL    HW129462   5.182   4.746   3.401
 9521SOL    HW229463   5.278   4.742   3.269
 9522SOL     OW29464   2.979   5.069   6.661
 9522SOL    HW129465   2.981   5.143   6.727
 9522SOL    HW229466   2.886   5.059   6.624
 9523SOL     OW29467   2.074   6.477   5.487
 9523SOL    HW129468   2.107   6.536   5.414
 9523SOL    HW229469   2.049   6.388   5.449
 9524SOL     OW29470   5.048   3.018   0.665
 9524SOL    HW129471   5.075   2.963   0.744
 9524SOL    HW229472   5.120   3.016   0.596
 9525SOL     OW29473   4.113   6.983   4.447
 9525SOL    HW129474   4.176   0.004   4.510
 9525SOL    HW229475   4.161   6.961   4.362
 9526SOL     OW29476   4.981   6.122   1.444
 9526SOL    HW129477   4.884   6.118   1.418
 9526SOL    HW229478   4.994   6.072   1.530
 9527SOL     OW29479   0.221   2.427   0.830
 9527SOL    HW129480   0.286   2.504   0.827
 9527SOL    HW229481   0.205   2.393   0.737
 9528SOL     OW29482   6.883   1.240   1.461
 9528SOL    HW129483   6.836   1.173   1.520
 9528SOL    HW229484   6.976   1.254   1.495
 9529SOL     OW29485   1.566   2.997   4.977
 9529SOL    HW129486   1.530   2.919   4.926
 9529SOL    HW229487   1.606   2.965   5.063
 9530SOL     OW29488   2.031   1.336   3.931
 9530SOL    HW129489   1.967   1.336   4.008
 9530SOL    HW229490   2.119   1.372   3.961
 9531SOL     OW29491   2.933   6.716   4.201
 9531SOL    HW129492   2.908   6.676   4.113
 9531SOL    HW229493   2.851   6.753   4.245
 9532SOL     OW29494   2.924   1.413   2.332
 9532SOL    HW129495   2.941   1.316   2.350
 9532SOL    HW229496   2.973   1.441   2.249
 9533SOL     OW29497   0.835   1.716   4.864
 9533SOL    HW129498   0.876   1.724   4.955
 9533SOL    HW229499   0.742   1.753   4.866
 9534SOL     OW29500   5.646   1.794   4.596
 9534SOL    HW129501   5.690   1.721   4.649
 9534SOL    HW229502   5.665   1.882   4.638
 9535SOL     OW29503   3.570   1.716   4.444
 9535SOL    HW129504   3.630   1.711   4.365
 9535SOL    HW229505   3.484   1.760   4.418
 9536SOL     OW29506   2.570   6.783   6.494
 9536SOL    HW129507   2.495   6.731   6.535
 9536SOL    HW229508   2.656   6.734   6.507
 9537SOL     OW29509   2.559   0.069   0.416
 9537SOL    HW129510   2.586   0.130   0.342
 9537SOL    HW229511   2.495   0.116   0.477
 9538SOL     OW29512   6.062   3.782   2.647
 9538SOL    HW129513   6.059   3.684   2.667
 9538SOL    HW229514   6.138   3.824   2.697
 9539SOL     OW29515   0.125   3.685   6.935
 9539SOL    HW129516   0.146   3.731   7.021
 9539SOL    HW229517   0.060   3.740   6.883
 9540SOL     OW29518   5.316   2.975   5.681
 9540SOL    HW129519   5.364   3.062   5.670
 9540SOL    HW229520   5.250   2.983   5.756
 9541SOL     OW29521   6.760   1.870   3.455
 9541SOL    HW129522   6.668   1.864   3.491
 9541SOL    HW229523   6.762   1.832   3.362
 9542SOL     OW29524   4.787   4.299   4.481
 9542SOL    HW129525   4.798   4.219   4.539
 9542SOL    HW229526   4.813   4.381   4.532
 9543SOL     OW29527   4.656   2.701   1.307
 9543SOL    HW129528   4.685   2.676   1.400
 9543SOL    HW229529   4.621   2.794   1.307
 9544SOL     OW29530   4.574   1.048   1.180
 9544SOL    HW129531   4.561   1.145   1.201
 9544SOL    HW229532   4.488   1.010   1.147
 9545SOL     OW29533   1.234   0.023   4.695
 9545SOL    HW129534   1.164   6.983   4.667
 9545SOL    HW229535   1.197   0.084   4.765
 9546SOL     OW29536   2.323   4.470   1.738
 9546SOL    HW129537   2.293   4.537   1.670
 9546SOL    HW229538   2.252   4.401   1.750
 9547SOL     OW29539   5.748   5.411   3.540
 9547SOL    HW129540   5.701   5.439   3.456
 9547SOL    HW229541   5.725   5.473   3.614
 9548SOL     OW29542   5.535   7.020   2.599
 9548SOL    HW129543   5.626   0.033   2.580
 9548SOL    HW229544   5.484   0.060   2.655
 9549SOL     OW29545   2.425   5.735   0.518
 9549SOL    HW129546   2.346   5.694   0.473
 9549SOL    HW229547   2.406   5.744   0.616
 9550SOL     OW29548   2.062   1.331   0.084
 9550SOL    HW129549   2.128   1.385   0.137
 9550SOL    HW229550   2.055   1.239   0.123
 9551SOL     OW29551   1.715   5.696   4.865
 9551SOL    HW129552   1.631   5.706   4.812
 9551SOL    HW229553   1.780   5.768   4.841
 9552SOL     OW29554   0.686   4.919   3.385
 9552SOL    HW129555   0.593   4.936   3.415
 9552SOL    HW229556   0.741   4.887   3.463
 9553SOL     OW29557   5.542   4.957   6.491
 9553SOL    HW129558   5.604   4.919   6.560
 9553SOL    HW229559   5.594   4.987   6.411
 9554SOL     OW29560   1.717   1.857   1.567
 9554SOL    HW129561   1.797   1.892   1.519
 9554SOL    HW229562   1.729   1.760   1.587
 9555SOL     OW29563   6.980   2.979   6.168
 9555SOL    HW129564   6.995   2.915   6.243
 9555SOL    HW229565   6.884   3.005   6.164
 9556SOL     OW29566   6.639   1.039   1.112
 9556SOL    HW129567   6.590   1.054   1.197
 9556SOL    HW229568   6.711   1.108   1.101
 9557SOL     OW29569   4.737   1.671   2.285
 9557SOL    HW129570   4.760   1.644   2.191
 9557SOL    HW229571   4.821   1.689   2.336
 9558SOL     OW29572   6.565   3.819   1.171
 9558SOL    HW129573   6.524   3.889   1.229
 9558SOL    HW229574   6.632   3.766   1.224
 9559SOL     OW29575   0.666   4.078   2.758
 9559SOL    HW129576   0.762   4.053   2.751
 9559SOL    HW229577   0.618   4.049   2.675
 9560SOL     OW29578   3.906   2.543   5.552
 9560SOL    HW129579   3.834   2.561   5.619
 9560SOL    HW229580   3.876   2.470   5.491
 9561SOL     OW29581   3.204   5.686   6.368
 9561SOL    HW129582   3.194   5.785   6.358
 9561SOL    HW229583   3.270   5.666   6.441
 9562SOL     OW29584   5.649   5.071   4.120
 9562SOL    HW129585   5.749   5.071   4.117
 9562SOL    HW229586   5.613   5.040   4.032
 9563SOL     OW29587   0.399   6.319   6.853
 9563SOL    HW129588   0.328   6.363   6.799
 9563SOL    HW229589   0.365   6.302   6.945
 9564SOL     OW29590   1.283   0.723   5.841
 9564SOL    HW129591   1.370   0.753   5.802
 9564SOL    HW229592   1.240   0.656   5.780
 9565SOL     OW29593   3.170   5.705   5.134
 9565SOL    HW129594   3.096   5.772   5.124
 9565SOL    HW229595   3.137   5.627   5.186
 9566SOL     OW29596   3.154   4.621   6.078
 9566SOL    HW129597   3.182   4.716   6.061
 9566SOL    HW229598   3.104   4.586   5.999
 9567SOL     OW29599   6.086   5.081   4.801
 9567SOL    HW129600   6.007   5.142   4.802
 9567SOL    HW229601   6.170   5.134   4.785
 9568SOL     OW29602   5.665   3.788   5.620
 9568SOL    HW129603   5.757   3.793   5.581
 9568SOL    HW229604   5.637   3.880   5.650
 9569SOL     OW29605   6.015   7.015   1.719
 9569SOL    HW129606   5.949   6.971   1.780
 9569SOL    HW229607   6.067   6.945   1.670
 9570SOL     OW29608   1.204   1.920   6.577
 9570SOL    HW129609   1.293   1.898   6.536
 9570SOL    HW229610   1.217   1.945   6.672
 9571SOL     OW29611   3.218   1.973   0.748
 9571SOL    HW129612   3.204   1.905   0.676
 9571SOL    HW229613   3.304   1.954   0.796
 9572SOL     OW29614   0.228   3.916   0.714
 9572SOL    HW129615   0.203   3.942   0.621
 9572SOL    HW229616   0.286   3.835   0.712
 9573SOL     OW29617   4.717   1.419   3.179
 9573SOL    HW129618   4.681   1.334   3.142
 9573SOL    HW229619   4.718   1.488   3.107
 9574SOL     OW29620   2.743   2.374   3.318
 9574SOL    HW129621   2.796   2.455   3.293
 9574SOL    HW229622   2.647   2.400   3.334
 9575SOL     OW29623   4.055   1.499   2.838
 9575SOL    HW129624   4.077   1.570   2.906
 9575SOL    HW229625   4.091   1.526   2.749
 9576SOL     OW29626   3.524   3.609   5.459
 9576SOL    HW129627   3.552   3.602   5.554
 9576SOL    HW229628   3.567   3.536   5.406
 9577SOL     OW29629   0.853   5.692   3.679
 9577SOL    HW129630   0.787   5.746   3.626
 9577SOL    HW229631   0.932   5.671   3.621
 9578SOL     OW29632   6.919   3.882   1.051
 9578SOL    HW129633   6.947   3.840   0.966
 9578SOL    HW229634   6.862   3.818   1.104
 9579SOL     OW29635   2.025   4.744   2.893
 9579SOL    HW129636   1.946   4.692   2.926
 9579SOL    HW229637   2.042   4.723   2.797
 9580SOL     OW29638   4.185   3.635   5.957
 9580SOL    HW129639   4.225   3.718   5.918
 9580SOL    HW229640   4.088   3.631   5.936
 9581SOL     OW29641   1.074   6.000   5.899
 9581SOL    HW129642   1.006   5.966   5.834
 9581SOL    HW229643   1.129   5.924   5.934
 9582SOL     OW29644   4.401   5.435   2.881
 9582SOL    HW129645   4.404   5.479   2.791
 9582SOL    HW229646   4.363   5.498   2.948
 9583SOL     OW29647   1.501   4.761   1.529
 9583SOL    HW129648   1.593   4.799   1.536
 9583SOL    HW229649   1.468   4.769   1.435
 9584SOL     OW29650   4.826   4.719   0.088
 9584SOL    HW129651   4.919   4.702   0.057
 9584SOL    HW229652   4.771   4.636   0.078
 9585SOL     OW29653   6.673   0.838   2.848
 9585SOL    HW129654   6.575   0.853   2.836
 9585SOL    HW229655   6.708   0.899   2.919
 9586SOL     OW29656   5.142   3.847   2.382
 9586SOL    HW129657   5.208   3.785   2.340
 9586SOL    HW229658   5.173   3.873   2.473
 9587SOL     OW29659   4.353   6.412   1.591
 9587SOL    HW129660   4.254   6.427   1.593
 9587SOL    HW229661   4.373   6.330   1.538
 9588SOL     OW29662   6.160   0.934   3.602
 9588SOL    HW129663   6.111   1.020   3.595
 9588SOL    HW229664   6.246   0.948   3.650
 9589SOL     OW29665   3.326   2.134   4.666
 9589SOL    HW129666   3.283   2.094   4.585
 9589SOL    HW229667   3.273   2.213   4.696
 9590SOL     OW29668   0.253   4.897   4.555
 9590SOL    HW129669   0.352   4.910   4.546
 9590SOL    HW229670   0.224   4.822   4.495
 9591SOL     OW29671   1.016   4.459   2.458
 9591SOL    HW129672   1.077   4.387   2.425
 9591SOL    HW229673   0.929   4.455   2.411
 9592SOL     OW29674   4.277   5.849   0.429
 9592SOL    HW129675   4.216   5.876   0.503
 9592SOL    HW229676   4.281   5.749   0.423
 9593SOL     OW29677   2.130   1.887   3.288
 9593SOL    HW129678   2.079   1.856   3.207
 9593SOL    HW229679   2.210   1.940   3.259
 9594SOL     OW29680   5.809   0.286   1.349
 9594SOL    HW129681   5.821   0.383   1.328
 9594SOL    HW229682   5.878   0.258   1.415
 9595SOL     OW29683   1.435   5.622   5.162
 9595SOL    HW129684   1.392   5.557   5.100
 9595SOL    HW229685   1.365   5.674   5.211
 9596SOL     OW29686   5.402   6.110   2.079
 9596SOL    HW129687   5.440   6.202   2.093
 9596SOL    HW229688   5.468   6.053   2.031
 9597SOL     OW29689   2.374   4.642   1.301
 9597SOL    HW129690   2.427   4.625   1.384
 9597SOL    HW229691   2.317   4.723   1.315
 9598SOL     OW29692   0.045   6.200   6.251
 9598SOL    HW129693   0.122   6.163   6.303
 9598SOL    HW229694   6.993   6.217   6.312
 9599SOL     OW29695   4.031   2.214   4.970
 9599SOL    HW129696   3.948   2.212   4.914
 9599SOL    HW229697   4.111   2.217   4.911
 9600SOL     OW29698   1.631   6.402   6.705
 9600SOL    HW129699   1.635   6.481   6.767
 9600SOL    HW229700   1.568   6.423   6.630
 9601SOL     OW29701   1.042   6.813   5.010
 9601SOL    HW129702   1.050   6.881   5.082
 9601SOL    HW229703   0.962   6.756   5.027
 9602SOL     OW29704   1.194   5.556   6.158
 9602SOL    HW129705   1.271   5.544   6.222
 9602SOL    HW229706   1.222   5.614   6.082
 9603SOL     OW29707   0.948   4.784   2.455
 9603SOL    HW129708   1.020   4.734   2.503
 9603SOL    HW229709   0.887   4.719   2.410
 9604SOL     OW29710   0.350   0.554   6.407
 9604SOL    HW129711   0.286   0.492   6.451
 9604SOL    HW229712   0.301   0.615   6.345
 9605SOL     OW29713   3.410   4.828   1.266
 9605SOL    HW129714   3.338   4.880   1.220
 9605SOL    HW229715   3.431   4.871   1.354
 9606SOL     OW29716   6.946   0.384   5.172
 9606SOL    HW129717   6.891   0.318   5.223
 9606SOL    HW229718   0.016   0.354   5.171
 9607SOL     OW29719   7.005   2.259   2.800
 9607SOL    HW129720   6.935   2.191   2.779
 9607SOL    HW229721   0.065   2.212   2.826
 9608SOL     OW29722   6.220   1.092   1.930
 9608SOL    HW129723   6.130   1.094   1.885
 9608SOL    HW229724   6.288   1.133   1.870
 9609SOL     OW29725   1.430   2.434   3.546
 9609SOL    HW129726   1.381   2.490   3.480
 9609SOL    HW229727   1.516   2.478   3.570
 9610SOL     OW29728   4.032   0.885   5.450
 9610SOL    HW129729   4.065   0.830   5.527
 9610SOL    HW229730   4.035   0.982   5.475
 9611SOL     OW29731   4.974   5.686   1.065
 9611SOL    HW129732   5.043   5.756   1.048
 9611SOL    HW229733   4.905   5.690   0.993
 9612SOL     OW29734   5.606   3.207   3.692
 9612SOL    HW129735   5.508   3.191   3.704
 9612SOL    HW229736   5.657   3.132   3.734
 9613SOL     OW29737   5.502   0.548   4.558
 9613SOL    HW129738   5.592   0.506   4.544
 9613SOL    HW229739   5.498   0.586   4.650
 9614SOL     OW29740   2.925   2.570   0.614
 9614SOL    HW129741   3.000   2.505   0.599
 9614SOL    HW229742   2.962   2.660   0.634
 9615SOL     OW29743   0.555   5.560   3.719
 9615SOL    HW129744   0.643   5.596   3.688
 9615SOL    HW229745   0.566   5.465   3.748
 9616SOL     OW29746   1.102   2.402   0.975
 9616SOL    HW129747   1.191   2.396   0.931
 9616SOL    HW229748   1.092   2.490   1.020
 9617SOL     OW29749   0.392   2.277   3.097
 9617SOL    HW129750   0.367   2.231   3.183
 9617SOL    HW229751   0.421   2.370   3.116
 9618SOL     OW29752   4.892   3.801   1.716
 9618SOL    HW129753   4.902   3.887   1.665
 9618SOL    HW229754   4.856   3.821   1.807
 9619SOL     OW29755   0.431   7.007   1.250
 9619SOL    HW129756   0.384   6.947   1.186
 9619SOL    HW229757   0.529   7.009   1.227
 9620SOL     OW29758   4.116   1.269   6.956
 9620SOL    HW129759   4.061   1.196   6.997
 9620SOL    HW229760   4.195   1.288   7.013
 9621SOL     OW29761   0.206   0.903   1.597
 9621SOL    HW129762   0.181   0.974   1.664
 9621SOL    HW229763   0.284   0.934   1.543
 9622SOL     OW29764   6.625   5.998   5.739
 9622SOL    HW129765   6.551   6.028   5.679
 9622SOL    HW229766   6.647   5.903   5.719
 9623SOL     OW29767   3.060   5.957   5.906
 9623SOL    HW129768   3.108   5.890   5.963
 9623SOL    HW229769   2.983   5.913   5.860
 9624SOL     OW29770   4.592   5.815   5.874
 9624SOL    HW129771   4.554   5.902   5.908
 9624SOL    HW229772   4.675   5.834   5.822
 9625SOL     OW29773   4.861   4.308   6.155
 9625SOL    HW129774   4.921   4.258   6.093
 9625SOL    HW229775   4.900   4.308   6.247
 9626SOL     OW29776   2.614   2.764   6.339
 9626SOL    HW129777   2.676   2.813   6.401
 9626SOL    HW229778   2.657   2.679   6.310
 9627SOL     OW29779   0.170   5.648   0.552
 9627SOL    HW129780   0.214   5.628   0.465
 9627SOL    HW229781   0.181   5.745   0.574
 9628SOL     OW29782   5.899   1.109   5.922
 9628SOL    HW129783   5.867   1.018   5.948
 9628SOL    HW229784   5.847   1.141   5.843
 9629SOL     OW29785   0.738   5.788   3.934
 9629SOL    HW129786   0.806   5.770   3.862
 9629SOL    HW229787   0.672   5.855   3.902
 9630SOL     OW29788   5.399   0.594   6.294
 9630SOL    HW129789   5.446   0.680   6.315
 9630SOL    HW229790   5.357   0.600   6.204
 9631SOL     OW29791   4.533   6.498   0.805
 9631SOL    HW129792   4.577   6.492   0.716
 9631SOL    HW229793   4.462   6.428   0.812
 9632SOL     OW29794   2.711   4.984   3.359
 9632SOL    HW129795   2.792   4.943   3.401
 9632SOL    HW229796   2.674   4.920   3.291
 9633SOL     OW29797   3.582   2.938   5.015
 9633SOL    HW129798   3.578   2.844   5.049
 9633SOL    HW229799   3.595   3.000   5.092
 9634SOL     OW29800   5.546   4.605   2.796
 9634SOL    HW129801   5.637   4.577   2.768
 9634SOL    HW229802   5.489   4.619   2.715
 9635SOL     OW29803   0.462   4.603   4.453
 9635SOL    HW129804   0.502   4.616   4.362
 9635SOL    HW229805   0.370   4.567   4.444
 9636SOL     OW29806   5.758   3.769   3.938
 9636SOL    HW129807   5.827   3.836   3.910
 9636SOL    HW229808   5.757   3.692   3.874
 9637SOL     OW29809   1.685   3.435   6.828
 9637SOL    HW129810   1.684   3.520   6.881
 9637SOL    HW229811   1.749   3.443   6.752
 9638SOL     OW29812   6.617   4.692   5.635
 9638SOL    HW129813   6.631   4.774   5.579
 9638SOL    HW229814   6.685   4.623   5.609
 9639SOL     OW29815   4.913   2.579   1.303
 9639SOL    HW129816   4.951   2.551   1.215
 9639SOL    HW229817   4.830   2.633   1.287
 9640SOL     OW29818   3.519   0.147   2.981
 9640SOL    HW129819   3.523   0.242   3.011
 9640SOL    HW229820   3.425   0.113   2.988
 9641SOL     OW29821   0.187   3.138   4.751
 9641SOL    HW129822   0.246   3.166   4.827
 9641SOL    HW229823   0.092   3.159   4.773
 9642SOL     OW29824   0.440   2.891   4.626
 9642SOL    HW129825   0.386   2.905   4.710
 9642SOL    HW229826   0.472   2.797   4.623
 9643SOL     OW29827   5.440   4.793   4.508
 9643SOL    HW129828   5.341   4.791   4.496
 9643SOL    HW229829   5.472   4.703   4.539
 9644SOL     OW29830   0.944   4.909   3.811
 9644SOL    HW129831   0.900   4.961   3.885
 9644SOL    HW229832   1.041   4.933   3.806
 9645SOL     OW29833   1.217   4.957   6.693
 9645SOL    HW129834   1.158   4.976   6.615
 9645SOL    HW229835   1.297   4.906   6.663
 9646SOL     OW29836   3.045   5.237   1.016
 9646SOL    HW129837   2.970   5.278   0.965
 9646SOL    HW229838   3.012   5.207   1.106
 9647SOL     OW29839   5.737   6.859   3.406
 9647SOL    HW129840   5.729   6.921   3.328
 9647SOL    HW229841   5.711   6.907   3.490
 9648SOL     OW29842   2.989   2.221   1.131
 9648SOL    HW129843   2.987   2.122   1.115
 9648SOL    HW229844   3.084   2.252   1.133
 9649SOL     OW29845   6.880   5.910   1.249
 9649SOL    HW129846   6.923   5.829   1.287
 9649SOL    HW229847   6.929   5.938   1.166
 9650SOL     OW29848   0.782   4.912   5.144
 9650SOL    HW129849   0.783   4.839   5.076
 9650SOL    HW229850   0.859   4.900   5.207
 9651SOL     OW29851   3.993   1.934   6.900
 9651SOL    HW129852   4.042   1.877   6.966
 9651SOL    HW229853   3.999   2.030   6.928
 9652SOL     OW29854   0.154   3.663   0.458
 9652SOL    HW129855   0.205   3.637   0.541
 9652SOL    HW229856   0.097   3.586   0.429
 9653SOL     OW29857   5.210   4.550   5.344
 9653SOL    HW129858   5.289   4.530   5.404
 9653SOL    HW229859   5.156   4.624   5.384
 9654SOL     OW29860   3.800   4.118   3.676
 9654SOL    HW129861   3.783   4.196   3.616
 9654SOL    HW229862   3.724   4.109   3.741
 9655SOL     OW29863   4.997   0.927   1.237
 9655SOL    HW129864   4.904   0.892   1.233
 9655SOL    HW229865   5.046   0.902   1.154
 9656SOL     OW29866   4.833   4.302   6.623
 9656SOL    HW129867   4.741   4.270   6.601
 9656SOL    HW229868   4.826   4.389   6.673
 9657SOL     OW29869   5.246   4.812   2.792
 9657SOL    HW129870   5.255   4.833   2.695
 9657SOL    HW229871   5.186   4.733   2.803
 9658SOL     OW29872   5.357   1.041   2.674
 9658SOL    HW129873   5.409   0.956   2.664
 9658SOL    HW229874   5.412   1.108   2.725
 9659SOL     OW29875   3.135   3.100   6.764
 9659SOL    HW129876   3.151   3.101   6.862
 9659SOL    HW229877   3.178   3.018   6.724
 9660SOL     OW29878   1.808   6.556   1.367
 9660SOL    HW129879   1.872   6.631   1.352
 9660SOL    HW229880   1.824   6.516   1.457
 9661SOL     OW29881   4.060   3.768   2.127
 9661SOL    HW129882   4.124   3.765   2.051
 9661SOL    HW229883   4.025   3.861   2.138
 9662SOL     OW29884   4.763   0.159   5.596
 9662SOL    HW129885   4.694   0.157   5.668
 9662SOL    HW229886   4.814   0.073   5.597
 9663SOL     OW29887   1.053   5.535   2.757
 9663SOL    HW129888   1.031   5.440   2.776
 9663SOL    HW229889   0.980   5.577   2.703
 9664SOL     OW29890   2.720   4.662   2.694
 9664SOL    HW129891   2.744   4.713   2.611
 9664SOL    HW229892   2.771   4.576   2.695
 9665SOL     OW29893   6.422   4.527   6.415
 9665SOL    HW129894   6.326   4.531   6.445
 9665SOL    HW229895   6.481   4.551   6.492
 9666SOL     OW29896   5.165   4.172   0.788
 9666SOL    HW129897   5.098   4.205   0.854
 9666SOL    HW229898   5.254   4.163   0.832
 9667SOL     OW29899   5.542   6.095   6.924
 9667SOL    HW129900   5.618   6.158   6.911
 9667SOL    HW229901   5.477   6.105   6.849
 9668SOL     OW29902   1.578   1.099   6.555
 9668SOL    HW129903   1.656   1.155   6.582
 9668SOL    HW229904   1.523   1.076   6.636
 9669SOL     OW29905   3.108   0.380   0.039
 9669SOL    HW129906   3.177   0.353   0.105
 9669SOL    HW229907   3.019   0.388   0.084
 9670SOL     OW29908   0.443   1.251   1.318
 9670SOL    HW129909   0.429   1.201   1.404
 9670SOL    HW229910   0.541   1.258   1.300
 9671SOL     OW29911   0.858   5.243   6.748
 9671SOL    HW129912   0.946   5.245   6.795
 9671SOL    HW229913   0.870   5.208   6.655
 9672SOL     OW29914   0.825   3.069   4.225
 9672SOL    HW129915   0.781   3.124   4.155
 9672SOL    HW229916   0.760   3.051   4.300
 9673SOL     OW29917   2.363   2.740   6.436
 9673SOL    HW129918   2.452   2.752   6.393
 9673SOL    HW229919   2.305   2.819   6.417
 9674SOL     OW29920   1.735   0.039   3.982
 9674SOL    HW129921   1.802   6.990   3.970
 9674SOL    HW229922   1.667   0.034   3.909
 9675SOL     OW29923   6.433   4.405   5.738
 9675SOL    HW129924   6.394   4.497   5.746
 9675SOL    HW229925   6.530   4.408   5.760
 9676SOL     OW29926   0.703   3.574   5.498
 9676SOL    HW129927   0.745   3.663   5.476
 9676SOL    HW229928   0.692   3.567   5.597
 9677SOL     OW29929   0.017   4.734   2.563
 9677SOL    HW129930   6.968   4.798   2.543
 9677SOL    HW229931   0.081   4.730   2.486
 9678SOL     OW29932   3.830   3.271   5.430
 9678SOL    HW129933   3.917   3.313   5.456
 9678SOL    HW229934   3.824   3.180   5.471
 9679SOL     OW29935   1.348   0.607   3.872
 9679SOL    HW129936   1.295   0.684   3.908
 9679SOL    HW229937   1.406   0.638   3.797
 9680SOL     OW29938   4.293   0.339   2.391
 9680SOL    HW129939   4.253   0.387   2.468
 9680SOL    HW229940   4.326   0.405   2.323
 9681SOL     OW29941   1.078   3.533   1.354
 9681SOL    HW129942   1.122   3.608   1.402
 9681SOL    HW229943   1.114   3.446   1.387
 9682SOL     OW29944   4.615   6.858   5.759
 9682SOL    HW129945   4.592   6.952   5.782
 9682SOL    HW229946   4.679   6.857   5.682
 9683SOL     OW29947   3.914   5.817   4.717
 9683SOL    HW129948   3.918   5.908   4.675
 9683SOL    HW229949   3.999   5.768   4.698
 9684SOL     OW29950   6.843   3.107   5.927
 9684SOL    HW129951   6.787   3.187   5.906
 9684SOL    HW229952   6.794   3.048   5.990
 9685SOL     OW29953   3.385   4.617   1.647
 9685SOL    HW129954   3.456   4.633   1.716
 9685SOL    HW229955   3.357   4.521   1.650
 9686SOL     OW29956   0.092   1.544   5.354
 9686SOL    HW129957   0.172   1.585   5.398
 9686SOL    HW229958   0.116   1.511   5.263
 9687SOL     OW29959   5.723   1.442   3.648
 9687SOL    HW129960   5.793   1.490   3.595
 9687SOL    HW229961   5.675   1.507   3.706
 9688SOL     OW29962   0.205   5.195   1.534
 9688SOL    HW129963   0.284   5.137   1.513
 9688SOL    HW229964   0.235   5.290   1.539
 9689SOL     OW29965   1.599   5.382   1.347
 9689SOL    HW129966   1.584   5.283   1.349
 9689SOL    HW229967   1.537   5.426   1.412
 9690SOL     OW29968   0.067   4.935   5.044
 9690SOL    HW129969   0.099   4.918   4.950
 9690SOL    HW229970   6.995   4.960   5.042
 9691SOL     OW29971   4.126   3.566   2.300
 9691SOL    HW129972   4.190   3.506   2.254
 9691SOL    HW229973   4.105   3.644   2.241
 9692SOL     OW29974   4.851   4.665   0.721
 9692SOL    HW129975   4.918   4.728   0.759
 9692SOL    HW229976   4.855   4.667   0.621
 9693SOL     OW29977   4.728   3.612   6.345
 9693SOL    HW129978   4.813   3.600   6.396
 9693SOL    HW229979   4.652   3.572   6.396
 9694SOL     OW29980   2.604   6.047   1.006
 9694SOL    HW129981   2.702   6.043   0.990
 9694SOL    HW229982   2.562   5.960   0.977
 9695SOL     OW29983   1.508   2.830   4.031
 9695SOL    HW129984   1.443   2.860   4.100
 9695SOL    HW229985   1.558   2.910   3.995
 9696SOL     OW29986   4.776   2.974   3.540
 9696SOL    HW129987   4.852   2.934   3.488
 9696SOL    HW229988   4.796   2.968   3.638
 9697SOL     OW29989   6.984   0.431   1.494
 9697SOL    HW129990   0.003   0.352   1.537
 9697SOL    HW229991   6.891   0.406   1.466
 9698SOL     OW29992   6.989   3.226   1.786
 9698SOL    HW129993   6.923   3.245   1.859
 9698SOL    HW229994   6.955   3.265   1.700
 9699SOL     OW29995   0.763   6.245   2.071
 9699SOL    HW129996   0.821   6.322   2.099
 9699SOL    HW229997   0.745   6.186   2.150
 9700SOL     OW29998   5.776   0.664   6.667
 9700SOL    HW129999   5.746   0.714   6.587
 9700SOL    HW230000   5.716   0.586   6.684
 9701SOL     OW30001   5.504   3.871   0.379
 9701SOL    HW130002   5.586   3.901   0.428
 9701SOL    HW230003   5.423   3.905   0.427
 9702SOL     OW30004   3.465   3.967   1.731
 9702SOL    HW130005   3.502   3.875   1.738
 9702SOL    HW230006   3.414   3.990   1.814
 9703SOL     OW30007   6.207   4.961   3.158
 9703SOL    HW130008   6.214   4.969   3.257
 9703SOL    HW230009   6.287   4.913   3.122
 9704SOL     OW30010   0.998   4.623   1.976
 9704SOL    HW130011   1.027   4.699   1.919
 9704SOL    HW230012   0.953   4.553   1.919
 9705SOL     OW30013   0.116   3.811   5.834
 9705SOL    HW130014   0.206   3.767   5.838
 9705SOL    HW230015   0.120   3.901   5.876
 9706SOL     OW30016   0.785   0.559   1.980
 9706SOL    HW130017   0.797   0.504   2.063
 9706SOL    HW230018   0.869   0.554   1.926
 9707SOL     OW30019   0.908   5.223   2.306
 9707SOL    HW130020   0.825   5.277   2.298
 9707SOL    HW230021   0.972   5.269   2.369
 9708SOL     OW30022   2.734   1.168   1.517
 9708SOL    HW130023   2.704   1.264   1.510
 9708SOL    HW230024   2.658   1.112   1.549
 9709SOL     OW30025   5.113   1.914   1.980
 9709SOL    HW130026   5.101   1.834   1.921
 9709SOL    HW230027   5.162   1.985   1.931
 9710SOL     OW30028   4.673   4.966   4.514
 9710SOL    HW130029   4.736   4.982   4.590
 9710SOL    HW230030   4.640   4.871   4.517
 9711SOL     OW30031   2.594   0.755   6.477
 9711SOL    HW130032   2.687   0.721   6.494
 9711SOL    HW230033   2.552   0.781   6.564
 9712SOL     OW30034   5.243   0.191   5.456
 9712SOL    HW130035   5.289   0.254   5.393
 9712SOL    HW230036   5.145   0.210   5.457
 9713SOL     OW30037   1.810   0.359   2.783
 9713SOL    HW130038   1.869   0.325   2.711
 9713SOL    HW230039   1.737   0.415   2.742
 9714SOL     OW30040   2.168   3.197   4.082
 9714SOL    HW130041   2.157   3.252   3.999
 9714SOL    HW230042   2.145   3.252   4.162
 9715SOL     OW30043   0.126   2.594   6.349
 9715SOL    HW130044   0.215   2.640   6.342
 9715SOL    HW230045   0.133   2.519   6.415
 9716SOL     OW30046   2.297   6.580   0.752
 9716SOL    HW130047   2.248   6.496   0.775
 9716SOL    HW230048   2.392   6.572   0.780
 9717SOL     OW30049   3.836   2.914   5.969
 9717SOL    HW130050   3.809   2.902   6.065
 9717SOL    HW230051   3.928   2.952   5.965
 9718SOL     OW30052   3.701   2.508   0.092
 9718SOL    HW130053   3.667   2.536   0.181
 9718SOL    HW230054   3.792   2.548   0.077
 9719SOL     OW30055   4.420   0.627   5.837
 9719SOL    HW130056   4.331   0.581   5.830
 9719SOL    HW230057   4.419   0.689   5.915
 9720SOL     OW30058   2.134   2.495   2.384
 9720SOL    HW130059   2.191   2.414   2.376
 9720SOL    HW230060   2.185   2.574   2.349
 9721SOL     OW30061   0.897   1.654   1.152
 9721SOL    HW130062   0.936   1.703   1.074
 9721SOL    HW230063   0.907   1.711   1.235
 9722SOL     OW30064   4.118   2.703   5.379
 9722SOL    HW130065   4.113   2.635   5.306
 9722SOL    HW230066   4.036   2.696   5.437
 9723SOL     OW30067   5.937   0.567   4.917
 9723SOL    HW130068   5.927   0.665   4.898
 9723SOL    HW230069   6.013   0.553   4.981
 9724SOL     OW30070   1.461   4.432   1.471
 9724SOL    HW130071   1.523   4.354   1.468
 9724SOL    HW230072   1.513   4.516   1.483
 9725SOL     OW30073   5.582   5.779   3.754
 9725SOL    HW130074   5.552   5.844   3.685
 9725SOL    HW230075   5.550   5.687   3.731
 9726SOL     OW30076   6.987   0.061   3.130
 9726SOL    HW130077   6.944   0.069   3.041
 9726SOL    HW230078   6.917   0.046   3.200
 9727SOL     OW30079   6.068   2.615   1.512
 9727SOL    HW130080   6.083   2.560   1.430
 9727SOL    HW230081   5.982   2.589   1.555
 9728SOL     OW30082   5.143   2.397   4.585
 9728SOL    HW130083   5.079   2.322   4.602
 9728SOL    HW230084   5.230   2.360   4.553
 9729SOL     OW30085   0.394   3.708   2.849
 9729SOL    HW130086   0.455   3.707   2.770
 9729SOL    HW230087   0.444   3.679   2.930
 9730SOL     OW30088   1.332   5.527   3.663
 9730SOL    HW130089   1.291   5.458   3.723
 9730SOL    HW230090   1.400   5.484   3.604
 9731SOL     OW30091   6.437   2.483   1.448
 9731SOL    HW130092   6.430   2.385   1.429
 9731SOL    HW230093   6.365   2.510   1.512
 9732SOL     OW30094   1.434   3.275   2.622
 9732SOL    HW130095   1.419   3.194   2.566
 9732SOL    HW230096   1.490   3.250   2.701
 9733SOL     OW30097   6.091   5.401   1.874
 9733SOL    HW130098   6.015   5.370   1.816
 9733SOL    HW230099   6.171   5.419   1.817
 9734SOL     OW30100   3.993   4.559   6.575
 9734SOL    HW130101   3.952   4.649   6.559
 9734SOL    HW230102   4.050   4.563   6.657
 9735SOL     OW30103   0.468   1.461   0.133
 9735SOL    HW130104   0.404   1.502   0.068
 9735SOL    HW230105   0.560   1.460   0.093
 9736SOL     OW30106   5.215   2.161   5.132
 9736SOL    HW130107   5.121   2.129   5.142
 9736SOL    HW230108   5.243   2.153   5.036
 9737SOL     OW30109   5.587   3.243   4.783
 9737SOL    HW130110   5.539   3.226   4.698
 9737SOL    HW230111   5.598   3.342   4.796
 9738SOL     OW30112   2.313   6.533   1.606
 9738SOL    HW130113   2.337   6.630   1.605
 9738SOL    HW230114   2.394   6.478   1.583
 9739SOL     OW30115   5.676   7.004   0.591
 9739SOL    HW130116   5.706   6.912   0.616
 9739SOL    HW230117   5.733   0.047   0.638
 9740SOL     OW30118   6.232   0.661   1.687
 9740SOL    HW130119   6.258   0.565   1.688
 9740SOL    HW230120   6.313   0.717   1.671
 9741SOL     OW30121   2.491   2.285   3.099
 9741SOL    HW130122   2.490   2.328   3.008
 9741SOL    HW230123   2.521   2.352   3.167
 9742SOL     OW30124   3.910   1.839   6.422
 9742SOL    HW130125   3.967   1.886   6.489
 9742SOL    HW230126   3.837   1.790   6.468
 9743SOL     OW30127   6.509   3.474   4.276
 9743SOL    HW130128   6.574   3.442   4.345
 9743SOL    HW230129   6.492   3.572   4.289
 9744SOL     OW30130   1.853   1.829   2.664
 9744SOL    HW130131   1.854   1.904   2.730
 9744SOL    HW230132   1.856   1.867   2.571
 9745SOL     OW30133   0.809   6.595   5.931
 9745SOL    HW130134   0.850   6.640   5.852
 9745SOL    HW230135   0.726   6.644   5.958
 9746SOL     OW30136   3.027   6.446   6.029
 9746SOL    HW130137   3.027   6.359   5.978
 9746SOL    HW230138   2.972   6.513   5.979
 9747SOL     OW30139   3.623   1.790   3.490
 9747SOL    HW130140   3.714   1.756   3.513
 9747SOL    HW230141   3.614   1.884   3.522
 9748SOL     OW30142   0.158   1.758   2.205
 9748SOL    HW130143   0.070   1.799   2.178
 9748SOL    HW230144   0.141   1.680   2.265
 9749SOL     OW30145   6.638   0.669   1.732
 9749SOL    HW130146   6.633   0.587   1.789
 9749SOL    HW230147   6.729   0.674   1.690
 9750SOL     OW30148   5.470   2.649   5.432
 9750SOL    HW130149   5.465   2.739   5.389
 9750SOL    HW230150   5.562   2.611   5.418
 9751SOL     OW30151   2.947   6.373   1.150
 9751SOL    HW130152   2.897   6.451   1.112
 9751SOL    HW230153   2.981   6.397   1.241
 9752SOL     OW30154   3.436   3.040   0.433
 9752SOL    HW130155   3.500   3.093   0.488
 9752SOL    HW230156   3.414   3.090   0.349
 9753SOL     OW30157   6.568   5.851   3.602
 9753SOL    HW130158   6.489   5.789   3.597
 9753SOL    HW230159   6.539   5.938   3.642
 9754SOL     OW30160   3.203   1.096   2.149
 9754SOL    HW130161   3.149   1.109   2.233
 9754SOL    HW230162   3.220   0.998   2.136
 9755SOL     OW30163   3.676   3.851   6.902
 9755SOL    HW130164   3.608   3.886   6.837
 9755SOL    HW230165   3.655   3.887   6.993
 9756SOL     OW30166   5.800   0.178   6.486
 9756SOL    HW130167   5.859   0.108   6.528
 9756SOL    HW230168   5.830   0.194   6.392
 9757SOL     OW30169   5.481   3.492   4.176
 9757SOL    HW130170   5.554   3.560   4.177
 9757SOL    HW230171   5.400   3.530   4.220
 9758SOL     OW30172   2.615   0.380   2.035
 9758SOL    HW130173   2.610   0.435   1.951
 9758SOL    HW230174   2.564   0.425   2.108
 9759SOL     OW30175   6.632   2.221   1.153
 9759SOL    HW130176   6.540   2.183   1.158
 9759SOL    HW230177   6.685   2.171   1.085
 9760SOL     OW30178   4.768   0.525   6.362
 9760SOL    HW130179   4.684   0.566   6.399
 9760SOL    HW230180   4.747   0.480   6.275
 9761SOL     OW30181   0.954   2.145   1.143
 9761SOL    HW130182   0.987   2.177   1.054
 9761SOL    HW230183   0.861   2.179   1.158
 9762SOL     OW30184   3.178   1.070   6.149
 9762SOL    HW130185   3.255   1.133   6.155
 9762SOL    HW230186   3.203   0.991   6.093
 9763SOL     OW30187   6.358   2.689   1.038
 9763SOL    HW130188   6.404   2.768   0.998
 9763SOL    HW230189   6.427   2.624   1.070
 9764SOL     OW30190   0.907   2.675   2.762
 9764SOL    HW130191   0.926   2.637   2.672
 9764SOL    HW230192   0.903   2.601   2.829
 9765SOL     OW30193   6.463   1.809   1.310
 9765SOL    HW130194   6.445   1.893   1.362
 9765SOL    HW230195   6.552   1.816   1.266
 9766SOL     OW30196   0.514   3.013   2.880
 9766SOL    HW130197   0.576   2.944   2.842
 9766SOL    HW230198   0.462   2.973   2.955
 9767SOL     OW30199   3.385   1.660   5.178
 9767SOL    HW130200   3.294   1.688   5.149
 9767SOL    HW230201   3.403   1.567   5.145
 9768SOL     OW30202   4.969   2.425   0.084
 9768SOL    HW130203   4.957   2.414   0.183
 9768SOL    HW230204   5.050   2.481   0.067
 9769SOL     OW30205   3.524   1.219   5.625
 9769SOL    HW130206   3.590   1.282   5.666
 9769SOL    HW230207   3.438   1.223   5.676
 9770SOL     OW30208   1.711   3.253   5.085
 9770SOL    HW130209   1.632   3.194   5.099
 9770SOL    HW230210   1.681   3.347   5.070
 9771SOL     OW30211   3.471   1.094   1.813
 9771SOL    HW130212   3.385   1.073   1.860
 9771SOL    HW230213   3.482   1.193   1.808
 9772SOL     OW30214   0.841   0.874   1.150
 9772SOL    HW130215   0.768   0.813   1.182
 9772SOL    HW230216   0.920   0.864   1.211
 9773SOL     OW30217   5.974   6.235   2.289
 9773SOL    HW130218   5.981   6.153   2.232
 9773SOL    HW230219   6.058   6.288   2.282
 9774SOL     OW30220   1.903   5.112   4.499
 9774SOL    HW130221   1.997   5.125   4.531
 9774SOL    HW230222   1.870   5.022   4.529
 9775SOL     OW30223   1.369   1.426   2.576
 9775SOL    HW130224   1.270   1.440   2.566
 9775SOL    HW230225   1.413   1.435   2.487
 9776SOL     OW30226   2.082   5.552   1.159
 9776SOL    HW130227   2.111   5.481   1.094
 9776SOL    HW230228   2.089   5.642   1.116
 9777SOL     OW30229   4.369   2.143   5.116
 9777SOL    HW130230   4.459   2.105   5.135
 9777SOL    HW230231   4.365   2.177   5.022
 9778SOL     OW30232   1.491   4.026   2.860
 9778SOL    HW130233   1.584   4.020   2.895
 9778SOL    HW230234   1.447   4.109   2.894
 9779SOL     OW30235   3.349   0.229   3.597
 9779SOL    HW130236   3.355   0.320   3.639
 9779SOL    HW230237   3.265   0.223   3.544
 9780SOL     OW30238   0.562   1.318   0.429
 9780SOL    HW130239   0.566   1.291   0.525
 9780SOL    HW230240   0.512   1.404   0.420
 9781SOL     OW30241   1.237   1.412   2.259
 9781SOL    HW130242   1.287   1.341   2.309
 9781SOL    HW230243   1.260   1.406   2.161
 9782SOL     OW30244   0.538   2.449   0.372
 9782SOL    HW130245   0.557   2.410   0.462
 9782SOL    HW230246   0.550   2.548   0.375
 9783SOL     OW30247   4.159   1.058   2.650
 9783SOL    HW130248   4.206   1.135   2.607
 9783SOL    HW230249   4.200   0.972   2.620
 9784SOL     OW30250   1.733   1.373   6.813
 9784SOL    HW130251   1.638   1.402   6.800
 9784SOL    HW230252   1.782   1.443   6.865
 9785SOL     OW30253   0.849   3.718   4.700
 9785SOL    HW130254   0.799   3.802   4.679
 9785SOL    HW230255   0.820   3.646   4.638
 9786SOL     OW30256   2.210   4.407   6.621
 9786SOL    HW130257   2.253   4.318   6.636
 9786SOL    HW230258   2.112   4.395   6.604
 9787SOL     OW30259   2.842   3.737   1.760
 9787SOL    HW130260   2.885   3.803   1.822
 9787SOL    HW230261   2.840   3.647   1.804
 9788SOL     OW30262   2.969   6.804   2.883
 9788SOL    HW130263   2.993   6.851   2.968
 9788SOL    HW230264   2.909   6.862   2.828
 9789SOL     OW30265   3.789   1.175   0.213
 9789SOL    HW130266   3.740   1.092   0.189
 9789SOL    HW230267   3.868   1.186   0.153
 9790SOL     OW30268   4.264   5.238   5.042
 9790SOL    HW130269   4.338   5.204   5.099
 9790SOL    HW230270   4.237   5.329   5.072
 9791SOL     OW30271   0.269   0.637   1.060
 9791SOL    HW130272   0.204   0.595   1.123
 9791SOL    HW230273   0.319   0.710   1.107
 9792SOL     OW30274   3.724   4.756   0.769
 9792SOL    HW130275   3.748   4.796   0.681
 9792SOL    HW230276   3.703   4.659   0.757
 9793SOL     OW30277   6.168   0.712   3.180
 9793SOL    HW130278   6.095   0.643   3.182
 9793SOL    HW230279   6.254   0.671   3.209
 9794SOL     OW30280   3.824   5.374   4.183
 9794SOL    HW130281   3.775   5.307   4.126
 9794SOL    HW230282   3.781   5.463   4.175
 9795SOL     OW30283   1.217   3.452   3.699
 9795SOL    HW130284   1.243   3.529   3.757
 9795SOL    HW230285   1.246   3.471   3.605
 9796SOL     OW30286   3.154   3.594   4.291
 9796SOL    HW130287   3.120   3.686   4.310
 9796SOL    HW230288   3.229   3.601   4.224
 9797SOL     OW30289   3.408   5.433   6.953
 9797SOL    HW130290   3.491   5.392   6.915
 9797SOL    HW230291   3.348   5.461   6.878
 9798SOL     OW30292   6.964   4.424   6.670
 9798SOL    HW130293   6.933   4.412   6.764
 9798SOL    HW230294   0.035   4.395   6.662
 9799SOL     OW30295   3.544   6.585   0.009
 9799SOL    HW130296   3.446   6.599   7.018
 9799SOL    HW230297   3.594   6.668   7.011
 9800SOL     OW30298   6.387   4.419   4.717
 9800SOL    HW130299   6.363   4.516   4.718
 9800SOL    HW230300   6.312   4.366   4.759
 9801SOL     OW30301   4.158   6.497   1.255
 9801SOL    HW130302   4.197   6.406   1.242
 9801SOL    HW230303   4.200   6.541   1.334
 9802SOL     OW30304   3.889   3.928   0.219
 9802SOL    HW130305   3.920   3.859   0.284
 9802SOL    HW230306   3.888   4.018   0.264
 9803SOL     OW30307   1.194   3.543   6.199
 9803SOL    HW130308   1.225   3.509   6.111
 9803SOL    HW230309   1.264   3.527   6.269
 9804SOL     OW30310   0.644   4.377   3.385
 9804SOL    HW130311   0.744   4.377   3.393
 9804SOL    HW230312   0.605   4.326   3.462
 9805SOL     OW30313   0.055   5.522   4.105
 9805SOL    HW130314   0.141   5.479   4.133
 9805SOL    HW230315   0.070   5.620   4.089
 9806SOL     OW30316   3.725   1.640   0.259
 9806SOL    HW130317   3.800   1.584   0.296
 9806SOL    HW230318   3.763   1.724   0.221
 9807SOL     OW30319   3.874   3.601   3.323
 9807SOL    HW130320   3.927   3.607   3.239
 9807SOL    HW230321   3.919   3.656   3.394
 9808SOL     OW30322   3.124   5.666   2.074
 9808SOL    HW130323   3.087   5.640   2.164
 9808SOL    HW230324   3.193   5.599   2.047
 9809SOL     OW30325   6.162   2.307   0.630
 9809SOL    HW130326   6.182   2.398   0.667
 9809SOL    HW230327   6.147   2.243   0.705
 9810SOL     OW30328   2.652   2.971   1.093
 9810SOL    HW130329   2.681   2.876   1.094
 9810SOL    HW230330   2.602   2.990   1.008
 9811SOL     OW30331   5.810   3.332   3.898
 9811SOL    HW130332   5.748   3.391   3.847
 9811SOL    HW230333   5.834   3.376   3.985
 9812SOL     OW30334   3.420   5.519   5.894
 9812SOL    HW130335   3.374   5.601   5.860
 9812SOL    HW230336   3.460   5.538   5.984
 9813SOL     OW30337   4.083   0.615   2.123
 9813SOL    HW130338   4.035   0.693   2.163
 9813SOL    HW230339   4.045   0.594   2.034
 9814SOL     OW30340   0.260   1.781   5.824
 9814SOL    HW130341   0.352   1.803   5.792
 9814SOL    HW230342   0.261   1.772   5.924
 9815SOL     OW30343   4.193   2.245   4.351
 9815SOL    HW130344   4.200   2.258   4.252
 9815SOL    HW230345   4.150   2.157   4.370
 9816SOL     OW30346   2.766   1.484   0.622
 9816SOL    HW130347   2.688   1.444   0.573
 9816SOL    HW230348   2.851   1.447   0.584
 9817SOL     OW30349   6.099   0.212   1.883
 9817SOL    HW130350   6.092   0.124   1.837
 9817SOL    HW230351   6.053   0.208   1.971
 9818SOL     OW30352   4.244   3.195   5.377
 9818SOL    HW130353   4.194   3.216   5.293
 9818SOL    HW230354   4.195   3.234   5.455
 9819SOL     OW30355   3.384   0.764   1.768
 9819SOL    HW130356   3.300   0.812   1.794
 9819SOL    HW230357   3.360   0.686   1.709
 9820SOL     OW30358   4.022   2.549   0.389
 9820SOL    HW130359   4.117   2.559   0.421
 9820SOL    HW230360   3.965   2.620   0.431
 9821SOL     OW30361   0.194   5.274   0.076
 9821SOL    HW130362   0.121   5.324   0.029
 9821SOL    HW230363   0.153   5.217   0.148
 9822SOL     OW30364   0.555   0.343   2.778
 9822SOL    HW130365   0.636   0.382   2.821
 9822SOL    HW230366   0.473   0.378   2.824
 9823SOL     OW30367   3.265   6.508   1.716
 9823SOL    HW130368   3.168   6.531   1.717
 9823SOL    HW230369   3.282   6.433   1.781
 9824SOL     OW30370   1.765   3.843   6.357
 9824SOL    HW130371   1.829   3.812   6.287
 9824SOL    HW230372   1.722   3.929   6.328
 9825SOL     OW30373   4.129   5.102   5.526
 9825SOL    HW130374   4.052   5.166   5.528
 9825SOL    HW230375   4.123   5.040   5.604
 9826SOL     OW30376   5.348   6.965   5.624
 9826SOL    HW130377   5.367   0.034   5.653
 9826SOL    HW230378   5.344   6.962   5.524
 9827SOL     OW30379   0.761   4.377   4.411
 9827SOL    HW130380   0.662   4.371   4.426
 9827SOL    HW230381   0.783   4.344   4.319
 9828SOL     OW30382   2.932   2.695   6.671
 9828SOL    HW130383   2.881   2.752   6.736
 9828SOL    HW230384   2.950   2.748   6.588
 9829SOL     OW30385   2.551   4.371   1.149
 9829SOL    HW130386   2.595   4.436   1.086
 9829SOL    HW230387   2.591   4.382   1.240
 9830SOL     OW30388   6.816   1.280   0.509
 9830SOL    HW130389   6.883   1.303   0.580
 9830SOL    HW230390   6.862   1.233   0.434
 9831SOL     OW30391   5.639   6.787   1.172
 9831SOL    HW130392   5.634   6.881   1.206
 9831SOL    HW230393   5.723   6.744   1.205
 9832SOL     OW30394   3.940   5.145   1.305
 9832SOL    HW130395   3.921   5.050   1.278
 9832SOL    HW230396   3.916   5.206   1.230
 9833SOL     OW30397   4.638   4.199   5.771
 9833SOL    HW130398   4.624   4.196   5.870
 9833SOL    HW230399   4.736   4.194   5.751
 9834SOL     OW30400   2.210   2.268   4.020
 9834SOL    HW130401   2.250   2.263   4.111
 9834SOL    HW230402   2.239   2.189   3.966
 9835SOL     OW30403   4.648   1.741   4.581
 9835SOL    HW130404   4.578   1.680   4.545
 9835SOL    HW230405   4.615   1.836   4.578
 9836SOL     OW30406   5.532   5.356   2.338
 9836SOL    HW130407   5.510   5.260   2.322
 9836SOL    HW230408   5.464   5.395   2.400
 9837SOL     OW30409   1.618   6.417   4.887
 9837SOL    HW130410   1.697   6.362   4.916
 9837SOL    HW230411   1.570   6.451   4.967
 9838SOL     OW30412   6.681   5.484   5.126
 9838SOL    HW130413   6.710   5.554   5.191
 9838SOL    HW230414   6.635   5.528   5.048
 9839SOL     OW30415   6.787   2.108   2.726
 9839SOL    HW130416   6.767   2.018   2.686
 9839SOL    HW230417   6.703   2.147   2.765
 9840SOL     OW30418   6.123   0.547   1.233
 9840SOL    HW130419   6.132   0.590   1.143
 9840SOL    HW230420   6.031   0.564   1.268
 9841SOL     OW30421   1.776   3.704   4.030
 9841SOL    HW130422   1.865   3.724   3.989
 9841SOL    HW230423   1.789   3.669   4.123
 9842SOL     OW30424   2.918   3.447   3.522
 9842SOL    HW130425   2.979   3.519   3.490
 9842SOL    HW230426   2.876   3.401   3.444
 9843SOL     OW30427   5.969   3.681   3.047
 9843SOL    HW130428   6.062   3.712   3.028
 9843SOL    HW230429   5.945   3.702   3.142
 9844SOL     OW30430   5.184   0.418   2.607
 9844SOL    HW130431   5.263   0.473   2.636
 9844SOL    HW230432   5.145   0.371   2.687
 9845SOL     OW30433   1.491   1.803   3.350
 9845SOL    HW130434   1.503   1.782   3.253
 9845SOL    HW230435   1.434   1.884   3.360
 9846SOL     OW30436   3.207   3.374   3.132
 9846SOL    HW130437   3.220   3.443   3.203
 9846SOL    HW230438   3.276   3.302   3.142
 9847SOL     OW30439   2.299   4.533   4.727
 9847SOL    HW130440   2.247   4.449   4.710
 9847SOL    HW230441   2.294   4.556   4.824
 9848SOL     OW30442   5.476   3.577   0.571
 9848SOL    HW130443   5.415   3.570   0.493
 9848SOL    HW230444   5.480   3.490   0.619
 9849SOL     OW30445   0.235   0.014   5.388
 9849SOL    HW130446   0.315   6.993   5.427
 9849SOL    HW230447   0.231   7.022   5.290
 9850SOL     OW30448   4.409   6.989   2.744
 9850SOL    HW130449   4.444   0.026   2.673
 9850SOL    HW230450   4.326   0.004   2.784
 9851SOL     OW30451   5.394   3.354   5.103
 9851SOL    HW130452   5.325   3.342   5.032
 9851SOL    HW230453   5.484   3.367   5.060
 9852SOL     OW30454   4.615   1.951   4.182
 9852SOL    HW130455   4.706   1.973   4.216
 9852SOL    HW230456   4.547   1.983   4.248
 9853SOL     OW30457   0.369   3.949   1.235
 9853SOL    HW130458   0.355   4.009   1.156
 9853SOL    HW230459   0.446   3.982   1.289
 9854SOL     OW30460   4.392   6.020   3.413
 9854SOL    HW130461   4.487   5.989   3.411
 9854SOL    HW230462   4.359   6.032   3.319
 9855SOL     OW30463   1.651   3.505   0.709
 9855SOL    HW130464   1.660   3.412   0.672
 9855SOL    HW230465   1.737   3.554   0.696
 9856SOL     OW30466   4.057   2.640   0.831
 9856SOL    HW130467   4.139   2.593   0.798
 9856SOL    HW230468   4.051   2.631   0.930
 9857SOL     OW30469   6.180   3.969   2.833
 9857SOL    HW130470   6.089   3.982   2.872
 9857SOL    HW230471   6.226   4.058   2.827
 9858SOL     OW30472   4.188   1.629   1.117
 9858SOL    HW130473   4.090   1.609   1.120
 9858SOL    HW230474   4.202   1.728   1.114
 9859SOL     OW30475   6.323   0.415   1.668
 9859SOL    HW130476   6.354   0.417   1.573
 9859SOL    HW230477   6.266   0.334   1.683
 9860SOL     OW30478   0.242   1.211   2.465
 9860SOL    HW130479   0.325   1.256   2.498
 9860SOL    HW230480   0.168   1.227   2.529
 9861SOL     OW30481   3.367   6.699   4.891
 9861SOL    HW130482   3.441   6.659   4.946
 9861SOL    HW230483   3.374   6.799   4.894
 9862SOL     OW30484   0.987   2.238   0.801
 9862SOL    HW130485   0.904   2.286   0.770
 9862SOL    HW230486   1.039   2.297   0.862
 9863SOL     OW30487   2.850   0.106   0.832
 9863SOL    HW130488   2.780   0.177   0.840
 9863SOL    HW230489   2.893   0.092   0.921
 9864SOL     OW30490   4.486   6.262   2.980
 9864SOL    HW130491   4.386   6.254   2.983
 9864SOL    HW230492   4.512   6.328   2.909
 9865SOL     OW30493   1.477   2.781   4.853
 9865SOL    HW130494   1.435   2.751   4.767
 9865SOL    HW230495   1.410   2.775   4.927
 9866SOL     OW30496   3.995   4.776   2.884
 9866SOL    HW130497   4.086   4.767   2.925
 9866SOL    HW230498   3.977   4.696   2.827
 9867SOL     OW30499   4.087   0.544   6.372
 9867SOL    HW130500   4.156   0.545   6.444
 9867SOL    HW230501   4.093   0.458   6.321
 9868SOL     OW30502   0.245   4.953   6.554
 9868SOL    HW130503   0.161   4.933   6.605
 9868SOL    HW230504   0.229   5.032   6.495
 9869SOL     OW30505   1.854   3.931   3.321
 9869SOL    HW130506   1.940   3.931   3.270
 9869SOL    HW230507   1.784   3.883   3.268
 9870SOL     OW30508   5.122   4.461   2.378
 9870SOL    HW130509   5.185   4.457   2.300
 9870SOL    HW230510   5.165   4.419   2.458
 9871SOL     OW30511   1.386   1.581   5.457
 9871SOL    HW130512   1.327   1.645   5.507
 9871SOL    HW230513   1.344   1.490   5.457
 9872SOL     OW30514   1.487   4.752   3.537
 9872SOL    HW130515   1.394   4.788   3.540
 9872SOL    HW230516   1.540   4.791   3.612
 9873SOL     OW30517   1.213   2.442   0.618
 9873SOL    HW130518   1.184   2.349   0.593
 9873SOL    HW230519   1.279   2.437   0.694
 9874SOL     OW30520   0.733   2.809   3.590
 9874SOL    HW130521   0.781   2.881   3.641
 9874SOL    HW230522   0.637   2.834   3.580
 9875SOL     OW30523   1.146   0.577   3.206
 9875SOL    HW130524   1.071   0.541   3.151
 9875SOL    HW230525   1.209   0.628   3.147
 9876SOL     OW30526   0.030   5.879   2.846
 9876SOL    HW130527   0.124   5.884   2.812
 9876SOL    HW230528   6.993   5.921   2.779
 9877SOL     OW30529   3.641   6.938   1.872
 9877SOL    HW130530   3.545   6.925   1.849
 9877SOL    HW230531   3.649   6.981   1.961
 9878SOL     OW30532   0.536   0.355   5.289
 9878SOL    HW130533   0.571   0.333   5.380
 9878SOL    HW230534   0.481   0.438   5.293
 9879SOL     OW30535   5.530   6.222   5.416
 9879SOL    HW130536   5.476   6.162   5.475
 9879SOL    HW230537   5.499   6.211   5.321
 9880SOL     OW30538   2.110   1.846   4.767
 9880SOL    HW130539   2.147   1.935   4.792
 9880SOL    HW230540   2.015   1.857   4.736
 9881SOL     OW30541   6.870   2.082   6.131
 9881SOL    HW130542   6.816   2.136   6.195
 9881SOL    HW230543   6.967   2.099   6.145
 9882SOL     OW30544   1.599   1.730   2.529
 9882SOL    HW130545   1.548   1.757   2.611
 9882SOL    HW230546   1.663   1.803   2.505
 9883SOL     OW30547   2.075   0.975   2.022
 9883SOL    HW130548   2.173   0.955   2.013
 9883SOL    HW230549   2.043   0.941   2.111
 9884SOL     OW30550   4.008   0.794   4.226
 9884SOL    HW130551   3.909   0.800   4.242
 9884SOL    HW230552   4.030   0.835   4.138
 9885SOL     OW30553   6.256   4.561   3.381
 9885SOL    HW130554   6.186   4.573   3.311
 9885SOL    HW230555   6.326   4.498   3.348
 9886SOL     OW30556   1.012   3.634   2.236
 9886SOL    HW130557   1.021   3.687   2.320
 9886SOL    HW230558   1.058   3.682   2.161
 9887SOL     OW30559   4.537   0.232   6.102
 9887SOL    HW130560   4.485   0.238   6.017
 9887SOL    HW230561   4.543   0.322   6.145
 9888SOL     OW30562   6.885   4.790   0.358
 9888SOL    HW130563   6.955   4.741   0.307
 9888SOL    HW230564   6.928   4.859   0.417
 9889SOL     OW30565   0.622   4.823   0.565
 9889SOL    HW130566   0.566   4.751   0.524
 9889SOL    HW230567   0.707   4.783   0.599
 9890SOL     OW30568   1.290   3.674   0.767
 9890SOL    HW130569   1.360   3.715   0.708
 9890SOL    HW230570   1.292   3.574   0.756
 9891SOL     OW30571   5.037   1.494   2.026
 9891SOL    HW130572   5.111   1.555   1.998
 9891SOL    HW230573   5.074   1.404   2.047
 9892SOL     OW30574   0.196   5.923   6.806
 9892SOL    HW130575   0.098   5.928   6.827
 9892SOL    HW230576   0.217   5.833   6.767
 9893SOL     OW30577   2.190   1.575   1.224
 9893SOL    HW130578   2.255   1.568   1.299
 9893SOL    HW230579   2.183   1.671   1.195
 9894SOL     OW30580   1.473   1.466   0.911
 9894SOL    HW130581   1.516   1.528   0.846
 9894SOL    HW230582   1.388   1.507   0.945
 9895SOL     OW30583   4.841   3.943   6.024
 9895SOL    HW130584   4.814   3.912   6.115
 9895SOL    HW230585   4.760   3.945   5.964
 9896SOL     OW30586   6.448   6.807   6.562
 9896SOL    HW130587   6.452   6.882   6.629
 9896SOL    HW230588   6.540   6.787   6.530
 9897SOL     OW30589   5.580   4.743   4.051
 9897SOL    HW130590   5.676   4.763   4.066
 9897SOL    HW230591   5.555   4.765   3.956
 9898SOL     OW30592   2.924   6.396   5.693
 9898SOL    HW130593   3.005   6.455   5.699
 9898SOL    HW230594   2.887   6.381   5.785
 9899SOL     OW30595   7.011   5.358   6.984
 9899SOL    HW130596   6.970   5.448   6.993
 9899SOL    HW230597   6.940   5.288   6.992
 9900SOL     OW30598   2.174   3.440   3.631
 9900SOL    HW130599   2.271   3.457   3.648
 9900SOL    HW230600   2.130   3.525   3.602
 9901SOL     OW30601   2.018   2.502   5.571
 9901SOL    HW130602   2.046   2.407   5.586
 9901SOL    HW230603   1.941   2.524   5.631
 9902SOL     OW30604   2.642   4.164   6.637
 9902SOL    HW130605   2.620   4.228   6.563
 9902SOL    HW230606   2.726   4.115   6.615
 9903SOL     OW30607   5.988   0.669   4.014
 9903SOL    HW130608   5.916   0.689   4.081
 9903SOL    HW230609   5.949   0.620   3.936
 9904SOL     OW30610   6.901   2.598   6.969
 9904SOL    HW130611   6.814   2.569   6.930
 9904SOL    HW230612   6.924   2.539   0.021
 9905SOL     OW30613   4.815   1.070   0.105
 9905SOL    HW130614   4.792   1.105   0.014
 9905SOL    HW230615   4.914   1.073   0.117
 9906SOL     OW30616   4.050   3.287   4.718
 9906SOL    HW130617   4.041   3.286   4.618
 9906SOL    HW230618   4.060   3.194   4.752
 9907SOL     OW30619   1.134   0.354   1.706
 9907SOL    HW130620   1.173   0.303   1.782
 9907SOL    HW230621   1.061   0.413   1.740
 9908SOL     OW30622   5.020   3.196   3.066
 9908SOL    HW130623   5.079   3.118   3.045
 9908SOL    HW230624   4.956   3.171   3.139
 9909SOL     OW30625   1.936   0.360   5.096
 9909SOL    HW130626   1.843   0.325   5.089
 9909SOL    HW230627   1.984   0.312   5.170
 9910SOL     OW30628   0.498   4.186   3.228
 9910SOL    HW130629   0.544   4.267   3.266
 9910SOL    HW230630   0.550   4.154   3.149
 9911SOL     OW30631   2.273   6.083   2.530
 9911SOL    HW130632   2.201   6.077   2.600
 9911SOL    HW230633   2.323   5.997   2.526
 9912SOL     OW30634   5.285   0.635   6.647
 9912SOL    HW130635   5.321   0.553   6.603
 9912SOL    HW230636   5.253   0.700   6.578
 9913SOL     OW30637   5.024   3.196   6.391
 9913SOL    HW130638   5.097   3.135   6.360
 9913SOL    HW230639   4.956   3.143   6.442
 9914SOL     OW30640   6.848   3.976   4.641
 9914SOL    HW130641   6.857   3.903   4.574
 9914SOL    HW230642   6.926   3.972   4.704
 9915SOL     OW30643   5.522   0.928   4.047
 9915SOL    HW130644   5.535   0.965   4.139
 9915SOL    HW230645   5.478   0.997   3.989
 9916SOL     OW30646   2.295   2.445   1.509
 9916SOL    HW130647   2.236   2.523   1.487
 9916SOL    HW230648   2.391   2.474   1.506
 9917SOL     OW30649   6.391   4.718   4.659
 9917SOL    HW130650   6.302   4.751   4.627
 9917SOL    HW230651   6.430   4.784   4.723
 9918SOL     OW30652   4.303   2.260   2.816
 9918SOL    HW130653   4.362   2.341   2.818
 9918SOL    HW230654   4.357   2.180   2.841
 9919SOL     OW30655   6.588   6.411   0.555
 9919SOL    HW130656   6.617   6.334   0.612
 9919SOL    HW230657   6.669   6.460   0.522
 9920SOL     OW30658   4.770   1.515   2.021
 9920SOL    HW130659   4.748   1.543   1.927
 9920SOL    HW230660   4.867   1.489   2.026
 9921SOL     OW30661   3.347   5.163   6.227
 9921SOL    HW130662   3.440   5.198   6.216
 9921SOL    HW230663   3.349   5.063   6.230
 9922SOL     OW30664   0.479   5.037   0.630
 9922SOL    HW130665   0.532   4.958   0.601
 9922SOL    HW230666   0.524   5.081   0.708
 9923SOL     OW30667   5.389   4.715   0.984
 9923SOL    HW130668   5.427   4.634   1.029
 9923SOL    HW230669   5.289   4.708   0.981
 9924SOL     OW30670   0.455   3.812   4.876
 9924SOL    HW130671   0.522   3.827   4.802
 9924SOL    HW230672   0.468   3.881   4.947
 9925SOL     OW30673   5.304   2.574   3.644
 9925SOL    HW130674   5.299   2.524   3.558
 9925SOL    HW230675   5.320   2.671   3.625
 9926SOL     OW30676   2.541   5.155   6.784
 9926SOL    HW130677   2.541   5.058   6.762
 9926SOL    HW230678   2.635   5.188   6.790
 9927SOL     OW30679   6.110   0.053   3.025
 9927SOL    HW130680   6.084   6.983   3.042
 9927SOL    HW230681   6.071   0.112   3.095
 9928SOL     OW30682   4.759   4.555   2.101
 9928SOL    HW130683   4.707   4.472   2.119
 9928SOL    HW230684   4.711   4.611   2.033
 9929SOL     OW30685   1.648   4.386   2.704
 9929SOL    HW130686   1.681   4.459   2.764
 9929SOL    HW230687   1.571   4.340   2.747
 9930SOL     OW30688   6.654   0.520   3.634
 9930SOL    HW130689   6.735   0.481   3.679
 9930SOL    HW230690   6.594   0.446   3.604
 9931SOL     OW30691   0.635   4.743   5.898
 9931SOL    HW130692   0.692   4.785   5.827
 9931SOL    HW230693   0.608   4.813   5.964
 9932SOL     OW30694   1.215   6.258   4.916
 9932SOL    HW130695   1.224   6.350   4.877
 9932SOL    HW230696   1.212   6.265   5.016
 9933SOL     OW30697   0.051   6.148   2.095
 9933SOL    HW130698   0.142   6.119   2.125
 9933SOL    HW230699   7.020   6.172   2.175
 9934SOL     OW30700   6.520   2.188   6.036
 9934SOL    HW130701   6.603   2.133   6.043
 9934SOL    HW230702   6.468   2.160   5.955
 9935SOL     OW30703   3.119   0.698   6.191
 9935SOL    HW130704   3.168   0.738   6.268
 9935SOL    HW230705   3.024   0.681   6.217
 9936SOL     OW30706   0.820   4.170   3.648
 9936SOL    HW130707   0.887   4.153   3.720
 9936SOL    HW230708   0.863   4.159   3.558
 9937SOL     OW30709   6.670   2.170   6.457
 9937SOL    HW130710   6.730   2.237   6.412
 9937SOL    HW230711   6.648   2.203   6.549
 9938SOL     OW30712   6.837   6.520   2.782
 9938SOL    HW130713   6.793   6.441   2.738
 9938SOL    HW230714   6.923   6.541   2.736
 9939SOL     OW30715   3.441   2.866   2.806
 9939SOL    HW130716   3.359   2.922   2.794
 9939SOL    HW230717   3.496   2.870   2.723
 9940SOL     OW30718   0.015   1.004   0.289
 9940SOL    HW130719   0.041   0.924   0.234
 9940SOL    HW230720   6.943   1.025   0.274
 9941SOL     OW30721   2.873   5.140   5.623
 9941SOL    HW130722   2.945   5.097   5.567
 9941SOL    HW230723   2.787   5.140   5.572
 9942SOL     OW30724   2.784   5.728   3.661
 9942SOL    HW130725   2.789   5.814   3.712
 9942SOL    HW230726   2.769   5.653   3.725
 9943SOL     OW30727   1.426   6.942   4.896
 9943SOL    HW130728   1.369   6.998   4.836
 9943SOL    HW230729   1.497   6.896   4.843
 9944SOL     OW30730   1.179   3.656   0.061
 9944SOL    HW130731   1.120   3.604   0.123
 9944SOL    HW230732   1.271   3.661   0.098
 9945SOL     OW30733   6.501   5.681   6.823
 9945SOL    HW130734   6.453   5.612   6.767
 9945SOL    HW230735   6.562   5.735   6.765
 9946SOL     OW30736   5.250   1.397   4.993
 9946SOL    HW130737   5.342   1.407   4.954
 9946SOL    HW230738   5.227   1.478   5.046
 9947SOL     OW30739   5.824   4.675   3.430
 9947SOL    HW130740   5.812   4.577   3.416
 9947SOL    HW230741   5.818   4.722   3.342
 9948SOL     OW30742   5.273   3.877   4.141
 9948SOL    HW130743   5.230   3.891   4.230
 9948SOL    HW230744   5.227   3.934   4.073
 9949SOL     OW30745   5.784   5.355   2.230
 9949SOL    HW130746   5.790   5.258   2.204
 9949SOL    HW230747   5.692   5.374   2.265
 9950SOL     OW30748   3.512   5.973   5.961
 9950SOL    HW130749   3.562   5.942   6.042
 9950SOL    HW230750   3.574   6.024   5.901
 9951SOL     OW30751   6.318   2.232   3.120
 9951SOL    HW130752   6.223   2.262   3.123
 9951SOL    HW230753   6.374   2.302   3.075
 9952SOL     OW30754   0.557   5.051   0.211
 9952SOL    HW130755   0.596   5.126   0.158
 9952SOL    HW230756   0.614   4.969   0.200
 9953SOL     OW30757   6.441   2.288   3.706
 9953SOL    HW130758   6.481   2.378   3.690
 9953SOL    HW230759   6.364   2.274   3.644
 9954SOL     OW30760   4.287   0.126   5.538
 9954SOL    HW130761   4.220   0.105   5.468
 9954SOL    HW230762   4.357   0.055   5.540
 9955SOL     OW30763   0.299   4.381   4.427
 9955SOL    HW130764   0.257   4.371   4.337
 9955SOL    HW230765   0.366   4.309   4.441
 9956SOL     OW30766   0.893   6.069   0.479
 9956SOL    HW130767   0.893   6.039   0.575
 9956SOL    HW230768   0.799   6.065   0.444
 9957SOL     OW30769   6.152   5.160   2.387
 9957SOL    HW130770   6.148   5.243   2.443
 9957SOL    HW230771   6.153   5.185   2.291
 9958SOL     OW30772   2.185   4.147   0.914
 9958SOL    HW130773   2.226   4.238   0.919
 9958SOL    HW230774   2.092   4.154   0.879
 9959SOL     OW30775   3.720   3.391   1.058
 9959SOL    HW130776   3.625   3.385   1.027
 9959SOL    HW230777   3.722   3.401   1.158
 9960SOL     OW30778   0.590   1.383   2.136
 9960SOL    HW130779   0.623   1.384   2.230
 9960SOL    HW230780   0.666   1.362   2.074
 9961SOL     OW30781   1.968   4.403   4.465
 9961SOL    HW130782   2.037   4.406   4.538
 9961SOL    HW230783   1.906   4.326   4.483
 9962SOL     OW30784   5.167   6.315   4.637
 9962SOL    HW130785   5.195   6.274   4.550
 9962SOL    HW230786   5.240   6.306   4.704
 9963SOL     OW30787   3.529   0.733   0.744
 9963SOL    HW130788   3.626   0.709   0.750
 9963SOL    HW230789   3.479   0.690   0.819
 9964SOL     OW30790   4.798   5.855   4.992
 9964SOL    HW130791   4.727   5.865   5.062
 9964SOL    HW230792   4.868   5.925   5.005
 9965SOL     OW30793   3.779   6.840   0.036
 9965SOL    HW130794   3.759   6.937   0.046
 9965SOL    HW230795   3.769   6.794   0.124
 9966SOL     OW30796   0.241   0.119   3.073
 9966SOL    HW130797   0.143   0.111   3.091
 9966SOL    HW230798   0.292   0.084   3.152
 9967SOL     OW30799   1.168   5.046   0.251
 9967SOL    HW130800   1.221   5.046   0.336
 9967SOL    HW230801   1.097   4.976   0.256
 9968SOL     OW30802   2.982   3.656   2.748
 9968SOL    HW130803   2.937   3.744   2.734
 9968SOL    HW230804   2.924   3.583   2.713
 9969SOL     OW30805   1.440   3.439   1.530
 9969SOL    HW130806   1.347   3.405   1.544
 9969SOL    HW230807   1.437   3.515   1.465
 9970SOL     OW30808   5.971   4.700   1.695
 9970SOL    HW130809   6.061   4.667   1.667
 9970SOL    HW230810   5.909   4.697   1.617
 9971SOL     OW30811   2.364   5.944   0.281
 9971SOL    HW130812   2.377   5.881   0.357
 9971SOL    HW230813   2.334   6.033   0.316
 9972SOL     OW30814   6.913   5.007   1.675
 9972SOL    HW130815   6.854   4.947   1.621
 9972SOL    HW230816   6.999   4.959   1.696
 9973SOL     OW30817   5.978   0.124   4.000
 9973SOL    HW130818   5.884   0.114   3.970
 9973SOL    HW230819   6.017   0.208   3.962
 9974SOL     OW30820   2.490   0.545   4.231
 9974SOL    HW130821   2.480   0.644   4.243
 9974SOL    HW230822   2.418   0.510   4.171
 9975SOL     OW30823   6.646   3.441   0.608
 9975SOL    HW130824   6.601   3.488   0.684
 9975SOL    HW230825   6.585   3.369   0.573
 9976SOL     OW30826   1.966   6.910   5.123
 9976SOL    HW130827   1.930   6.948   5.208
 9976SOL    HW230828   1.933   6.817   5.111
 9977SOL     OW30829   6.612   4.356   4.332
 9977SOL    HW130830   6.606   4.455   4.345
 9977SOL    HW230831   6.554   4.329   4.256
 9978SOL     OW30832   0.150   2.954   5.052
 9978SOL    HW130833   0.175   2.893   5.128
 9978SOL    HW230834   0.230   2.971   4.995
 9979SOL     OW30835   0.868   4.222   4.823
 9979SOL    HW130836   0.920   4.288   4.770
 9979SOL    HW230837   0.920   4.197   4.906
 9980SOL     OW30838   3.072   6.697   4.963
 9980SOL    HW130839   3.051   6.734   5.054
 9980SOL    HW230840   3.170   6.709   4.944
 9981SOL     OW30841   3.687   2.114   4.175
 9981SOL    HW130842   3.633   2.161   4.245
 9981SOL    HW230843   3.717   2.026   4.211
 9982SOL     OW30844   6.307   6.203   3.031
 9982SOL    HW130845   6.364   6.235   3.107
 9982SOL    HW230846   6.218   6.249   3.035
 9983SOL     OW30847   6.861   1.209   1.127
 9983SOL    HW130848   6.939   1.264   1.098
 9983SOL    HW230849   6.888   1.148   1.201
 9984SOL     OW30850   2.750   0.908   0.081
 9984SOL    HW130851   2.655   0.879   0.070
 9984SOL    HW230852   2.806   0.867   0.009
 9985SOL     OW30853   1.352   1.349   1.989
 9985SOL    HW130854   1.304   1.262   1.983
 9985SOL    HW230855   1.449   1.335   1.967
 9986SOL     OW30856   5.114   3.972   4.777
 9986SOL    HW130857   5.093   3.942   4.870
 9986SOL    HW230858   5.179   3.908   4.736
 9987SOL     OW30859   0.167   4.412   5.867
 9987SOL    HW130860   0.162   4.382   5.963
 9987SOL    HW230861   0.242   4.477   5.857
 9988SOL     OW30862   6.517   6.948   4.810
 9988SOL    HW130863   6.461   7.006   4.869
 9988SOL    HW230864   6.460   6.908   4.739
 9989SOL     OW30865   1.059   2.881   4.457
 9989SOL    HW130866   0.980   2.848   4.509
 9989SOL    HW230867   1.102   2.804   4.410
 9990SOL     OW30868   1.359   5.186   2.154
 9990SOL    HW130869   1.367   5.182   2.253
 9990SOL    HW230870   1.278   5.134   2.125
 9991SOL     OW30871   3.993   2.043   3.098
 9991SOL    HW130872   3.975   2.063   3.194
 9991SOL    HW230873   4.076   2.091   3.069
 9992SOL     OW30874   6.716   5.678   6.287
 9992SOL    HW130875   6.776   5.699   6.364
 9992SOL    HW230876   6.733   5.743   6.213
 9993SOL     OW30877   1.237   0.740   1.969
 9993SOL    HW130878   1.181   0.789   2.036
 9993SOL    HW230879   1.309   0.800   1.935
 9994SOL     OW30880   5.989   4.936   3.007
 9994SOL    HW130881   5.968   5.031   2.984
 9994SOL    HW230882   6.068   4.934   3.068
 9995SOL     OW30883   4.920   1.412   4.350
 9995SOL    HW130884   4.905   1.412   4.449
 9995SOL    HW230885   4.914   1.318   4.316
 9996SOL     OW30886   2.496   3.274   6.968
 9996SOL    HW130887   2.569   3.278   6.899
 9996SOL    HW230888   2.409   3.255   6.922
 9997SOL     OW30889   2.728   0.092   4.666
 9997SOL    HW130890   2.749   0.072   4.761
 9997SOL    HW230891   2.809   0.073   4.610
 9998SOL     OW30892   5.740   6.393   5.385
 9998SOL    HW130893   5.777   6.426   5.472
 9998SOL    HW230894   5.657   6.340   5.402
 9999SOL     OW30895   6.606   2.447   4.829
 9999SOL    HW130896   6.627   2.349   4.824
 9999SOL    HW230897   6.687   2.500   4.803
10000SOL     OW30898   6.791   4.562   0.108
10000SOL    HW130899   6.710   4.534   0.160
10000SOL    HW230900   6.785   4.524   0.015
10001SOL     OW30901   3.991   0.154   3.474
10001SOL    HW130902   3.912   0.102   3.442
10001SOL    HW230903   4.066   0.142   3.409
10002SOL     OW30904   1.289   1.653   1.913
10002SOL    HW130905   1.318   1.558   1.929
10002SOL    HW230906   1.212   1.674   1.974
10003SOL     OW30907   5.402   2.825   3.574
10003SOL    HW130908   5.491   2.842   3.615
10003SOL    HW230909   5.400   2.865   3.482
10004SOL     OW30910   0.441   2.643   2.811
10004SOL    HW130911   0.353   2.680   2.783
10004SOL    HW230912   0.446   2.641   2.911
10005SOL     OW30913   5.026   6.981   4.546
10005SOL    HW130914   5.099   0.024   4.560
10005SOL    HW230915   4.981   6.963   4.633
10006SOL     OW30916   4.740   1.645   4.885
10006SOL    HW130917   4.770   1.694   4.804
10006SOL    HW230918   4.686   1.706   4.943
10007SOL     OW30919   6.357   3.588   3.857
10007SOL    HW130920   6.432   3.639   3.899
10007SOL    HW230921   6.382   3.565   3.763
10008SOL     OW30922   3.968   6.560   4.426
10008SOL    HW130923   3.955   6.658   4.415
10008SOL    HW230924   3.884   6.519   4.463
10009SOL     OW30925   1.677   4.203   1.756
10009SOL    HW130926   1.587   4.228   1.720
10009SOL    HW230927   1.701   4.264   1.831
10010SOL     OW30928   6.165   1.428   6.273
10010SOL    HW130929   6.251   1.469   6.302
10010SOL    HW230930   6.178   1.384   6.184
10011SOL     OW30931   0.114   6.963   4.159
10011SOL    HW130932   0.137   6.946   4.255
10011SOL    HW230933   0.189   6.932   4.101
10012SOL     OW30934   6.086   0.675   4.683
10012SOL    HW130935   6.035   0.590   4.674
10012SOL    HW230936   6.024   0.748   4.712
10013SOL     OW30937   1.407   0.941   2.086
10013SOL    HW130938   1.406   0.883   2.167
10013SOL    HW230939   1.502   0.956   2.057
10014SOL     OW30940   1.404   4.884   6.090
10014SOL    HW130941   1.434   4.883   6.185
10014SOL    HW230942   1.429   4.798   6.045
10015SOL     OW30943   2.331   4.797   6.862
10015SOL    HW130944   2.231   4.798   6.861
10015SOL    HW230945   2.363   4.705   6.840
10016SOL     OW30946   2.498   0.539   5.154
10016SOL    HW130947   2.558   0.489   5.216
10016SOL    HW230948   2.484   0.486   5.070
10017SOL     OW30949   0.886   2.031   3.893
10017SOL    HW130950   0.825   1.956   3.918
10017SOL    HW230951   0.845   2.085   3.820
10018SOL     OW30952   5.193   6.593   5.862
10018SOL    HW130953   5.111   6.621   5.912
10018SOL    HW230954   5.180   6.501   5.825
10019SOL     OW30955   1.353   1.216   2.414
10019SOL    HW130956   1.435   1.160   2.423
10019SOL    HW230957   1.327   1.250   2.504
10020SOL     OW30958   0.061   3.159   0.030
10020SOL    HW130959   0.038   3.142   0.126
10020SOL    HW230960   0.104   3.249   0.022
10021SOL     OW30961   5.240   3.231   1.618
10021SOL    HW130962   5.307   3.158   1.635
10021SOL    HW230963   5.159   3.214   1.675
10022SOL     OW30964   1.716   0.344   6.494
10022SOL    HW130965   1.762   0.309   6.576
10022SOL    HW230966   1.628   0.298   6.482
10023SOL     OW30967   0.425   3.282   0.907
10023SOL    HW130968   0.485   3.207   0.881
10023SOL    HW230969   0.360   3.252   0.976
10024SOL     OW30970   1.120   4.360   3.537
10024SOL    HW130971   1.051   4.358   3.465
10024SOL    HW230972   1.188   4.431   3.517
10025SOL     OW30973   1.055   0.908   0.350
10025SOL    HW130974   1.045   0.811   0.328
10025SOL    HW230975   1.091   0.917   0.443
10026SOL     OW30976   6.820   0.396   3.844
10026SOL    HW130977   6.744   0.424   3.903
10026SOL    HW230978   6.894   0.358   3.900
10027SOL     OW30979   5.498   2.417   6.040
10027SOL    HW130980   5.533   2.324   6.028
10027SOL    HW230981   5.430   2.419   6.112
10028SOL     OW30982   2.038   0.728   1.607
10028SOL    HW130983   2.007   0.635   1.626
10028SOL    HW230984   2.023   0.786   1.687
10029SOL     OW30985   4.549   1.247   4.098
10029SOL    HW130986   4.617   1.174   4.089
10029SOL    HW230987   4.480   1.221   4.165
10030SOL     OW30988   1.321   0.739   3.075
10030SOL    HW130989   1.351   0.828   3.041
10030SOL    HW230990   1.388   0.703   3.139
10031SOL     OW30991   6.751   4.580   4.118
10031SOL    HW130992   6.705   4.617   4.038
10031SOL    HW230993   6.744   4.645   4.194
10032SOL     OW30994   3.385   1.302   5.107
10032SOL    HW130995   3.406   1.363   5.031
10032SOL    HW230996   3.286   1.295   5.118
10033SOL     OW30997   5.169   2.748   4.344
10033SOL    HW130998   5.113   2.829   4.365
10033SOL    HW230999   5.259   2.777   4.311
10034SOL     OW31000   4.288   0.250   5.928
10034SOL    HW131001   4.225   0.230   5.853
10034SOL    HW231002   4.241   0.242   6.015
10035SOL     OW31003   0.379   6.473   3.558
10035SOL    HW131004   0.403   6.508   3.467
10035SOL    HW231005   0.419   6.382   3.570
10036SOL     OW31006   6.951   0.338   0.145
10036SOL    HW131007   6.879   0.361   0.211
10036SOL    HW231008   0.009   0.388   0.168
10037SOL     OW31009   6.972   6.773   1.122
10037SOL    HW131010   6.978   6.870   1.144
10037SOL    HW231011   6.978   6.719   1.206
10038SOL     OW31012   6.159   0.190   1.004
10038SOL    HW131013   6.223   0.113   1.011
10038SOL    HW231014   6.078   0.171   1.060
10039SOL     OW31015   3.949   0.587   3.177
10039SOL    HW131016   4.000   0.650   3.236
10039SOL    HW231017   3.925   0.505   3.230
10040SOL     OW31018   0.225   2.118   0.855
10040SOL    HW131019   0.187   2.210   0.864
10040SOL    HW231020   0.285   2.114   0.775
10041SOL     OW31021   1.283   6.250   0.486
10041SOL    HW131022   1.189   6.278   0.466
10041SOL    HW231023   1.303   6.165   0.438
10042SOL     OW31024   6.119   2.027   3.640
10042SOL    HW131025   6.036   2.068   3.677
10042SOL    HW231026   6.158   1.964   3.707
10043SOL     OW31027   1.270   3.089   5.011
10043SOL    HW131028   1.205   3.127   4.945
10043SOL    HW231029   1.362   3.097   4.974
10044SOL     OW31030   4.535   1.879   6.513
10044SOL    HW131031   4.473   1.801   6.506
10044SOL    HW231032   4.513   1.932   6.595
10045SOL     OW31033   2.474   0.933   0.795
10045SOL    HW131034   2.456   0.853   0.852
10045SOL    HW231035   2.562   0.972   0.820
10046SOL     OW31036   0.945   5.292   1.074
10046SOL    HW131037   0.886   5.367   1.045
10046SOL    HW231038   0.909   5.252   1.158
10047SOL     OW31039   1.396   3.173   0.337
10047SOL    HW131040   1.404   3.192   0.239
10047SOL    HW231041   1.371   3.077   0.350
10048SOL     OW31042   5.869   4.660   2.182
10048SOL    HW131043   5.953   4.703   2.147
10048SOL    HW231044   5.863   4.566   2.148
10049SOL     OW31045   5.898   1.312   5.092
10049SOL    HW131046   5.985   1.361   5.089
10049SOL    HW231047   5.842   1.346   5.167
10050SOL     OW31048   6.735   3.018   5.666
10050SOL    HW131049   6.757   3.079   5.589
10050SOL    HW231050   6.798   3.037   5.741
10051SOL     OW31051   2.259   1.284   4.648
10051SOL    HW131052   2.226   1.378   4.653
10051SOL    HW231053   2.346   1.277   4.697
10052SOL     OW31054   1.016   0.327   3.834
10052SOL    HW131055   1.012   0.414   3.883
10052SOL    HW231056   1.106   0.286   3.845
10053SOL     OW31057   5.937   5.200   2.991
10053SOL    HW131058   5.883   5.249   3.059
10053SOL    HW231059   5.889   5.201   2.903
10054SOL     OW31060   6.700   3.971   3.977
10054SOL    HW131061   6.758   4.028   3.919
10054SOL    HW231062   6.670   3.890   3.925
10055SOL     OW31063   1.823   1.800   6.297
10055SOL    HW131064   1.777   1.853   6.369
10055SOL    HW231065   1.815   1.703   6.317
10056SOL     OW31066   5.863   2.359   4.397
10056SOL    HW131067   5.846   2.457   4.389
10056SOL    HW231068   5.916   2.327   4.319
10057SOL     OW31069   5.583   4.701   5.347
10057SOL    HW131070   5.620   4.613   5.319
10057SOL    HW231071   5.536   4.691   5.435
10058SOL     OW31072   6.669   3.980   4.395
10058SOL    HW131073   6.737   3.910   4.416
10058SOL    HW231074   6.707   4.070   4.417
10059SOL     OW31075   5.320   6.456   6.716
10059SOL    HW131076   5.362   6.516   6.783
10059SOL    HW231077   5.391   6.404   6.668
10060SOL     OW31078   3.059   1.856   1.803
10060SOL    HW131079   3.069   1.934   1.866
10060SOL    HW231080   3.149   1.818   1.783
10061SOL     OW31081   3.369   0.417   2.348
10061SOL    HW131082   3.326   0.328   2.331
10061SOL    HW231083   3.431   0.409   2.426
10062SOL     OW31084   6.757   6.860   4.883
10062SOL    HW131085   6.667   6.888   4.848
10062SOL    HW231086   6.815   6.832   4.807
10063SOL     OW31087   3.026   2.241   4.506
10063SOL    HW131088   3.074   2.320   4.470
10063SOL    HW231089   3.027   2.244   4.606
10064SOL     OW31090   2.836   0.302   2.220
10064SOL    HW131091   2.747   0.315   2.177
10064SOL    HW231092   2.892   0.241   2.164
10065SOL     OW31093   7.001   2.051   1.596
10065SOL    HW131094   6.932   2.031   1.526
10065SOL    HW231095   7.009   2.150   1.608
10066SOL     OW31096   6.418   4.383   3.272
10066SOL    HW131097   6.359   4.327   3.213
10066SOL    HW231098   6.455   4.326   3.345
10067SOL     OW31099   6.178   4.250   4.896
10067SOL    HW131100   6.146   4.244   4.801
10067SOL    HW231101   6.259   4.193   4.908
10068SOL     OW31102   1.711   2.760   2.293
10068SOL    HW131103   1.665   2.710   2.367
10068SOL    HW231104   1.700   2.709   2.207
10069SOL     OW31105   3.344   4.864   1.573
10069SOL    HW131106   3.361   4.894   1.667
10069SOL    HW231107   3.349   4.764   1.568
10070SOL     OW31108   5.402   0.422   0.750
10070SOL    HW131109   5.444   0.512   0.739
10070SOL    HW231110   5.302   0.432   0.754
10071SOL     OW31111   5.256   0.663   5.575
10071SOL    HW131112   5.328   0.678   5.507
10071SOL    HW231113   5.266   0.728   5.650
10072SOL     OW31114   6.198   2.621   2.102
10072SOL    HW131115   6.170   2.601   2.009
10072SOL    HW231116   6.286   2.669   2.101
10073SOL     OW31117   5.559   5.945   4.992
10073SOL    HW131118   5.616   6.020   4.958
10073SOL    HW231119   5.610   5.894   5.061
10074SOL     OW31120   1.948   4.767   0.573
10074SOL    HW131121   2.047   4.750   0.580
10074SOL    HW231122   1.923   4.778   0.477
10075SOL     OW31123   1.246   2.537   1.853
10075SOL    HW131124   1.189   2.596   1.795
10075SOL    HW231125   1.251   2.575   1.945
10076SOL     OW31126   5.985   3.909   3.874
10076SOL    HW131127   6.032   3.981   3.925
10076SOL    HW231128   6.002   3.920   3.776
10077SOL     OW31129   4.481   3.663   6.808
10077SOL    HW131130   4.568   3.671   6.857
10077SOL    HW231131   4.437   3.577   6.833
10078SOL     OW31132   6.114   5.351   4.572
10078SOL    HW131133   6.025   5.315   4.543
10078SOL    HW231134   6.165   5.382   4.492
10079SOL     OW31135   5.028   4.864   3.091
10079SOL    HW131136   5.000   4.776   3.052
10079SOL    HW231137   5.122   4.884   3.063
10080SOL     OW31138   5.271   1.849   5.826
10080SOL    HW131139   5.328   1.831   5.747
10080SOL    HW231140   5.185   1.890   5.797
10081SOL     OW31141   1.086   4.526   6.915
10081SOL    HW131142   1.045   4.521   6.824
10081SOL    HW231143   1.067   4.441   6.964
10082SOL     OW31144   1.184   4.418   1.133
10082SOL    HW131145   1.085   4.412   1.136
10082SOL    HW231146   1.216   4.400   1.040
10083SOL     OW31147   2.704   6.390   2.704
10083SOL    HW131148   2.685   6.485   2.680
10083SOL    HW231149   2.630   6.332   2.670
10084SOL     OW31150   1.829   2.775   3.972
10084SOL    HW131151   1.806   2.849   4.035
10084SOL    HW231152   1.849   2.814   3.882
10085SOL     OW31153   4.754   0.152   1.853
10085SOL    HW131154   4.838   0.187   1.811
10085SOL    HW231155   4.768   0.058   1.883
10086SOL     OW31156   3.702   0.220   3.212
10086SOL    HW131157   3.625   0.254   3.268
10086SOL    HW231158   3.718   0.124   3.233
10087SOL     OW31159   1.669   5.750   5.145
10087SOL    HW131160   1.696   5.726   5.052
10087SOL    HW231161   1.586   5.700   5.170
10088SOL     OW31162   6.529   2.598   1.215
10088SOL    HW131163   6.619   2.556   1.214
10088SOL    HW231164   6.480   2.570   1.298
10089SOL     OW31165   4.086   6.651   2.115
10089SOL    HW131166   3.986   6.657   2.114
10089SOL    HW231167   4.124   6.742   2.136
10090SOL     OW31168   1.913   5.984   2.405
10090SOL    HW131169   1.820   5.952   2.384
10090SOL    HW231170   1.978   5.909   2.393
10091SOL     OW31171   5.298   5.217   4.167
10091SOL    HW131172   5.307   5.119   4.187
10091SOL    HW231173   5.314   5.233   4.069
10092SOL     OW31174   0.775   1.416   2.813
10092SOL    HW131175   0.770   1.469   2.729
10092SOL    HW231176   0.689   1.366   2.826
10093SOL     OW31177   4.247   3.996   6.448
10093SOL    HW131178   4.225   3.900   6.461
10093SOL    HW231179   4.334   4.017   6.493
10094SOL     OW31180   3.972   2.019   0.433
10094SOL    HW131181   3.901   1.959   0.472
10094SOL    HW231182   3.930   2.105   0.405
10095SOL     OW31183   4.234   3.604   5.616
10095SOL    HW131184   4.252   3.593   5.518
10095SOL    HW231185   4.191   3.693   5.632
10096SOL     OW31186   6.682   4.119   2.269
10096SOL    HW131187   6.619   4.120   2.347
10096SOL    HW231188   6.769   4.161   2.296
10097SOL     OW31189   1.090   1.635   0.566
10097SOL    HW131190   1.076   1.541   0.597
10097SOL    HW231191   1.143   1.635   0.482
10098SOL     OW31192   3.493   6.091   5.695
10098SOL    HW131193   3.524   6.133   5.610
10098SOL    HW231194   3.411   6.139   5.728
10099SOL     OW31195   6.967   5.310   3.173
10099SOL    HW131196   6.955   5.388   3.112
10099SOL    HW231197   7.021   5.338   3.253
10100SOL     OW31198   5.201   4.653   4.305
10100SOL    HW131199   5.126   4.717   4.324
10100SOL    HW231200   5.191   4.573   4.364
10101SOL     OW31201   0.048   2.280   0.060
10101SOL    HW131202   0.038   2.284   0.160
10101SOL    HW231203   0.126   2.335   0.032
10102SOL     OW31204   6.555   4.648   3.115
10102SOL    HW131205   6.617   4.702   3.171
10102SOL    HW231206   6.527   4.566   3.165
10103SOL     OW31207   0.256   6.483   6.688
10103SOL    HW131208   0.270   6.455   6.593
10103SOL    HW231209   0.173   6.538   6.694
10104SOL     OW31210   3.177   1.006   4.592
10104SOL    HW131211   3.119   1.054   4.527
10104SOL    HW231212   3.128   0.927   4.630
10105SOL     OW31213   3.148   1.585   3.861
10105SOL    HW131214   3.082   1.650   3.825
10105SOL    HW231215   3.239   1.606   3.826
10106SOL     OW31216   5.995   4.160   1.625
10106SOL    HW131217   5.980   4.246   1.577
10106SOL    HW231218   5.988   4.084   1.560
10107SOL     OW31219   5.623   5.707   6.495
10107SOL    HW131220   5.710   5.686   6.539
10107SOL    HW231221   5.556   5.734   6.564
10108SOL     OW31222   2.504   2.593   5.074
10108SOL    HW131223   2.423   2.643   5.046
10108SOL    HW231224   2.551   2.643   5.147
10109SOL     OW31225   1.266   3.366   1.065
10109SOL    HW131226   1.197   3.430   1.099
10109SOL    HW231227   1.344   3.416   1.028
10110SOL     OW31228   6.619   6.196   2.409
10110SOL    HW131229   6.520   6.187   2.413
10110SOL    HW231230   6.647   6.212   2.315
10111SOL     OW31231   6.226   2.425   1.685
10111SOL    HW131232   6.194   2.470   1.768
10111SOL    HW231233   6.286   2.349   1.709
10112SOL     OW31234   6.932   2.833   3.819
10112SOL    HW131235   6.863   2.878   3.875
10112SOL    HW231236   6.910   2.736   3.811
10113SOL     OW31237   0.051   6.417   5.849
10113SOL    HW131238   6.979   6.409   5.872
10113SOL    HW231239   0.106   6.375   5.922
10114SOL     OW31240   5.154   3.746   1.811
10114SOL    HW131241   5.070   3.761   1.758
10114SOL    HW231242   5.172   3.826   1.869
10115SOL     OW31243   3.639   2.941   6.175
10115SOL    HW131244   3.578   3.011   6.138
10115SOL    HW231245   3.585   2.863   6.207
10116SOL     OW31246   0.437   6.952   6.354
10116SOL    HW131247   0.471   6.987   6.441
10116SOL    HW231248   0.459   6.855   6.346
10117SOL     OW31249   0.302   4.429   1.263
10117SOL    HW131250   0.291   4.359   1.193
10117SOL    HW231251   0.267   4.395   1.350
10118SOL     OW31252   4.244   4.727   3.761
10118SOL    HW131253   4.180   4.736   3.838
10118SOL    HW231254   4.196   4.744   3.676
10119SOL     OW31255   6.006   6.026   6.817
10119SOL    HW131256   5.943   6.064   6.749
10119SOL    HW231257   6.062   6.098   6.857
10120SOL     OW31258   2.437   2.450   2.481
10120SOL    HW131259   2.395   2.361   2.462
10120SOL    HW231260   2.487   2.481   2.400
10121SOL     OW31261   6.307   5.559   1.794
10121SOL    HW131262   6.360   5.635   1.755
10121SOL    HW231263   6.355   5.523   1.874
10122SOL     OW31264   2.054   0.311   3.407
10122SOL    HW131265   2.100   0.232   3.447
10122SOL    HW231266   1.987   0.281   3.340
10123SOL     OW31267   6.084   6.099   6.480
10123SOL    HW131268   6.021   6.127   6.407
10123SOL    HW231269   6.069   6.002   6.501
10124SOL     OW31270   2.617   5.247   2.154
10124SOL    HW131271   2.644   5.305   2.231
10124SOL    HW231272   2.517   5.242   2.149
10125SOL     OW31273   1.606   1.344   4.795
10125SOL    HW131274   1.527   1.401   4.774
10125SOL    HW231275   1.637   1.297   4.712
10126SOL     OW31276   6.501   6.160   4.669
10126SOL    HW131277   6.517   6.258   4.651
10126SOL    HW231278   6.534   6.137   4.760
10127SOL     OW31279   2.397   6.882   5.712
10127SOL    HW131280   2.377   6.807   5.649
10127SOL    HW231281   2.481   6.861   5.763
10128SOL     OW31282   2.334   2.042   0.169
10128SOL    HW131283   2.355   2.140   0.170
10128SOL    HW231284   2.389   1.996   0.100
10129SOL     OW31285   6.903   2.386   4.996
10129SOL    HW131286   6.927   2.382   5.093
10129SOL    HW231287   6.843   2.309   4.973
10130SOL     OW31288   1.573   2.055   3.149
10130SOL    HW131289   1.630   1.990   3.199
10130SOL    HW231290   1.482   2.016   3.134
10131SOL     OW31291   2.056   0.248   5.328
10131SOL    HW131292   2.139   0.240   5.384
10131SOL    HW231293   1.980   0.278   5.386
10132SOL     OW31294   5.840   0.649   2.543
10132SOL    HW131295   5.802   0.668   2.633
10132SOL    HW231296   5.849   0.550   2.532
10133SOL     OW31297   4.327   5.759   1.164
10133SOL    HW131298   4.418   5.745   1.204
10133SOL    HW231299   4.336   5.787   1.069
10134SOL     OW31300   0.237   6.189   3.309
10134SOL    HW131301   0.335   6.207   3.298
10134SOL    HW231302   0.199   6.155   3.223
10135SOL     OW31303   6.541   6.565   3.633
10135SOL    HW131304   6.534   6.664   3.625
10135SOL    HW231305   6.637   6.539   3.647
10136SOL     OW31306   4.789   0.707   3.729
10136SOL    HW131307   4.832   0.622   3.761
10136SOL    HW231308   4.848   0.784   3.753
10137SOL     OW31309   6.869   5.340   4.118
10137SOL    HW131310   6.930   5.268   4.149
10137SOL    HW231311   6.922   5.415   4.079
10138SOL     OW31312   6.910   1.915   1.813
10138SOL    HW131313   6.912   1.989   1.881
10138SOL    HW231314   6.938   1.950   1.724
10139SOL     OW31315   4.234   3.128   0.027
10139SOL    HW131316   4.270   3.141   0.119
10139SOL    HW231317   4.238   3.031   0.003
10140SOL     OW31318   6.680   5.820   5.133
10140SOL    HW131319   6.757   5.882   5.123
10140SOL    HW231320   6.651   5.787   5.043
10141SOL     OW31321   1.535   2.022   4.901
10141SOL    HW131322   1.552   1.990   4.995
10141SOL    HW231323   1.564   1.951   4.837
10142SOL     OW31324   4.877   5.732   2.385
10142SOL    HW131325   4.833   5.655   2.340
10142SOL    HW231326   4.832   5.750   2.473
10143SOL     OW31327   5.866   3.466   6.531
10143SOL    HW131328   5.793   3.498   6.591
10143SOL    HW231329   5.835   3.467   6.436
10144SOL     OW31330   3.601   0.323   1.031
10144SOL    HW131331   3.555   0.247   0.984
10144SOL    HW231332   3.543   0.356   1.105
10145SOL     OW31333   6.303   0.171   5.280
10145SOL    HW131334   6.308   0.261   5.324
10145SOL    HW231335   6.395   0.136   5.264
10146SOL     OW31336   1.698   2.785   5.612
10146SOL    HW131337   1.677   2.713   5.545
10146SOL    HW231338   1.769   2.753   5.674
10147SOL     OW31339   3.780   5.202   0.666
10147SOL    HW131340   3.743   5.133   0.727
10147SOL    HW231341   3.829   5.271   0.719
10148SOL     OW31342   0.425   5.335   6.381
10148SOL    HW131343   0.382   5.284   6.307
10148SOL    HW231344   0.441   5.275   6.459
10149SOL     OW31345   3.475   2.965   3.072
10149SOL    HW131346   3.437   3.057   3.062
10149SOL    HW231347   3.457   2.912   2.990
10150SOL     OW31348   5.095   4.301   1.597
10150SOL    HW131349   5.002   4.317   1.563
10150SOL    HW231350   5.141   4.388   1.612
10151SOL     OW31351   0.134   0.855   6.360
10151SOL    HW131352   0.050   0.820   6.401
10151SOL    HW231353   0.165   0.792   6.289
10152SOL     OW31354   4.141   6.200   3.848
10152SOL    HW131355   4.135   6.298   3.830
10152SOL    HW231356   4.052   6.166   3.879
10153SOL     OW31357   5.233   3.719   1.367
10153SOL    HW131358   5.157   3.658   1.387
10153SOL    HW231359   5.267   3.702   1.274
10154SOL     OW31360   4.384   5.176   5.487
10154SOL    HW131361   4.413   5.255   5.432
10154SOL    HW231362   4.285   5.174   5.494
10155SOL     OW31363   4.157   1.973   4.235
10155SOL    HW131364   4.095   2.047   4.209
10155SOL    HW231365   4.176   1.915   4.156
10156SOL     OW31366   3.586   2.269   6.348
10156SOL    HW131367   3.658   2.211   6.385
10156SOL    HW231368   3.533   2.308   6.423
10157SOL     OW31369   1.005   4.501   0.806
10157SOL    HW131370   1.038   4.596   0.810
10157SOL    HW231371   1.074   4.440   0.846
10158SOL     OW31372   5.274   5.116   0.138
10158SOL    HW131373   5.357   5.170   0.155
10158SOL    HW231374   5.203   5.175   0.099
10159SOL     OW31375   3.742   2.973   1.821
10159SOL    HW131376   3.824   2.966   1.764
10159SOL    HW231377   3.680   2.898   1.801
10160SOL     OW31378   0.019   4.069   2.492
10160SOL    HW131379   7.024   4.091   2.588
10160SOL    HW231380   0.069   3.982   2.487
10161SOL     OW31381   6.068   3.368   6.688
10161SOL    HW131382   6.036   3.274   6.698
10161SOL    HW231383   5.996   3.424   6.647
10162SOL     OW31384   1.855   2.132   2.432
10162SOL    HW131385   1.854   2.205   2.363
10162SOL    HW231386   1.860   2.172   2.523
10163SOL     OW31387   3.642   4.970   4.738
10163SOL    HW131388   3.739   4.988   4.754
10163SOL    HW231389   3.630   4.876   4.708
10164SOL     OW31390   0.305   0.935   4.173
10164SOL    HW131391   0.304   0.898   4.266
10164SOL    HW231392   0.323   1.034   4.177
10165SOL     OW31393   1.511   3.509   3.863
10165SOL    HW131394   1.529   3.543   3.956
10165SOL    HW231395   1.443   3.568   3.819
10166SOL     OW31396   3.520   6.170   3.035
10166SOL    HW131397   3.464   6.094   3.069
10166SOL    HW231398   3.609   6.168   3.080
10167SOL     OW31399   3.204   1.788   6.833
10167SOL    HW131400   3.258   1.854   6.780
10167SOL    HW231401   3.262   1.749   6.905
10168SOL     OW31402   1.052   1.389   6.140
10168SOL    HW131403   1.037   1.381   6.041
10168SOL    HW231404   1.089   1.303   6.175
10169SOL     OW31405   4.345   5.666   3.035
10169SOL    HW131406   4.312   5.659   3.129
10169SOL    HW231407   4.288   5.731   2.985
10170SOL     OW31408   4.830   6.955   0.556
10170SOL    HW131409   4.850   7.008   0.473
10170SOL    HW231410   4.905   6.965   0.621
10171SOL     OW31411   1.574   4.584   3.788
10171SOL    HW131412   1.608   4.518   3.722
10171SOL    HW231413   1.477   4.568   3.805
10172SOL     OW31414   0.692   0.817   2.532
10172SOL    HW131415   0.721   0.768   2.614
10172SOL    HW231416   0.685   0.753   2.456
10173SOL     OW31417   4.033   3.462   5.193
10173SOL    HW131418   3.933   3.454   5.199
10173SOL    HW231419   4.071   3.373   5.168
10174SOL     OW31420   5.169   4.710   1.827
10174SOL    HW131421   5.209   4.726   1.918
10174SOL    HW231422   5.072   4.735   1.828
10175SOL     OW31423   6.598   0.132   3.902
10175SOL    HW131424   6.602   0.202   3.974
10175SOL    HW231425   6.687   0.087   3.895
10176SOL     OW31426   0.310   1.351   4.440
10176SOL    HW131427   0.391   1.406   4.418
10176SOL    HW231428   0.234   1.412   4.462
10177SOL     OW31429   3.110   1.475   4.100
10177SOL    HW131430   3.042   1.404   4.078
10177SOL    HW231431   3.127   1.531   4.018
10178SOL     OW31432   6.984   0.975   1.885
10178SOL    HW131433   0.053   0.988   1.918
10178SOL    HW231434   6.920   0.990   1.960
10179SOL     OW31435   0.180   6.199   0.929
10179SOL    HW131436   0.109   6.200   0.858
10179SOL    HW231437   0.175   6.113   0.980
10180SOL     OW31438   2.983   6.849   6.093
10180SOL    HW131439   2.955   6.847   6.189
10180SOL    HW231440   3.040   6.929   6.076
10181SOL     OW31441   6.945   3.580   2.576
10181SOL    HW131442   6.860   3.563   2.526
10181SOL    HW231443   6.930   3.653   2.643
10182SOL     OW31444   4.134   0.203   0.186
10182SOL    HW131445   4.152   0.209   0.284
10182SOL    HW231446   4.037   0.223   0.169
10183SOL     OW31447   3.703   6.351   5.848
10183SOL    HW131448   3.634   6.370   5.918
10183SOL    HW231449   3.660   6.344   5.759
10184SOL     OW31450   5.358   2.857   5.017
10184SOL    HW131451   5.270   2.904   5.009
10184SOL    HW231452   5.349   2.763   4.984
10185SOL     OW31453   2.782   4.793   2.467
10185SOL    HW131454   2.750   4.749   2.384
10185SOL    HW231455   2.744   4.885   2.474
10186SOL     OW31456   3.309   2.882   0.816
10186SOL    HW131457   3.374   2.812   0.845
10186SOL    HW231458   3.224   2.873   0.868
10187SOL     OW31459   2.009   3.761   5.516
10187SOL    HW131460   2.072   3.833   5.545
10187SOL    HW231461   1.946   3.797   5.447
10188SOL     OW31462   2.262   6.638   0.009
10188SOL    HW131463   2.278   6.656   6.937
10188SOL    HW231464   2.219   6.718   0.052
10189SOL     OW31465   2.575   1.897   5.365
10189SOL    HW131466   2.594   1.968   5.298
10189SOL    HW231467   2.660   1.846   5.384
10190SOL     OW31468   3.914   3.771   0.880
10190SOL    HW131469   3.999   3.764   0.932
10190SOL    HW231470   3.934   3.795   0.785
10191SOL     OW31471   5.500   0.600   0.512
10191SOL    HW131472   5.493   0.697   0.488
10191SOL    HW231473   5.414   0.554   0.489
10192SOL     OW31474   2.177   0.580   4.275
10192SOL    HW131475   2.200   0.677   4.268
10192SOL    HW231476   2.231   0.527   4.209
10193SOL     OW31477   3.791   3.764   3.673
10193SOL    HW131478   3.724   3.832   3.704
10193SOL    HW231479   3.877   3.810   3.649
10194SOL     OW31480   3.419   5.872   3.835
10194SOL    HW131481   3.321   5.859   3.824
10194SOL    HW231482   3.458   5.904   3.749
10195SOL     OW31483   5.127   0.509   2.889
10195SOL    HW131484   5.211   0.487   2.938
10195SOL    HW231485   5.110   0.607   2.894
10196SOL     OW31486   4.989   3.961   3.965
10196SOL    HW131487   4.960   4.023   3.891
10196SOL    HW231488   4.952   3.994   4.052
10197SOL     OW31489   4.672   1.854   2.633
10197SOL    HW131490   4.738   1.876   2.706
10197SOL    HW231491   4.641   1.939   2.590
10198SOL     OW31492   2.861   1.684   2.093
10198SOL    HW131493   2.955   1.715   2.109
10198SOL    HW231494   2.860   1.585   2.078
10199SOL     OW31495   0.836   2.078   6.849
10199SOL    HW131496   0.833   2.063   6.948
10199SOL    HW231497   0.794   2.166   6.827
10200SOL     OW31498   6.092   6.647   4.152
10200SOL    HW131499   6.007   6.604   4.123
10200SOL    HW231500   6.120   6.715   4.085
10201SOL     OW31501   1.628   4.645   2.812
10201SOL    HW131502   1.677   4.730   2.834
10201SOL    HW231503   1.582   4.612   2.895
10202SOL     OW31504   1.252   2.010   3.315
10202SOL    HW131505   1.200   1.928   3.340
10202SOL    HW231506   1.282   2.003   3.220
10203SOL     OW31507   0.702   1.826   1.093
10203SOL    HW131508   0.759   1.748   1.119
10203SOL    HW231509   0.630   1.795   1.030
10204SOL     OW31510   2.813   5.786   4.077
10204SOL    HW131511   2.799   5.813   3.982
10204SOL    HW231512   2.805   5.866   4.136
10205SOL     OW31513   3.438   0.175   1.323
10205SOL    HW131514   3.506   0.248   1.317
10205SOL    HW231515   3.462   0.112   1.397
10206SOL     OW31516   5.832   6.499   7.000
10206SOL    HW131517   5.855   6.412   6.958
10206SOL    HW231518   5.864   6.574   6.943
10207SOL     OW31519   4.048   1.571   2.566
10207SOL    HW131520   4.147   1.580   2.557
10207SOL    HW231521   4.005   1.659   2.547
10208SOL     OW31522   6.981   3.670   6.357
10208SOL    HW131523   0.021   3.597   6.335
10208SOL    HW231524   6.993   3.746   6.294
10209SOL     OW31525   3.796   6.319   0.190
10209SOL    HW131526   3.746   6.314   0.104
10209SOL    HW231527   3.857   6.398   0.189
10210SOL     OW31528   5.394   5.482   6.997
10210SOL    HW131529   5.439   5.439   0.050
10210SOL    HW231530   5.295   5.467   7.004
10211SOL     OW31531   3.643   5.852   5.703
10211SOL    HW131532   3.742   5.867   5.709
10211SOL    HW231533   3.597   5.938   5.683
10212SOL     OW31534   6.063   6.463   6.320
10212SOL    HW131535   6.137   6.419   6.369
10212SOL    HW231536   6.067   6.438   6.223
10213SOL     OW31537   4.217   0.146   4.843
10213SOL    HW131538   4.275   0.121   4.765
10213SOL    HW231539   4.247   0.094   4.924
10214SOL     OW31540   0.482   0.590   0.305
10214SOL    HW131541   0.436   0.506   0.335
10214SOL    HW231542   0.417   0.666   0.306
10215SOL     OW31543   4.473   2.766   0.615
10215SOL    HW131544   4.507   2.843   0.561
10215SOL    HW231545   4.388   2.792   0.660
10216SOL     OW31546   4.939   0.312   2.821
10216SOL    HW131547   4.892   0.340   2.738
10216SOL    HW231548   5.005   0.382   2.848
10217SOL     OW31549   3.656   2.300   5.628
10217SOL    HW131550   3.719   2.297   5.550
10217SOL    HW231551   3.616   2.209   5.642
10218SOL     OW31552   3.920   1.508   6.648
10218SOL    HW131553   3.903   1.410   6.657
10218SOL    HW231554   3.851   1.548   6.588
10219SOL     OW31555   1.324   5.492   0.209
10219SOL    HW131556   1.384   5.433   0.264
10219SOL    HW231557   1.240   5.443   0.188
10220SOL     OW31558   4.103   2.425   7.002
10220SOL    HW131559   4.178   2.450   0.038
10220SOL    HW231560   4.112   2.475   6.915
10221SOL     OW31561   2.550   0.994   4.153
10221SOL    HW131562   2.505   0.932   4.218
10221SOL    HW231563   2.621   0.945   4.104
10222SOL     OW31564   1.735   4.132   5.091
10222SOL    HW131565   1.757   4.037   5.070
10222SOL    HW231566   1.641   4.137   5.127
10223SOL     OW31567   0.894   4.887   6.266
10223SOL    HW131568   0.888   4.792   6.234
10223SOL    HW231569   0.807   4.912   6.309
10224SOL     OW31570   2.703   6.720   4.905
10224SOL    HW131571   2.773   6.698   4.837
10224SOL    HW231572   2.612   6.699   4.867
10225SOL     OW31573   5.198   6.036   4.707
10225SOL    HW131574   5.257   6.033   4.626
10225SOL    HW231575   5.183   5.942   4.740
10226SOL     OW31576   6.461   2.833   5.966
10226SOL    HW131577   6.461   2.914   5.907
10226SOL    HW231578   6.463   2.862   6.062
10227SOL     OW31579   4.741   4.660   5.563
10227SOL    HW131580   4.783   4.747   5.540
10227SOL    HW231581   4.725   4.656   5.662
10228SOL     OW31582   0.729   3.029   1.859
10228SOL    HW131583   0.706   2.970   1.782
10228SOL    HW231584   0.774   2.976   1.930
10229SOL     OW31585   2.620   0.673   1.599
10229SOL    HW131586   2.557   0.698   1.525
10229SOL    HW231587   2.643   0.577   1.591
10230SOL     OW31588   5.909   6.637   3.442
10230SOL    HW131589   5.849   6.573   3.393
10230SOL    HW231590   5.863   6.726   3.451
10231SOL     OW31591   4.528   6.208   4.351
10231SOL    HW131592   4.543   6.147   4.429
10231SOL    HW231593   4.586   6.178   4.275
10232SOL     OW31594   3.674   2.169   3.309
10232SOL    HW131595   3.575   2.187   3.305
10232SOL    HW231596   3.698   2.136   3.401
10233SOL     OW31597   5.117   6.992   5.267
10233SOL    HW131598   5.161   0.043   5.314
10233SOL    HW231599   5.146   6.906   5.309
10234SOL     OW31600   4.461   5.407   1.385
10234SOL    HW131601   4.381   5.402   1.325
10234SOL    HW231602   4.432   5.441   1.475
10235SOL     OW31603   5.193   1.009   0.310
10235SOL    HW131604   5.118   1.036   0.370
10235SOL    HW231605   5.230   1.089   0.264
10236SOL     OW31606   1.517   5.848   1.414
10236SOL    HW131607   1.562   5.883   1.496
10236SOL    HW231608   1.448   5.780   1.440
10237SOL     OW31609   6.048   2.287   3.111
10237SOL    HW131610   6.008   2.372   3.144
10237SOL    HW231611   6.025   2.275   3.014
10238SOL     OW31612   4.619   5.899   5.196
10238SOL    HW131613   4.527   5.861   5.187
10238SOL    HW231614   4.615   5.985   5.247
10239SOL     OW31615   5.825   3.195   4.664
10239SOL    HW131616   5.901   3.221   4.724
10239SOL    HW231617   5.738   3.210   4.712
10240SOL     OW31618   4.913   3.514   3.696
10240SOL    HW131619   4.870   3.558   3.618
10240SOL    HW231620   4.952   3.584   3.756
10241SOL     OW31621   1.550   2.377   2.686
10241SOL    HW131622   1.631   2.400   2.631
10241SOL    HW231623   1.564   2.407   2.780
10242SOL     OW31624   0.926   5.371   5.980
10242SOL    HW131625   0.867   5.418   6.045
10242SOL    HW231626   0.993   5.316   6.029
10243SOL     OW31627   0.774   6.064   3.022
10243SOL    HW131628   0.741   6.135   2.961
10243SOL    HW231629   0.866   6.035   2.994
10244SOL     OW31630   1.310   5.523   0.485
10244SOL    HW131631   1.294   5.497   0.389
10244SOL    HW231632   1.270   5.454   0.545
10245SOL     OW31633   2.305   2.813   0.894
10245SOL    HW131634   2.291   2.785   0.989
10245SOL    HW231635   2.378   2.758   0.853
10246SOL     OW31636   3.045   3.907   4.399
10246SOL    HW131637   3.111   3.981   4.413
10246SOL    HW231638   2.979   3.905   4.474
10247SOL     OW31639   0.651   6.151   6.110
10247SOL    HW131640   0.649   6.153   6.210
10247SOL    HW231641   0.745   6.162   6.079
10248SOL     OW31642   6.024   0.693   3.592
10248SOL    HW131643   6.078   0.612   3.614
10248SOL    HW231644   6.082   0.774   3.598
10249SOL     OW31645   5.139   0.535   6.214
10249SOL    HW131646   5.041   0.555   6.218
10249SOL    HW231647   5.178   0.544   6.306
10250SOL     OW31648   4.798   6.359   0.639
10250SOL    HW131649   4.809   6.433   0.572
10250SOL    HW231650   4.722   6.299   0.610
10251SOL     OW31651   4.115   4.573   1.368
10251SOL    HW131652   4.088   4.533   1.281
10251SOL    HW231653   4.168   4.505   1.420
10252SOL     OW31654   0.265   4.175   0.803
10252SOL    HW131655   0.362   4.195   0.816
10252SOL    HW231656   0.254   4.078   0.781
10253SOL     OW31657   3.919   5.040   0.124
10253SOL    HW131658   3.843   5.100   0.101
10253SOL    HW231659   3.895   4.945   0.102
10254SOL     OW31660   2.456   1.689   4.786
10254SOL    HW131661   2.359   1.704   4.768
10254SOL    HW231662   2.486   1.748   4.861
10255SOL     OW31663   3.267   5.803   3.574
10255SOL    HW131664   3.299   5.892   3.542
10255SOL    HW231665   3.346   5.747   3.601
10256SOL     OW31666   5.439   6.454   0.603
10256SOL    HW131667   5.343   6.465   0.627
10256SOL    HW231668   5.470   6.362   0.626
10257SOL     OW31669   1.404   5.740   5.599
10257SOL    HW131670   1.487   5.796   5.603
10257SOL    HW231671   1.416   5.660   5.658
10258SOL     OW31672   4.396   0.963   3.031
10258SOL    HW131673   4.316   0.987   2.977
10258SOL    HW231674   4.474   0.950   2.970
10259SOL     OW31675   0.309   3.048   3.954
10259SOL    HW131676   0.409   3.039   3.956
10259SOL    HW231677   0.270   2.971   3.903
10260SOL     OW31678   0.149   5.841   2.275
10260SOL    HW131679   0.066   5.896   2.267
10260SOL    HW231680   0.160   5.812   2.370
10261SOL     OW31681   2.195   0.228   2.047
10261SOL    HW131682   2.119   0.205   2.107
10261SOL    HW231683   2.214   0.151   1.986
10262SOL     OW31684   1.672   6.610   3.946
10262SOL    HW131685   1.694   6.548   4.021
10262SOL    HW231686   1.645   6.556   3.866
10263SOL     OW31687   6.493   3.412   5.218
10263SOL    HW131688   6.476   3.336   5.155
10263SOL    HW231689   6.408   3.462   5.234
10264SOL     OW31690   0.637   6.585   0.063
10264SOL    HW131691   0.638   6.513   7.018
10264SOL    HW231692   0.569   6.654   0.039
10265SOL     OW31693   4.167   1.857   2.933
10265SOL    HW131694   4.096   1.852   3.004
10265SOL    HW231695   4.151   1.938   2.876
10266SOL     OW31696   3.906   3.720   6.790
10266SOL    HW131697   3.968   3.798   6.778
10266SOL    HW231698   3.814   3.753   6.807
10267SOL     OW31699   6.142   1.133   6.311
10267SOL    HW131700   6.103   1.207   6.256
10267SOL    HW231701   6.217   1.169   6.367
10268SOL     OW31702   6.575   3.987   0.952
10268SOL    HW131703   6.584   3.932   1.036
10268SOL    HW231704   6.630   3.946   0.880
10269SOL     OW31705   4.071   1.949   6.075
10269SOL    HW131706   4.153   1.927   6.128
10269SOL    HW231707   3.990   1.930   6.129
10270SOL     OW31708   2.655   5.860   2.370
10270SOL    HW131709   2.704   5.910   2.298
10270SOL    HW231710   2.703   5.871   2.457
10271SOL     OW31711   1.987   5.235   1.505
10271SOL    HW131712   2.067   5.192   1.547
10271SOL    HW231713   1.905   5.209   1.557
10272SOL     OW31714   1.740   2.207   4.282
10272SOL    HW131715   1.783   2.198   4.372
10272SOL    HW231716   1.810   2.206   4.211
10273SOL     OW31717   4.619   6.705   3.971
10273SOL    HW131718   4.576   6.671   4.054
10273SOL    HW231719   4.558   6.769   3.925
10274SOL     OW31720   2.688   4.755   6.380
10274SOL    HW131721   2.695   4.853   6.398
10274SOL    HW231722   2.724   4.735   6.289
10275SOL     OW31723   0.584   6.636   1.738
10275SOL    HW131724   0.605   6.723   1.693
10275SOL    HW231725   0.656   6.613   1.803
10276SOL     OW31726   1.130   7.023   0.243
10276SOL    HW131727   1.223   0.016   0.276
10276SOL    HW231728   1.110   6.926   0.250
10277SOL     OW31729   0.378   6.104   1.904
10277SOL    HW131730   0.391   6.200   1.877
10277SOL    HW231731   0.320   6.058   1.836
10278SOL     OW31732   6.605   0.522   5.443
10278SOL    HW131733   6.580   0.603   5.497
10278SOL    HW231734   6.665   0.463   5.498
10279SOL     OW31735   3.755   6.015   5.355
10279SOL    HW131736   3.696   5.967   5.291
10279SOL    HW231737   3.702   6.082   5.407
10280SOL     OW31738   3.428   2.808   0.261
10280SOL    HW131739   3.505   2.821   0.199
10280SOL    HW231740   3.443   2.859   0.346
10281SOL     OW31741   5.001   0.420   4.425
10281SOL    HW131742   5.093   0.428   4.387
10281SOL    HW231743   4.998   0.464   4.515
10282SOL     OW31744   1.284   2.527   4.190
10282SOL    HW131745   1.379   2.519   4.160
10282SOL    HW231746   1.227   2.464   4.138
10283SOL     OW31747   1.597   4.436   5.548
10283SOL    HW131748   1.677   4.409   5.495
10283SOL    HW231749   1.526   4.365   5.540
10284SOL     OW31750   5.055   3.528   0.043
10284SOL    HW131751   5.152   3.526   0.017
10284SOL    HW231752   5.001   3.555   6.988
10285SOL     OW31753   5.215   1.476   1.040
10285SOL    HW131754   5.209   1.419   1.122
10285SOL    HW231755   5.189   1.423   0.960
10286SOL     OW31756   3.922   0.554   4.064
10286SOL    HW131757   3.984   0.611   4.118
10286SOL    HW231758   3.828   0.568   4.094
10287SOL     OW31759   1.314   4.827   1.967
10287SOL    HW131760   1.375   4.888   1.918
10287SOL    HW231761   1.348   4.812   2.059
10288SOL     OW31762   4.183   6.165   4.603
10288SOL    HW131763   4.167   6.258   4.637
10288SOL    HW231764   4.281   6.150   4.591
10289SOL     OW31765   2.837   1.704   1.779
10289SOL    HW131766   2.905   1.769   1.812
10289SOL    HW231767   2.833   1.626   1.841
10290SOL     OW31768   3.130   3.048   3.148
10290SOL    HW131769   3.193   2.994   3.204
10290SOL    HW231770   3.042   3.056   3.194
10291SOL     OW31771   4.167   0.706   5.251
10291SOL    HW131772   4.098   0.636   5.237
10291SOL    HW231773   4.136   0.769   5.322
10292SOL     OW31774   0.373   2.204   4.418
10292SOL    HW131775   0.361   2.289   4.366
10292SOL    HW231776   0.284   2.169   4.447
10293SOL     OW31777   3.082   5.272   2.680
10293SOL    HW131778   3.063   5.200   2.613
10293SOL    HW231779   3.039   5.248   2.767
10294SOL     OW31780   6.571   1.121   3.580
10294SOL    HW131781   6.664   1.156   3.571
10294SOL    HW231782   6.540   1.084   3.492
10295SOL     OW31783   1.575   4.337   4.086
10295SOL    HW131784   1.496   4.346   4.146
10295SOL    HW231785   1.629   4.421   4.088
10296SOL     OW31786   6.451   3.224   1.616
10296SOL    HW131787   6.445   3.124   1.618
10296SOL    HW231788   6.439   3.260   1.709
10297SOL     OW31789   3.153   5.088   5.317
10297SOL    HW131790   3.124   5.007   5.368
10297SOL    HW231791   3.163   5.064   5.220
10298SOL     OW31792   5.912   3.327   2.996
10298SOL    HW131793   5.875   3.237   3.017
10298SOL    HW231794   5.942   3.371   3.081
10299SOL     OW31795   4.771   4.202   2.376
10299SOL    HW131796   4.745   4.181   2.470
10299SOL    HW231797   4.869   4.184   2.363
10300SOL     OW31798   0.850   6.073   1.868
10300SOL    HW131799   0.824   6.149   1.928
10300SOL    HW231800   0.845   6.103   1.773
10301SOL     OW31801   4.322   0.612   1.879
10301SOL    HW131802   4.262   0.693   1.880
10301SOL    HW231803   4.417   0.641   1.894
10302SOL     OW31804   2.260   4.104   3.660
10302SOL    HW131805   2.329   4.169   3.692
10302SOL    HW231806   2.172   4.150   3.649
10303SOL     OW31807   4.340   2.947   1.568
10303SOL    HW131808   4.367   3.040   1.596
10303SOL    HW231809   4.292   2.951   1.481
10304SOL     OW31810   5.982   6.540   3.847
10304SOL    HW131811   6.023   6.597   3.776
10304SOL    HW231812   6.051   6.479   3.886
10305SOL     OW31813   1.745   5.340   1.057
10305SOL    HW131814   1.816   5.298   1.114
10305SOL    HW231815   1.670   5.371   1.115
10306SOL     OW31816   4.263   4.331   0.706
10306SOL    HW131817   4.310   4.244   0.718
10306SOL    HW231818   4.215   4.331   0.618
10307SOL     OW31819   2.800   1.760   5.440
10307SOL    HW131820   2.892   1.762   5.481
10307SOL    HW231821   2.806   1.722   5.348
10308SOL     OW31822   2.531   5.116   3.858
10308SOL    HW131823   2.588   5.041   3.890
10308SOL    HW231824   2.496   5.095   3.767
10309SOL     OW31825   0.105   5.997   3.493
10309SOL    HW131826   0.010   5.989   3.520
10309SOL    HW231827   0.114   6.064   3.420
10310SOL     OW31828   2.928   3.276   4.433
10310SOL    HW131829   2.899   3.335   4.508
10310SOL    HW231830   2.981   3.199   4.470
10311SOL     OW31831   0.945   0.561   1.040
10311SOL    HW131832   0.871   0.511   0.995
10311SOL    HW231833   0.907   0.623   1.109
10312SOL     OW31834   2.623   4.748   0.710
10312SOL    HW131835   2.571   4.821   0.666
10312SOL    HW231836   2.710   4.785   0.743
10313SOL     OW31837   6.740   5.698   4.050
10313SOL    HW131838   6.762   5.747   3.965
10313SOL    HW231839   6.805   5.725   4.121
10314SOL     OW31840   0.088   5.795   5.397
10314SOL    HW131841   0.005   5.835   5.434
10314SOL    HW231842   0.098   5.701   5.430
10315SOL     OW31843   4.422   6.706   5.677
10315SOL    HW131844   4.375   6.649   5.744
10315SOL    HW231845   4.496   6.757   5.722
10316SOL     OW31846   0.158   3.837   2.912
10316SOL    HW131847   0.245   3.806   2.872
10316SOL    HW231848   0.176   3.889   2.995
10317SOL     OW31849   4.658   4.487   7.006
10317SOL    HW131850   4.733   4.487   6.940
10317SOL    HW231851   4.575   4.454   6.960
10318SOL     OW31852   5.835   5.263   2.725
10318SOL    HW131853   5.814   5.213   2.641
10318SOL    HW231854   5.906   5.331   2.707
10319SOL     OW31855   5.224   6.515   4.343
10319SOL    HW131856   5.127   6.501   4.364
10319SOL    HW231857   5.273   6.428   4.350
10320SOL     OW31858   4.477   6.028   2.217
10320SOL    HW131859   4.566   6.064   2.189
10320SOL    HW231860   4.404   6.079   2.170
10321SOL     OW31861   4.459   6.798   4.385
10321SOL    HW131862   4.377   6.771   4.437
10321SOL    HW231863   4.468   6.897   4.387
10322SOL     OW31864   0.420   2.191   0.014
10322SOL    HW131865   0.389   2.193   0.109
10322SOL    HW231866   0.415   2.098   7.004
10323SOL     OW31867   0.906   2.404   5.583
10323SOL    HW131868   0.881   2.344   5.659
10323SOL    HW231869   0.986   2.368   5.536
10324SOL     OW31870   3.640   2.929   4.288
10324SOL    HW131871   3.552   2.895   4.322
10324SOL    HW231872   3.659   2.888   4.198
10325SOL     OW31873   6.730   3.546   3.342
10325SOL    HW131874   6.683   3.560   3.255
10325SOL    HW231875   6.772   3.455   3.343
10326SOL     OW31876   5.898   1.952   1.211
10326SOL    HW131877   5.875   2.013   1.136
10326SOL    HW231878   5.993   1.922   1.201
10327SOL     OW31879   6.040   1.174   3.631
10327SOL    HW131880   6.021   1.225   3.715
10327SOL    HW231881   5.959   1.174   3.573
10328SOL     OW31882   6.040   3.740   2.197
10328SOL    HW131883   6.051   3.644   2.171
10328SOL    HW231884   5.943   3.763   2.197
10329SOL     OW31885   3.315   5.999   3.095
10329SOL    HW131886   3.216   6.001   3.103
10329SOL    HW231887   3.341   5.959   3.007
10330SOL     OW31888   3.151   4.029   0.952
10330SOL    HW131889   3.227   4.039   1.015
10330SOL    HW231890   3.185   4.031   0.858
10331SOL     OW31891   5.181   1.389   4.200
10331SOL    HW131892   5.190   1.290   4.207
10331SOL    HW231893   5.089   1.416   4.227
10332SOL     OW31894   1.075   1.889   6.100
10332SOL    HW131895   1.068   1.792   6.079
10332SOL    HW231896   1.121   1.902   6.187
10333SOL     OW31897   6.710   4.892   5.253
10333SOL    HW131898   6.771   4.830   5.303
10333SOL    HW231899   6.615   4.861   5.265
10334SOL     OW31900   0.634   5.367   5.372
10334SOL    HW131901   0.651   5.323   5.283
10334SOL    HW231902   0.552   5.424   5.365
10335SOL     OW31903   3.497   5.225   2.914
10335SOL    HW131904   3.458   5.251   2.826
10335SOL    HW231905   3.435   5.252   2.987
10336SOL     OW31906   4.998   6.987   2.875
10336SOL    HW131907   4.953   7.013   2.790
10336SOL    HW231908   4.951   0.003   2.952
10337SOL     OW31909   0.557   4.008   6.023
10337SOL    HW131910   0.640   3.999   6.078
10337SOL    HW231911   0.483   4.045   6.080
10338SOL     OW31912   2.847   4.983   2.804
10338SOL    HW131913   2.748   4.969   2.812
10338SOL    HW231914   2.871   5.070   2.846
10339SOL     OW31915   2.410   5.285   0.504
10339SOL    HW131916   2.419   5.310   0.601
10339SOL    HW231917   2.489   5.228   0.478
10340SOL     OW31918   1.583   6.471   0.762
10340SOL    HW131919   1.633   6.555   0.741
10340SOL    HW231920   1.490   6.477   0.726
10341SOL     OW31921   0.404   2.339   1.854
10341SOL    HW131922   0.391   2.434   1.885
10341SOL    HW231923   0.497   2.310   1.876
10342SOL     OW31924   3.437   6.153   4.647
10342SOL    HW131925   3.403   6.114   4.562
10342SOL    HW231926   3.395   6.243   4.662
10343SOL     OW31927   2.367   2.546   4.119
10343SOL    HW131928   2.352   2.600   4.036
10343SOL    HW231929   2.438   2.478   4.102
10344SOL     OW31930   4.507   3.773   1.693
10344SOL    HW131931   4.501   3.872   1.708
10344SOL    HW231932   4.588   3.752   1.639
10345SOL     OW31933   3.317   2.546   6.492
10345SOL    HW131934   3.387   2.488   6.534
10345SOL    HW231935   3.245   2.488   6.453
10346SOL     OW31936   6.345   5.350   0.457
10346SOL    HW131937   6.410   5.424   0.444
10346SOL    HW231938   6.319   5.346   0.554
10347SOL     OW31939   4.332   6.973   1.590
10347SOL    HW131940   4.361   6.879   1.571
10347SOL    HW231941   4.388   7.011   1.663
10348SOL     OW31942   6.815   5.025   5.682
10348SOL    HW131943   6.874   5.047   5.604
10348SOL    HW231944   6.871   4.992   5.758
10349SOL     OW31945   6.641   2.481   6.972
10349SOL    HW131946   6.697   2.399   6.979
10349SOL    HW231947   6.548   2.456   6.943
10350SOL     OW31948   1.888   4.815   4.540
10350SOL    HW131949   1.885   4.757   4.458
10350SOL    HW231950   1.839   4.770   4.615
10351SOL     OW31951   4.065   5.025   5.060
10351SOL    HW131952   4.111   5.114   5.059
10351SOL    HW231953   4.084   4.979   5.147
10352SOL     OW31954   6.843   0.713   0.946
10352SOL    HW131955   6.782   0.760   0.882
10352SOL    HW231956   6.937   0.721   0.914
10353SOL     OW31957   6.076   2.346   4.199
10353SOL    HW131958   6.036   2.261   4.163
10353SOL    HW231959   6.173   2.333   4.216
10354SOL     OW31960   6.886   2.701   1.262
10354SOL    HW131961   6.951   2.680   1.335
10354SOL    HW231962   6.824   2.774   1.292
10355SOL     OW31963   0.947   1.788   0.914
10355SOL    HW131964   0.878   1.857   0.894
10355SOL    HW231965   1.009   1.779   0.836
10356SOL     OW31966   5.895   2.702   6.921
10356SOL    HW131967   5.873   2.612   6.885
10356SOL    HW231968   5.990   2.724   6.901
10357SOL     OW31969   1.124   0.323   6.187
10357SOL    HW131970   1.167   0.262   6.120
10357SOL    HW231971   1.093   0.406   6.140
10358SOL     OW31972   0.792   2.374   3.044
10358SOL    HW131973   0.752   2.310   2.978
10358SOL    HW231974   0.875   2.415   3.006
10359SOL     OW31975   0.551   2.278   2.185
10359SOL    HW131976   0.469   2.242   2.229
10359SOL    HW231977   0.560   2.239   2.093
10360SOL     OW31978   5.834   4.051   1.088
10360SOL    HW131979   5.877   3.977   1.036
10360SOL    HW231980   5.755   4.086   1.038
10361SOL     OW31981   6.331   1.379   2.438
10361SOL    HW131982   6.240   1.409   2.410
10361SOL    HW231983   6.387   1.360   2.357
10362SOL     OW31984   0.855   5.904   1.582
10362SOL    HW131985   0.808   5.973   1.527
10362SOL    HW231986   0.859   5.934   1.677
10363SOL     OW31987   5.350   4.959   6.712
10363SOL    HW131988   5.389   5.013   6.786
10363SOL    HW231989   5.407   4.967   6.631
10364SOL     OW31990   5.952   5.743   2.421
10364SOL    HW131991   6.020   5.799   2.467
10364SOL    HW231992   5.867   5.743   2.474
10365SOL     OW31993   6.112   5.279   0.250
10365SOL    HW131994   6.169   5.287   0.169
10365SOL    HW231995   6.161   5.315   0.329
10366SOL     OW31996   3.131   0.132   4.101
10366SOL    HW131997   3.127   0.086   4.190
10366SOL    HW231998   3.039   0.144   4.065
10367SOL     OW31999   5.272   6.445   1.947
10367SOL    HW132000   5.262   6.493   2.034
10367SOL    HW232001   5.358   6.471   1.903
10368SOL     OW32002   0.954   6.357   1.768
10368SOL    HW132003   1.026   6.379   1.702
10368SOL    HW232004   0.995   6.328   1.855
10369SOL     OW32005   2.517   0.312   5.719
10369SOL    HW132006   2.546   0.402   5.687
10369SOL    HW232007   2.484   0.319   5.813
10370SOL     OW32008   2.383   1.903   5.571
10370SOL    HW132009   2.441   1.865   5.499
10370SOL    HW232010   2.296   1.932   5.532
10371SOL     OW32011   4.085   5.710   3.239
10371SOL    HW132012   4.067   5.807   3.255
10371SOL    HW232013   4.180   5.689   3.260
10372SOL     OW32014   2.125   6.370   0.800
10372SOL    HW132015   2.114   6.270   0.800
10372SOL    HW232016   2.035   6.413   0.810
10373SOL     OW32017   6.259   0.548   6.841
10373SOL    HW132018   6.166   0.547   6.878
10373SOL    HW232019   6.274   0.633   6.792
10374SOL     OW32020   2.971   4.887   3.118
10374SOL    HW132021   2.871   4.890   3.115
10374SOL    HW232022   3.006   4.855   3.030
10375SOL     OW32023   2.237   5.297   0.302
10375SOL    HW132024   2.308   5.328   0.238
10375SOL    HW232025   2.279   5.278   0.391
10376SOL     OW32026   2.207   4.743   3.622
10376SOL    HW132027   2.197   4.644   3.623
10376SOL    HW232028   2.226   4.776   3.714
10377SOL     OW32029   2.201   1.130   2.845
10377SOL    HW132030   2.193   1.092   2.937
10377SOL    HW232031   2.161   1.222   2.843
10378SOL     OW32032   0.439   6.461   5.208
10378SOL    HW132033   0.481   6.470   5.118
10378SOL    HW232034   0.482   6.386   5.257
10379SOL     OW32035   2.072   6.580   3.719
10379SOL    HW132036   1.975   6.603   3.716
10379SOL    HW232037   2.090   6.501   3.660
10380SOL     OW32038   3.342   1.136   3.891
10380SOL    HW132039   3.333   1.184   3.804
10380SOL    HW232040   3.262   1.078   3.905
10381SOL     OW32041   4.139   6.499   3.014
10381SOL    HW132042   4.136   6.531   2.919
10381SOL    HW232043   4.173   6.573   3.072
10382SOL     OW32044   4.043   5.496   1.934
10382SOL    HW132045   3.971   5.431   1.913
10382SOL    HW232046   4.068   5.489   2.030
10383SOL     OW32047   0.534   5.636   6.684
10383SOL    HW132048   0.569   5.548   6.653
10383SOL    HW232049   0.434   5.636   6.682
10384SOL     OW32050   4.779   5.680   1.779
10384SOL    HW132051   4.876   5.657   1.773
10384SOL    HW232052   4.731   5.646   1.697
10385SOL     OW32053   4.246   4.850   0.063
10385SOL    HW132054   4.199   4.921   0.012
10385SOL    HW232055   4.264   4.882   0.156
10386SOL     OW32056   0.402   0.653   1.430
10386SOL    HW132057   0.309   0.647   1.394
10386SOL    HW232058   0.455   0.574   1.397
10387SOL     OW32059   5.045   3.226   2.475
10387SOL    HW132060   4.973   3.278   2.429
10387SOL    HW232061   5.032   3.129   2.456
10388SOL     OW32062   1.983   0.339   4.525
10388SOL    HW132063   1.966   0.387   4.611
10388SOL    HW232064   2.080   0.345   4.501
10389SOL     OW32065   0.638   3.959   0.031
10389SOL    HW132066   0.685   4.022   0.094
10389SOL    HW232067   0.704   3.895   7.018
10390SOL     OW32068   2.010   2.474   1.796
10390SOL    HW132069   2.016   2.375   1.781
10390SOL    HW232070   2.073   2.501   1.869
10391SOL     OW32071   6.525   0.121   3.392
10391SOL    HW132072   6.499   0.027   3.413
10391SOL    HW232073   6.464   0.158   3.322
10392SOL     OW32074   6.448   4.337   4.110
10392SOL    HW132075   6.403   4.249   4.095
10392SOL    HW232076   6.386   4.411   4.086
10393SOL     OW32077   2.168   2.566   2.002
10393SOL    HW132078   2.248   2.625   1.997
10393SOL    HW232079   2.197   2.472   2.016
10394SOL     OW32080   3.217   6.671   4.460
10394SOL    HW132081   3.224   6.623   4.373
10394SOL    HW232082   3.150   6.625   4.519
10395SOL     OW32083   1.205   0.454   1.077
10395SOL    HW132084   1.128   0.516   1.066
10395SOL    HW232085   1.291   0.504   1.068
10396SOL     OW32086   3.312   2.038   5.092
10396SOL    HW132087   3.308   2.126   5.044
10396SOL    HW232088   3.219   2.011   5.117
10397SOL     OW32089   4.992   1.836   4.007
10397SOL    HW132090   5.089   1.856   4.018
10397SOL    HW232091   4.962   1.772   4.077
10398SOL     OW32092   5.689   2.099   2.361
10398SOL    HW132093   5.724   2.149   2.281
10398SOL    HW232094   5.595   2.127   2.380
10399SOL     OW32095   0.575   3.778   2.362
10399SOL    HW132096   0.637   3.793   2.285
10399SOL    HW232097   0.556   3.865   2.407
10400SOL     OW32098   2.054   6.092   0.792
10400SOL    HW132099   1.992   6.080   0.714
10400SOL    HW232100   2.141   6.046   0.772
10401SOL     OW32101   0.392   0.729   5.780
10401SOL    HW132102   0.422   0.711   5.873
10401SOL    HW232103   0.413   0.650   5.722
10402SOL     OW32104   6.855   3.966   5.237
10402SOL    HW132105   6.865   4.019   5.153
10402SOL    HW232106   6.882   3.871   5.220
10403SOL     OW32107   3.003   0.009   1.064
10403SOL    HW132108   3.035   6.944   1.094
10403SOL    HW232109   3.078   0.075   1.071
10404SOL     OW32110   6.877   6.725   6.207
10404SOL    HW132111   6.828   6.722   6.119
10404SOL    HW232112   6.961   6.778   6.197
10405SOL     OW32113   0.615   2.786   6.551
10405SOL    HW132114   0.521   2.761   6.528
10405SOL    HW232115   0.645   2.732   6.630
10406SOL     OW32116   1.561   5.082   1.364
10406SOL    HW132117   1.628   5.035   1.307
10406SOL    HW232118   1.469   5.051   1.341
10407SOL     OW32119   1.994   5.788   5.727
10407SOL    HW132120   2.020   5.790   5.823
10407SOL    HW232121   1.991   5.882   5.691
10408SOL     OW32122   4.579   0.992   0.217
10408SOL    HW132123   4.670   1.022   0.186
10408SOL    HW232124   4.512   1.013   0.146
10409SOL     OW32125   6.362   4.193   1.138
10409SOL    HW132126   6.433   4.255   1.104
10409SOL    HW232127   6.290   4.246   1.182
10410SOL     OW32128   4.284   0.170   0.475
10410SOL    HW132129   4.377   0.164   0.511
10410SOL    HW232130   4.218   0.163   0.550
10411SOL     OW32131   1.910   4.646   4.322
10411SOL    HW132132   1.976   4.683   4.258
10411SOL    HW232133   1.943   4.559   4.358
10412SOL     OW32134   5.264   6.761   0.860
10412SOL    HW132135   5.242   6.839   0.919
10412SOL    HW232136   5.292   6.683   0.916
10413SOL     OW32137   6.192   2.957   2.196
10413SOL    HW132138   6.106   2.975   2.244
10413SOL    HW232139   6.251   2.900   2.253
10414SOL     OW32140   4.667   2.640   4.357
10414SOL    HW132141   4.761   2.606   4.365
10414SOL    HW232142   4.667   2.740   4.361
10415SOL     OW32143   0.328   0.992   6.488
10415SOL    HW132144   0.263   0.935   6.438
10415SOL    HW232145   0.315   0.979   6.586
10416SOL     OW32146   5.434   3.052   4.011
10416SOL    HW132147   5.474   3.028   3.922
10416SOL    HW232148   5.507   3.056   4.080
10417SOL     OW32149   2.267   4.212   3.075
10417SOL    HW132150   2.206   4.147   3.029
10417SOL    HW232151   2.269   4.193   3.173
10418SOL     OW32152   1.664   5.901   5.656
10418SOL    HW132153   1.711   5.862   5.578
10418SOL    HW232154   1.634   5.995   5.634
10419SOL     OW32155   1.224   1.109   0.247
10419SOL    HW132156   1.167   1.031   0.271
10419SOL    HW232157   1.187   1.153   0.165
10420SOL     OW32158   0.608   3.001   3.172
10420SOL    HW132159   0.525   2.958   3.136
10420SOL    HW232160   0.686   2.940   3.157
10421SOL     OW32161   0.195   1.398   3.235
10421SOL    HW132162   0.219   1.323   3.296
10421SOL    HW232163   0.212   1.371   3.140
10422SOL     OW32164   5.527   3.547   5.642
10422SOL    HW132165   5.557   3.639   5.616
10422SOL    HW232166   5.440   3.527   5.597
10423SOL     OW32167   5.248   4.059   2.950
10423SOL    HW132168   5.313   4.074   2.875
10423SOL    HW232169   5.215   3.965   2.947
10424SOL     OW32170   5.188   1.381   6.406
10424SOL    HW132171   5.260   1.366   6.474
10424SOL    HW232172   5.165   1.294   6.362
10425SOL     OW32173   2.122   6.373   1.732
10425SOL    HW132174   2.179   6.310   1.784
10425SOL    HW232175   2.177   6.449   1.698
10426SOL     OW32176   6.234   3.886   0.328
10426SOL    HW132177   6.296   3.959   0.302
10426SOL    HW232178   6.251   3.806   0.270
10427SOL     OW32179   4.499   0.539   1.013
10427SOL    HW132180   4.530   0.594   1.090
10427SOL    HW232181   4.467   0.450   1.046
10428SOL     OW32182   4.314   0.814   3.700
10428SOL    HW132183   4.335   0.873   3.779
10428SOL    HW232184   4.334   0.719   3.724
10429SOL     OW32185   5.870   6.238   1.805
10429SOL    HW132186   5.908   6.265   1.716
10429SOL    HW232187   5.838   6.320   1.853
10430SOL     OW32188   4.204   6.314   3.278
10430SOL    HW132189   4.258   6.309   3.362
10430SOL    HW232190   4.260   6.280   3.201
10431SOL     OW32191   1.955   1.027   5.098
10431SOL    HW132192   1.929   1.069   5.185
10431SOL    HW232193   2.029   1.081   5.056
10432SOL     OW32194   4.929   1.538   5.035
10432SOL    HW132195   4.847   1.568   4.988
10432SOL    HW232196   4.992   1.495   4.970
10433SOL     OW32197   2.846   6.609   1.073
10433SOL    HW132198   2.780   6.613   1.148
10433SOL    HW232199   2.819   6.672   1.000
10434SOL     OW32200   2.150   2.237   4.557
10434SOL    HW132201   2.155   2.209   4.653
10434SOL    HW232202   2.219   2.307   4.540
10435SOL     OW32203   5.782   5.621   6.755
10435SOL    HW132204   5.691   5.623   6.797
10435SOL    HW232205   5.851   5.630   6.826
10436SOL     OW32206   1.277   0.315   1.956
10436SOL    HW132207   1.207   0.261   2.002
10436SOL    HW232208   1.364   0.265   1.957
10437SOL     OW32209   6.861   4.754   5.896
10437SOL    HW132210   6.905   4.788   5.980
10437SOL    HW232211   6.762   4.758   5.906
10438SOL     OW32212   3.529   0.040   6.130
10438SOL    HW132213   3.497   6.973   6.109
10438SOL    HW232214   3.593   0.070   6.059
10439SOL     OW32215   4.216   1.032   5.793
10439SOL    HW132216   4.227   0.985   5.706
10439SOL    HW232217   4.302   1.028   5.845
10440SOL     OW32218   1.876   6.121   0.562
10440SOL    HW132219   1.798   6.182   0.575
10440SOL    HW232220   1.865   6.071   0.476
10441SOL     OW32221   3.956   0.672   6.921
10441SOL    HW132222   3.970   0.592   6.980
10441SOL    HW232223   3.952   0.642   6.825
10442SOL     OW32224   4.693   6.279   5.414
10442SOL    HW132225   4.787   6.293   5.445
10442SOL    HW232226   4.670   6.182   5.422
10443SOL     OW32227   6.098   2.790   5.105
10443SOL    HW132228   6.017   2.733   5.116
10443SOL    HW232229   6.117   2.837   5.192
10444SOL     OW32230   3.490   4.966   4.368
10444SOL    HW132231   3.467   5.062   4.354
10444SOL    HW232232   3.409   4.916   4.397
10445SOL     OW32233   6.192   5.835   3.400
10445SOL    HW132234   6.135   5.856   3.320
10445SOL    HW232235   6.163   5.749   3.441
10446SOL     OW32236   0.829   6.387   6.631
10446SOL    HW132237   0.886   6.468   6.646
10446SOL    HW232238   0.739   6.402   6.671
10447SOL     OW32239   6.383   2.084   0.572
10447SOL    HW132240   6.307   2.019   0.575
10447SOL    HW232241   6.394   2.118   0.479
10448SOL     OW32242   3.607   4.040   2.312
10448SOL    HW132243   3.617   3.943   2.336
10448SOL    HW232244   3.520   4.054   2.264
10449SOL     OW32245   1.819   5.417   4.382
10449SOL    HW132246   1.789   5.458   4.468
10449SOL    HW232247   1.740   5.407   4.321
10450SOL     OW32248   0.039   2.821   0.591
10450SOL    HW132249   7.022   2.789   0.505
10450SOL    HW232250   0.102   2.751   0.624
10451SOL     OW32251   2.356   4.409   2.643
10451SOL    HW132252   2.416   4.484   2.618
10451SOL    HW232253   2.374   4.381   2.737
10452SOL     OW32254   1.090   3.264   4.844
10452SOL    HW132255   1.049   3.288   4.932
10452SOL    HW232256   1.101   3.346   4.789
10453SOL     OW32257   5.220   0.469   1.389
10453SOL    HW132258   5.276   0.422   1.321
10453SOL    HW232259   5.193   0.403   1.460
10454SOL     OW32260   4.937   3.712   2.302
10454SOL    HW132261   5.019   3.755   2.339
10454SOL    HW232262   4.931   3.731   2.204
10455SOL     OW32263   0.092   4.593   2.809
10455SOL    HW132264   0.100   4.501   2.846
10455SOL    HW232265   0.040   4.590   2.723
10456SOL     OW32266   3.745   5.876   1.796
10456SOL    HW132267   3.661   5.822   1.800
10456SOL    HW232268   3.769   5.906   1.888
10457SOL     OW32269   3.800   3.420   4.112
10457SOL    HW132270   3.812   3.450   4.017
10457SOL    HW232271   3.827   3.324   4.120
10458SOL     OW32272   6.323   6.577   1.648
10458SOL    HW132273   6.268   6.496   1.632
10458SOL    HW232274   6.290   6.652   1.590
10459SOL     OW32275   6.653   4.924   2.321
10459SOL    HW132276   6.674   5.013   2.279
10459SOL    HW232277   6.728   4.897   2.381
10460SOL     OW32278   1.500   4.623   1.781
10460SOL    HW132279   1.474   4.661   1.693
10460SOL    HW232280   1.576   4.559   1.770
10461SOL     OW32281   2.504   1.482   6.262
10461SOL    HW132282   2.516   1.435   6.350
10461SOL    HW232283   2.585   1.467   6.206
10462SOL     OW32284   5.178   6.950   1.054
10462SOL    HW132285   5.152   0.021   1.039
10462SOL    HW232286   5.098   6.899   1.086
10463SOL     OW32287   3.346   3.460   1.631
10463SOL    HW132288   3.281   3.530   1.598
10463SOL    HW232289   3.321   3.371   1.593
10464SOL     OW32290   5.202   6.803   1.477
10464SOL    HW132291   5.228   6.725   1.419
10464SOL    HW232292   5.175   6.880   1.420
10465SOL     OW32293   6.748   5.225   5.041
10465SOL    HW132294   6.660   5.180   5.029
10465SOL    HW232295   6.734   5.322   5.060
10466SOL     OW32296   4.935   6.156   6.220
10466SOL    HW132297   4.881   6.127   6.300
10466SOL    HW232298   5.027   6.118   6.227
10467SOL     OW32299   4.430   1.264   3.748
10467SOL    HW132300   4.504   1.314   3.794
10467SOL    HW232301   4.413   1.178   3.797
10468SOL     OW32302   3.425   5.471   3.450
10468SOL    HW132303   3.517   5.454   3.416
10468SOL    HW232304   3.364   5.492   3.373
10469SOL     OW32305   1.357   5.612   6.861
10469SOL    HW132306   1.409   5.548   6.804
10469SOL    HW232307   1.274   5.567   6.894
10470SOL     OW32308   2.951   1.915   4.447
10470SOL    HW132309   2.891   1.991   4.423
10470SOL    HW232310   2.963   1.856   4.367
10471SOL     OW32311   4.188   4.013   0.318
10471SOL    HW132312   4.246   4.082   0.275
10471SOL    HW232313   4.208   3.923   0.281
10472SOL     OW32314   4.251   1.597   3.247
10472SOL    HW132315   4.326   1.606   3.181
10472SOL    HW232316   4.283   1.621   3.338
10473SOL     OW32317   4.695   5.452   0.095
10473SOL    HW132318   4.636   5.391   0.149
10473SOL    HW232319   4.654   5.466   0.005
10474SOL     OW32320   5.185   1.196   3.640
10474SOL    HW132321   5.212   1.291   3.653
10474SOL    HW232322   5.091   1.192   3.606
10475SOL     OW32323   4.752   6.291   1.877
10475SOL    HW132324   4.668   6.341   1.856
10475SOL    HW232325   4.797   6.332   1.956
10476SOL     OW32326   0.553   4.738   6.863
10476SOL    HW132327   0.511   4.727   6.953
10476SOL    HW232328   0.518   4.822   6.820
10477SOL     OW32329   4.646   4.697   5.136
10477SOL    HW132330   4.744   4.708   5.118
10477SOL    HW232331   4.594   4.738   5.061
10478SOL     OW32332   0.383   6.056   2.943
10478SOL    HW132333   0.408   6.145   2.903
10478SOL    HW232334   0.309   6.069   3.008
10479SOL     OW32335   1.406   4.581   2.614
10479SOL    HW132336   1.424   4.588   2.712
10479SOL    HW232337   1.464   4.646   2.565
10480SOL     OW32338   5.593   0.564   1.665
10480SOL    HW132339   5.661   0.637   1.657
10480SOL    HW232340   5.594   0.508   1.582
10481SOL     OW32341   2.732   1.299   4.657
10481SOL    HW132342   2.787   1.225   4.694
10481SOL    HW232343   2.780   1.386   4.671
10482SOL     OW32344   0.974   6.020   6.328
10482SOL    HW132345   1.046   5.951   6.335
10482SOL    HW232346   0.950   6.053   6.419
10483SOL     OW32347   6.239   5.078   0.927
10483SOL    HW132348   6.338   5.086   0.919
10483SOL    HW232349   6.207   5.127   1.008
10484SOL     OW32350   6.107   2.160   1.307
10484SOL    HW132351   6.094   2.176   1.405
10484SOL    HW232352   6.027   2.112   1.270
10485SOL     OW32353   3.180   4.082   3.874
10485SOL    HW132354   3.095   4.089   3.927
10485SOL    HW232355   3.257   4.066   3.936
10486SOL     OW32356   5.884   5.424   5.528
10486SOL    HW132357   5.834   5.501   5.568
10486SOL    HW232358   5.981   5.433   5.549
10487SOL     OW32359   5.150   2.932   3.026
10487SOL    HW132360   5.055   2.906   3.046
10487SOL    HW232361   5.208   2.851   3.026
10488SOL     OW32362   0.324   2.518   4.686
10488SOL    HW132363   0.352   2.532   4.591
10488SOL    HW232364   0.227   2.540   4.696
10489SOL     OW32365   6.087   4.451   4.158
10489SOL    HW132366   6.115   4.418   4.068
10489SOL    HW232367   6.067   4.549   4.153
10490SOL     OW32368   5.887   6.468   6.637
10490SOL    HW132369   5.949   6.392   6.620
10490SOL    HW232370   5.933   6.535   6.696
10491SOL     OW32371   1.984   2.976   5.891
10491SOL    HW132372   2.035   2.891   5.881
10491SOL    HW232373   2.026   3.047   5.835
10492SOL     OW32374   2.971   6.001   0.722
10492SOL    HW132375   2.883   6.013   0.676
10492SOL    HW232376   3.023   6.086   0.717
10493SOL     OW32377   4.148   5.577   1.533
10493SOL    HW132378   4.059   5.586   1.578
10493SOL    HW232379   4.142   5.611   1.439
10494SOL     OW32380   0.479   4.714   3.940
10494SOL    HW132381   0.423   4.633   3.955
10494SOL    HW232382   0.574   4.694   3.965
10495SOL     OW32383   0.230   7.009   0.215
10495SOL    HW132384   0.215   7.017   0.117
10495SOL    HW232385   0.189   0.062   0.262
10496SOL     OW32386   0.146   4.778   6.310
10496SOL    HW132387   0.203   4.782   6.228
10496SOL    HW232388   0.192   4.826   6.385
10497SOL     OW32389   3.140   6.977   1.374
10497SOL    HW132390   3.175   0.025   1.315
10497SOL    HW232391   3.129   7.013   1.467
10498SOL     OW32392   3.973   3.435   6.743
10498SOL    HW132393   3.966   3.534   6.752
10498SOL    HW232394   4.068   3.406   6.757
10499SOL     OW32395   5.010   3.877   2.849
10499SOL    HW132396   4.940   3.835   2.791
10499SOL    HW232397   4.970   3.900   2.938
10500SOL     OW32398   1.217   3.208   5.268
10500SOL    HW132399   1.271   3.285   5.303
10500SOL    HW232400   1.252   3.179   5.179
10501SOL     OW32401   4.082   4.777   3.196
10501SOL    HW132402   4.001   4.722   3.178
10501SOL    HW232403   4.129   4.796   3.110
10502SOL     OW32404   2.936   3.598   2.394
10502SOL    HW132405   3.016   3.541   2.378
10502SOL    HW232406   2.877   3.555   2.464
10503SOL     OW32407   6.886   1.311   6.382
10503SOL    HW132408   6.967   1.367   6.367
10503SOL    HW232409   6.850   1.327   6.474
10504SOL     OW32410   1.194   4.008   5.997
10504SOL    HW132411   1.266   4.000   6.066
10504SOL    HW232412   1.208   3.939   5.926
10505SOL     OW32413   6.435   6.604   0.692
10505SOL    HW132414   6.423   6.702   0.675
10505SOL    HW232415   6.525   6.575   0.660
10506SOL     OW32416   1.479   4.627   5.708
10506SOL    HW132417   1.541   4.578   5.647
10506SOL    HW232418   1.399   4.658   5.655
10507SOL     OW32419   1.063   6.396   6.198
10507SOL    HW132420   0.986   6.341   6.164
10507SOL    HW232421   1.039   6.493   6.192
10508SOL     OW32422   1.308   6.044   0.093
10508SOL    HW132423   1.259   6.079   0.013
10508SOL    HW232424   1.335   5.950   0.077
10509SOL     OW32425   4.675   2.628   3.058
10509SOL    HW132426   4.615   2.612   3.137
10509SOL    HW232427   4.752   2.564   3.061
10510SOL     OW32428   5.574   5.847   3.316
10510SOL    HW132429   5.557   5.794   3.233
10510SOL    HW232430   5.524   5.805   3.393
10511SOL     OW32431   4.461   1.918   1.114
10511SOL    HW132432   4.367   1.951   1.124
10511SOL    HW232433   4.460   1.830   1.066
10512SOL     OW32434   4.205   1.534   6.124
10512SOL    HW132435   4.293   1.580   6.107
10512SOL    HW232436   4.173   1.558   6.216
10513SOL     OW32437   3.476   3.403   0.992
10513SOL    HW132438   3.400   3.338   0.983
10513SOL    HW232439   3.439   3.493   1.015
10514SOL     OW32440   1.167   5.196   1.414
10514SOL    HW132441   1.154   5.284   1.370
10514SOL    HW232442   1.199   5.129   1.347
10515SOL     OW32443   2.125   3.289   4.556
10515SOL    HW132444   2.136   3.354   4.631
10515SOL    HW232445   2.065   3.215   4.586
10516SOL     OW32446   5.468   1.889   1.909
10516SOL    HW132447   5.381   1.856   1.944
10516SOL    HW232448   5.487   1.980   1.947
10517SOL     OW32449   0.391   2.600   1.931
10517SOL    HW132450   0.364   2.660   2.007
10517SOL    HW232451   0.456   2.647   1.872
10518SOL     OW32452   0.543   5.942   2.046
10518SOL    HW132453   0.639   5.968   2.034
10518SOL    HW232454   0.487   5.987   1.977
10519SOL     OW32455   3.074   6.772   1.099
10519SOL    HW132456   2.993   6.715   1.098
10519SOL    HW232457   3.153   6.719   1.130
10520SOL     OW32458   1.881   2.136   6.294
10520SOL    HW132459   1.865   2.235   6.303
10520SOL    HW232460   1.973   2.121   6.259
10521SOL     OW32461   6.537   2.563   3.055
10521SOL    HW132462   6.514   2.658   3.036
10521SOL    HW232463   6.486   2.503   2.994
10522SOL     OW32464   5.320   1.461   3.731
10522SOL    HW132465   5.363   1.464   3.640
10522SOL    HW232466   5.228   1.501   3.725
10523SOL     OW32467   0.730   4.217   1.772
10523SOL    HW132468   0.821   4.257   1.782
10523SOL    HW232469   0.737   4.130   1.723
10524SOL     OW32470   6.652   5.788   4.610
10524SOL    HW132471   6.715   5.849   4.658
10524SOL    HW232472   6.693   5.760   4.523
10525SOL     OW32473   4.821   1.248   4.124
10525SOL    HW132474   4.826   1.340   4.086
10525SOL    HW232475   4.842   1.181   4.052
10526SOL     OW32476   1.584   5.687   6.104
10526SOL    HW132477   1.646   5.710   6.179
10526SOL    HW232478   1.516   5.622   6.137
10527SOL     OW32479   6.893   6.207   5.487
10527SOL    HW132480   6.911   6.109   5.490
10527SOL    HW232481   6.795   6.223   5.497
10528SOL     OW32482   1.767   4.994   4.819
10528SOL    HW132483   1.678   5.039   4.816
10528SOL    HW232484   1.836   5.058   4.852
10529SOL     OW32485   0.258   5.028   1.029
10529SOL    HW132486   0.159   5.039   1.036
10529SOL    HW232487   0.281   4.931   1.029
10530SOL     OW32488   0.227   0.094   0.699
10530SOL    HW132489   0.305   0.087   0.761
10530SOL    HW232490   0.199   0.189   0.691
10531SOL     OW32491   3.760   2.161   5.904
10531SOL    HW132492   3.682   2.207   5.861
10531SOL    HW232493   3.835   2.155   5.838
10532SOL     OW32494   4.589   6.117   5.879
10532SOL    HW132495   4.647   6.173   5.938
10532SOL    HW232496   4.629   6.112   5.788
10533SOL     OW32497   4.019   6.747   3.319
10533SOL    HW132498   4.111   6.714   3.341
10533SOL    HW232499   4.017   6.782   3.226
10534SOL     OW32500   1.511   6.117   4.057
10534SOL    HW132501   1.509   6.018   4.067
10534SOL    HW232502   1.606   6.149   4.064
10535SOL     OW32503   3.890   2.165   2.413
10535SOL    HW132504   3.949   2.230   2.365
10535SOL    HW232505   3.877   2.084   2.357
10536SOL     OW32506   5.732   3.958   5.041
10536SOL    HW132507   5.734   4.050   5.079
10536SOL    HW232508   5.731   3.962   4.941
10537SOL     OW32509   3.872   1.440   3.315
10537SOL    HW132510   3.794   1.397   3.270
10537SOL    HW232511   3.861   1.434   3.415
10538SOL     OW32512   7.016   2.593   3.405
10538SOL    HW132513   0.026   2.548   3.487
10538SOL    HW232514   6.968   2.526   3.348
10539SOL     OW32515   6.810   6.498   3.325
10539SOL    HW132516   6.756   6.484   3.408
10539SOL    HW232517   6.796   6.590   3.291
10540SOL     OW32518   1.354   3.919   6.675
10540SOL    HW132519   1.387   4.007   6.710
10540SOL    HW232520   1.359   3.851   6.748
10541SOL     OW32521   3.470   2.918   5.674
10541SOL    HW132522   3.556   2.879   5.707
10541SOL    HW232523   3.453   2.885   5.581
10542SOL     OW32524   4.501   6.489   2.808
10542SOL    HW132525   4.470   6.582   2.828
10542SOL    HW232526   4.504   6.475   2.709
10543SOL     OW32527   2.278   2.694   3.919
10543SOL    HW132528   2.195   2.693   3.976
10543SOL    HW232529   2.298   2.788   3.892
10544SOL     OW32530   2.850   1.535   2.689
10544SOL    HW132531   2.875   1.585   2.606
10544SOL    HW232532   2.782   1.588   2.740
10545SOL     OW32533   2.072   3.031   2.029
10545SOL    HW132534   2.100   2.986   2.114
10545SOL    HW232535   1.980   3.070   2.040
10546SOL     OW32536   2.639   6.903   6.252
10546SOL    HW132537   2.707   6.977   6.255
10546SOL    HW232538   2.626   6.866   6.344
10547SOL     OW32539   3.412   6.505   5.958
10547SOL    HW132540   3.384   6.451   6.037
10547SOL    HW232541   3.342   6.573   5.937
10548SOL     OW32542   1.260   6.027   3.210
10548SOL    HW132543   1.352   6.006   3.175
10548SOL    HW232544   1.257   6.124   3.235
10549SOL     OW32545   6.942   0.853   2.717
10549SOL    HW132546   6.965   0.765   2.758
10549SOL    HW232547   6.851   0.881   2.748
10550SOL     OW32548   5.136   5.761   3.200
10550SOL    HW132549   5.157   5.668   3.233
10550SOL    HW232550   5.046   5.788   3.233
10551SOL     OW32551   4.035   0.807   4.796
10551SOL    HW132552   3.943   0.794   4.833
10551SOL    HW232553   4.073   0.719   4.770
10552SOL     OW32554   3.115   0.157   3.380
10552SOL    HW132555   3.017   0.173   3.390
10552SOL    HW232556   3.136   0.065   3.414
10553SOL     OW32557   5.801   5.799   1.303
10553SOL    HW132558   5.835   5.789   1.397
10553SOL    HW232559   5.708   5.763   1.297
10554SOL     OW32560   6.195   6.372   2.284
10554SOL    HW132561   6.193   6.419   2.195
10554SOL    HW232562   6.205   6.440   2.357
10555SOL     OW32563   3.298   3.083   1.736
10555SOL    HW132564   3.374   3.106   1.676
10555SOL    HW232565   3.240   3.164   1.749
10556SOL     OW32566   2.378   1.806   1.749
10556SOL    HW132567   2.349   1.713   1.771
10556SOL    HW232568   2.468   1.803   1.706
10557SOL     OW32569   1.909   4.101   2.671
10557SOL    HW132570   1.818   4.140   2.681
10557SOL    HW232571   1.976   4.175   2.669
10558SOL     OW32572   4.017   4.824   4.626
10558SOL    HW132573   3.976   4.734   4.637
10558SOL    HW232574   4.024   4.846   4.528
10559SOL     OW32575   3.461   6.097   1.858
10559SOL    HW132576   3.550   6.078   1.900
10559SOL    HW232577   3.469   6.091   1.758
10560SOL     OW32578   6.048   0.101   3.638
10560SOL    HW132579   5.982   0.168   3.672
10560SOL    HW232580   6.103   0.066   3.714
10561SOL     OW32581   0.665   5.170   6.352
10561SOL    HW132582   0.659   5.251   6.410
10561SOL    HW232583   0.663   5.199   6.256
10562SOL     OW32584   4.121   5.976   2.516
10562SOL    HW132585   4.124   6.029   2.431
10562SOL    HW232586   4.202   5.919   2.523
10563SOL     OW32587   1.447   6.469   2.262
10563SOL    HW132588   1.364   6.444   2.213
10563SOL    HW232589   1.512   6.393   2.258
10564SOL     OW32590   5.676   4.351   3.182
10564SOL    HW132591   5.619   4.335   3.102
10564SOL    HW232592   5.669   4.273   3.244
10565SOL     OW32593   0.145   1.197   5.244
10565SOL    HW132594   0.142   1.184   5.343
10565SOL    HW232595   0.176   1.290   5.224
10566SOL     OW32596   3.468   1.973   1.055
10566SOL    HW132597   3.382   1.936   1.090
10566SOL    HW232598   3.455   2.007   0.962
10567SOL     OW32599   2.460   2.152   6.320
10567SOL    HW132600   2.467   2.185   6.414
10567SOL    HW232601   2.501   2.218   6.258
10568SOL     OW32602   4.941   2.283   6.087
10568SOL    HW132603   4.893   2.213   6.034
10568SOL    HW232604   4.999   2.337   6.026
10569SOL     OW32605   5.671   0.576   0.714
10569SOL    HW132606   5.631   0.590   0.623
10569SOL    HW232607   5.727   0.493   0.713
10570SOL     OW32608   1.630   3.805   3.175
10570SOL    HW132609   1.545   3.809   3.122
10570SOL    HW232610   1.686   3.728   3.143
10571SOL     OW32611   6.931   4.501   5.847
10571SOL    HW132612   6.919   4.592   5.886
10571SOL    HW232613   7.022   4.467   5.871
10572SOL     OW32614   6.405   4.391   0.739
10572SOL    HW132615   6.421   4.475   0.792
10572SOL    HW232616   6.401   4.313   0.801
10573SOL     OW32617   0.001   1.947   3.560
10573SOL    HW132618   6.949   1.887   3.539
10573SOL    HW232619   0.026   1.999   3.479
10574SOL     OW32620   5.991   2.262   2.835
10574SOL    HW132621   5.974   2.163   2.831
10574SOL    HW232622   5.975   2.302   2.744
10575SOL     OW32623   5.450   6.844   2.804
10575SOL    HW132624   5.482   6.888   2.721
10575SOL    HW232625   5.516   6.774   2.833
10576SOL     OW32626   1.079   3.448   4.653
10576SOL    HW132627   1.163   3.412   4.613
10576SOL    HW232628   1.002   3.430   4.592
10577SOL     OW32629   4.140   4.390   0.489
10577SOL    HW132630   4.047   4.424   0.473
10577SOL    HW232631   4.192   4.396   0.404
10578SOL     OW32632   0.724   3.436   2.283
10578SOL    HW132633   0.666   3.435   2.201
10578SOL    HW232634   0.819   3.453   2.256
10579SOL     OW32635   0.487   3.215   0.194
10579SOL    HW132636   0.485   3.314   0.206
10579SOL    HW232637   0.574   3.187   0.154
10580SOL     OW32638   5.911   6.725   6.810
10580SOL    HW132639   5.843   6.769   6.752
10580SOL    HW232640   5.989   6.787   6.823
10581SOL     OW32641   4.471   0.559   3.525
10581SOL    HW132642   4.481   0.651   3.487
10581SOL    HW232643   4.390   0.555   3.582
10582SOL     OW32644   6.556   3.496   6.604
10582SOL    HW132645   6.565   3.519   6.701
10582SOL    HW232646   6.460   3.473   6.585
10583SOL     OW32647   3.926   2.080   5.695
10583SOL    HW132648   3.977   1.993   5.692
10583SOL    HW232649   3.864   2.085   5.617
10584SOL     OW32650   0.578   0.183   3.258
10584SOL    HW132651   0.542   0.275   3.270
10584SOL    HW232652   0.649   0.166   3.326
10585SOL     OW32653   1.447   1.105   5.405
10585SOL    HW132654   1.469   1.073   5.497
10585SOL    HW232655   1.526   1.094   5.345
10586SOL     OW32656   4.451   4.046   5.682
10586SOL    HW132657   4.467   3.957   5.724
10586SOL    HW232658   4.538   4.091   5.664
10587SOL     OW32659   2.145   4.886   5.333
10587SOL    HW132660   2.222   4.842   5.286
10587SOL    HW232661   2.106   4.956   5.273
10588SOL     OW32662   1.760   4.059   3.644
10588SOL    HW132663   1.748   3.977   3.700
10588SOL    HW232664   1.704   4.051   3.561
10589SOL     OW32665   6.448   6.984   3.773
10589SOL    HW132666   6.500   0.033   3.817
10589SOL    HW232667   6.350   7.000   3.787
10590SOL     OW32668   0.810   5.056   2.690
10590SOL    HW132669   0.845   4.972   2.733
10590SOL    HW232670   0.796   5.040   2.593
10591SOL     OW32671   6.994   3.576   2.295
10591SOL    HW132672   7.023   3.586   2.390
10591SOL    HW232673   0.044   3.603   2.234
10592SOL     OW32674   0.470   2.603   4.428
10592SOL    HW132675   0.446   2.527   4.368
10592SOL    HW232676   0.445   2.689   4.384
10593SOL     OW32677   3.027   5.976   3.456
10593SOL    HW132678   3.072   5.898   3.500
10593SOL    HW232679   3.077   6.060   3.477
10594SOL     OW32680   3.637   5.764   4.014
10594SOL    HW132681   3.623   5.679   4.065
10594SOL    HW232682   3.586   5.760   3.928
10595SOL     OW32683   4.779   6.661   0.976
10595SOL    HW132684   4.701   6.714   0.943
10595SOL    HW232685   4.746   6.577   1.019
10596SOL     OW32686   5.095   4.069   0.550
10596SOL    HW132687   5.128   4.103   0.638
10596SOL    HW232688   5.051   3.981   0.563
10597SOL     OW32689   2.167   0.068   5.019
10597SOL    HW132690   2.200   0.102   5.107
10597SOL    HW232691   2.098   7.022   5.035
10598SOL     OW32692   3.035   0.814   0.242
10598SOL    HW132693   2.984   0.767   0.314
10598SOL    HW232694   3.000   0.908   0.233
10599SOL     OW32695   0.922   2.504   0.609
10599SOL    HW132696   1.016   2.469   0.616
10599SOL    HW232697   0.871   2.478   0.692
10600SOL     OW32698   4.156   0.825   1.881
10600SOL    HW132699   4.223   0.869   1.822
10600SOL    HW232700   4.073   0.806   1.829
10601SOL     OW32701   2.009   1.454   4.588
10601SOL    HW132702   1.922   1.412   4.614
10601SOL    HW232703   2.062   1.388   4.535
10602SOL     OW32704   6.299   6.764   1.386
10602SOL    HW132705   6.366   6.833   1.357
10602SOL    HW232706   6.320   6.677   1.341
10603SOL     OW32707   6.144   0.459   2.868
10603SOL    HW132708   6.193   0.408   2.798
10603SOL    HW232709   6.139   0.405   2.952
10604SOL     OW32710   4.543   1.713   5.071
10604SOL    HW132711   4.568   1.682   5.163
10604SOL    HW232712   4.444   1.726   5.066
10605SOL     OW32713   3.591   1.851   1.283
10605SOL    HW132714   3.576   1.923   1.351
10605SOL    HW232715   3.561   1.883   1.193
10606SOL     OW32716   6.555   1.379   0.222
10606SOL    HW132717   6.474   1.356   0.168
10606SOL    HW232718   6.548   1.337   0.313
10607SOL     OW32719   3.316   4.387   0.791
10607SOL    HW132720   3.288   4.452   0.862
10607SOL    HW232721   3.403   4.344   0.818
10608SOL     OW32722   5.458   3.799   3.603
10608SOL    HW132723   5.504   3.743   3.671
10608SOL    HW232724   5.381   3.748   3.565
10609SOL     OW32725   5.707   6.992   6.806
10609SOL    HW132726   5.693   0.010   6.717
10609SOL    HW232727   5.636   6.924   6.824
10610SOL     OW32728   0.676   1.209   3.122
10610SOL    HW132729   0.744   1.166   3.063
10610SOL    HW232730   0.613   1.138   3.156
10611SOL     OW32731   4.379   4.966   5.196
10611SOL    HW132732   4.376   4.973   5.097
10611SOL    HW232733   4.288   4.944   5.231
10612SOL     OW32734   6.304   2.470   3.416
10612SOL    HW132735   6.265   2.384   3.447
10612SOL    HW232736   6.393   2.451   3.372
10613SOL     OW32737   4.819   5.566   4.460
10613SOL    HW132738   4.843   5.486   4.405
10613SOL    HW232739   4.831   5.546   4.557
10614SOL     OW32740   3.778   2.113   6.521
10614SOL    HW132741   3.864   2.099   6.472
10614SOL    HW232742   3.795   2.163   6.606
10615SOL     OW32743   2.840   2.652   5.355
10615SOL    HW132744   2.889   2.738   5.366
10615SOL    HW232745   2.754   2.668   5.307
10616SOL     OW32746   1.382   5.764   0.383
10616SOL    HW132747   1.356   5.679   0.428
10616SOL    HW232748   1.480   5.780   0.395
10617SOL     OW32749   1.421   3.055   1.015
10617SOL    HW132750   1.339   3.107   0.991
10617SOL    HW232751   1.501   3.099   0.975
10618SOL     OW32752   0.966   5.339   4.241
10618SOL    HW132753   1.036   5.411   4.244
10618SOL    HW232754   0.968   5.288   4.327
10619SOL     OW32755   0.643   2.939   1.559
10619SOL    HW132756   0.639   2.843   1.532
10619SOL    HW232757   0.554   2.982   1.539
10620SOL     OW32758   3.334   1.182   5.837
10620SOL    HW132759   3.334   1.085   5.861
10620SOL    HW232760   3.413   1.227   5.879
10621SOL     OW32761   0.925   4.167   3.104
10621SOL    HW132762   0.939   4.265   3.114
10621SOL    HW232763   1.012   4.122   3.087
10622SOL     OW32764   4.310   2.253   6.714
10622SOL    HW132765   4.300   2.215   6.806
10622SOL    HW232766   4.235   2.222   6.656
10623SOL     OW32767   5.135   5.414   5.625
10623SOL    HW132768   5.066   5.465   5.676
10623SOL    HW232769   5.094   5.376   5.542
10624SOL     OW32770   0.567   1.894   6.503
10624SOL    HW132771   0.570   1.981   6.553
10624SOL    HW232772   0.657   1.875   6.464
10625SOL     OW32773   6.755   5.650   1.005
10625SOL    HW132774   6.740   5.561   0.963
10625SOL    HW232775   6.849   5.656   1.038
10626SOL     OW32776   6.021   2.864   1.983
10626SOL    HW132777   6.109   2.827   2.015
10626SOL    HW232778   6.010   2.957   2.018
10627SOL     OW32779   5.703   4.459   5.276
10627SOL    HW132780   5.621   4.402   5.285
10627SOL    HW232781   5.725   4.470   5.180
10628SOL     OW32782   3.048   6.472   0.547
10628SOL    HW132783   3.137   6.491   0.587
10628SOL    HW232784   3.029   6.538   0.474
10629SOL     OW32785   4.690   4.736   3.980
10629SOL    HW132786   4.678   4.801   4.055
10629SOL    HW232787   4.616   4.670   3.981
10630SOL     OW32788   4.041   1.074   1.316
10630SOL    HW132789   3.953   1.051   1.276
10630SOL    HW232790   4.032   1.083   1.415
10631SOL     OW32791   3.318   5.516   1.986
10631SOL    HW132792   3.414   5.507   2.014
10631SOL    HW232793   3.304   5.467   1.900
10632SOL     OW32794   5.740   6.661   4.533
10632SOL    HW132795   5.769   6.733   4.470
10632SOL    HW232796   5.658   6.616   4.496
10633SOL     OW32797   2.475   3.377   0.191
10633SOL    HW132798   2.565   3.382   0.236
10633SOL    HW232799   2.485   3.329   0.104
10634SOL     OW32800   0.403   4.463   6.734
10634SOL    HW132801   0.454   4.448   6.818
10634SOL    HW232802   0.356   4.551   6.739
10635SOL     OW32803   3.022   5.554   6.550
10635SOL    HW132804   3.051   5.613   6.475
10635SOL    HW232805   3.047   5.459   6.529
10636SOL     OW32806   6.205   3.024   0.466
10636SOL    HW132807   6.169   3.047   0.556
10636SOL    HW232808   6.221   2.926   0.460
10637SOL     OW32809   2.499   0.545   6.315
10637SOL    HW132810   2.576   0.483   6.301
10637SOL    HW232811   2.532   0.629   6.359
10638SOL     OW32812   4.686   5.243   0.862
10638SOL    HW132813   4.722   5.170   0.922
10638SOL    HW232814   4.630   5.305   0.916
10639SOL     OW32815   6.699   5.012   1.064
10639SOL    HW132816   6.621   5.069   1.091
10639SOL    HW232817   6.699   4.929   1.120
10640SOL     OW32818   4.095   6.388   4.239
10640SOL    HW132819   4.169   6.414   4.176
10640SOL    HW232820   4.064   6.468   4.289
10641SOL     OW32821   1.357   1.348   3.055
10641SOL    HW132822   1.359   1.392   3.145
10641SOL    HW232823   1.384   1.414   2.985
10642SOL     OW32824   6.788   2.368   6.317
10642SOL    HW132825   6.859   2.428   6.354
10642SOL    HW232826   6.728   2.420   6.256
10643SOL     OW32827   2.471   5.134   5.740
10643SOL    HW132828   2.503   5.222   5.776
10643SOL    HW232829   2.461   5.141   5.640
10644SOL     OW32830   0.235   3.255   3.119
10644SOL    HW132831   0.169   3.204   3.174
10644SOL    HW232832   0.210   3.248   3.022
10645SOL     OW32833   2.405   2.615   2.924
10645SOL    HW132834   2.351   2.605   3.008
10645SOL    HW232835   2.491   2.564   2.934
10646SOL     OW32836   5.022   0.617   3.961
10646SOL    HW132837   5.061   0.525   3.961
10646SOL    HW232838   5.079   0.677   4.017
10647SOL     OW32839   3.866   5.352   5.094
10647SOL    HW132840   3.851   5.414   5.017
10647SOL    HW232841   3.956   5.371   5.135
10648SOL     OW32842   4.818   4.339   5.346
10648SOL    HW132843   4.887   4.411   5.354
10648SOL    HW232844   4.736   4.367   5.396
10649SOL     OW32845   6.323   3.076   2.937
10649SOL    HW132846   6.299   3.107   2.845
10649SOL    HW232847   6.366   3.151   2.987
10650SOL     OW32848   0.544   0.087   2.490
10650SOL    HW132849   0.493   0.010   2.453
10650SOL    HW232850   0.486   0.140   2.551
10651SOL     OW32851   2.571   5.381   5.881
10651SOL    HW132852   2.631   5.443   5.931
10651SOL    HW232853   2.519   5.433   5.813
10652SOL     OW32854   1.983   0.457   6.756
10652SOL    HW132855   1.889   0.482   6.779
10652SOL    HW232856   2.042   0.538   6.761
10653SOL     OW32857   5.370   5.647   4.598
10653SOL    HW132858   5.466   5.623   4.586
10653SOL    HW232859   5.359   5.745   4.583
10654SOL     OW32860   6.734   1.955   3.774
10654SOL    HW132861   6.740   2.023   3.701
10654SOL    HW232862   6.681   1.877   3.743
10655SOL     OW32863   6.953   4.870   0.809
10655SOL    HW132864   0.008   4.907   0.761
10655SOL    HW232865   6.958   4.894   0.906
10656SOL     OW32866   5.409   1.735   5.303
10656SOL    HW132867   5.407   1.827   5.265
10656SOL    HW232868   5.493   1.722   5.355
10657SOL     OW32869   5.209   0.417   5.257
10657SOL    HW132870   5.142   0.489   5.241
10657SOL    HW232871   5.195   0.342   5.192
10658SOL     OW32872   0.878   2.142   5.462
10658SOL    HW132873   0.908   2.127   5.556
10658SOL    HW232874   0.784   2.175   5.462
10659SOL     OW32875   0.097   5.532   0.808
10659SOL    HW132876   0.027   5.533   0.738
10659SOL    HW232877   0.175   5.478   0.776
10660SOL     OW32878   5.931   3.291   6.326
10660SOL    HW132879   5.847   3.345   6.315
10660SOL    HW232880   5.954   3.284   6.423
10661SOL     OW32881   3.345   4.844   5.198
10661SOL    HW132882   3.254   4.806   5.181
10661SOL    HW232883   3.360   4.923   5.138
10662SOL     OW32884   2.933   1.295   0.805
10662SOL    HW132885   2.863   1.363   0.782
10662SOL    HW232886   2.914   1.255   0.894
10663SOL     OW32887   0.484   2.514   3.483
10663SOL    HW132888   0.555   2.523   3.413
10663SOL    HW232889   0.456   2.419   3.490
10664SOL     OW32890   1.257   6.039   4.584
10664SOL    HW132891   1.310   6.059   4.665
10664SOL    HW232892   1.305   6.071   4.503
10665SOL     OW32893   3.135   3.582   0.518
10665SOL    HW132894   3.224   3.551   0.483
10665SOL    HW232895   3.150   3.651   0.589
10666SOL     OW32896   4.087   3.717   1.123
10666SOL    HW132897   4.031   3.635   1.115
10666SOL    HW232898   4.181   3.691   1.148
10667SOL     OW32899   5.586   2.921   4.670
10667SOL    HW132900   5.520   2.848   4.656
10667SOL    HW232901   5.568   2.965   4.758
10668SOL     OW32902   3.398   2.804   6.000
10668SOL    HW132903   3.304   2.808   5.964
10668SOL    HW232904   3.462   2.792   5.924
10669SOL     OW32905   6.178   1.885   1.179
10669SOL    HW132906   6.239   1.962   1.197
10669SOL    HW232907   6.161   1.836   1.264
10670SOL     OW32908   4.844   3.990   4.211
10670SOL    HW132909   4.765   4.052   4.205
10670SOL    HW232910   4.869   3.978   4.308
10671SOL     OW32911   1.582   3.175   4.775
10671SOL    HW132912   1.572   3.109   4.850
10671SOL    HW232913   1.648   3.246   4.802
10672SOL     OW32914   6.181   3.879   1.818
10672SOL    HW132915   6.092   3.838   1.796
10672SOL    HW232916   6.168   3.952   1.885
10673SOL     OW32917   2.596   1.451   0.984
10673SOL    HW132918   2.528   1.443   0.912
10673SOL    HW232919   2.638   1.362   1.001
10674SOL     OW32920   3.793   3.472   4.382
10674SOL    HW132921   3.701   3.451   4.414
10674SOL    HW232922   3.797   3.462   4.283
10675SOL     OW32923   3.265   6.866   5.335
10675SOL    HW132924   3.206   6.946   5.348
10675SOL    HW232925   3.354   6.895   5.303
10676SOL     OW32926   1.265   0.339   5.702
10676SOL    HW132927   1.215   0.420   5.733
10676SOL    HW232928   1.307   0.359   5.613
10677SOL     OW32929   0.334   2.087   6.736
10677SOL    HW132930   0.364   2.065   6.828
10677SOL    HW232931   0.412   2.116   6.681
10678SOL     OW32932   4.107   5.355   2.567
10678SOL    HW132933   4.154   5.286   2.622
10678SOL    HW232934   4.010   5.333   2.560
10679SOL     OW32935   4.857   4.246   0.508
10679SOL    HW132936   4.869   4.317   0.439
10679SOL    HW232937   4.946   4.206   0.530
10680SOL     OW32938   4.208   1.453   5.770
10680SOL    HW132939   4.295   1.501   5.785
10680SOL    HW232940   4.171   1.479   5.681
10681SOL     OW32941   2.391   3.178   5.351
10681SOL    HW132942   2.316   3.198   5.288
10681SOL    HW232943   2.462   3.127   5.303
10682SOL     OW32944   5.175   4.090   6.912
10682SOL    HW132945   5.229   4.022   6.862
10682SOL    HW232946   5.079   4.081   6.887
10683SOL     OW32947   2.893   0.508   3.607
10683SOL    HW132948   2.820   0.575   3.590
10683SOL    HW232949   2.857   0.416   3.598
10684SOL     OW32950   4.617   4.657   1.863
10684SOL    HW132951   4.624   4.736   1.803
10684SOL    HW232952   4.530   4.661   1.913
10685SOL     OW32953   1.195   6.571   2.424
10685SOL    HW132954   1.156   6.634   2.491
10685SOL    HW232955   1.194   6.478   2.461
10686SOL     OW32956   2.579   0.823   6.753
10686SOL    HW132957   2.537   0.905   6.791
10686SOL    HW232958   2.678   0.832   6.756
10687SOL     OW32959   0.965   3.376   3.672
10687SOL    HW132960   1.063   3.390   3.684
10687SOL    HW232961   0.943   3.377   3.575
10688SOL     OW32962   5.050   0.917   3.132
10688SOL    HW132963   4.953   0.913   3.156
10688SOL    HW232964   5.076   1.012   3.112
10689SOL     OW32965   0.874   6.913   2.144
10689SOL    HW132966   0.828   6.830   2.174
10689SOL    HW232967   0.949   6.934   2.207
10690SOL     OW32968   1.139   6.420   3.947
10690SOL    HW132969   1.103   6.389   4.036
10690SOL    HW232970   1.073   6.399   3.875
10691SOL     OW32971   3.747   6.918   2.330
10691SOL    HW132972   3.727   6.978   2.252
10691SOL    HW232973   3.672   6.853   2.343
10692SOL     OW32974   2.664   1.723   4.628
10692SOL    HW132975   2.639   1.770   4.544
10692SOL    HW232976   2.583   1.711   4.686
10693SOL     OW32977   1.388   5.777   0.099
10693SOL    HW132978   1.387   5.759   0.197
10693SOL    HW232979   1.330   5.710   0.052
10694SOL     OW32980   5.074   0.719   5.378
10694SOL    HW132981   5.131   0.691   5.456
10694SOL    HW232982   4.978   0.710   5.403
10695SOL     OW32983   5.503   4.563   2.004
10695SOL    HW132984   5.595   4.559   1.965
10695SOL    HW232985   5.442   4.501   1.955
10696SOL     OW32986   6.360   4.644   4.055
10696SOL    HW132987   6.293   4.674   4.123
10696SOL    HW232988   6.435   4.710   4.051
10697SOL     OW32989   2.506   5.185   5.103
10697SOL    HW132990   2.431   5.169   5.039
10697SOL    HW232991   2.550   5.098   5.125
10698SOL     OW32992   3.269   3.560   0.109
10698SOL    HW132993   3.268   3.572   0.010
10698SOL    HW232994   3.356   3.519   0.137
10699SOL     OW32995   3.827   2.762   0.797
10699SOL    HW132996   3.918   2.720   0.797
10699SOL    HW232997   3.783   2.747   0.886
10700SOL     OW32998   4.587   0.833   1.635
10700SOL    HW132999   4.595   0.741   1.673
10700SOL    HW233000   4.678   0.866   1.608
10701SOL     OW33001   3.270   6.825   6.546
10701SOL    HW133002   3.328   6.783   6.615
10701SOL    HW233003   3.318   6.903   6.505
10702SOL     OW33004   5.789   2.399   1.919
10702SOL    HW133005   5.803   2.352   1.832
10702SOL    HW233006   5.786   2.498   1.902
10703SOL     OW33007   0.448   2.527   5.543
10703SOL    HW133008   0.370   2.583   5.573
10703SOL    HW233009   0.474   2.555   5.450
10704SOL     OW33010   4.694   6.873   2.127
10704SOL    HW133011   4.701   6.803   2.199
10704SOL    HW233012   4.743   6.955   2.155
10705SOL     OW33013   5.251   3.556   0.915
10705SOL    HW133014   5.265   3.462   0.883
10705SOL    HW233015   5.278   3.562   1.011
10706SOL     OW33016   3.673   0.698   1.160
10706SOL    HW133017   3.597   0.761   1.147
10706SOL    HW233018   3.741   0.739   1.221
10707SOL     OW33019   5.223   0.123   3.741
10707SOL    HW133020   5.136   0.169   3.753
10707SOL    HW233021   5.282   0.178   3.681
10708SOL     OW33022   4.230   1.398   2.066
10708SOL    HW133023   4.197   1.469   2.128
10708SOL    HW233024   4.313   1.357   2.104
10709SOL     OW33025   5.813   4.742   3.157
10709SOL    HW133026   5.863   4.827   3.141
10709SOL    HW233027   5.758   4.720   3.077
10710SOL     OW33028   4.579   1.988   3.890
10710SOL    HW133029   4.663   1.992   3.836
10710SOL    HW233030   4.599   1.947   3.979
10711SOL     OW33031   3.356   0.007   2.416
10711SOL    HW133032   3.348   0.067   2.494
10711SOL    HW233033   3.355   0.061   2.331
10712SOL     OW33034   5.667   7.010   3.187
10712SOL    HW133035   5.628   0.077   3.188
10712SOL    HW233036   5.594   6.942   3.194
10713SOL     OW33037   1.861   4.015   1.724
10713SOL    HW133038   1.791   4.080   1.753
10713SOL    HW233039   1.855   4.002   1.625
10714SOL     OW33040   2.829   3.845   5.053
10714SOL    HW133041   2.898   3.914   5.073
10714SOL    HW233042   2.757   3.885   4.997
10715SOL     OW33043   5.829   0.808   2.046
10715SOL    HW133044   5.833   0.787   1.948
10715SOL    HW233045   5.850   0.725   2.098
10716SOL     OW33046   4.929   1.285   3.270
10716SOL    HW133047   5.003   1.317   3.331
10716SOL    HW233048   4.862   1.358   3.259
10717SOL     OW33049   2.282   2.513   6.324
10717SOL    HW133050   2.311   2.604   6.354
10717SOL    HW233051   2.331   2.489   6.240
10718SOL     OW33052   1.926   5.454   5.195
10718SOL    HW133053   1.860   5.477   5.267
10718SOL    HW233054   1.997   5.524   5.191
10719SOL     OW33055   6.917   5.782   4.234
10719SOL    HW133056   6.934   5.751   4.328
10719SOL    HW233057   6.975   5.860   4.213
10720SOL     OW33058   6.905   4.933   3.464
10720SOL    HW133059   6.984   4.916   3.405
10720SOL    HW233060   6.905   4.865   3.538
10721SOL     OW33061   5.378   3.266   5.549
10721SOL    HW133062   5.307   3.248   5.617
10721SOL    HW233063   5.467   3.245   5.587
10722SOL     OW33064   0.000   4.170   5.822
10722SOL    HW133065   6.976   4.124   5.747
10722SOL    HW233066   0.012   4.266   5.799
10723SOL     OW33067   5.970   6.933   0.892
10723SOL    HW133068   5.938   6.981   0.973
10723SOL    HW233069   6.034   6.861   0.919
10724SOL     OW33070   6.582   6.378   0.277
10724SOL    HW133071   6.579   6.340   0.369
10724SOL    HW233072   6.518   6.455   0.270
10725SOL     OW33073   2.006   5.951   5.422
10725SOL    HW133074   1.960   5.872   5.381
10725SOL    HW233075   1.941   6.001   5.479
10726SOL     OW33076   4.933   1.665   4.236
10726SOL    HW133077   4.851   1.722   4.241
10726SOL    HW233078   4.913   1.576   4.277
10727SOL     OW33079   1.901   6.655   5.652
10727SOL    HW133080   1.862   6.570   5.687
10727SOL    HW233081   1.981   6.634   5.596
10728SOL     OW33082   5.141   6.480   0.626
10728SOL    HW133083   5.112   6.532   0.546
10728SOL    HW233084   5.108   6.386   0.619
10729SOL     OW33085   6.619   2.858   1.351
10729SOL    HW133086   6.606   2.953   1.321
10729SOL    HW233087   6.573   2.797   1.287
10730SOL     OW33088   4.541   0.165   2.597
10730SOL    HW133089   4.521   0.241   2.660
10730SOL    HW233090   4.575   0.202   2.511
10731SOL     OW33091   4.586   0.265   1.114
10731SOL    HW133092   4.584   0.196   1.186
10731SOL    HW233093   4.675   0.310   1.112
10732SOL     OW33094   0.634   4.320   5.541
10732SOL    HW133095   0.547   4.370   5.538
10732SOL    HW233096   0.631   4.243   5.477
10733SOL     OW33097   6.584   2.553   6.485
10733SOL    HW133098   6.661   2.525   6.542
10733SOL    HW233099   6.508   2.488   6.498
10734SOL     OW33100   0.133   2.532   1.888
10734SOL    HW133101   0.223   2.572   1.906
10734SOL    HW233102   0.063   2.602   1.901
10735SOL     OW33103   0.066   4.328   2.971
10735SOL    HW133104   7.023   4.364   3.036
10735SOL    HW233105   0.133   4.273   3.021
10736SOL     OW33106   2.623   0.889   3.444
10736SOL    HW133107   2.718   0.861   3.460
10736SOL    HW233108   2.588   0.935   3.525
10737SOL     OW33109   6.783   2.289   1.672
10737SOL    HW133110   6.755   2.283   1.576
10737SOL    HW233111   6.882   2.295   1.678
10738SOL     OW33112   4.247   0.010   3.547
10738SOL    HW133113   4.216   0.084   3.606
10738SOL    HW233114   4.216   0.026   3.454
10739SOL     OW33115   2.004   1.697   1.791
10739SOL    HW133116   2.011   1.740   1.700
10739SOL    HW233117   2.095   1.684   1.828
10740SOL     OW33118   4.915   5.067   3.219
10740SOL    HW133119   4.828   5.087   3.174
10740SOL    HW233120   4.969   5.005   3.162
10741SOL     OW33121   3.982   0.821   3.370
10741SOL    HW133122   3.966   0.880   3.449
10741SOL    HW233123   3.952   0.869   3.287
10742SOL     OW33124   6.702   5.428   0.885
10742SOL    HW133125   6.770   5.354   0.890
10742SOL    HW233126   6.679   5.446   0.790
10743SOL     OW33127   2.561   1.805   5.002
10743SOL    HW133128   2.632   1.782   5.068
10743SOL    HW233129   2.578   1.897   4.966
10744SOL     OW33130   4.435   1.675   0.882
10744SOL    HW133131   4.426   1.658   0.784
10744SOL    HW233132   4.427   1.588   0.931
10745SOL     OW33133   6.639   5.768   6.012
10745SOL    HW133134   6.704   5.720   5.953
10745SOL    HW233135   6.558   5.712   6.027
10746SOL     OW33136   0.537   4.059   5.750
10746SOL    HW133137   0.531   4.068   5.849
10746SOL    HW233138   0.463   4.112   5.707
10747SOL     OW33139   3.274   1.683   4.406
10747SOL    HW133140   3.179   1.692   4.437
10747SOL    HW233141   3.329   1.643   4.479
10748SOL     OW33142   5.216   1.357   2.697
10748SOL    HW133143   5.141   1.391   2.640
10748SOL    HW233144   5.180   1.292   2.764
10749SOL     OW33145   2.196   6.651   6.296
10749SOL    HW133146   2.124   6.589   6.327
10749SOL    HW233147   2.163   6.745   6.300
10750SOL     OW33148   4.112   0.599   6.657
10750SOL    HW133149   4.015   0.591   6.635
10750SOL    HW233150   4.150   0.681   6.615
10751SOL     OW33151   2.367   4.897   4.075
10751SOL    HW133152   2.347   4.984   4.120
10751SOL    HW233153   2.458   4.866   4.101
10752SOL     OW33154   4.681   4.993   3.642
10752SOL    HW133155   4.718   4.926   3.577
10752SOL    HW233156   4.637   4.944   3.718
10753SOL     OW33157   6.623   3.423   4.549
10753SOL    HW133158   6.567   3.342   4.532
10753SOL    HW233159   6.564   3.502   4.566
10754SOL     OW33160   1.683   0.138   2.563
10754SOL    HW133161   1.719   0.231   2.568
10754SOL    HW233162   1.755   0.072   2.587
10755SOL     OW33163   6.751   5.927   2.160
10755SOL    HW133164   6.786   5.924   2.254
10755SOL    HW233165   6.757   5.836   2.119
10756SOL     OW33166   0.233   0.102   5.113
10756SOL    HW133167   0.255   0.157   5.032
10756SOL    HW233168   0.313   0.048   5.139
10757SOL     OW33169   2.837   3.598   1.083
10757SOL    HW133170   2.854   3.681   1.136
10757SOL    HW233171   2.845   3.518   1.143
10758SOL     OW33172   0.513   5.491   4.285
10758SOL    HW133173   0.420   5.476   4.251
10758SOL    HW233174   0.573   5.517   4.209
10759SOL     OW33175   0.166   2.777   6.687
10759SOL    HW133176   0.086   2.717   6.677
10759SOL    HW233177   0.149   2.844   6.759
10760SOL     OW33178   6.180   1.020   3.942
10760SOL    HW133179   6.205   0.935   3.988
10760SOL    HW233180   6.253   1.045   3.878
10761SOL     OW33181   2.693   4.941   5.487
10761SOL    HW133182   2.748   4.861   5.462
10761SOL    HW233183   2.636   4.918   5.566
10762SOL     OW33184   3.675   0.560   4.658
10762SOL    HW133185   3.586   0.604   4.651
10762SOL    HW233186   3.721   0.592   4.741
10763SOL     OW33187   4.259   6.376   3.557
10763SOL    HW133188   4.327   6.309   3.587
10763SOL    HW233189   4.217   6.419   3.637
10764SOL     OW33190   5.711   0.396   4.664
10764SOL    HW133191   5.807   0.376   4.646
10764SOL    HW233192   5.699   0.421   4.760
10765SOL     OW33193   5.361   3.621   1.159
10765SOL    HW133194   5.454   3.658   1.154
10765SOL    HW233195   5.366   3.523   1.177
10766SOL     OW33196   4.168   2.946   1.318
10766SOL    HW133197   4.154   2.856   1.360
10766SOL    HW233198   4.079   2.988   1.300
10767SOL     OW33199   3.636   1.348   1.991
10767SOL    HW133200   3.586   1.294   2.059
10767SOL    HW233201   3.572   1.406   1.940
10768SOL     OW33202   6.545   4.715   0.649
10768SOL    HW133203   6.518   4.805   0.682
10768SOL    HW233204   6.574   4.723   0.553
10769SOL     OW33205   1.606   4.029   5.907
10769SOL    HW133206   1.573   3.935   5.919
10769SOL    HW233207   1.642   4.040   5.814
10770SOL     OW33208   4.209   5.975   3.686
10770SOL    HW133209   4.269   5.993   3.608
10770SOL    HW233210   4.163   6.060   3.712
10771SOL     OW33211   2.615   1.624   3.086
10771SOL    HW133212   2.525   1.640   3.045
10771SOL    HW233213   2.617   1.533   3.127
10772SOL     OW33214   5.662   5.207   3.859
10772SOL    HW133215   5.576   5.248   3.890
10772SOL    HW233216   5.709   5.270   3.797
10773SOL     OW33217   5.278   4.424   3.465
10773SOL    HW133218   5.357   4.458   3.415
10773SOL    HW233219   5.290   4.442   3.563
10774SOL     OW33220   1.050   0.520   3.573
10774SOL    HW133221   0.964   0.472   3.591
10774SOL    HW233222   1.089   0.486   3.488
10775SOL     OW33223   0.423   3.645   2.134
10775SOL    HW133224   0.450   3.672   2.226
10775SOL    HW233225   0.490   3.681   2.068
10776SOL     OW33226   1.781   0.053   6.944
10776SOL    HW133227   1.806   6.981   6.954
10776SOL    HW233228   1.793   0.081   6.848
10777SOL     OW33229   2.716   5.908   1.500
10777SOL    HW133230   2.796   5.905   1.440
10777SOL    HW233231   2.695   6.003   1.522
10778SOL     OW33232   6.253   5.604   3.130
10778SOL    HW133233   6.294   5.578   3.218
10778SOL    HW233234   6.316   5.580   3.056
10779SOL     OW33235   5.249   2.458   3.415
10779SOL    HW133236   5.159   2.504   3.412
10779SOL    HW233237   5.309   2.499   3.346
10780SOL     OW33238   0.291   0.660   2.647
10780SOL    HW133239   0.277   0.603   2.566
10780SOL    HW233240   0.219   0.639   2.715
10781SOL     OW33241   3.777   0.185   4.681
10781SOL    HW133242   3.761   0.238   4.598
10781SOL    HW233243   3.785   0.088   4.658
10782SOL     OW33244   6.467   5.435   4.079
10782SOL    HW133245   6.381   5.385   4.066
10782SOL    HW233246   6.538   5.393   4.023
10783SOL     OW33247   6.832   1.916   3.127
10783SOL    HW133248   6.867   1.931   3.035
10783SOL    HW233249   6.871   1.832   3.165
10784SOL     OW33250   3.109   1.407   4.380
10784SOL    HW133251   3.109   1.488   4.440
10784SOL    HW233252   3.111   1.436   4.285
10785SOL     OW33253   1.015   3.817   6.279
10785SOL    HW133254   1.089   3.756   6.307
10785SOL    HW233255   1.015   3.899   6.335
10786SOL     OW33256   0.766   5.122   3.197
10786SOL    HW133257   0.699   5.175   3.145
10786SOL    HW233258   0.719   5.045   3.241
10787SOL     OW33259   1.708   2.177   6.012
10787SOL    HW133260   1.705   2.080   6.035
10787SOL    HW233261   1.700   2.232   6.095
10788SOL     OW33262   5.604   4.221   6.487
10788SOL    HW133263   5.691   4.253   6.523
10788SOL    HW233264   5.619   4.134   6.439
10789SOL     OW33265   6.177   1.533   0.358
10789SOL    HW133266   6.164   1.610   0.297
10789SOL    HW233267   6.133   1.451   0.320
10790SOL     OW33268   0.146   6.072   3.073
10790SOL    HW133269   0.102   5.991   3.034
10790SOL    HW233270   0.093   6.153   3.050
10791SOL     OW33271   0.618   6.586   2.935
10791SOL    HW133272   0.646   6.574   2.840
10791SOL    HW233273   0.518   6.594   2.939
10792SOL     OW33274   3.994   4.262   5.213
10792SOL    HW133275   4.082   4.305   5.193
10792SOL    HW233276   3.975   4.270   5.311
10793SOL     OW33277   5.876   3.305   4.412
10793SOL    HW133278   5.853   3.260   4.498
10793SOL    HW233279   5.893   3.235   4.341
10794SOL     OW33280   2.933   3.697   3.690
10794SOL    HW133281   2.929   3.755   3.771
10794SOL    HW233282   2.888   3.610   3.709
10795SOL     OW33283   0.340   4.415   3.524
10795SOL    HW133284   0.419   4.356   3.542
10795SOL    HW233285   0.366   4.487   3.459
10796SOL     OW33286   1.945   6.383   4.970
10796SOL    HW133287   2.036   6.349   4.990
10796SOL    HW233288   1.877   6.324   5.014
10797SOL     OW33289   3.873   2.748   0.532
10797SOL    HW133290   3.841   2.742   0.626
10797SOL    HW233291   3.855   2.839   0.496
10798SOL     OW33292   6.870   1.793   0.612
10798SOL    HW133293   6.854   1.826   0.705
10798SOL    HW233294   6.916   1.705   0.615
10799SOL     OW33295   3.975   1.615   1.600
10799SOL    HW133296   4.044   1.620   1.527
10799SOL    HW233297   3.975   1.524   1.640
10800SOL     OW33298   1.424   0.069   1.608
10800SOL    HW133299   1.468   0.157   1.629
10800SOL    HW233300   1.430   0.052   1.509
10801SOL     OW33301   1.513   0.674   1.391
10801SOL    HW133302   1.546   0.760   1.352
10801SOL    HW233303   1.414   0.671   1.384
10802SOL     OW33304   6.782   0.365   3.260
10802SOL    HW133305   6.800   0.304   3.337
10802SOL    HW233306   6.758   0.456   3.295
10803SOL     OW33307   2.288   5.296   6.342
10803SOL    HW133308   2.346   5.248   6.408
10803SOL    HW233309   2.327   5.385   6.321
10804SOL     OW33310   6.965   3.500   4.183
10804SOL    HW133311   7.006   3.503   4.092
10804SOL    HW233312   6.977   3.588   4.228
10805SOL     OW33313   6.640   1.481   5.749
10805SOL    HW133314   6.686   1.392   5.756
10805SOL    HW233315   6.685   1.546   5.811
10806SOL     OW33316   1.916   4.650   6.982
10806SOL    HW133317   1.955   4.570   6.938
10806SOL    HW233318   1.824   4.629   7.016
10807SOL     OW33319   2.902   6.661   4.748
10807SOL    HW133320   2.936   6.620   4.664
10807SOL    HW233321   2.969   6.650   4.821
10808SOL     OW33322   0.567   3.284   6.111
10808SOL    HW133323   0.540   3.283   6.014
10808SOL    HW233324   0.558   3.377   6.146
10809SOL     OW33325   2.103   6.951   4.349
10809SOL    HW133326   2.166   0.002   4.365
10809SOL    HW233327   2.014   6.973   4.388
10810SOL     OW33328   6.962   0.064   4.545
10810SOL    HW133329   6.963   0.127   4.623
10810SOL    HW233330   6.869   0.055   4.510
10811SOL     OW33331   5.073   4.893   4.884
10811SOL    HW133332   5.103   4.988   4.874
10811SOL    HW233333   5.151   4.832   4.870
10812SOL     OW33334   6.204   2.752   0.409
10812SOL    HW133335   6.295   2.713   0.416
10812SOL    HW233336   6.136   2.679   0.410
10813SOL     OW33337   0.197   4.075   5.980
10813SOL    HW133338   0.203   4.069   6.080
10813SOL    HW233339   0.107   4.112   5.955
10814SOL     OW33340   2.872   0.995   1.176
10814SOL    HW133341   2.918   0.940   1.245
10814SOL    HW233342   2.910   0.974   1.086
10815SOL     OW33343   5.336   1.027   4.726
10815SOL    HW133344   5.427   1.044   4.762
10815SOL    HW233345   5.342   0.969   4.644
10816SOL     OW33346   4.097   3.435   4.184
10816SOL    HW133347   4.135   3.387   4.264
10816SOL    HW233348   4.068   3.368   4.116
10817SOL     OW33349   2.370   6.324   3.566
10817SOL    HW133350   2.370   6.231   3.602
10817SOL    HW233351   2.424   6.383   3.626
10818SOL     OW33352   3.797   4.498   6.841
10818SOL    HW133353   3.807   4.414   6.787
10818SOL    HW233354   3.877   4.556   6.827
10819SOL     OW33355   6.506   6.601   5.400
10819SOL    HW133356   6.595   6.641   5.378
10819SOL    HW233357   6.435   6.641   5.341
10820SOL     OW33358   2.122   4.151   6.374
10820SOL    HW133359   2.190   4.224   6.374
10820SOL    HW233360   2.031   4.189   6.354
10821SOL     OW33361   4.869   5.711   3.170
10821SOL    HW133362   4.884   5.612   3.172
10821SOL    HW233363   4.770   5.729   3.168
10822SOL     OW33364   5.104   1.380   2.446
10822SOL    HW133365   5.053   1.317   2.388
10822SOL    HW233366   5.188   1.336   2.478
10823SOL     OW33367   5.169   6.887   1.762
10823SOL    HW133368   5.130   6.851   1.677
10823SOL    HW233369   5.125   6.842   1.840
10824SOL     OW33370   1.011   2.668   3.537
10824SOL    HW133371   1.075   2.636   3.607
10824SOL    HW233372   0.928   2.702   3.582
10825SOL     OW33373   0.711   2.043   0.510
10825SOL    HW133374   0.681   2.009   0.421
10825SOL    HW233375   0.749   2.134   0.500
10826SOL     OW33376   0.543   3.268   2.819
10826SOL    HW133377   0.528   3.174   2.849
10826SOL    HW233378   0.508   3.279   2.726
10827SOL     OW33379   6.352   4.005   4.634
10827SOL    HW133380   6.367   3.916   4.593
10827SOL    HW233381   6.313   4.067   4.566
10828SOL     OW33382   6.222   4.345   5.298
10828SOL    HW133383   6.137   4.391   5.323
10828SOL    HW233384   6.299   4.392   5.341
10829SOL     OW33385   3.795   3.226   5.083
10829SOL    HW133386   3.754   3.294   5.022
10829SOL    HW233387   3.722   3.179   5.133
10830SOL     OW33388   3.928   2.103   3.341
10830SOL    HW133389   3.908   2.043   3.419
10830SOL    HW233390   3.851   2.164   3.325
10831SOL     OW33391   4.228   0.516   3.684
10831SOL    HW133392   4.162   0.552   3.618
10831SOL    HW233393   4.179   0.487   3.767
10832SOL     OW33394   6.707   3.614   0.391
10832SOL    HW133395   6.695   3.566   0.478
10832SOL    HW233396   6.618   3.641   0.355
10833SOL     OW33397   0.468   1.354   6.209
10833SOL    HW133398   0.442   1.311   6.296
10833SOL    HW233399   0.464   1.453   6.218
10834SOL     OW33400   6.758   6.534   1.315
10834SOL    HW133401   6.703   6.609   1.350
10834SOL    HW233402   6.854   6.547   1.342
10835SOL     OW33403   0.072   2.172   5.557
10835SOL    HW133404   0.082   2.268   5.583
10835SOL    HW233405   0.161   2.127   5.562
10836SOL     OW33406   6.990   1.280   3.974
10836SOL    HW133407   0.013   1.316   3.894
10836SOL    HW233408   6.900   1.244   3.947
10837SOL     OW33409   0.704   3.096   2.599
10837SOL    HW133410   0.636   3.105   2.526
10837SOL    HW233411   0.700   3.004   2.638
10838SOL     OW33412   0.417   5.693   1.945
10838SOL    HW133413   0.471   5.619   1.985
10838SOL    HW233414   0.452   5.781   1.978
10839SOL     OW33415   5.015   2.459   1.078
10839SOL    HW133416   4.971   2.508   1.003
10839SOL    HW233417   5.099   2.416   1.045
10840SOL     OW33418   2.656   0.355   1.543
10840SOL    HW133419   2.633   0.365   1.446
10840SOL    HW233420   2.687   0.261   1.560
10841SOL     OW33421   2.162   5.105   4.576
10841SOL    HW133422   2.191   5.025   4.626
10841SOL    HW233423   2.207   5.186   4.613
10842SOL     OW33424   5.270   4.384   1.343
10842SOL    HW133425   5.231   4.311   1.399
10842SOL    HW233426   5.201   4.455   1.329
10843SOL     OW33427   2.310   2.245   1.311
10843SOL    HW133428   2.402   2.245   1.273
10843SOL    HW233429   2.300   2.320   1.376
10844SOL     OW33430   1.428   5.097   4.823
10844SOL    HW133431   1.346   5.143   4.789
10844SOL    HW233432   1.422   4.999   4.805
10845SOL     OW33433   3.952   0.295   5.109
10845SOL    HW133434   4.020   0.307   5.037
10845SOL    HW233435   3.913   0.383   5.134
10846SOL     OW33436   5.266   0.125   6.836
10846SOL    HW133437   5.336   0.086   6.776
10846SOL    HW233438   5.191   0.060   6.846
10847SOL     OW33439   2.861   0.703   6.519
10847SOL    HW133440   2.943   0.666   6.561
10847SOL    HW233441   2.867   0.695   6.420
10848SOL     OW33442   1.875   4.816   2.106
10848SOL    HW133443   1.914   4.866   2.028
10848SOL    HW233444   1.801   4.758   2.073
10849SOL     OW33445   2.543   6.642   3.502
10849SOL    HW133446   2.528   6.672   3.597
10849SOL    HW233447   2.641   6.646   3.482
10850SOL     OW33448   3.652   5.052   0.845
10850SOL    HW133449   3.552   5.058   0.843
10850SOL    HW233450   3.680   4.956   0.836
10851SOL     OW33451   1.671   4.549   0.371
10851SOL    HW133452   1.700   4.587   0.284
10851SOL    HW233453   1.746   4.497   0.412
10852SOL     OW33454   2.239   1.469   2.336
10852SOL    HW133455   2.181   1.424   2.404
10852SOL    HW233456   2.324   1.499   2.379
10853SOL     OW33457   3.189   1.411   6.221
10853SOL    HW133458   3.244   1.329   6.207
10853SOL    HW233459   3.113   1.390   6.282
10854SOL     OW33460   2.955   6.886   5.175
10854SOL    HW133461   2.883   6.817   5.184
10854SOL    HW233462   2.913   6.977   5.167
10855SOL     OW33463   3.625   1.609   0.022
10855SOL    HW133464   3.525   1.604   0.024
10855SOL    HW233465   3.660   1.613   0.115
10856SOL     OW33466   0.070   0.998   0.537
10856SOL    HW133467   0.051   1.084   0.584
10856SOL    HW233468   0.061   1.011   0.438
10857SOL     OW33469   6.473   2.221   2.406
10857SOL    HW133470   6.529   2.303   2.413
10857SOL    HW233471   6.460   2.180   2.496
10858SOL     OW33472   2.744   6.255   1.829
10858SOL    HW133473   2.727   6.185   1.898
10858SOL    HW233474   2.841   6.252   1.802
10859SOL     OW33475   1.819   5.357   3.536
10859SOL    HW133476   1.756   5.409   3.594
10859SOL    HW233477   1.913   5.387   3.553
10860SOL     OW33478   6.993   3.363   3.111
10860SOL    HW133479   6.942   3.343   3.194
10860SOL    HW233480   0.065   3.378   3.134
10861SOL     OW33481   3.959   3.074   4.857
10861SOL    HW133482   3.966   3.003   4.928
10861SOL    HW233483   3.915   3.155   4.895
10862SOL     OW33484   0.782   0.485   4.553
10862SOL    HW133485   0.816   0.392   4.545
10862SOL    HW233486   0.788   0.515   4.648
10863SOL     OW33487   2.954   6.139   4.483
10863SOL    HW133488   2.897   6.155   4.563
10863SOL    HW233489   3.003   6.052   4.494
10864SOL     OW33490   3.366   5.965   3.353
10864SOL    HW133491   3.350   6.008   3.264
10864SOL    HW233492   3.395   5.871   3.339
10865SOL     OW33493   6.213   1.852   5.914
10865SOL    HW133494   6.264   1.842   5.828
10865SOL    HW233495   6.137   1.916   5.900
10866SOL     OW33496   4.871   5.000   1.017
10866SOL    HW133497   4.909   5.072   1.075
10866SOL    HW233498   4.799   4.951   1.067
10867SOL     OW33499   3.074   2.170   0.056
10867SOL    HW133500   3.040   2.076   0.048
10867SOL    HW233501   3.111   2.200   6.993
10868SOL     OW33502   2.503   2.137   2.790
10868SOL    HW133503   2.442   2.199   2.839
10868SOL    HW233504   2.585   2.120   2.845
10869NA      NA33505   6.282   2.671   5.952
10870NA      NA33506   4.471   4.516   5.240
10871NA      NA33507   2.343   3.475   1.610
10872NA      NA33508   4.931   3.757   5.179
10873NA      NA33509   4.289   2.328   5.245
10874NA      NA33510   3.752   4.728   1.754
10875NA      NA33511   6.460   5.926   4.572
10876NA      NA33512   3.701   3.918   5.083
10877NA      NA33513   4.409   0.033   6.939
10878NA      NA33514   3.430   0.276   4.970
10879NA      NA33515   0.153   4.842   2.734
10880NA      NA33516   2.821   0.735   2.699
10881NA      NA33517   3.769   4.058   1.292
10882NA      NA33518   3.800   3.416   2.948
   7.02471   7.02471   7.02471
