Generated by trjconv : CNT in water t= 303.00000
33518
    1C        C    1   2.848   2.775   4.746
    1C        C    2   2.901   2.719   4.864
    1C        C    3   2.843   2.768   4.982
    1C        C    4   2.856   2.776   4.260
    1C        C    5   2.903   2.726   4.384
    1C        C    6   2.848   2.775   4.504
    1C        C    7   3.014   2.640   4.627
    1C        C    8   2.900   2.723   4.625
    1C        C    9   3.083   2.607   4.745
    1C        C   10   3.018   2.639   4.866
    1C        C   11   3.182   2.491   4.974
    1C        C   12   3.063   2.566   4.976
    1C        C   13   2.853   2.776   3.772
    1C        C   14   2.903   2.726   3.894
    1C        C   15   2.848   2.773   4.015
    1C        C   16   3.023   2.651   4.137
    1C        C   17   2.904   2.727   4.137
    1C        C   18   3.084   2.620   4.261
    1C        C   19   3.022   2.650   4.384
    1C        C   20   3.211   2.557   4.503
    1C        C   21   3.079   2.606   4.506
    1C        C   22   3.279   2.533   4.624
    1C        C   23   3.211   2.544   4.747
    1C        C   24   3.416   2.479   4.864
    1C        C   25   3.274   2.493   4.864
    1C        C   26   3.491   2.484   4.983
    1C        C   27   2.847   2.765   3.285
    1C        C   28   2.903   2.722   3.408
    1C        C   29   2.849   2.770   3.530
    1C        C   30   3.021   2.643   3.648
    1C        C   31   2.904   2.722   3.651
    1C        C   32   3.079   2.607   3.772
    1C        C   33   3.016   2.641   3.894
    1C        C   34   3.210   2.554   4.014
    1C        C   35   3.079   2.607   4.015
    1C        C   36   3.278   2.535   4.137
    1C        C   37   3.213   2.564   4.259
    1C        C   38   3.416   2.502   4.381
    1C        C   39   3.279   2.536   4.381
    1C        C   40   3.488   2.499   4.503
    1C        C   41   3.417   2.502   4.625
    1C        C   42   3.632   2.475   4.744
    1C        C   43   3.489   2.474   4.743
    1C        C   44   3.706   2.482   4.864
    1C        C   45   3.630   2.475   4.981
    1C        C   46   2.839   2.758   2.796
    1C        C   47   2.895   2.713   2.918
    1C        C   48   2.844   2.761   3.041
    1C        C   49   3.015   2.635   3.162
    1C        C   50   2.899   2.716   3.163
    1C        C   51   3.080   2.602   3.283
    1C        C   52   3.017   2.639   3.404
    1C        C   53   3.213   2.555   3.527
    1C        C   54   3.082   2.609   3.526
    1C        C   55   3.278   2.530   3.650
    1C        C   56   3.210   2.554   3.772
    1C        C   57   3.418   2.505   3.896
    1C        C   58   3.279   2.531   3.893
    1C        C   59   3.487   2.493   4.018
    1C        C   60   3.415   2.503   4.139
    1C        C   61   3.630   2.500   4.263
    1C        C   62   3.489   2.494   4.260
    1C        C   63   3.703   2.509   4.384
    1C        C   64   3.629   2.499   4.503
    1C        C   65   3.835   2.545   4.621
    1C        C   66   3.703   2.496   4.623
    1C        C   67   3.902   2.570   4.743
    1C        C   68   3.840   2.523   4.861
    1C        C   69   4.051   2.585   4.978
    1C        C   70   3.922   2.529   4.975
    1C        C   71   2.827   2.736   2.307
    1C        C   72   2.886   2.694   2.429
    1C        C   73   2.837   2.749   2.550
    1C        C   74   3.008   2.630   2.674
    1C        C   75   2.889   2.707   2.674
    1C        C   76   3.071   2.596   2.796
    1C        C   77   3.013   2.635   2.919
    1C        C   78   3.205   2.542   3.037
    1C        C   79   3.077   2.601   3.040
    1C        C   80   3.277   2.532   3.159
    1C        C   81   3.212   2.552   3.283
    1C        C   82   3.417   2.500   3.402
    1C        C   83   3.279   2.529   3.405
    1C        C   84   3.485   2.495   3.526
    1C        C   85   3.416   2.500   3.650
    1C        C   86   3.628   2.495   3.770
    1C        C   87   3.487   2.499   3.772
    1C        C   88   3.696   2.507   3.893
    1C        C   89   3.628   2.504   4.017
    1C        C   90   3.834   2.548   4.135
    1C        C   91   3.697   2.512   4.140
    1C        C   92   3.902   2.570   4.257
    1C        C   93   3.839   2.546   4.381
    1C        C   94   4.031   2.636   4.501
    1C        C   95   3.908   2.567   4.502
    1C        C   96   4.091   2.675   4.623
    1C        C   97   4.028   2.636   4.743
    1C        C   98   4.187   2.771   4.864
    1C        C   99   4.098   2.659   4.865
    1C        C  100   4.211   2.847   4.979
    1C        C  101   2.828   2.734   2.070
    1C        C  102   2.991   2.589   2.190
    1C        C  103   2.883   2.683   2.188
    1C        C  104   3.061   2.569   2.312
    1C        C  105   3.003   2.615   2.433
    1C        C  106   3.200   2.534   2.552
    1C        C  107   3.069   2.587   2.554
    1C        C  108   3.269   2.519   2.674
    1C        C  109   3.199   2.538   2.796
    1C        C  110   3.411   2.498   2.915
    1C        C  111   3.270   2.512   2.915
    1C        C  112   3.484   2.491   3.035
    1C        C  113   3.415   2.505   3.157
    1C        C  114   3.627   2.500   3.278
    1C        C  115   3.486   2.492   3.279
    1C        C  116   3.695   2.512   3.402
    1C        C  117   3.626   2.501   3.524
    1C        C  118   3.832   2.547   3.645
    1C        C  119   3.695   2.513   3.647
    1C        C  120   3.899   2.570   3.768
    1C        C  121   3.831   2.549   3.890
    1C        C  122   4.022   2.642   4.012
    1C        C  123   3.897   2.576   4.012
    1C        C  124   4.085   2.677   4.134
    1C        C  125   4.028   2.635   4.256
    1C        C  126   4.195   2.767   4.376
    1C        C  127   4.085   2.678   4.378
    1C        C  128   4.243   2.820   4.497
    1C        C  129   4.197   2.768   4.620
    1C        C  130   4.324   2.937   4.741
    1C        C  131   4.240   2.823   4.743
    1C        C  132   4.354   3.007   4.861
    1C        C  133   4.293   2.959   4.978
    1C        C  134   3.176   2.468   2.081
    1C        C  135   3.044   2.513   2.081
    1C        C  136   3.259   2.473   2.194
    1C        C  137   3.191   2.512   2.311
    1C        C  138   3.404   2.475   2.430
    1C        C  139   3.266   2.504   2.430
    1C        C  140   3.479   2.481   2.550
    1C        C  141   3.408   2.493   2.671
    1C        C  142   3.622   2.492   2.792
    1C        C  143   3.481   2.491   2.792
    1C        C  144   3.694   2.504   2.913
    1C        C  145   3.626   2.498   3.036
    1C        C  146   3.836   2.540   3.154
    1C        C  147   3.699   2.506   3.157
    1C        C  148   3.899   2.569   3.277
    1C        C  149   3.831   2.550   3.400
    1C        C  150   4.025   2.632   3.522
    1C        C  151   3.898   2.571   3.523
    1C        C  152   4.082   2.674   3.644
    1C        C  153   4.020   2.643   3.767
    1C        C  154   4.193   2.766   3.889
    1C        C  155   4.079   2.682   3.889
    1C        C  156   4.247   2.813   4.010
    1C        C  157   4.194   2.767   4.133
    1C        C  158   4.334   2.928   4.252
    1C        C  159   4.247   2.816   4.254
    1C        C  160   4.367   2.989   4.375
    1C        C  161   4.330   2.932   4.499
    1C        C  162   4.438   3.117   4.616
    1C        C  163   4.368   2.994   4.620
    1C        C  164   4.472   3.182   4.737
    1C        C  165   4.437   3.121   4.859
    1C        C  166   4.516   3.320   4.973
    1C        C  167   4.484   3.184   4.975
    1C        C  168   3.474   2.429   2.073
    1C        C  169   3.399   2.452   2.189
    1C        C  170   3.616   2.462   2.309
    1C        C  171   3.474   2.457   2.308
    1C        C  172   3.692   2.486   2.426
    1C        C  173   3.620   2.491   2.547
    1C        C  174   3.824   2.545   2.666
    1C        C  175   3.691   2.499   2.669
    1C        C  176   3.893   2.568   2.788
    1C        C  177   3.831   2.539   2.911
    1C        C  178   4.026   2.629   3.033
    1C        C  179   3.902   2.562   3.031
    1C        C  180   4.085   2.672   3.154
    1C        C  181   4.024   2.635   3.275
    1C        C  182   4.200   2.750   3.399
    1C        C  183   4.084   2.668   3.398
    1C        C  184   4.249   2.805   3.520
    1C        C  185   4.195   2.759   3.642
    1C        C  186   4.341   2.911   3.765
    1C        C  187   4.247   2.806   3.764
    1C        C  188   4.380   2.975   3.885
    1C        C  189   4.339   2.920   4.009
    1C        C  190   4.445   3.106   4.128
    1C        C  191   4.380   2.981   4.130
    1C        C  192   4.467   3.173   4.251
    1C        C  193   4.433   3.114   4.374
    1C        C  194   4.505   3.317   4.493
    1C        C  195   4.469   3.180   4.494
    1C        C  196   4.520   3.390   4.613
    1C        C  197   4.511   3.319   4.735
    1C        C  198   4.561   3.533   4.852
    1C        C  199   4.534   3.392   4.855
    1C        C  200   4.582   3.619   4.964
    1C        C  201   3.614   2.423   2.075
    1C        C  202   3.824   2.518   2.184
    1C        C  203   3.692   2.465   2.188
    1C        C  204   3.898   2.540   2.303
    1C        C  205   3.829   2.521   2.425
    1C        C  206   4.020   2.622   2.542
    1C        C  207   3.894   2.558   2.544
    1C        C  208   4.083   2.658   2.664
    1C        C  209   4.020   2.630   2.787
    1C        C  210   4.197   2.748   2.908
    1C        C  211   4.084   2.664   2.909
    1C        C  212   4.251   2.797   3.029
    1C        C  213   4.201   2.753   3.153
    1C        C  214   4.337   2.911   3.273
    1C        C  215   4.252   2.798   3.277
    1C        C  216   4.372   2.974   3.394
    1C        C  217   4.335   2.917   3.519
    1C        C  218   4.435   3.100   3.638
    1C        C  219   4.376   2.972   3.642
    1C        C  220   4.464   3.167   3.759
    1C        C  221   4.435   3.105   3.883
    1C        C  222   4.507   3.305   4.005
    1C        C  223   4.467   3.170   4.004
    1C        C  224   4.514   3.377   4.127
    1C        C  225   4.505   3.310   4.251
    1C        C  226   4.523   3.525   4.369
    1C        C  227   4.521   3.383   4.370
    1C        C  228   4.520   3.597   4.490
    1C        C  229   4.536   3.530   4.613
    1C        C  230   4.505   3.742   4.727
    1C        C  231   4.546   3.606   4.731
    1C        C  232   4.497   3.819   4.845
    1C        C  233   4.546   3.755   4.960
    1C        C  234   4.014   2.619   2.063
    1C        C  235   3.898   2.542   2.067
    1C        C  236   4.086   2.649   2.180
    1C        C  237   4.025   2.605   2.299
    1C        C  238   4.199   2.734   2.420
    1C        C  239   4.083   2.651   2.419
    1C        C  240   4.255   2.783   2.540
    1C        C  241   4.197   2.741   2.662
    1C        C  242   4.332   2.906   2.782
    1C        C  243   4.246   2.794   2.784
    1C        C  244   4.378   2.962   2.904
    1C        C  245   4.340   2.907   3.028
    1C        C  246   4.444   3.092   3.147
    1C        C  247   4.381   2.965   3.150
    1C        C  248   4.465   3.159   3.270
    1C        C  249   4.439   3.098   3.395
    1C        C  250   4.497   3.303   3.516
    1C        C  251   4.463   3.166   3.517
    1C        C  252   4.513   3.371   3.638
    1C        C  253   4.500   3.304   3.762
    1C        C  254   4.524   3.515   3.879
    1C        C  255   4.517   3.374   3.883
    1C        C  256   4.517   3.587   4.001
    1C        C  257   4.519   3.518   4.125
    1C        C  258   4.492   3.731   4.243
    1C        C  259   4.519   3.593   4.245
    1C        C  260   4.475   3.804   4.362
    1C        C  261   4.490   3.735   4.485
    1C        C  262   4.422   3.938   4.606
    1C        C  263   4.476   3.808   4.605
    1C        C  264   4.400   4.012   4.724
    1C        C  265   4.439   3.947   4.844
    1C        C  266   4.326   4.136   4.960
    1C        C  267   4.395   4.015   4.958
    1C        C  268   4.260   2.778   2.058
    1C        C  269   4.199   2.733   2.176
    1C        C  270   4.344   2.888   2.300
    1C        C  271   4.252   2.780   2.298
    1C        C  272   4.390   2.948   2.419
    1C        C  273   4.347   2.890   2.541
    1C        C  274   4.448   3.082   2.662
    1C        C  275   4.379   2.959   2.660
    1C        C  276   4.473   3.150   2.783
    1C        C  277   4.447   3.085   2.906
    1C        C  278   4.506   3.293   3.024
    1C        C  279   4.476   3.155   3.025
    1C        C  280   4.516   3.364   3.146
    1C        C  281   4.502   3.295   3.269
    1C        C  282   4.514   3.508   3.390
    1C        C  283   4.511   3.366   3.390
    1C        C  284   4.513   3.580   3.511
    1C        C  285   4.517   3.513   3.635
    1C        C  286   4.491   3.724   3.755
    1C        C  287   4.517   3.585   3.757
    1C        C  288   4.476   3.794   3.877
    1C        C  289   4.497   3.727   4.000
    1C        C  290   4.430   3.932   4.119
    1C        C  291   4.478   3.799   4.119
    1C        C  292   4.400   4.000   4.239
    1C        C  293   4.425   3.936   4.362
    1C        C  294   4.328   4.128   4.481
    1C        C  295   4.396   4.004   4.483
    1C        C  296   4.282   4.185   4.601
    1C        C  297   4.329   4.135   4.724
    1C        C  298   4.195   4.312   4.840
    1C        C  299   4.285   4.200   4.842
    1C        C  300   4.170   4.400   4.950
    1C        C  301   4.353   2.882   2.061
    1C        C  302   4.473   3.064   2.176
    1C        C  303   4.394   2.945   2.179
    1C        C  304   4.488   3.137   2.297
    1C        C  305   4.453   3.074   2.419
    1C        C  306   4.509   3.283   2.539
    1C        C  307   4.480   3.144   2.539
    1C        C  308   4.524   3.356   2.659
    1C        C  309   4.512   3.286   2.781
    1C        C  310   4.518   3.501   2.897
    1C        C  311   4.523   3.360   2.901
    1C        C  312   4.510   3.569   3.020
    1C        C  313   4.520   3.505   3.145
    1C        C  314   4.482   3.715   3.265
    1C        C  315   4.513   3.577   3.267
    1C        C  316   4.468   3.785   3.386
    1C        C  317   4.490   3.720   3.509
    1C        C  318   4.423   3.922   3.629
    1C        C  319   4.470   3.789   3.631
    1C        C  320   4.390   3.987   3.750
    1C        C  321   4.422   3.924   3.873
    1C        C  322   4.320   4.109   3.992
    1C        C  323   4.397   3.990   3.995
    1C        C  324   4.279   4.170   4.113
    1C        C  325   4.326   4.121   4.236
    1C        C  326   4.185   4.281   4.352
    1C        C  327   4.283   4.179   4.357
    1C        C  328   4.138   4.339   4.472
    1C        C  329   4.192   4.294   4.594
    1C        C  330   4.024   4.430   4.714
    1C        C  331   4.138   4.346   4.715
    1C        C  332   3.969   4.487   4.831
    1C        C  333   4.054   4.479   4.942
    1C        C  334   4.554   3.268   2.066
    1C        C  335   4.536   3.129   2.065
    1C        C  336   4.531   3.349   2.177
    1C        C  337   4.518   3.276   2.297
    1C        C  338   4.522   3.493   2.410
    1C        C  339   4.517   3.352   2.416
    1C        C  340   4.518   3.566   2.531
    1C        C  341   4.526   3.497   2.654
    1C        C  342   4.491   3.710   2.777
    1C        C  343   4.515   3.571   2.774
    1C        C  344   4.472   3.780   2.898
    1C        C  345   4.484   3.708   3.019
    1C        C  346   4.418   3.912   3.137
    1C        C  347   4.460   3.778   3.140
    1C        C  348   4.390   3.980   3.258
    1C        C  349   4.418   3.917   3.381
    1C        C  350   4.317   4.102   3.503
    1C        C  351   4.391   3.982   3.504
    1C        C  352   4.272   4.160   3.623
    1C        C  353   4.314   4.106   3.746
    1C        C  354   4.181   4.268   3.865
    1C        C  355   4.277   4.165   3.869
    1C        C  356   4.129   4.320   3.986
    1C        C  357   4.183   4.273   4.108
    1C        C  358   4.013   4.401   4.232
    1C        C  359   4.132   4.326   4.229
    1C        C  360   3.951   4.446   4.351
    1C        C  361   4.020   4.416   4.470
    1C        C  362   3.832   4.516   4.597
    1C        C  363   3.961   4.459   4.591
    1C        C  364   3.761   4.546   4.715
    1C        C  365   3.837   4.536   4.834
    1C        C  366   3.628   4.592   4.950
    1C        C  367   3.765   4.568   4.950
    1C        C  368   4.502   3.566   2.055
    1C        C  369   4.515   3.489   2.172
    1C        C  370   4.499   3.707   2.287
    1C        C  371   4.514   3.567   2.290
    1C        C  372   4.486   3.777   2.409
    1C        C  373   4.496   3.705   2.530
    1C        C  374   4.425   3.906   2.649
    1C        C  375   4.475   3.774   2.652
    1C        C  376   4.396   3.972   2.770
    1C        C  377   4.425   3.913   2.895
    1C        C  378   4.323   4.102   3.012
    1C        C  379   4.393   3.979   3.015
    1C        C  380   4.274   4.156   3.133
    1C        C  381   4.315   4.100   3.256
    1C        C  382   4.175   4.256   3.377
    1C        C  383   4.271   4.153   3.379
    1C        C  384   4.124   4.309   3.498
    1C        C  385   4.176   4.264   3.622
    1C        C  386   4.011   4.397   3.743
    1C        C  387   4.127   4.316   3.744
    1C        C  388   3.947   4.433   3.864
    1C        C  389   4.012   4.399   3.985
    1C        C  390   3.824   4.491   4.110
    1C        C  391   3.953   4.433   4.108
    1C        C  392   3.753   4.513   4.231
    1C        C  393   3.820   4.498   4.354
    1C        C  394   3.619   4.553   4.475
    1C        C  395   3.758   4.531   4.477
    1C        C  396   3.547   4.565   4.596
    1C        C  397   3.621   4.566   4.715
    1C        C  398   3.409   4.556   4.838
    1C        C  399   3.549   4.578   4.836
    1C        C  400   3.342   4.513   4.953
    1C        C  401   4.507   3.705   2.053
    1C        C  402   4.452   3.919   2.166
    1C        C  403   4.491   3.783   2.168
    1C        C  404   4.410   3.978   2.288
    1C        C  405   4.438   3.910   2.409
    1C        C  406   4.330   4.098   2.528
    1C        C  407   4.401   3.975   2.528
    1C        C  408   4.280   4.151   2.649
    1C        C  409   4.319   4.091   2.771
    1C        C  410   4.175   4.253   2.886
    1C        C  411   4.273   4.152   2.890
    1C        C  412   4.120   4.297   3.009
    1C        C  413   4.173   4.254   3.133
    1C        C  414   4.004   4.382   3.253
    1C        C  415   4.118   4.300   3.255
    1C        C  416   3.946   4.419   3.376
    1C        C  417   4.006   4.386   3.500
    1C        C  418   3.814   4.478   3.622
    1C        C  419   3.946   4.428   3.621
    1C        C  420   3.749   4.506   3.744
    1C        C  421   3.816   4.485   3.867
    1C        C  422   3.612   4.535   3.986
    1C        C  423   3.750   4.505   3.991
    1C        C  424   3.543   4.543   4.109
    1C        C  425   3.614   4.535   4.232
    1C        C  426   3.404   4.550   4.355
    1C        C  427   3.546   4.552   4.354
    1C        C  428   3.333   4.542   4.477
    1C        C  429   3.406   4.552   4.598
    1C        C  430   3.195   4.516   4.721
    1C        C  431   3.334   4.546   4.719
    1C        C  432   3.125   4.496   4.843
    1C        C  433   3.204   4.490   4.958
    1C        C  434   4.384   4.124   2.050
    1C        C  435   4.448   3.999   2.052
    1C        C  436   4.305   4.163   2.163
    1C        C  437   4.337   4.099   2.286
    1C        C  438   4.185   4.253   2.402
    1C        C  439   4.284   4.153   2.406
    1C        C  440   4.126   4.296   2.523
    1C        C  441   4.180   4.251   2.645
    1C        C  442   4.009   4.385   2.765
    1C        C  443   4.124   4.302   2.763
    1C        C  444   3.946   4.418   2.887
    1C        C  445   4.005   4.379   3.009
    1C        C  446   3.814   4.474   3.132
    1C        C  447   3.944   4.418   3.130
    1C        C  448   3.749   4.500   3.255
    1C        C  449   3.816   4.474   3.377
    1C        C  450   3.612   4.532   3.497
    1C        C  451   3.751   4.503   3.499
    1C        C  452   3.542   4.544   3.619
    1C        C  453   3.611   4.536   3.742
    1C        C  454   3.401   4.540   3.865
    1C        C  455   3.542   4.548   3.864
    1C        C  456   3.332   4.533   3.988
    1C        C  457   3.402   4.547   4.110
    1C        C  458   3.198   4.498   4.237
    1C        C  459   3.334   4.537   4.233
    1C        C  460   3.128   4.481   4.358
    1C        C  461   3.196   4.510   4.479
    1C        C  462   2.997   4.433   4.604
    1C        C  463   3.126   4.491   4.600
    1C        C  464   2.929   4.407   4.725
    1C        C  465   2.989   4.450   4.846
    1C        C  466   2.796   4.342   4.959
    1C        C  467   2.903   4.433   4.959
    1C        C  468   4.130   4.290   2.043
    1C        C  469   4.192   4.250   2.162
    1C        C  470   4.013   4.380   2.279
    1C        C  471   4.130   4.299   2.281
    1C        C  472   3.947   4.410   2.400
    1C        C  473   4.009   4.377   2.522
    1C        C  474   3.817   4.472   2.644
    1C        C  475   3.947   4.417   2.642
    1C        C  476   3.750   4.498   2.765
    1C        C  477   3.817   4.476   2.888
    1C        C  478   3.610   4.525   3.009
    1C        C  479   3.748   4.493   3.009
    1C        C  480   3.539   4.530   3.132
    1C        C  481   3.610   4.524   3.254
    1C        C  482   3.399   4.534   3.376
    1C        C  483   3.540   4.536   3.376
    1C        C  484   3.331   4.528   3.500
    1C        C  485   3.401   4.540   3.622
    1C        C  486   3.191   4.501   3.746
    1C        C  487   3.330   4.528   3.744
    1C        C  488   3.126   4.478   3.869
    1C        C  489   3.194   4.499   3.991
    1C        C  490   3.003   4.415   4.116
    1C        C  491   3.130   4.477   4.115
    1C        C  492   2.944   4.383   4.240
    1C        C  493   2.998   4.426   4.363
    1C        C  494   2.829   4.298   4.485
    1C        C  495   2.937   4.389   4.484
    1C        C  496   2.778   4.251   4.608
    1C        C  497   2.822   4.313   4.727
    1C        C  498   2.660   4.168   4.846
    1C        C  499   2.755   4.272   4.845
    1C        C  500   2.596   4.118   4.960
    1C        C  501   4.007   4.356   2.039
    1C        C  502   3.820   4.466   2.158
    1C        C  503   3.949   4.408   2.156
    1C        C  504   3.748   4.487   2.277
    1C        C  505   3.814   4.458   2.399
    1C        C  506   3.611   4.515   2.524
    1C        C  507   3.750   4.489   2.520
    1C        C  508   3.537   4.521   2.644
    1C        C  509   3.611   4.523   2.764
    1C        C  510   3.400   4.524   2.889
    1C        C  511   3.541   4.534   2.886
    1C        C  512   3.327   4.526   3.010
    1C        C  513   3.398   4.531   3.132
    1C        C  514   3.191   4.493   3.255
    1C        C  515   3.327   4.532   3.254
    1C        C  516   3.127   4.464   3.378
    1C        C  517   3.193   4.499   3.498
    1C        C  518   3.001   4.416   3.627
    1C        C  519   3.126   4.481   3.622
    1C        C  520   2.941   4.378   3.749
    1C        C  521   3.002   4.410   3.872
    1C        C  522   2.837   4.281   3.996
    1C        C  523   2.946   4.370   3.995
    1C        C  524   2.792   4.231   4.121
    1C        C  525   2.838   4.289   4.241
    1C        C  526   2.697   4.132   4.365
    1C        C  527   2.781   4.246   4.363
    1C        C  528   2.656   4.073   4.487
    1C        C  529   2.691   4.140   4.606
    1C        C  530   2.581   3.962   4.729
    1C        C  531   2.641   4.091   4.729
    1C        C  532   2.539   3.903   4.852
    1C        C  533   2.533   3.992   4.964
    1C        C  534   3.620   4.558   2.044
    1C        C  535   3.755   4.524   2.048
    1C        C  536   3.538   4.534   2.159
    1C        C  537   3.610   4.518   2.280
    1C        C  538   3.398   4.510   2.401
    1C        C  539   3.539   4.515   2.402
    1C        C  540   3.325   4.504   2.522
    1C        C  541   3.396   4.515   2.644
    1C        C  542   3.191   4.476   2.766
    1C        C  543   3.329   4.507   2.768
    1C        C  544   3.125   4.459   2.890
    1C        C  545   3.192   4.486   3.012
    1C        C  546   2.996   4.405   3.135
    1C        C  547   3.124   4.465   3.134
    1C        C  548   2.940   4.366   3.258
    1C        C  549   3.003   4.396   3.381
    1C        C  550   2.835   4.279   3.506
    1C        C  551   2.946   4.367   3.506
    1C        C  552   2.788   4.228   3.629
    1C        C  553   2.835   4.284   3.749
    1C        C  554   2.704   4.119   3.874
    1C        C  555   2.789   4.232   3.873
    1C        C  556   2.662   4.064   3.997
    1C        C  557   2.705   4.119   4.119
    1C        C  558   2.602   3.940   4.245
    1C        C  559   2.665   4.067   4.244
    1C        C  560   2.566   3.879   4.367
    1C        C  561   2.590   3.948   4.487
    1C        C  562   2.532   3.749   4.614
    1C        C  563   2.565   3.886   4.612
    1C        C  564   2.510   3.684   4.737
    1C        C  565   2.516   3.762   4.856
    1C        C  566   2.535   3.550   4.979
    1C        C  567   2.529   3.689   4.975
    1C        C  568   3.330   4.471   2.043
    1C        C  569   3.399   4.503   2.161
    1C        C  570   3.188   4.468   2.283
    1C        C  571   3.324   4.510   2.281
    1C        C  572   3.119   4.446   2.404
    1C        C  573   3.188   4.472   2.525
    1C        C  574   2.990   4.397   2.649
    1C        C  575   3.118   4.458   2.647
    1C        C  576   2.932   4.359   2.772
    1C        C  577   2.998   4.397   2.891
    1C        C  578   2.829   4.272   3.017
    1C        C  579   2.936   4.365   3.014
    1C        C  580   2.779   4.225   3.140
    1C        C  581   2.831   4.276   3.262
    1C        C  582   2.698   4.114   3.385
    1C        C  583   2.782   4.228   3.385
    1C        C  584   2.659   4.056   3.507
    1C        C  585   2.700   4.117   3.628
    1C        C  586   2.596   3.937   3.755
    1C        C  587   2.665   4.060   3.752
    1C        C  588   2.567   3.872   3.878
    1C        C  589   2.597   3.939   3.999
    1C        C  590   2.537   3.738   4.124
    1C        C  591   2.574   3.875   4.123
    1C        C  592   2.522   3.670   4.247
    1C        C  593   2.533   3.741   4.369
    1C        C  594   2.509   3.535   4.495
    1C        C  595   2.522   3.676   4.493
    1C        C  596   2.517   3.467   4.619
    1C        C  597   2.514   3.542   4.739
    1C        C  598   2.540   3.333   4.860
    1C        C  599   2.527   3.473   4.862
    1C        C  600   2.541   3.252   4.975
    1C        C  601   3.196   4.441   2.046
    1C        C  602   2.982   4.396   2.160
    1C        C  603   3.118   4.441   2.162
    1C        C  604   2.923   4.358   2.284
    1C        C  605   2.990   4.389   2.404
    1C        C  606   2.820   4.270   2.529
    1C        C  607   2.928   4.361   2.528
    1C        C  608   2.770   4.221   2.652
    1C        C  609   2.820   4.273   2.773
    1C        C  610   2.687   4.112   2.895
    1C        C  611   2.775   4.222   2.897
    1C        C  612   2.652   4.056   3.020
    1C        C  613   2.695   4.112   3.142
    1C        C  614   2.595   3.925   3.267
    1C        C  615   2.658   4.052   3.264
    1C        C  616   2.568   3.864   3.391
    1C        C  617   2.595   3.930   3.513
    1C        C  618   2.534   3.729   3.639
    1C        C  619   2.566   3.867   3.636
    1C        C  620   2.523   3.661   3.762
    1C        C  621   2.532   3.735   3.882
    1C        C  622   2.504   3.525   4.007
    1C        C  623   2.521   3.665   4.004
    1C        C  624   2.506   3.454   4.129
    1C        C  625   2.511   3.529   4.248
    1C        C  626   2.539   3.325   4.380
    1C        C  627   2.512   3.463   4.373
    1C        C  628   2.561   3.257   4.502
    1C        C  629   2.539   3.328   4.622
    1C        C  630   2.599   3.121   4.744
    1C        C  631   2.556   3.256   4.742
    1C        C  632   2.622   3.053   4.867
    1C        C  633   2.567   3.115   4.984
    1C        C  634   2.776   4.310   2.057
    1C        C  635   2.894   4.386   2.048
    1C        C  636   2.743   4.233   2.169
    1C        C  637   2.809   4.274   2.287
    1C        C  638   2.673   4.112   2.410
    1C        C  639   2.760   4.224   2.410
    1C        C  640   2.639   4.049   2.531
    1C        C  641   2.683   4.110   2.651
    1C        C  642   2.587   3.923   2.780
    1C        C  643   2.641   4.054   2.774
    1C        C  644   2.559   3.860   2.903
    1C        C  645   2.590   3.929   3.023
    1C        C  646   2.526   3.726   3.152
    1C        C  647   2.562   3.862   3.144
    1C        C  648   2.508   3.657   3.274
    1C        C  649   2.525   3.730   3.393
    1C        C  650   2.507   3.520   3.520
    1C        C  651   2.519   3.660   3.517
    1C        C  652   2.515   3.448   3.642
    1C        C  653   2.514   3.520   3.763
    1C        C  654   2.527   3.310   3.890
    1C        C  655   2.511   3.451   3.887
    1C        C  656   2.553   3.247   4.013
    1C        C  657   2.531   3.315   4.135
    1C        C  658   2.606   3.121   4.258
    1C        C  659   2.551   3.251   4.260
    1C        C  660   2.638   3.060   4.381
    1C        C  661   2.604   3.123   4.503
    1C        C  662   2.717   2.941   4.623
    1C        C  663   2.635   3.056   4.624
    1C        C  664   2.757   2.884   4.745
    1C        C  665   2.703   2.935   4.866
    1C        C  666   2.748   2.870   4.982
    1C        C  667   2.677   4.027   2.055
    1C        C  668   2.676   4.109   2.169
    1C        C  669   2.588   3.913   2.292
    1C        C  670   2.638   4.047   2.289
    1C        C  671   2.556   3.850   2.414
    1C        C  672   2.582   3.920   2.534
    1C        C  673   2.517   3.722   2.662
    1C        C  674   2.557   3.857   2.658
    1C        C  675   2.510   3.651   2.784
    1C        C  676   2.525   3.723   2.905
    1C        C  677   2.503   3.516   3.032
    1C        C  678   2.515   3.657   3.029
    1C        C  679   2.502   3.446   3.155
    1C        C  680   2.497   3.516   3.278
    1C        C  681   2.523   3.306   3.401
    1C        C  682   2.499   3.445   3.400
    1C        C  683   2.536   3.236   3.523
    1C        C  684   2.528   3.307   3.646
    1C        C  685   2.588   3.105   3.770
    1C        C  686   2.545   3.240   3.769
    1C        C  687   2.632   3.050   3.893
    1C        C  688   2.606   3.116   4.015
    1C        C  689   2.711   2.933   4.138
    1C        C  690   2.638   3.054   4.138
    1C        C  691   2.761   2.881   4.260
    1C        C  692   2.711   2.939   4.379
    1C        C  693   2.756   2.882   4.501
    1C        C  694   2.632   3.894   2.056
    1C        C  695   2.524   3.708   2.178
    1C        C  696   2.578   3.838   2.173
    1C        C  697   2.510   3.639   2.300
    1C        C  698   2.519   3.714   2.419
    1C        C  699   2.486   3.508   2.543
    1C        C  700   2.497   3.649   2.543
    1C        C  701   2.506   3.440   2.665
    1C        C  702   2.505   3.509   2.788
    1C        C  703   2.525   3.302   2.909
    1C        C  704   2.504   3.442   2.912
    1C        C  705   2.548   3.238   3.033
    1C        C  706   2.530   3.307   3.155
    1C        C  707   2.605   3.112   3.279
    1C        C  708   2.547   3.240   3.278
    1C        C  709   2.637   3.049   3.402
    1C        C  710   2.599   3.110   3.524
    1C        C  711   2.707   2.934   3.648
    1C        C  712   2.619   3.044   3.647
    1C        C  713   2.759   2.881   3.769
    1C        C  714   2.713   2.934   3.891
    1C        C  715   2.753   2.878   4.015
    1C        C  716   2.446   3.504   2.066
    1C        C  717   2.491   3.636   2.062
    1C        C  718   2.461   3.423   2.183
    1C        C  719   2.483   3.499   2.301
    1C        C  720   2.523   3.295   2.425
    1C        C  721   2.489   3.432   2.425
    1C        C  722   2.543   3.226   2.547
    1C        C  723   2.527   3.300   2.666
    1C        C  724   2.596   3.101   2.788
    1C        C  725   2.539   3.230   2.789
    1C        C  726   2.631   3.042   2.913
    1C        C  727   2.601   3.107   3.035
    1C        C  728   2.708   2.925   3.162
    1C        C  729   2.633   3.045   3.157
    1C        C  730   2.753   2.871   3.284
    1C        C  731   2.710   2.929   3.406
    1C        C  732   2.752   2.872   3.529
    1C        C  733   2.497   3.202   2.071
    1C        C  734   2.490   3.282   2.186
    1C        C  735   2.587   3.088   2.306
    1C        C  736   2.529   3.218   2.306
    1C        C  737   2.618   3.024   2.427
    1C        C  738   2.589   3.093   2.547
    1C        C  739   2.701   2.912   2.671
    1C        C  740   2.624   3.030   2.669
    1C        C  741   2.745   2.863   2.796
    1C        C  742   2.708   2.924   2.917
    1C        C  743   2.752   2.868   3.040
    1C        C  744   2.548   3.072   2.073
    1C        C  745   2.690   2.901   2.186
    1C        C  746   2.610   3.017   2.186
    1C        C  747   2.731   2.841   2.306
    1C        C  748   2.693   2.904   2.427
    1C        C  749   2.740   2.851   2.549
    1C        C  750   2.737   2.840   2.069
    1C        C  751   3.684   2.345   1.970
    1C        O  752   3.723   2.226   1.983
    1C        O  753   3.692   2.395   1.839
    1C        C  754   4.643   3.052   1.997
    1C        O  755   4.640   3.055   1.872
    1C        O  756   4.771   3.030   2.049
    1C        C  757   4.466   4.225   1.980
    1C        O  758   4.502   4.337   2.025
    1C        O  759   4.451   4.237   1.841
    1C        C  760   3.581   4.676   1.963
    1C        O  761   3.618   4.790   2.000
    1C        O  762   3.567   4.671   1.823
    1C        C  763   2.912   4.457   1.919
    1C        O  764   2.919   4.399   1.807
    1C        O  765   2.879   4.592   1.904
    1C        C  766   2.323   3.488   1.985
    1C        O  767   2.339   3.470   1.862
    1C        O  768   2.190   3.475   2.029
    1C        C  769   4.664   3.584   5.082
    1C        O  770   4.602   3.584   5.192
    1C        O  771   4.787   3.647   5.107
    1C        C  772   4.276   4.477   5.019
    1C        O  773   4.279   4.477   5.145
    1C        O  774   4.376   4.551   4.954
    1C        C  775   4.135   2.539   5.090
    1C        O  776   4.243   2.483   5.059
    1C        O  777   4.087   2.500   5.216
    1C        C  778   2.906   4.533   5.069
    1C        O  779   2.833   4.632   5.045
    1C        O  780   2.889   4.494   5.202
    1C        C  781   2.457   3.049   5.059
    1C        O  782   2.353   3.011   4.999
    1C        O  783   2.457   3.035   5.197
    1C        C  784   2.416   3.998   5.053
    1C        O  785   2.304   4.020   4.999
    1C        O  786   2.402   3.985   5.192
    1C        C  787   2.967   2.455   1.968
    1C        O  788   2.974   2.489   1.846
    1C        O  789   2.886   2.345   1.990
    1C        C  790   3.176   2.366   5.053
    1C        O  791   3.128   2.258   5.010
    1C        O  792   3.185   2.385   5.192
    1C        H  793   4.310   3.012   5.070
    1C        H  794   4.162   2.824   5.072
    1C        H  795   4.535   3.128   5.050
    1C        H  796   4.514   3.366   5.070
    1C        H  797   4.583   3.817   5.039
    1C        H  798   4.412   3.970   5.054
    1C        H  799   4.297   4.177   5.054
    1C        H  800   4.029   4.543   5.024
    1C        H  801   3.804   4.544   5.047
    1C        H  802   3.586   4.643   5.035
    1C        H  803   3.405   4.458   5.019
    1C        H  804   3.175   4.420   5.032
    1C        H  805   3.884   2.505   5.072
    1C        H  806   3.675   2.417   5.059
    1C        H  807   3.063   2.616   5.071
    1C        H  808   3.440   2.527   5.066
    1C        H  809   2.858   2.720   5.076
    1C        H  810   2.704   2.890   5.077
    1C        H  811   2.565   3.305   5.065
    1C        H  812   2.489   3.508   5.066
    1C        H  813   2.512   3.742   5.066
    1C        H  814   2.558   4.195   5.024
    1C        H  815   2.770   4.298   5.053
    1C        H  816   2.722   2.891   1.975
    1C        H  817   2.889   2.728   1.982
    1C        H  818   3.221   2.433   1.991
    1C        H  819   3.425   2.434   1.978
    1C        H  820   3.885   2.473   1.987
    1C        H  821   4.078   2.597   1.980
    1C        H  822   4.198   2.776   1.971
    1C        H  823   4.386   2.927   1.970
    1C        H  824   4.631   3.306   2.002
    1C        H  825   4.505   3.518   1.959
    1C        H  826   4.557   3.746   1.968
    1C        H  827   3.817   4.558   1.968
    1C        H  828   3.963   4.385   1.946
    1C        H  829   4.196   4.341   1.976
    1C        H  830   4.497   3.962   1.964
    1C        H  831   2.626   3.847   1.961
    1C        H  832   2.723   4.062   1.965
    1C        H  833   2.706   4.332   1.980
    1C        H  834   3.392   4.425   1.969
    1C        H  835   3.167   4.377   1.964
    1C        H  836   2.487   3.003   2.018
    1C        H  837   2.435   3.233   1.990
    1C        H  838   2.517   3.668   1.963
    2V3OU   H29  839   2.816   3.539   3.229
    2V3OU   C27  840   2.790   3.507   3.333
    2V3OU   H27  841   2.734   3.575   3.402
    2V3OU   H28  842   2.744   3.406   3.317
    2V3OU   O11  843   2.917   3.471   3.389
    2V3OU   C15  844   2.930   3.400   3.506
    2V3OU   C13  845   3.057   3.375   3.563
    2V3OU   C14  846   3.083   3.271   3.654
    2V3OU   C16  847   2.981   3.190   3.702
    2V3OU    H6  848   2.999   3.106   3.771
    2V3OU   C12  849   3.217   3.231   3.703
    2V3OU    O2  850   3.234   3.131   3.776
    2V3OU   C10  851   3.330   3.314   3.659
    2V3OU    C8  852   3.460   3.274   3.682
    2V3OU   O10  853   3.486   3.153   3.738
    2V3OU   H26  854   3.407   3.118   3.782
    2V3OU    C6  855   3.567   3.355   3.631
    2V3OU    C5  856   3.541   3.472   3.560
    2V3OU    C4  857   3.703   3.295   3.620
    2V3OU    H4  858   3.725   3.225   3.706
    2V3OU    H5  859   3.707   3.231   3.528
    2V3OU    C2  860   3.816   3.397   3.615
    2V3OU    O6  861   3.807   3.471   3.737
    2V3OU   H21  862   3.769   3.554   3.702
    2V3OU    C3  863   3.785   3.500   3.505
    2V3OU    H2  864   3.868   3.574   3.513
    2V3OU    H3  865   3.779   3.441   3.410
    2V3OU   C25  866   3.951   3.326   3.601
    2V3OU    O7  867   3.989   3.294   3.488
    2V3OU   C26  868   4.031   3.288   3.724
    2V3OU   H22  869   4.063   3.383   3.776
    2V3OU   H23  870   4.121   3.229   3.694
    2V3OU    O8  871   3.969   3.210   3.823
    2V3OU   H24  872   3.927   3.271   3.885
    2V3OU    C1  873   3.651   3.568   3.527
    2V3OU    H1  874   3.626   3.627   3.434
    2V3OU    O3  875   3.668   3.655   3.639
    2V3OU   C19  876   3.623   3.789   3.620
    2V3OU    H9  877   3.524   3.800   3.566
    2V3OU    O4  878   3.716   3.851   3.534
    2V3OU   C20  879   3.842   3.876   3.597
    2V3OU   H10  880   3.890   3.773   3.601
    2V3OU   C24  881   3.616   3.855   3.758
    2V3OU   H16  882   3.550   3.792   3.823
    2V3OU   H17  883   3.569   3.955   3.742
    2V3OU   C23  884   3.751   3.878   3.826
    2V3OU   H15  885   3.796   3.776   3.850
    2V3OU    N1  886   3.735   3.954   3.949
    2V3OU   H19  887   3.804   3.917   4.011
    2V3OU   H20  888   3.649   3.930   3.994
    2V3OU   C21  889   3.853   3.948   3.731
    2V3OU   H11  890   3.956   3.932   3.776
    2V3OU    O5  891   3.826   4.086   3.722
    2V3OU   H18  892   3.773   4.099   3.803
    2V3OU   C22  893   3.911   3.950   3.484
    2V3OU   H12  894   3.861   4.050   3.472
    2V3OU   H13  895   3.901   3.893   3.388
    2V3OU   H14  896   4.020   3.957   3.506
    2V3OU   C11  897   3.166   3.470   3.543
    2V3OU    O1  898   3.137   3.585   3.502
    2V3OU    C9  899   3.304   3.430   3.580
    2V3OU    C7  900   3.406   3.510   3.530
    2V3OU    O9  901   3.386   3.620   3.450
    2V3OU   H25  902   3.290   3.628   3.439
    2V3OU   C17  903   2.831   3.318   3.562
    2V3OU    H7  904   2.733   3.349   3.526
    2V3OU   C18  905   2.853   3.219   3.659
    2V3OU    H8  906   2.787   3.173   3.734
    3SOL     OW  907   2.976   5.228   5.867
    3SOL    HW1  908   2.966   5.231   5.768
    3SOL    HW2  909   3.073   5.229   5.891
    4SOL     OW  910   6.767   0.068   0.919
    4SOL    HW1  911   6.681   0.104   0.881
    4SOL    HW2  912   6.758   0.059   1.018
    5SOL     OW  913   4.672   2.201   2.056
    5SOL    HW1  914   4.700   2.250   2.138
    5SOL    HW2  915   4.601   2.253   2.008
    6SOL     OW  916   4.370   1.908   2.036
    6SOL    HW1  917   4.311   1.864   2.103
    6SOL    HW2  918   4.323   1.987   1.996
    7SOL     OW  919   0.923   4.210   3.549
    7SOL    HW1  920   0.917   4.120   3.591
    7SOL    HW2  921   0.835   4.258   3.558
    8SOL     OW  922   2.302   2.430   5.322
    8SOL    HW1  923   2.302   2.528   5.342
    8SOL    HW2  924   2.250   2.381   5.392
    9SOL     OW  925   6.010   2.090   5.744
    9SOL    HW1  926   6.067   2.064   5.666
    9SOL    HW2  927   5.932   2.144   5.711
   10SOL     OW  928   3.074   5.144   5.191
   10SOL    HW1  929   3.065   5.045   5.180
   10SOL    HW2  930   3.115   5.182   5.108
   11SOL     OW  931   1.996   1.616   6.016
   11SOL    HW1  932   2.020   1.526   5.979
   11SOL    HW2  933   2.077   1.659   6.055
   12SOL     OW  934   2.974   4.947   3.615
   12SOL    HW1  935   2.966   4.877   3.544
   12SOL    HW2  936   2.951   4.907   3.704
   13SOL     OW  937   3.326   6.627   4.147
   13SOL    HW1  938   3.403   6.691   4.140
   13SOL    HW2  939   3.240   6.677   4.141
   14SOL     OW  940   4.038   5.105   5.941
   14SOL    HW1  941   4.045   5.200   5.970
   14SOL    HW2  942   4.124   5.058   5.960
   15SOL     OW  943   0.888   5.984   0.916
   15SOL    HW1  944   0.801   6.017   0.954
   15SOL    HW2  945   0.917   6.045   0.843
   16SOL     OW  946   5.252   3.034   6.662
   16SOL    HW1  947   5.306   3.118   6.658
   16SOL    HW2  948   5.199   3.023   6.578
   17SOL     OW  949   5.463   6.729   6.999
   17SOL    HW1  950   5.414   6.644   7.018
   17SOL    HW2  951   5.482   6.736   6.901
   18SOL     OW  952   3.212   0.983   5.167
   18SOL    HW1  953   3.164   1.055   5.217
   18SOL    HW2  954   3.167   0.895   5.185
   19SOL     OW  955   0.001   2.154   2.328
   19SOL    HW1  956   0.027   2.168   2.233
   19SOL    HW2  957   6.933   2.116   2.333
   20SOL     OW  958   4.864   1.714   5.696
   20SOL    HW1  959   4.914   1.800   5.697
   20SOL    HW2  960   4.871   1.672   5.605
   21SOL     OW  961   2.663   0.741   2.488
   21SOL    HW1  962   2.642   0.709   2.396
   21SOL    HW2  963   2.636   0.672   2.555
   22SOL     OW  964   0.965   5.989   0.168
   22SOL    HW1  965   0.953   6.005   0.266
   22SOL    HW2  966   1.062   5.974   0.149
   23SOL     OW  967   4.060   5.410   1.779
   23SOL    HW1  968   4.150   5.428   1.740
   23SOL    HW2  969   4.045   5.311   1.784
   24SOL     OW  970   3.243   0.652   2.610
   24SOL    HW1  971   3.283   0.589   2.543
   24SOL    HW2  972   3.222   0.602   2.694
   25SOL     OW  973   2.365   6.731   3.457
   25SOL    HW1  974   2.334   6.807   3.400
   25SOL    HW2  975   2.324   6.738   3.548
   26SOL     OW  976   6.355   1.974   0.242
   26SOL    HW1  977   6.297   1.939   0.316
   26SOL    HW2  978   6.445   1.999   0.279
   27SOL     OW  979   1.632   1.167   2.114
   27SOL    HW1  980   1.646   1.250   2.059
   27SOL    HW2  981   1.688   1.173   2.197
   28SOL     OW  982   1.335   0.590   5.375
   28SOL    HW1  983   1.333   0.688   5.395
   28SOL    HW2  984   1.429   0.561   5.358
   29SOL     OW  985   6.430   1.825   1.551
   29SOL    HW1  986   6.506   1.891   1.550
   29SOL    HW2  987   6.389   1.821   1.460
   30SOL     OW  988   4.400   0.719   4.129
   30SOL    HW1  989   4.458   0.645   4.164
   30SOL    HW2  990   4.431   0.807   4.166
   31SOL     OW  991   0.231   2.398   6.560
   31SOL    HW1  992   0.301   2.396   6.632
   31SOL    HW2  993   0.144   2.365   6.598
   32SOL     OW  994   0.533   1.885   2.330
   32SOL    HW1  995   0.624   1.923   2.311
   32SOL    HW2  996   0.502   1.918   2.419
   33SOL     OW  997   0.941   4.637   5.200
   33SOL    HW1  998   0.970   4.669   5.290
   33SOL    HW2  999   0.953   4.538   5.195
   34SOL     OW 1000   2.751   6.176   4.805
   34SOL    HW1 1001   2.693   6.122   4.866
   34SOL    HW2 1002   2.831   6.210   4.856
   35SOL     OW 1003   4.401   2.219   5.604
   35SOL    HW1 1004   4.498   2.243   5.597
   35SOL    HW2 1005   4.390   2.144   5.670
   36SOL     OW 1006   4.226   2.356   4.218
   36SOL    HW1 1007   4.317   2.315   4.222
   36SOL    HW2 1008   4.234   2.456   4.222
   37SOL     OW 1009   1.831   1.523   5.445
   37SOL    HW1 1010   1.793   1.607   5.407
   37SOL    HW2 1011   1.816   1.522   5.544
   38SOL     OW 1012   1.434   4.827   2.039
   38SOL    HW1 1013   1.487   4.781   1.967
   38SOL    HW2 1014   1.359   4.879   1.997
   39SOL     OW 1015   5.993   4.853   6.534
   39SOL    HW1 1016   5.955   4.938   6.570
   39SOL    HW2 1017   6.089   4.866   6.512
   40SOL     OW 1018   3.692   2.609   0.455
   40SOL    HW1 1019   3.630   2.533   0.433
   40SOL    HW2 1020   3.783   2.589   0.419
   41SOL     OW 1021   6.679   3.779   3.346
   41SOL    HW1 1022   6.590   3.756   3.384
   41SOL    HW2 1023   6.727   3.840   3.409
   42SOL     OW 1024   3.367   5.831   4.501
   42SOL    HW1 1025   3.316   5.908   4.541
   42SOL    HW2 1026   3.465   5.851   4.505
   43SOL     OW 1027   4.502   0.783   5.103
   43SOL    HW1 1028   4.582   0.825   5.145
   43SOL    HW2 1029   4.427   0.849   5.100
   44SOL     OW 1030   5.725   2.694   5.175
   44SOL    HW1 1031   5.723   2.792   5.153
   44SOL    HW2 1032   5.809   2.673   5.225
   45SOL     OW 1033   4.747   5.332   1.424
   45SOL    HW1 1034   4.696   5.352   1.507
   45SOL    HW2 1035   4.845   5.326   1.445
   46SOL     OW 1036   0.805   2.559   3.936
   46SOL    HW1 1037   0.792   2.578   3.839
   46SOL    HW2 1038   0.755   2.627   3.990
   47SOL     OW 1039   4.398   4.198   0.632
   47SOL    HW1 1040   4.492   4.175   0.607
   47SOL    HW2 1041   4.389   4.297   0.640
   48SOL     OW 1042   6.392   2.705   6.919
   48SOL    HW1 1043   6.360   2.774   6.983
   48SOL    HW2 1044   6.322   2.690   6.849
   49SOL     OW 1045   6.016   2.849   1.881
   49SOL    HW1 1046   5.942   2.904   1.841
   49SOL    HW2 1047   6.073   2.813   1.807
   50SOL     OW 1048   6.363   1.113   5.372
   50SOL    HW1 1049   6.385   1.209   5.355
   50SOL    HW2 1050   6.448   1.061   5.383
   51SOL     OW 1051   2.297   6.575   3.030
   51SOL    HW1 1052   2.330   6.664   2.999
   51SOL    HW2 1053   2.360   6.503   3.000
   52SOL     OW 1054   5.372   3.547   1.933
   52SOL    HW1 1055   5.456   3.591   1.903
   52SOL    HW2 1056   5.294   3.606   1.913
   53SOL     OW 1057   4.740   1.396   3.621
   53SOL    HW1 1058   4.760   1.493   3.639
   53SOL    HW2 1059   4.703   1.387   3.529
   54SOL     OW 1060   5.676   6.376   1.197
   54SOL    HW1 1061   5.579   6.359   1.182
   54SOL    HW2 1062   5.696   6.369   1.295
   55SOL     OW 1063   2.281   2.794   5.132
   55SOL    HW1 1064   2.323   2.867   5.078
   55SOL    HW2 1065   2.232   2.731   5.072
   56SOL     OW 1066   0.414   0.778   1.138
   56SOL    HW1 1067   0.384   0.730   1.055
   56SOL    HW2 1068   0.466   0.859   1.113
   57SOL     OW 1069   4.280   1.198   1.524
   57SOL    HW1 1070   4.231   1.256   1.459
   57SOL    HW2 1071   4.254   1.102   1.510
   58SOL     OW 1072   0.771   6.662   5.894
   58SOL    HW1 1073   0.814   6.632   5.809
   58SOL    HW2 1074   0.832   6.726   5.941
   59SOL     OW 1075   6.981   3.597   6.288
   59SOL    HW1 1076   6.955   3.527   6.354
   59SOL    HW2 1077   6.929   3.585   6.203
   60SOL     OW 1078   5.119   3.047   4.162
   60SOL    HW1 1079   5.032   3.081   4.126
   60SOL    HW2 1080   5.188   3.048   4.089
   61SOL     OW 1081   0.090   1.185   4.272
   61SOL    HW1 1082   0.011   1.192   4.333
   61SOL    HW2 1083   0.162   1.247   4.303
   62SOL     OW 1084   2.316   1.316   1.950
   62SOL    HW1 1085   2.367   1.383   1.897
   62SOL    HW2 1086   2.267   1.361   2.025
   63SOL     OW 1087   3.384   0.454   4.508
   63SOL    HW1 1088   3.472   0.489   4.477
   63SOL    HW2 1089   3.320   0.530   4.520
   64SOL     OW 1090   0.047   2.635   6.367
   64SOL    HW1 1091   7.010   2.689   6.309
   64SOL    HW2 1092   0.050   2.541   6.334
   65SOL     OW 1093   0.227   4.977   5.862
   65SOL    HW1 1094   0.166   5.019   5.929
   65SOL    HW2 1095   0.190   4.990   5.770
   66SOL     OW 1096   3.306   0.565   3.164
   66SOL    HW1 1097   3.341   0.473   3.147
   66SOL    HW2 1098   3.379   0.632   3.149
   67SOL     OW 1099   0.554   2.865   6.319
   67SOL    HW1 1100   0.456   2.851   6.308
   67SOL    HW2 1101   0.590   2.913   6.239
   68SOL     OW 1102   0.246   1.955   6.928
   68SOL    HW1 1103   0.155   1.916   6.940
   68SOL    HW2 1104   0.311   1.882   6.906
   69SOL     OW 1105   1.435   2.620   5.667
   69SOL    HW1 1106   1.370   2.685   5.627
   69SOL    HW2 1107   1.528   2.648   5.645
   70SOL     OW 1108   5.145   4.866   4.232
   70SOL    HW1 1109   5.107   4.777   4.206
   70SOL    HW2 1110   5.220   4.853   4.297
   71SOL     OW 1111   4.713   2.231   3.461
   71SOL    HW1 1112   4.627   2.236   3.512
   71SOL    HW2 1113   4.790   2.247   3.522
   72SOL     OW 1114   0.688   1.410   3.053
   72SOL    HW1 1115   0.710   1.427   2.957
   72SOL    HW2 1116   0.767   1.433   3.109
   73SOL     OW 1117   3.497   0.370   0.634
   73SOL    HW1 1118   3.543   0.287   0.603
   73SOL    HW2 1119   3.535   0.449   0.586
   74SOL     OW 1120   3.526   1.174   0.109
   74SOL    HW1 1121   3.486   1.265   0.122
   74SOL    HW2 1122   3.477   1.126   0.036
   75SOL     OW 1123   4.577   0.826   1.484
   75SOL    HW1 1124   4.503   0.806   1.549
   75SOL    HW2 1125   4.576   0.924   1.463
   76SOL     OW 1126   3.076   3.411   0.229
   76SOL    HW1 1127   3.083   3.329   0.172
   76SOL    HW2 1128   3.009   3.474   0.188
   77SOL     OW 1129   0.954   0.336   3.306
   77SOL    HW1 1130   0.999   0.247   3.315
   77SOL    HW2 1131   0.954   0.364   3.210
   78SOL     OW 1132   4.725   1.460   0.961
   78SOL    HW1 1133   4.718   1.537   1.024
   78SOL    HW2 1134   4.811   1.466   0.910
   79SOL     OW 1135   2.714   6.332   1.883
   79SOL    HW1 1136   2.797   6.314   1.830
   79SOL    HW2 1137   2.705   6.430   1.900
   80SOL     OW 1138   4.088   1.868   4.039
   80SOL    HW1 1139   4.107   1.965   4.057
   80SOL    HW2 1140   4.056   1.858   3.944
   81SOL     OW 1141   1.844   6.593   1.768
   81SOL    HW1 1142   1.881   6.503   1.746
   81SOL    HW2 1143   1.838   6.604   1.867
   82SOL     OW 1144   5.657   6.071   1.468
   82SOL    HW1 1145   5.581   6.136   1.482
   82SOL    HW2 1146   5.622   5.978   1.476
   83SOL     OW 1147   0.503   0.989   6.759
   83SOL    HW1 1148   0.558   0.924   6.706
   83SOL    HW2 1149   0.563   1.048   6.813
   84SOL     OW 1150   6.035   3.654   2.934
   84SOL    HW1 1151   6.109   3.709   2.975
   84SOL    HW2 1152   5.986   3.710   2.867
   85SOL     OW 1153   1.258   1.375   3.178
   85SOL    HW1 1154   1.285   1.430   3.099
   85SOL    HW2 1155   1.337   1.325   3.212
   86SOL     OW 1156   6.952   1.511   0.268
   86SOL    HW1 1157   6.853   1.523   0.263
   86SOL    HW2 1158   6.977   1.483   0.360
   87SOL     OW 1159   4.353   4.187   0.987
   87SOL    HW1 1160   4.363   4.092   1.015
   87SOL    HW2 1161   4.443   4.226   0.967
   88SOL     OW 1162   3.311   2.318   5.890
   88SOL    HW1 1163   3.358   2.314   5.802
   88SOL    HW2 1164   3.375   2.294   5.963
   89SOL     OW 1165   3.198   2.636   0.009
   89SOL    HW1 1166   3.170   2.674   6.945
   89SOL    HW2 1167   3.133   2.565   0.036
   90SOL     OW 1168   3.701   5.283   2.594
   90SOL    HW1 1169   3.673   5.207   2.653
   90SOL    HW2 1170   3.761   5.250   2.522
   91SOL     OW 1171   6.431   3.715   6.005
   91SOL    HW1 1172   6.419   3.691   6.101
   91SOL    HW2 1173   6.468   3.807   5.997
   92SOL     OW 1174   4.649   4.925   0.872
   92SOL    HW1 1175   4.711   4.872   0.813
   92SOL    HW2 1176   4.555   4.906   0.846
   93SOL     OW 1177   3.257   3.069   6.889
   93SOL    HW1 1178   3.272   3.098   6.795
   93SOL    HW2 1179   3.212   2.979   6.890
   94SOL     OW 1180   3.094   5.432   6.558
   94SOL    HW1 1181   3.019   5.471   6.505
   94SOL    HW2 1182   3.089   5.333   6.554
   95SOL     OW 1183   2.174   1.371   3.324
   95SOL    HW1 1184   2.122   1.293   3.290
   95SOL    HW2 1185   2.251   1.389   3.263
   96SOL     OW 1186   4.838   5.689   5.363
   96SOL    HW1 1187   4.868   5.723   5.452
   96SOL    HW2 1188   4.802   5.596   5.374
   97SOL     OW 1189   2.201   3.519   5.399
   97SOL    HW1 1190   2.299   3.533   5.409
   97SOL    HW2 1191   2.175   3.527   5.303
   98SOL     OW 1192   0.970   1.987   0.493
   98SOL    HW1 1193   0.967   2.018   0.399
   98SOL    HW2 1194   0.989   2.064   0.554
   99SOL     OW 1195   3.943   3.513   1.645
   99SOL    HW1 1196   4.038   3.533   1.668
   99SOL    HW2 1197   3.916   3.568   1.566
  100SOL     OW 1198   0.241   6.920   4.012
  100SOL    HW1 1199   0.237   6.960   3.920
  100SOL    HW2 1200   0.337   6.903   4.037
  101SOL     OW 1201   0.306   4.746   2.011
  101SOL    HW1 1202   0.375   4.816   2.025
  101SOL    HW2 1203   0.237   4.752   2.083
  102SOL     OW 1204   3.512   5.771   2.202
  102SOL    HW1 1205   3.447   5.790   2.128
  102SOL    HW2 1206   3.585   5.840   2.200
  103SOL     OW 1207   2.338   2.491   2.491
  103SOL    HW1 1208   2.355   2.395   2.470
  103SOL    HW2 1209   2.326   2.542   2.406
  104SOL     OW 1210   1.517   5.707   2.795
  104SOL    HW1 1211   1.534   5.665   2.884
  104SOL    HW2 1212   1.420   5.696   2.771
  105SOL     OW 1213   6.176   1.025   6.506
  105SOL    HW1 1214   6.151   0.934   6.471
  105SOL    HW2 1215   6.203   1.084   6.430
  106SOL     OW 1216   3.961   6.006   3.610
  106SOL    HW1 1217   4.044   5.969   3.650
  106SOL    HW2 1218   3.882   5.953   3.641
  107SOL     OW 1219   0.464   0.778   0.630
  107SOL    HW1 1220   0.445   0.783   0.532
  107SOL    HW2 1221   0.481   0.870   0.665
  108SOL     OW 1222   4.234   6.484   6.779
  108SOL    HW1 1223   4.172   6.530   6.715
  108SOL    HW2 1224   4.221   6.385   6.773
  109SOL     OW 1225   2.547   0.982   2.552
  109SOL    HW1 1226   2.589   0.893   2.533
  109SOL    HW2 1227   2.612   1.055   2.532
  110SOL     OW 1228   3.225   5.201   4.539
  110SOL    HW1 1229   3.203   5.114   4.584
  110SOL    HW2 1230   3.150   5.227   4.479
  111SOL     OW 1231   1.872   1.620   4.092
  111SOL    HW1 1232   1.819   1.674   4.026
  111SOL    HW2 1233   1.936   1.561   4.043
  112SOL     OW 1234   4.170   6.188   0.346
  112SOL    HW1 1235   4.224   6.156   0.424
  112SOL    HW2 1236   4.099   6.251   0.378
  113SOL     OW 1237   1.311   6.103   3.365
  113SOL    HW1 1238   1.338   6.025   3.308
  113SOL    HW2 1239   1.391   6.136   3.416
  114SOL     OW 1240   1.606   5.903   2.115
  114SOL    HW1 1241   1.676   5.953   2.063
  114SOL    HW2 1242   1.651   5.836   2.174
  115SOL     OW 1243   5.478   6.854   2.812
  115SOL    HW1 1244   5.475   6.755   2.800
  115SOL    HW2 1245   5.569   6.888   2.786
  116SOL     OW 1246   0.265   5.643   1.474
  116SOL    HW1 1247   0.291   5.734   1.442
  116SOL    HW2 1248   0.305   5.626   1.563
  117SOL     OW 1249   0.784   0.726   0.780
  117SOL    HW1 1250   0.810   0.633   0.756
  117SOL    HW2 1251   0.785   0.737   0.879
  118SOL     OW 1252   1.291   1.943   2.540
  118SOL    HW1 1253   1.271   1.854   2.581
  118SOL    HW2 1254   1.219   2.008   2.565
  119SOL     OW 1255   0.106   0.549   0.049
  119SOL    HW1 1256   0.094   0.528   6.977
  119SOL    HW2 1257   0.021   0.585   0.087
  120SOL     OW 1258   5.449   0.727   4.321
  120SOL    HW1 1259   5.474   0.716   4.417
  120SOL    HW2 1260   5.375   0.664   4.298
  121SOL     OW 1261   1.685   3.723   0.296
  121SOL    HW1 1262   1.766   3.736   0.239
  121SOL    HW2 1263   1.623   3.801   0.285
  122SOL     OW 1264   1.502   3.117   0.549
  122SOL    HW1 1265   1.556   3.075   0.475
  122SOL    HW2 1266   1.407   3.125   0.519
  123SOL     OW 1267   1.176   1.397   1.820
  123SOL    HW1 1268   1.165   1.306   1.781
  123SOL    HW2 1269   1.273   1.420   1.824
  124SOL     OW 1270   3.052   2.327   0.978
  124SOL    HW1 1271   3.018   2.368   0.893
  124SOL    HW2 1272   3.130   2.379   1.011
  125SOL     OW 1273   3.771   3.076   0.693
  125SOL    HW1 1274   3.703   3.149   0.690
  125SOL    HW2 1275   3.729   2.990   0.665
  126SOL     OW 1276   3.443   2.874   2.818
  126SOL    HW1 1277   3.343   2.866   2.810
  126SOL    HW2 1278   3.469   2.874   2.914
  127SOL     OW 1279   7.003   5.282   6.567
  127SOL    HW1 1280   6.967   5.251   6.655
  127SOL    HW2 1281   6.977   5.217   6.496
  128SOL     OW 1282   4.618   3.010   1.204
  128SOL    HW1 1283   4.568   3.093   1.229
  128SOL    HW2 1284   4.558   2.950   1.151
  129SOL     OW 1285   2.895   3.384   0.452
  129SOL    HW1 1286   2.797   3.378   0.432
  129SOL    HW2 1287   2.946   3.387   0.366
  130SOL     OW 1288   6.691   0.181   4.576
  130SOL    HW1 1289   6.759   0.242   4.536
  130SOL    HW2 1290   6.706   0.088   4.543
  131SOL     OW 1291   5.137   0.376   3.784
  131SOL    HW1 1292   5.223   0.387   3.734
  131SOL    HW2 1293   5.072   0.446   3.754
  132SOL     OW 1294   2.912   2.558   1.308
  132SOL    HW1 1295   2.850   2.538   1.384
  132SOL    HW2 1296   3.001   2.584   1.344
  133SOL     OW 1297   5.556   1.010   3.504
  133SOL    HW1 1298   5.557   0.916   3.538
  133SOL    HW2 1299   5.609   1.016   3.420
  134SOL     OW 1300   0.013   0.514   3.081
  134SOL    HW1 1301   6.997   0.561   3.160
  134SOL    HW2 1302   0.111   0.529   3.080
  135SOL     OW 1303   5.119   3.852   4.122
  135SOL    HW1 1304   5.123   3.771   4.063
  135SOL    HW2 1305   5.177   3.839   4.202
  136SOL     OW 1306   1.971   5.363   5.021
  136SOL    HW1 1307   2.046   5.299   5.006
  136SOL    HW2 1308   1.889   5.331   4.972
  137SOL     OW 1309   4.496   1.555   3.738
  137SOL    HW1 1310   4.454   1.640   3.769
  137SOL    HW2 1311   4.485   1.547   3.639
  138SOL     OW 1312   0.843   4.104   2.992
  138SOL    HW1 1313   0.935   4.065   2.987
  138SOL    HW2 1314   0.836   4.160   3.075
  139SOL     OW 1315   2.046   6.061   5.498
  139SOL    HW1 1316   1.968   6.080   5.440
  139SOL    HW2 1317   2.053   6.132   5.569
  140SOL     OW 1318   1.555   6.194   3.940
  140SOL    HW1 1319   1.579   6.152   4.027
  140SOL    HW2 1320   1.540   6.123   3.872
  141SOL     OW 1321   6.676   2.969   5.444
  141SOL    HW1 1322   6.710   2.875   5.447
  141SOL    HW2 1323   6.613   2.985   5.520
  142SOL     OW 1324   2.012   3.479   2.226
  142SOL    HW1 1325   2.096   3.485   2.173
  142SOL    HW2 1326   2.007   3.389   2.269
  143SOL     OW 1327   5.400   6.046   0.977
  143SOL    HW1 1328   5.441   6.082   0.894
  143SOL    HW2 1329   5.438   5.955   0.997
  144SOL     OW 1330   2.146   4.776   5.321
  144SOL    HW1 1331   2.127   4.703   5.386
  144SOL    HW2 1332   2.172   4.736   5.233
  145SOL     OW 1333   2.402   5.474   1.214
  145SOL    HW1 1334   2.375   5.496   1.120
  145SOL    HW2 1335   2.406   5.375   1.225
  146SOL     OW 1336   5.200   0.150   0.054
  146SOL    HW1 1337   5.172   0.140   6.983
  146SOL    HW2 1338   5.225   0.061   0.092
  147SOL     OW 1339   5.392   0.975   5.993
  147SOL    HW1 1340   5.347   0.893   6.028
  147SOL    HW2 1341   5.411   1.037   6.069
  148SOL     OW 1342   0.669   5.344   1.474
  148SOL    HW1 1343   0.683   5.405   1.552
  148SOL    HW2 1344   0.616   5.391   1.404
  149SOL     OW 1345   3.305   1.938   4.939
  149SOL    HW1 1346   3.367   1.865   4.909
  149SOL    HW2 1347   3.268   1.985   4.858
  150SOL     OW 1348   4.866   0.095   6.427
  150SOL    HW1 1349   4.931   0.168   6.448
  150SOL    HW2 1350   4.915   0.010   6.408
  151SOL     OW 1351   3.658   0.613   2.322
  151SOL    HW1 1352   3.676   0.706   2.353
  151SOL    HW2 1353   3.656   0.611   2.222
  152SOL     OW 1354   7.013   1.810   0.261
  152SOL    HW1 1355   6.933   1.858   0.224
  152SOL    HW2 1356   6.998   1.711   0.254
  153SOL     OW 1357   3.221   6.234   2.916
  153SOL    HW1 1358   3.191   6.157   2.971
  153SOL    HW2 1359   3.302   6.275   2.957
  154SOL     OW 1360   0.526   3.545   0.879
  154SOL    HW1 1361   0.488   3.453   0.873
  154SOL    HW2 1362   0.470   3.600   0.940
  155SOL     OW 1363   0.824   0.838   3.126
  155SOL    HW1 1364   0.826   0.905   3.052
  155SOL    HW2 1365   0.881   0.760   3.102
  156SOL     OW 1366   6.714   0.228   0.085
  156SOL    HW1 1367   6.766   0.250   0.002
  156SOL    HW2 1368   6.621   0.200   0.059
  157SOL     OW 1369   5.724   3.524   0.332
  157SOL    HW1 1370   5.738   3.598   0.398
  157SOL    HW2 1371   5.663   3.455   0.372
  158SOL     OW 1372   1.894   2.773   1.363
  158SOL    HW1 1373   1.909   2.675   1.357
  158SOL    HW2 1374   1.924   2.806   1.453
  159SOL     OW 1375   4.065   4.886   1.380
  159SOL    HW1 1376   4.148   4.831   1.384
  159SOL    HW2 1377   4.089   4.983   1.377
  160SOL     OW 1378   6.034   0.295   0.906
  160SOL    HW1 1379   5.982   0.232   0.849
  160SOL    HW2 1380   6.058   0.376   0.852
  161SOL     OW 1381   1.439   0.179   2.723
  161SOL    HW1 1382   1.424   0.116   2.647
  161SOL    HW2 1383   1.397   0.267   2.702
  162SOL     OW 1384   3.541   5.932   6.586
  162SOL    HW1 1385   3.465   5.928   6.521
  162SOL    HW2 1386   3.582   5.842   6.595
  163SOL     OW 1387   0.367   5.927   2.749
  163SOL    HW1 1388   0.297   5.871   2.705
  163SOL    HW2 1389   0.438   5.867   2.786
  164SOL     OW 1390   1.078   3.397   2.510
  164SOL    HW1 1391   0.988   3.399   2.552
  164SOL    HW2 1392   1.118   3.306   2.519
  165SOL     OW 1393   5.269   5.355   6.839
  165SOL    HW1 1394   5.314   5.318   6.920
  165SOL    HW2 1395   5.329   5.421   6.794
  166SOL     OW 1396   0.358   3.770   1.993
  166SOL    HW1 1397   0.428   3.770   1.922
  166SOL    HW2 1398   0.387   3.712   2.069
  167SOL     OW 1399   6.430   1.802   6.121
  167SOL    HW1 1400   6.384   1.890   6.131
  167SOL    HW2 1401   6.378   1.731   6.170
  168SOL     OW 1402   4.455   2.365   1.179
  168SOL    HW1 1403   4.436   2.455   1.138
  168SOL    HW2 1404   4.454   2.295   1.107
  169SOL     OW 1405   5.548   2.809   6.876
  169SOL    HW1 1406   5.615   2.792   6.804
  169SOL    HW2 1407   5.529   2.724   6.925
  170SOL     OW 1408   0.104   5.674   2.273
  170SOL    HW1 1409   0.085   5.668   2.371
  170SOL    HW2 1410   0.072   5.591   2.228
  171SOL     OW 1411   2.604   4.695   0.457
  171SOL    HW1 1412   2.688   4.642   0.444
  171SOL    HW2 1413   2.533   4.636   0.495
  172SOL     OW 1414   6.069   1.855   3.034
  172SOL    HW1 1415   6.153   1.809   3.062
  172SOL    HW2 1416   6.073   1.951   3.059
  173SOL     OW 1417   5.760   1.428   4.786
  173SOL    HW1 1418   5.749   1.498   4.715
  173SOL    HW2 1419   5.830   1.363   4.758
  174SOL     OW 1420   4.439   5.280   3.203
  174SOL    HW1 1421   4.402   5.338   3.276
  174SOL    HW2 1422   4.364   5.236   3.154
  175SOL     OW 1423   3.587   0.708   0.854
  175SOL    HW1 1424   3.495   0.743   0.839
  175SOL    HW2 1425   3.649   0.785   0.869
  176SOL     OW 1426   5.392   4.749   2.380
  176SOL    HW1 1427   5.477   4.790   2.414
  176SOL    HW2 1428   5.404   4.722   2.285
  177SOL     OW 1429   5.038   3.412   4.547
  177SOL    HW1 1430   5.043   3.318   4.581
  177SOL    HW2 1431   5.088   3.419   4.461
  178SOL     OW 1432   2.880   4.894   5.500
  178SOL    HW1 1433   2.830   4.870   5.583
  178SOL    HW2 1434   2.901   4.811   5.448
  179SOL     OW 1435   4.191   0.260   6.758
  179SOL    HW1 1436   4.285   0.288   6.738
  179SOL    HW2 1437   4.131   0.290   6.684
  180SOL     OW 1438   2.351   7.001   0.365
  180SOL    HW1 1439   2.352   6.956   0.454
  180SOL    HW2 1440   2.346   0.076   0.378
  181SOL     OW 1441   3.051   3.399   6.007
  181SOL    HW1 1442   3.151   3.396   6.013
  181SOL    HW2 1443   3.012   3.380   6.097
  182SOL     OW 1444   3.974   2.107   6.525
  182SOL    HW1 1445   4.053   2.085   6.468
  182SOL    HW2 1446   3.955   2.031   6.587
  183SOL     OW 1447   3.525   2.068   3.794
  183SOL    HW1 1448   3.500   2.124   3.716
  183SOL    HW2 1449   3.570   1.984   3.762
  184SOL     OW 1450   0.387   6.595   3.111
  184SOL    HW1 1451   0.398   6.525   3.041
  184SOL    HW2 1452   0.435   6.567   3.194
  185SOL     OW 1453   1.343   1.148   5.017
  185SOL    HW1 1454   1.290   1.160   5.101
  185SOL    HW2 1455   1.281   1.137   4.940
  186SOL     OW 1456   5.866   0.849   4.103
  186SOL    HW1 1457   5.802   0.777   4.077
  186SOL    HW2 1458   5.885   0.843   4.201
  187SOL     OW 1459   5.825   6.426   2.374
  187SOL    HW1 1460   5.900   6.491   2.365
  187SOL    HW2 1461   5.859   6.334   2.354
  188SOL     OW 1462   0.470   3.213   3.903
  188SOL    HW1 1463   0.468   3.128   3.850
  188SOL    HW2 1464   0.495   3.289   3.842
  189SOL     OW 1465   1.905   5.343   6.990
  189SOL    HW1 1466   1.812   5.340   0.000
  189SOL    HW2 1467   1.905   5.324   6.892
  190SOL     OW 1468   6.228   4.594   5.782
  190SOL    HW1 1469   6.209   4.496   5.782
  190SOL    HW2 1470   6.312   4.612   5.835
  191SOL     OW 1471   6.212   1.260   6.626
  191SOL    HW1 1472   6.122   1.294   6.598
  191SOL    HW2 1473   6.212   1.160   6.621
  192SOL     OW 1474   0.363   4.386   1.568
  192SOL    HW1 1475   0.266   4.400   1.547
  192SOL    HW2 1476   0.375   4.298   1.614
  193SOL     OW 1477   5.100   4.167   5.438
  193SOL    HW1 1478   5.183   4.113   5.450
  193SOL    HW2 1479   5.022   4.117   5.477
  194SOL     OW 1480   3.431   6.432   3.408
  194SOL    HW1 1481   3.502   6.383   3.358
  194SOL    HW2 1482   3.452   6.431   3.506
  195SOL     OW 1483   1.691   1.399   3.590
  195SOL    HW1 1484   1.621   1.431   3.654
  195SOL    HW2 1485   1.666   1.425   3.497
  196SOL     OW 1486   2.943   0.224   6.594
  196SOL    HW1 1487   2.873   0.210   6.664
  196SOL    HW2 1488   2.981   0.316   6.603
  197SOL     OW 1489   2.833   0.058   0.304
  197SOL    HW1 1490   2.780   0.060   0.219
  197SOL    HW2 1491   2.821   0.145   0.352
  198SOL     OW 1492   4.622   6.942   2.165
  198SOL    HW1 1493   4.597   0.014   2.172
  198SOL    HW2 1494   4.572   6.900   2.089
  199SOL     OW 1495   6.401   1.426   3.212
  199SOL    HW1 1496   6.474   1.385   3.267
  199SOL    HW2 1497   6.316   1.427   3.265
  200SOL     OW 1498   0.791   3.930   1.905
  200SOL    HW1 1499   0.850   3.895   1.978
  200SOL    HW2 1500   0.842   3.996   1.850
  201SOL     OW 1501   4.852   6.805   6.328
  201SOL    HW1 1502   4.842   6.742   6.405
  201SOL    HW2 1503   4.767   6.809   6.277
  202SOL     OW 1504   5.440   0.141   5.886
  202SOL    HW1 1505   5.437   0.171   5.791
  202SOL    HW2 1506   5.373   0.193   5.940
  203SOL     OW 1507   4.739   2.211   4.745
  203SOL    HW1 1508   4.711   2.134   4.687
  203SOL    HW2 1509   4.751   2.293   4.689
  204SOL     OW 1510   6.971   0.904   6.888
  204SOL    HW1 1511   6.895   0.934   6.946
  204SOL    HW2 1512   0.023   0.875   6.947
  205SOL     OW 1513   1.006   0.969   2.261
  205SOL    HW1 1514   1.102   0.942   2.253
  205SOL    HW2 1515   0.948   0.887   2.260
  206SOL     OW 1516   0.046   4.827   2.626
  206SOL    HW1 1517   0.013   4.910   2.671
  206SOL    HW2 1518   0.142   4.839   2.600
  207SOL     OW 1519   4.117   0.771   4.144
  207SOL    HW1 1520   4.161   0.744   4.230
  207SOL    HW2 1521   4.178   0.749   4.068
  208SOL     OW 1522   5.273   3.965   5.502
  208SOL    HW1 1523   5.218   3.897   5.453
  208SOL    HW2 1524   5.314   3.922   5.582
  209SOL     OW 1525   1.146   5.041   4.653
  209SOL    HW1 1526   1.121   5.134   4.678
  209SOL    HW2 1527   1.155   4.986   4.736
  210SOL     OW 1528   4.558   1.970   1.526
  210SOL    HW1 1529   4.505   2.051   1.502
  210SOL    HW2 1530   4.646   1.998   1.565
  211SOL     OW 1531   1.299   6.114   4.062
  211SOL    HW1 1532   1.363   6.130   3.986
  211SOL    HW2 1533   1.231   6.187   4.064
  212SOL     OW 1534   2.232   4.752   2.403
  212SOL    HW1 1535   2.182   4.704   2.476
  212SOL    HW2 1536   2.320   4.784   2.439
  213SOL     OW 1537   3.555   0.991   5.783
  213SOL    HW1 1538   3.533   0.910   5.838
  213SOL    HW2 1539   3.533   0.974   5.687
  214SOL     OW 1540   4.014   5.640   1.917
  214SOL    HW1 1541   4.007   5.683   1.828
  214SOL    HW2 1542   4.036   5.543   1.906
  215SOL     OW 1543   3.016   4.130   1.825
  215SOL    HW1 1544   2.984   4.223   1.808
  215SOL    HW2 1545   2.970   4.067   1.763
  216SOL     OW 1546   1.897   6.141   4.764
  216SOL    HW1 1547   1.970   6.073   4.769
  216SOL    HW2 1548   1.866   6.164   4.856
  217SOL     OW 1549   2.714   2.358   3.575
  217SOL    HW1 1550   2.784   2.346   3.505
  217SOL    HW2 1551   2.624   2.340   3.536
  218SOL     OW 1552   0.397   3.490   4.426
  218SOL    HW1 1553   0.332   3.554   4.467
  218SOL    HW2 1554   0.425   3.524   4.336
  219SOL     OW 1555   3.052   6.641   6.466
  219SOL    HW1 1556   3.134   6.664   6.413
  219SOL    HW2 1557   3.077   6.635   6.563
  220SOL     OW 1558   3.695   6.716   6.402
  220SOL    HW1 1559   3.735   6.641   6.350
  220SOL    HW2 1560   3.632   6.767   6.344
  221SOL     OW 1561   0.116   3.690   2.413
  221SOL    HW1 1562   0.093   3.784   2.436
  221SOL    HW2 1563   0.204   3.687   2.365
  222SOL     OW 1564   2.279   5.112   5.720
  222SOL    HW1 1565   2.184   5.129   5.693
  222SOL    HW2 1566   2.327   5.069   5.644
  223SOL     OW 1567   5.881   3.523   0.995
  223SOL    HW1 1568   5.946   3.572   1.052
  223SOL    HW2 1569   5.855   3.580   0.917
  224SOL     OW 1570   2.758   1.634   3.645
  224SOL    HW1 1571   2.799   1.587   3.567
  224SOL    HW2 1572   2.661   1.609   3.651
  225SOL     OW 1573   5.372   1.289   5.992
  225SOL    HW1 1574   5.438   1.220   5.964
  225SOL    HW2 1575   5.414   1.351   6.057
  226SOL     OW 1576   0.892   0.172   5.735
  226SOL    HW1 1577   0.905   0.187   5.833
  226SOL    HW2 1578   0.868   0.259   5.691
  227SOL     OW 1579   1.474   4.199   2.059
  227SOL    HW1 1580   1.494   4.169   2.152
  227SOL    HW2 1581   1.517   4.136   1.994
  228SOL     OW 1582   3.340   6.202   3.933
  228SOL    HW1 1583   3.368   6.270   4.001
  228SOL    HW2 1584   3.416   6.141   3.914
  229SOL     OW 1585   5.157   6.847   0.486
  229SOL    HW1 1586   5.187   6.759   0.449
  229SOL    HW2 1587   5.058   6.848   0.496
  230SOL     OW 1588   2.755   4.814   2.557
  230SOL    HW1 1589   2.777   4.910   2.570
  230SOL    HW2 1590   2.829   4.770   2.505
  231SOL     OW 1591   6.355   2.211   6.302
  231SOL    HW1 1592   6.346   2.305   6.334
  231SOL    HW2 1593   6.395   2.155   6.374
  232SOL     OW 1594   1.285   4.375   6.084
  232SOL    HW1 1595   1.274   4.474   6.093
  232SOL    HW2 1596   1.379   4.350   6.107
  233SOL     OW 1597   2.390   1.071   3.959
  233SOL    HW1 1598   2.460   1.117   4.014
  233SOL    HW2 1599   2.428   1.045   3.870
  234SOL     OW 1600   3.098   6.139   5.426
  234SOL    HW1 1601   3.051   6.148   5.338
  234SOL    HW2 1602   3.031   6.136   5.500
  235SOL     OW 1603   3.045   3.875   2.501
  235SOL    HW1 1604   3.025   3.922   2.587
  235SOL    HW2 1605   3.000   3.785   2.501
  236SOL     OW 1606   5.881   2.764   6.977
  236SOL    HW1 1607   5.829   2.765   6.891
  236SOL    HW2 1608   5.969   2.810   6.964
  237SOL     OW 1609   6.621   6.591   0.694
  237SOL    HW1 1610   6.704   6.611   0.746
  237SOL    HW2 1611   6.573   6.677   0.674
  238SOL     OW 1612   6.038   2.021   6.911
  238SOL    HW1 1613   6.051   2.023   6.812
  238SOL    HW2 1614   5.976   2.094   6.939
  239SOL     OW 1615   6.960   5.888   6.960
  239SOL    HW1 1616   6.938   5.832   6.880
  239SOL    HW2 1617   6.875   5.927   6.997
  240SOL     OW 1618   0.475   3.053   5.813
  240SOL    HW1 1619   0.395   3.113   5.803
  240SOL    HW2 1620   0.555   3.108   5.836
  241SOL     OW 1621   1.474   0.412   4.182
  241SOL    HW1 1622   1.560   0.362   4.172
  241SOL    HW2 1623   1.478   0.497   4.129
  242SOL     OW 1624   2.188   3.086   6.333
  242SOL    HW1 1625   2.196   3.001   6.385
  242SOL    HW2 1626   2.190   3.164   6.396
  243SOL     OW 1627   5.207   0.205   6.794
  243SOL    HW1 1628   5.226   0.237   6.701
  243SOL    HW2 1629   5.121   0.152   6.794
  244SOL     OW 1630   4.820   3.046   4.129
  244SOL    HW1 1631   4.811   2.966   4.188
  244SOL    HW2 1632   4.760   3.119   4.162
  245SOL     OW 1633   0.055   2.361   5.108
  245SOL    HW1 1634   0.125   2.303   5.148
  245SOL    HW2 1635   6.988   2.327   5.134
  246SOL     OW 1636   5.510   3.186   3.291
  246SOL    HW1 1637   5.557   3.181   3.379
  246SOL    HW2 1638   5.532   3.105   3.237
  247SOL     OW 1639   2.123   1.361   2.142
  247SOL    HW1 1640   2.027   1.366   2.170
  247SOL    HW2 1641   2.168   1.449   2.160
  248SOL     OW 1642   4.231   1.714   4.424
  248SOL    HW1 1643   4.321   1.756   4.435
  248SOL    HW2 1644   4.230   1.625   4.470
  249SOL     OW 1645   4.780   6.988   5.581
  249SOL    HW1 1646   4.857   6.929   5.560
  249SOL    HW2 1647   4.736   7.017   5.496
  250SOL     OW 1648   4.984   2.289   6.070
  250SOL    HW1 1649   4.914   2.360   6.066
  250SOL    HW2 1650   4.967   2.231   6.149
  251SOL     OW 1651   4.491   4.918   6.668
  251SOL    HW1 1652   4.549   4.970   6.606
  251SOL    HW2 1653   4.531   4.918   6.759
  252SOL     OW 1654   0.335   0.722   0.082
  252SOL    HW1 1655   0.254   0.663   0.080
  252SOL    HW2 1656   0.408   0.680   0.029
  253SOL     OW 1657   2.212   4.190   0.179
  253SOL    HW1 1658   2.132   4.247   0.160
  253SOL    HW2 1659   2.294   4.235   0.145
  254SOL     OW 1660   6.500   2.804   3.718
  254SOL    HW1 1661   6.429   2.873   3.703
  254SOL    HW2 1662   6.571   2.812   3.648
  255SOL     OW 1663   1.801   3.125   4.012
  255SOL    HW1 1664   1.858   3.070   3.951
  255SOL    HW2 1665   1.747   3.190   3.958
  256SOL     OW 1666   6.503   4.419   0.262
  256SOL    HW1 1667   6.577   4.400   0.326
  256SOL    HW2 1668   6.415   4.413   0.310
  257SOL     OW 1669   3.805   5.454   5.047
  257SOL    HW1 1670   3.889   5.496   5.014
  257SOL    HW2 1671   3.726   5.500   5.007
  258SOL     OW 1672   5.444   5.032   4.684
  258SOL    HW1 1673   5.530   4.984   4.668
  258SOL    HW2 1674   5.370   4.985   4.637
  259SOL     OW 1675   1.793   2.780   2.337
  259SOL    HW1 1676   1.813   2.785   2.435
  259SOL    HW2 1677   1.853   2.713   2.294
  260SOL     OW 1678   4.782   1.176   1.658
  260SOL    HW1 1679   4.783   1.275   1.674
  260SOL    HW2 1680   4.690   1.141   1.674
  261SOL     OW 1681   6.647   4.035   0.981
  261SOL    HW1 1682   6.738   4.068   1.006
  261SOL    HW2 1683   6.584   4.049   1.058
  262SOL     OW 1684   0.730   3.731   1.348
  262SOL    HW1 1685   0.678   3.767   1.271
  262SOL    HW2 1686   0.667   3.706   1.422
  263SOL     OW 1687   0.721   1.481   3.632
  263SOL    HW1 1688   0.758   1.556   3.686
  263SOL    HW2 1689   0.627   1.461   3.663
  264SOL     OW 1690   5.481   4.256   5.059
  264SOL    HW1 1691   5.481   4.291   4.966
  264SOL    HW2 1692   5.392   4.216   5.080
  265SOL     OW 1693   4.565   4.328   3.005
  265SOL    HW1 1694   4.556   4.238   2.963
  265SOL    HW2 1695   4.559   4.398   2.934
  266SOL     OW 1696   3.368   3.108   6.047
  266SOL    HW1 1697   3.366   3.179   5.976
  266SOL    HW2 1698   3.339   3.147   6.134
  267SOL     OW 1699   6.835   2.729   6.244
  267SOL    HW1 1700   6.825   2.783   6.161
  267SOL    HW2 1701   6.758   2.665   6.252
  268SOL     OW 1702   4.788   6.651   5.086
  268SOL    HW1 1703   4.836   6.738   5.102
  268SOL    HW2 1704   4.737   6.626   5.168
  269SOL     OW 1705   1.885   2.085   0.389
  269SOL    HW1 1706   1.874   1.990   0.358
  269SOL    HW2 1707   1.811   2.108   0.452
  270SOL     OW 1708   6.980   0.436   1.958
  270SOL    HW1 1709   7.004   0.460   1.864
  270SOL    HW2 1710   7.022   0.349   1.982
  271SOL     OW 1711   2.560   2.331   0.265
  271SOL    HW1 1712   2.655   2.332   0.235
  271SOL    HW2 1713   2.511   2.408   0.224
  272SOL     OW 1714   3.125   5.566   4.348
  272SOL    HW1 1715   3.151   5.548   4.253
  272SOL    HW2 1716   3.072   5.651   4.352
  273SOL     OW 1717   1.592   5.365   5.554
  273SOL    HW1 1718   1.666   5.350   5.619
  273SOL    HW2 1719   1.628   5.362   5.461
  274SOL     OW 1720   5.601   2.027   4.066
  274SOL    HW1 1721   5.690   2.011   4.023
  274SOL    HW2 1722   5.608   2.004   4.164
  275SOL     OW 1723   6.908   5.700   6.312
  275SOL    HW1 1724   6.907   5.652   6.400
  275SOL    HW2 1725   6.868   5.642   6.242
  276SOL     OW 1726   6.647   5.290   3.674
  276SOL    HW1 1727   6.615   5.282   3.768
  276SOL    HW2 1728   6.575   5.259   3.612
  277SOL     OW 1729   2.842   1.190   0.416
  277SOL    HW1 1730   2.750   1.202   0.378
  277SOL    HW2 1731   2.879   1.279   0.443
  278SOL     OW 1732   6.683   3.511   1.754
  278SOL    HW1 1733   6.761   3.492   1.815
  278SOL    HW2 1734   6.601   3.528   1.809
  279SOL     OW 1735   6.062   2.869   4.645
  279SOL    HW1 1736   5.970   2.858   4.683
  279SOL    HW2 1737   6.062   2.839   4.550
  280SOL     OW 1738   3.842   6.921   2.617
  280SOL    HW1 1739   3.905   6.997   2.634
  280SOL    HW2 1740   3.748   6.956   2.615
  281SOL     OW 1741   2.734   4.732   2.824
  281SOL    HW1 1742   2.710   4.755   2.729
  281SOL    HW2 1743   2.829   4.756   2.841
  282SOL     OW 1744   3.833   2.437   5.317
  282SOL    HW1 1745   3.912   2.469   5.265
  282SOL    HW2 1746   3.787   2.363   5.267
  283SOL     OW 1747   6.528   0.946   6.043
  283SOL    HW1 1748   6.628   0.937   6.035
  283SOL    HW2 1749   6.489   0.860   6.076
  284SOL     OW 1750   0.452   4.831   5.007
  284SOL    HW1 1751   0.505   4.891   4.946
  284SOL    HW2 1752   0.486   4.840   5.100
  285SOL     OW 1753   5.014   5.912   6.924
  285SOL    HW1 1754   5.046   6.000   6.960
  285SOL    HW2 1755   5.019   5.843   6.996
  286SOL     OW 1756   4.115   4.757   5.107
  286SOL    HW1 1757   4.036   4.805   5.147
  286SOL    HW2 1758   4.170   4.718   5.181
  287SOL     OW 1759   0.307   5.140   6.713
  287SOL    HW1 1760   0.244   5.087   6.770
  287SOL    HW2 1761   0.317   5.094   6.624
  288SOL     OW 1762   3.869   1.587   0.635
  288SOL    HW1 1763   3.920   1.618   0.555
  288SOL    HW2 1764   3.909   1.627   0.717
  289SOL     OW 1765   0.508   5.016   4.828
  289SOL    HW1 1766   0.472   5.019   4.735
  289SOL    HW2 1767   0.457   5.082   4.885
  290SOL     OW 1768   5.006   1.725   3.736
  290SOL    HW1 1769   5.058   1.783   3.674
  290SOL    HW2 1770   4.996   1.770   3.824
  291SOL     OW 1771   3.808   1.055   4.298
  291SOL    HW1 1772   3.871   1.084   4.226
  291SOL    HW2 1773   3.774   0.964   4.277
  292SOL     OW 1774   4.358   1.784   3.799
  292SOL    HW1 1775   4.439   1.843   3.796
  292SOL    HW2 1776   4.282   1.829   3.752
  293SOL     OW 1777   3.832   6.370   1.385
  293SOL    HW1 1778   3.788   6.372   1.475
  293SOL    HW2 1779   3.830   6.277   1.349
  294SOL     OW 1780   6.513   5.721   0.035
  294SOL    HW1 1781   6.532   5.768   0.121
  294SOL    HW2 1782   6.451   5.645   0.051
  295SOL     OW 1783   2.784   1.420   5.289
  295SOL    HW1 1784   2.838   1.500   5.263
  295SOL    HW2 1785   2.702   1.415   5.232
  296SOL     OW 1786   6.141   2.517   1.826
  296SOL    HW1 1787   6.194   2.595   1.794
  296SOL    HW2 1788   6.044   2.531   1.807
  297SOL     OW 1789   3.246   4.887   2.777
  297SOL    HW1 1790   3.165   4.834   2.802
  297SOL    HW2 1791   3.260   4.960   2.845
  298SOL     OW 1792   3.962   6.954   0.037
  298SOL    HW1 1793   3.962   6.973   6.963
  298SOL    HW2 1794   4.056   6.959   0.072
  299SOL     OW 1795   4.614   2.313   6.348
  299SOL    HW1 1796   4.592   2.217   6.365
  299SOL    HW2 1797   4.532   2.361   6.317
  300SOL     OW 1798   4.711   0.993   2.414
  300SOL    HW1 1799   4.731   0.900   2.445
  300SOL    HW2 1800   4.664   0.988   2.325
  301SOL     OW 1801   4.816   1.704   0.813
  301SOL    HW1 1802   4.884   1.635   0.788
  301SOL    HW2 1803   4.762   1.728   0.733
  302SOL     OW 1804   6.879   0.454   2.617
  302SOL    HW1 1805   6.969   0.495   2.603
  302SOL    HW2 1806   6.841   0.486   2.704
  303SOL     OW 1807   6.404   6.149   2.069
  303SOL    HW1 1808   6.377   6.062   2.112
  303SOL    HW2 1809   6.378   6.148   1.973
  304SOL     OW 1810   2.214   6.055   6.193
  304SOL    HW1 1811   2.259   6.033   6.106
  304SOL    HW2 1812   2.238   5.986   6.262
  305SOL     OW 1813   1.175   2.972   0.665
  305SOL    HW1 1814   1.209   3.021   0.585
  305SOL    HW2 1815   1.098   3.023   0.705
  306SOL     OW 1816   0.757   0.801   2.767
  306SOL    HW1 1817   0.854   0.806   2.743
  306SOL    HW2 1818   0.737   0.711   2.805
  307SOL     OW 1819   4.699   4.413   0.704
  307SOL    HW1 1820   4.788   4.460   0.694
  307SOL    HW2 1821   4.631   4.478   0.738
  308SOL     OW 1822   5.822   3.803   4.440
  308SOL    HW1 1823   5.847   3.804   4.343
  308SOL    HW2 1824   5.743   3.862   4.454
  309SOL     OW 1825   1.371   5.831   0.429
  309SOL    HW1 1826   1.325   5.751   0.467
  309SOL    HW2 1827   1.398   5.813   0.334
  310SOL     OW 1828   5.144   5.760   4.463
  310SOL    HW1 1829   5.075   5.831   4.451
  310SOL    HW2 1830   5.192   5.775   4.550
  311SOL     OW 1831   3.288   5.077   2.960
  311SOL    HW1 1832   3.243   5.151   2.909
  311SOL    HW2 1833   3.340   5.117   3.036
  312SOL     OW 1834   3.808   1.533   4.244
  312SOL    HW1 1835   3.904   1.557   4.235
  312SOL    HW2 1836   3.752   1.615   4.238
  313SOL     OW 1837   3.338   3.878   2.519
  313SOL    HW1 1838   3.278   3.941   2.471
  313SOL    HW2 1839   3.285   3.804   2.560
  314SOL     OW 1840   2.672   4.770   6.289
  314SOL    HW1 1841   2.723   4.708   6.348
  314SOL    HW2 1842   2.684   4.864   6.321
  315SOL     OW 1843   0.892   2.937   4.320
  315SOL    HW1 1844   0.957   2.987   4.264
  315SOL    HW2 1845   0.800   2.974   4.307
  316SOL     OW 1846   3.146   0.651   4.377
  316SOL    HW1 1847   3.052   0.631   4.349
  316SOL    HW2 1848   3.156   0.632   4.474
  317SOL     OW 1849   6.988   1.824   1.093
  317SOL    HW1 1850   6.929   1.850   1.017
  317SOL    HW2 1851   7.011   1.727   1.086
  318SOL     OW 1852   0.335   6.401   6.932
  318SOL    HW1 1853   0.378   6.311   6.927
  318SOL    HW2 1854   0.394   6.468   6.887
  319SOL     OW 1855   6.596   1.303   3.790
  319SOL    HW1 1856   6.587   1.235   3.717
  319SOL    HW2 1857   6.505   1.336   3.816
  320SOL     OW 1858   5.513   2.562   7.007
  320SOL    HW1 1859   5.521   2.476   6.958
  320SOL    HW2 1860   5.474   2.546   0.074
  321SOL     OW 1861   3.576   2.011   6.994
  321SOL    HW1 1862   3.670   2.044   6.983
  321SOL    HW2 1863   3.520   2.044   6.919
  322SOL     OW 1864   2.967   3.304   4.036
  322SOL    HW1 1865   2.973   3.304   4.136
  322SOL    HW2 1866   2.925   3.389   4.005
  323SOL     OW 1867   1.012   2.748   6.284
  323SOL    HW1 1868   0.971   2.811   6.217
  323SOL    HW2 1869   1.034   2.662   6.239
  324SOL     OW 1870   3.157   0.211   3.104
  324SOL    HW1 1871   3.205   0.211   3.192
  324SOL    HW2 1872   3.115   0.300   3.089
  325SOL     OW 1873   0.643   2.681   1.927
  325SOL    HW1 1874   0.658   2.768   1.975
  325SOL    HW2 1875   0.576   2.627   1.977
  326SOL     OW 1876   1.223   4.021   6.022
  326SOL    HW1 1877   1.126   4.047   6.016
  326SOL    HW2 1878   1.253   3.986   5.933
  327SOL     OW 1879   1.659   4.654   2.400
  327SOL    HW1 1880   1.749   4.679   2.364
  327SOL    HW2 1881   1.640   4.708   2.482
  328SOL     OW 1882   1.701   5.826   1.833
  328SOL    HW1 1883   1.669   5.796   1.923
  328SOL    HW2 1884   1.631   5.886   1.792
  329SOL     OW 1885   2.878   3.567   5.282
  329SOL    HW1 1886   2.861   3.646   5.222
  329SOL    HW2 1887   2.951   3.511   5.244
  330SOL     OW 1888   3.111   6.264   1.544
  330SOL    HW1 1889   3.167   6.268   1.626
  330SOL    HW2 1890   3.105   6.356   1.504
  331SOL     OW 1891   4.359   5.639   0.784
  331SOL    HW1 1892   4.455   5.655   0.805
  331SOL    HW2 1893   4.333   5.692   0.703
  332SOL     OW 1894   5.275   2.567   5.555
  332SOL    HW1 1895   5.334   2.645   5.530
  332SOL    HW2 1896   5.313   2.521   5.636
  333SOL     OW 1897   4.417   1.012   5.490
  333SOL    HW1 1898   4.491   0.966   5.537
  333SOL    HW2 1899   4.420   1.110   5.510
  334SOL     OW 1900   3.498   1.592   0.205
  334SOL    HW1 1901   3.533   1.553   0.290
  334SOL    HW2 1902   3.441   1.524   0.159
  335SOL     OW 1903   4.406   6.887   6.139
  335SOL    HW1 1904   4.383   6.942   6.220
  335SOL    HW2 1905   4.474   6.818   6.164
  336SOL     OW 1906   2.873   1.231   3.234
  336SOL    HW1 1907   2.788   1.225   3.288
  336SOL    HW2 1908   2.912   1.140   3.224
  337SOL     OW 1909   0.119   3.353   6.045
  337SOL    HW1 1910   0.143   3.441   6.005
  337SOL    HW2 1911   0.162   3.345   6.135
  338SOL     OW 1912   2.944   2.279   1.354
  338SOL    HW1 1913   2.985   2.263   1.444
  338SOL    HW2 1914   2.959   2.375   1.328
  339SOL     OW 1915   4.635   5.880   4.879
  339SOL    HW1 1916   4.644   5.824   4.797
  339SOL    HW2 1917   4.664   5.974   4.859
  340SOL     OW 1918   5.462   3.842   5.071
  340SOL    HW1 1919   5.534   3.773   5.081
  340SOL    HW2 1920   5.373   3.798   5.076
  341SOL     OW 1921   6.199   6.734   4.400
  341SOL    HW1 1922   6.104   6.760   4.381
  341SOL    HW2 1923   6.237   6.686   4.321
  342SOL     OW 1924   5.664   3.837   0.349
  342SOL    HW1 1925   5.598   3.800   0.413
  342SOL    HW2 1926   5.618   3.896   0.283
  343SOL     OW 1927   1.034   6.069   1.298
  343SOL    HW1 1928   1.061   6.068   1.202
  343SOL    HW2 1929   1.112   6.095   1.354
  344SOL     OW 1930   1.208   3.403   1.474
  344SOL    HW1 1931   1.199   3.494   1.514
  344SOL    HW2 1932   1.268   3.347   1.531
  345SOL     OW 1933   5.523   2.219   3.473
  345SOL    HW1 1934   5.477   2.133   3.496
  345SOL    HW2 1935   5.610   2.224   3.522
  346SOL     OW 1936   1.610   1.013   2.659
  346SOL    HW1 1937   1.706   1.032   2.636
  346SOL    HW2 1938   1.605   0.971   2.749
  347SOL     OW 1939   2.994   5.373   7.003
  347SOL    HW1 1940   2.935   5.293   7.013
  347SOL    HW2 1941   2.964   5.444   0.043
  348SOL     OW 1942   4.908   4.225   2.547
  348SOL    HW1 1943   4.976   4.234   2.620
  348SOL    HW2 1944   4.887   4.128   2.533
  349SOL     OW 1945   0.060   4.785   0.935
  349SOL    HW1 1946   0.114   4.709   0.971
  349SOL    HW2 1947   0.101   4.872   0.964
  350SOL     OW 1948   2.780   1.977   0.871
  350SOL    HW1 1949   2.769   1.879   0.853
  350SOL    HW2 1950   2.875   2.004   0.852
  351SOL     OW 1951   2.919   3.658   0.869
  351SOL    HW1 1952   2.854   3.591   0.903
  351SOL    HW2 1953   2.967   3.621   0.789
  352SOL     OW 1954   3.107   0.163   3.681
  352SOL    HW1 1955   3.052   0.156   3.598
  352SOL    HW2 1956   3.128   0.071   3.715
  353SOL     OW 1957   3.041   0.022   0.003
  353SOL    HW1 1958   3.059   6.987   0.081
  353SOL    HW2 1959   2.958   7.017   6.981
  354SOL     OW 1960   4.286   3.025   1.063
  354SOL    HW1 1961   4.358   2.955   1.055
  354SOL    HW2 1962   4.252   3.027   1.157
  355SOL     OW 1963   1.524   4.031   2.990
  355SOL    HW1 1964   1.485   4.008   3.079
  355SOL    HW2 1965   1.575   3.953   2.955
  356SOL     OW 1966   2.014   0.214   5.904
  356SOL    HW1 1967   1.938   0.191   5.842
  356SOL    HW2 1968   2.094   0.239   5.850
  357SOL     OW 1969   0.032   6.519   5.508
  357SOL    HW1 1970   0.101   6.496   5.440
  357SOL    HW2 1971   0.042   6.616   5.533
  358SOL     OW 1972   4.665   6.559   0.688
  358SOL    HW1 1973   4.566   6.543   0.696
  358SOL    HW2 1974   4.683   6.658   0.691
  359SOL     OW 1975   3.022   2.288   1.609
  359SOL    HW1 1976   3.112   2.244   1.605
  359SOL    HW2 1977   2.996   2.304   1.704
  360SOL     OW 1978   1.421   4.117   5.717
  360SOL    HW1 1979   1.354   4.043   5.717
  360SOL    HW2 1980   1.510   4.081   5.688
  361SOL     OW 1981   6.627   6.130   2.405
  361SOL    HW1 1982   6.644   6.200   2.474
  361SOL    HW2 1983   6.597   6.046   2.450
  362SOL     OW 1984   3.690   2.791   1.469
  362SOL    HW1 1985   3.737   2.705   1.488
  362SOL    HW2 1986   3.612   2.801   1.530
  363SOL     OW 1987   5.703   3.971   2.896
  363SOL    HW1 1988   5.653   3.940   2.815
  363SOL    HW2 1989   5.801   3.959   2.880
  364SOL     OW 1990   6.311   4.836   6.576
  364SOL    HW1 1991   6.402   4.875   6.588
  364SOL    HW2 1992   6.316   4.737   6.585
  365SOL     OW 1993   5.339   6.832   2.048
  365SOL    HW1 1994   5.358   6.815   2.145
  365SOL    HW2 1995   5.418   6.875   2.005
  366SOL     OW 1996   5.276   0.471   6.818
  366SOL    HW1 1997   5.373   0.491   6.828
  366SOL    HW2 1998   5.262   0.372   6.811
  367SOL     OW 1999   5.938   2.733   1.230
  367SOL    HW1 2000   5.895   2.718   1.141
  367SOL    HW2 2001   5.869   2.765   1.295
  368SOL     OW 2002   0.497   2.350   5.685
  368SOL    HW1 2003   0.506   2.445   5.654
  368SOL    HW2 2004   0.588   2.308   5.689
  369SOL     OW 2005   6.229   5.115   2.644
  369SOL    HW1 2006   6.151   5.140   2.586
  369SOL    HW2 2007   6.213   5.023   2.682
  370SOL     OW 2008   1.502   1.895   5.131
  370SOL    HW1 2009   1.465   1.987   5.125
  370SOL    HW2 2010   1.469   1.841   5.052
  371SOL     OW 2011   1.494   4.826   5.621
  371SOL    HW1 2012   1.583   4.785   5.598
  371SOL    HW2 2013   1.490   4.919   5.585
  372SOL     OW 2014   1.389   6.527   6.470
  372SOL    HW1 2015   1.361   6.445   6.420
  372SOL    HW2 2016   1.483   6.551   6.445
  373SOL     OW 2017   5.909   6.505   4.626
  373SOL    HW1 2018   6.001   6.528   4.659
  373SOL    HW2 2019   5.869   6.585   4.581
  374SOL     OW 2020   2.598   1.836   3.945
  374SOL    HW1 2021   2.520   1.876   3.992
  374SOL    HW2 2022   2.570   1.751   3.899
  375SOL     OW 2023   0.968   4.618   4.067
  375SOL    HW1 2024   1.042   4.653   4.125
  375SOL    HW2 2025   0.891   4.591   4.125
  376SOL     OW 2026   2.531   0.768   5.503
  376SOL    HW1 2027   2.532   0.684   5.449
  376SOL    HW2 2028   2.587   0.837   5.458
  377SOL     OW 2029   1.132   1.801   1.333
  377SOL    HW1 2030   1.122   1.824   1.429
  377SOL    HW2 2031   1.138   1.702   1.322
  378SOL     OW 2032   5.016   2.437   6.389
  378SOL    HW1 2033   5.046   2.426   6.484
  378SOL    HW2 2034   4.941   2.373   6.370
  379SOL     OW 2035   5.894   2.620   1.536
  379SOL    HW1 2036   5.895   2.592   1.632
  379SOL    HW2 2037   5.987   2.616   1.499
  380SOL     OW 2038   3.186   1.159   0.690
  380SOL    HW1 2039   3.259   1.090   0.693
  380SOL    HW2 2040   3.152   1.166   0.596
  381SOL     OW 2041   1.371   4.223   2.860
  381SOL    HW1 2042   1.430   4.172   2.923
  381SOL    HW2 2043   1.425   4.293   2.813
  382SOL     OW 2044   5.928   0.539   0.079
  382SOL    HW1 2045   5.873   0.461   0.107
  382SOL    HW2 2046   5.971   0.521   7.015
  383SOL     OW 2047   4.051   4.114   6.677
  383SOL    HW1 2048   4.028   4.195   6.731
  383SOL    HW2 2049   4.044   4.033   6.734
  384SOL     OW 2050   6.844   5.483   3.745
  384SOL    HW1 2051   6.793   5.408   3.703
  384SOL    HW2 2052   6.908   5.446   3.812
  385SOL     OW 2053   3.056   4.673   5.349
  385SOL    HW1 2054   3.039   4.588   5.300
  385SOL    HW2 2055   3.111   4.655   5.430
  386SOL     OW 2056   2.818   6.940   4.699
  386SOL    HW1 2057   2.861   7.022   4.660
  386SOL    HW2 2058   2.794   6.877   4.625
  387SOL     OW 2059   1.526   6.484   1.863
  387SOL    HW1 2060   1.603   6.421   1.853
  387SOL    HW2 2061   1.445   6.433   1.893
  388SOL     OW 2062   1.322   1.870   5.456
  388SOL    HW1 2063   1.353   1.960   5.486
  388SOL    HW2 2064   1.276   1.879   5.367
  389SOL     OW 2065   3.796   3.548   1.390
  389SOL    HW1 2066   3.727   3.477   1.403
  389SOL    HW2 2067   3.763   3.634   1.430
  390SOL     OW 2068   3.052   1.722   1.942
  390SOL    HW1 2069   3.116   1.785   1.899
  390SOL    HW2 2070   2.999   1.770   2.012
  391SOL     OW 2071   2.003   2.767   6.986
  391SOL    HW1 2072   1.960   2.826   6.917
  391SOL    HW2 2073   1.950   2.683   6.996
  392SOL     OW 2074   1.877   4.181   0.846
  392SOL    HW1 2075   1.835   4.144   0.929
  392SOL    HW2 2076   1.976   4.188   0.859
  393SOL     OW 2077   1.696   4.560   6.811
  393SOL    HW1 2078   1.598   4.580   6.800
  393SOL    HW2 2079   1.725   4.494   6.742
  394SOL     OW 2080   6.670   1.711   0.032
  394SOL    HW1 2081   6.654   1.627   0.085
  394SOL    HW2 2082   6.748   1.697   6.995
  395SOL     OW 2083   5.056   3.838   2.956
  395SOL    HW1 2084   5.056   3.809   3.052
  395SOL    HW2 2085   5.143   3.814   2.913
  396SOL     OW 2086   3.281   4.079   1.735
  396SOL    HW1 2087   3.279   4.144   1.659
  396SOL    HW2 2088   3.195   4.084   1.785
  397SOL     OW 2089   6.044   1.468   5.326
  397SOL    HW1 2090   6.009   1.386   5.372
  397SOL    HW2 2091   6.085   1.442   5.239
  398SOL     OW 2092   1.154   6.835   1.978
  398SOL    HW1 2093   1.120   6.929   1.978
  398SOL    HW2 2094   1.185   6.811   2.070
  399SOL     OW 2095   6.186   5.961   2.172
  399SOL    HW1 2096   6.100   5.914   2.153
  399SOL    HW2 2097   6.171   6.059   2.171
  400SOL     OW 2098   6.129   6.275   5.739
  400SOL    HW1 2099   6.206   6.300   5.681
  400SOL    HW2 2100   6.069   6.212   5.690
  401SOL     OW 2101   5.933   0.570   5.937
  401SOL    HW1 2102   5.895   0.577   6.029
  401SOL    HW2 2103   6.026   0.605   5.936
  402SOL     OW 2104   5.981   0.191   3.545
  402SOL    HW1 2105   6.018   0.117   3.600
  402SOL    HW2 2106   6.014   0.183   3.451
  403SOL     OW 2107   3.629   2.108   4.347
  403SOL    HW1 2108   3.537   2.078   4.370
  403SOL    HW2 2109   3.684   2.113   4.430
  404SOL     OW 2110   1.551   5.042   4.025
  404SOL    HW1 2111   1.513   5.134   4.037
  404SOL    HW2 2112   1.578   5.005   4.114
  405SOL     OW 2113   1.686   3.494   2.169
  405SOL    HW1 2114   1.691   3.593   2.151
  405SOL    HW2 2115   1.603   3.474   2.222
  406SOL     OW 2116   1.114   4.057   4.725
  406SOL    HW1 2117   1.103   4.015   4.635
  406SOL    HW2 2118   1.130   3.986   4.793
  407SOL     OW 2119   1.566   1.178   4.413
  407SOL    HW1 2120   1.621   1.100   4.442
  407SOL    HW2 2121   1.565   1.247   4.485
  408SOL     OW 2122   1.153   2.667   3.089
  408SOL    HW1 2123   1.143   2.567   3.091
  408SOL    HW2 2124   1.152   2.702   3.182
  409SOL     OW 2125   0.079   2.848   1.804
  409SOL    HW1 2126   0.027   2.830   1.720
  409SOL    HW2 2127   0.017   2.842   1.883
  410SOL     OW 2128   1.941   1.471   0.915
  410SOL    HW1 2129   1.900   1.556   0.945
  410SOL    HW2 2130   1.985   1.425   0.992
  411SOL     OW 2131   5.956   6.798   1.882
  411SOL    HW1 2132   5.946   6.843   1.794
  411SOL    HW2 2133   6.010   6.714   1.870
  412SOL     OW 2134   3.804   5.809   3.817
  412SOL    HW1 2135   3.844   5.730   3.863
  412SOL    HW2 2136   3.745   5.777   3.742
  413SOL     OW 2137   5.083   3.562   1.506
  413SOL    HW1 2138   5.144   3.641   1.507
  413SOL    HW2 2139   5.011   3.575   1.574
  414SOL     OW 2140   3.654   5.467   3.737
  414SOL    HW1 2141   3.645   5.448   3.639
  414SOL    HW2 2142   3.747   5.498   3.756
  415SOL     OW 2143   1.171   5.891   6.934
  415SOL    HW1 2144   1.148   5.988   6.933
  415SOL    HW2 2145   1.091   5.837   6.907
  416SOL     OW 2146   4.670   6.735   4.309
  416SOL    HW1 2147   4.758   6.700   4.276
  416SOL    HW2 2148   4.616   6.768   4.232
  417SOL     OW 2149   2.463   5.685   6.410
  417SOL    HW1 2150   2.409   5.762   6.375
  417SOL    HW2 2151   2.532   5.719   6.474
  418SOL     OW 2152   4.118   6.451   7.012
  418SOL    HW1 2153   4.179   6.474   6.937
  418SOL    HW2 2154   4.029   6.424   6.976
  419SOL     OW 2155   2.376   6.877   1.449
  419SOL    HW1 2156   2.394   6.951   1.514
  419SOL    HW2 2157   2.326   6.803   1.495
  420SOL     OW 2158   5.756   1.186   0.128
  420SOL    HW1 2159   5.717   1.148   0.212
  420SOL    HW2 2160   5.691   1.251   0.087
  421SOL     OW 2161   0.045   4.261   5.457
  421SOL    HW1 2162   6.999   4.226   5.395
  421SOL    HW2 2163   0.034   4.359   5.469
  422SOL     OW 2164   5.686   3.602   1.354
  422SOL    HW1 2165   5.625   3.536   1.397
  422SOL    HW2 2166   5.643   3.637   1.270
  423SOL     OW 2167   0.609   1.945   6.254
  423SOL    HW1 2168   0.549   1.923   6.331
  423SOL    HW2 2169   0.589   1.883   6.178
  424SOL     OW 2170   1.692   5.457   0.922
  424SOL    HW1 2171   1.666   5.517   0.846
  424SOL    HW2 2172   1.784   5.479   0.953
  425SOL     OW 2173   4.941   1.604   3.435
  425SOL    HW1 2174   5.000   1.531   3.400
  425SOL    HW2 2175   4.985   1.649   3.512
  426SOL     OW 2176   3.405   2.152   4.632
  426SOL    HW1 2177   3.319   2.149   4.683
  426SOL    HW2 2178   3.386   2.167   4.535
  427SOL     OW 2179   5.635   6.354   3.723
  427SOL    HW1 2180   5.656   6.451   3.709
  427SOL    HW2 2181   5.584   6.320   3.644
  428SOL     OW 2182   4.307   0.558   3.917
  428SOL    HW1 2183   4.345   0.637   3.965
  428SOL    HW2 2184   4.330   0.564   3.819
  429SOL     OW 2185   1.180   4.684   1.450
  429SOL    HW1 2186   1.169   4.608   1.514
  429SOL    HW2 2187   1.225   4.760   1.496
  430SOL     OW 2188   0.888   0.197   4.387
  430SOL    HW1 2189   0.931   0.277   4.347
  430SOL    HW2 2190   0.810   0.169   4.330
  431SOL     OW 2191   2.509   0.368   0.741
  431SOL    HW1 2192   2.426   0.320   0.712
  431SOL    HW2 2193   2.584   0.346   0.679
  432SOL     OW 2194   6.208   1.618   0.726
  432SOL    HW1 2195   6.291   1.647   0.678
  432SOL    HW2 2196   6.179   1.691   0.788
  433SOL     OW 2197   1.819   6.415   4.876
  433SOL    HW1 2198   1.727   6.448   4.897
  433SOL    HW2 2199   1.867   6.396   4.961
  434SOL     OW 2200   3.479   5.209   3.128
  434SOL    HW1 2201   3.452   5.268   3.204
  434SOL    HW2 2202   3.560   5.248   3.083
  435SOL     OW 2203   4.674   2.828   6.503
  435SOL    HW1 2204   4.735   2.867   6.433
  435SOL    HW2 2205   4.718   2.749   6.546
  436SOL     OW 2206   3.360   6.070   1.868
  436SOL    HW1 2207   3.310   6.004   1.811
  436SOL    HW2 2208   3.450   6.032   1.890
  437SOL     OW 2209   0.741   1.459   0.202
  437SOL    HW1 2210   0.764   1.386   0.266
  437SOL    HW2 2211   0.741   1.423   0.109
  438SOL     OW 2212   2.044   4.146   3.527
  438SOL    HW1 2213   2.118   4.195   3.575
  438SOL    HW2 2214   2.003   4.206   3.459
  439SOL     OW 2215   6.031   5.144   2.467
  439SOL    HW1 2216   6.059   5.240   2.471
  439SOL    HW2 2217   5.938   5.138   2.430
  440SOL     OW 2218   2.152   1.699   4.811
  440SOL    HW1 2219   2.122   1.623   4.752
  440SOL    HW2 2220   2.199   1.767   4.755
  441SOL     OW 2221   0.597   3.267   4.158
  441SOL    HW1 2222   0.596   3.254   4.058
  441SOL    HW2 2223   0.504   3.288   4.189
  442SOL     OW 2224   4.434   5.719   5.356
  442SOL    HW1 2225   4.481   5.788   5.411
  442SOL    HW2 2226   4.335   5.724   5.372
  443SOL     OW 2227   6.038   4.694   3.539
  443SOL    HW1 2228   6.124   4.648   3.519
  443SOL    HW2 2229   6.005   4.740   3.456
  444SOL     OW 2230   4.718   0.725   0.037
  444SOL    HW1 2231   4.750   0.631   0.041
  444SOL    HW2 2232   4.627   0.728   7.020
  445SOL     OW 2233   0.559   5.737   2.844
  445SOL    HW1 2234   0.565   5.678   2.764
  445SOL    HW2 2235   0.543   5.682   2.926
  446SOL     OW 2236   3.273   5.088   3.822
  446SOL    HW1 2237   3.303   5.183   3.827
  446SOL    HW2 2238   3.274   5.057   3.726
  447SOL     OW 2239   0.541   2.684   6.541
  447SOL    HW1 2240   0.553   2.769   6.491
  447SOL    HW2 2241   0.476   2.626   6.493
  448SOL     OW 2242   1.954   0.386   3.577
  448SOL    HW1 2243   1.923   0.400   3.671
  448SOL    HW2 2244   1.879   0.349   3.522
  449SOL     OW 2245   2.790   1.140   3.638
  449SOL    HW1 2246   2.843   1.091   3.707
  449SOL    HW2 2247   2.844   1.215   3.600
  450SOL     OW 2248   1.246   4.921   2.913
  450SOL    HW1 2249   1.309   4.954   2.842
  450SOL    HW2 2250   1.164   4.977   2.913
  451SOL     OW 2251   1.046   2.467   4.126
  451SOL    HW1 2252   0.965   2.499   4.077
  451SOL    HW2 2253   1.079   2.538   4.188
  452SOL     OW 2254   5.329   6.641   0.339
  452SOL    HW1 2255   5.312   6.615   0.244
  452SOL    HW2 2256   5.389   6.722   0.341
  453SOL     OW 2257   4.282   0.499   6.236
  453SOL    HW1 2258   4.183   0.493   6.222
  453SOL    HW2 2259   4.327   0.423   6.188
  454SOL     OW 2260   6.764   4.339   5.865
  454SOL    HW1 2261   6.831   4.286   5.812
  454SOL    HW2 2262   6.811   4.410   5.916
  455SOL     OW 2263   5.849   2.273   4.297
  455SOL    HW1 2264   5.786   2.225   4.237
  455SOL    HW2 2265   5.919   2.319   4.243
  456SOL     OW 2266   0.009   6.649   3.600
  456SOL    HW1 2267   0.021   6.552   3.577
  456SOL    HW2 2268   6.945   6.681   3.565
  457SOL     OW 2269   1.901   2.631   4.258
  457SOL    HW1 2270   1.874   2.620   4.162
  457SOL    HW2 2271   1.872   2.721   4.290
  458SOL     OW 2272   3.984   5.679   2.878
  458SOL    HW1 2273   3.950   5.728   2.959
  458SOL    HW2 2274   3.910   5.623   2.840
  459SOL     OW 2275   1.935   6.911   5.824
  459SOL    HW1 2276   1.991   6.989   5.795
  459SOL    HW2 2277   1.978   6.866   5.902
  460SOL     OW 2278   2.665   6.817   4.508
  460SOL    HW1 2279   2.721   6.751   4.458
  460SOL    HW2 2280   2.581   6.772   4.540
  461SOL     OW 2281   6.887   6.109   5.718
  461SOL    HW1 2282   6.851   6.201   5.736
  461SOL    HW2 2283   6.974   6.097   5.766
  462SOL     OW 2284   4.024   3.561   0.095
  462SOL    HW1 2285   3.957   3.493   0.068
  462SOL    HW2 2286   4.067   3.534   0.181
  463SOL     OW 2287   5.592   5.964   3.506
  463SOL    HW1 2288   5.682   5.927   3.484
  463SOL    HW2 2289   5.523   5.894   3.488
  464SOL     OW 2290   2.903   1.098   5.626
  464SOL    HW1 2291   2.997   1.131   5.621
  464SOL    HW2 2292   2.842   1.168   5.589
  465SOL     OW 2293   0.484   2.667   0.537
  465SOL    HW1 2294   0.389   2.697   0.543
  465SOL    HW2 2295   0.527   2.708   0.457
  466SOL     OW 2296   2.013   6.199   3.677
  466SOL    HW1 2297   1.937   6.214   3.740
  466SOL    HW2 2298   2.064   6.285   3.666
  467SOL     OW 2299   1.853   1.075   0.652
  467SOL    HW1 2300   1.846   1.157   0.595
  467SOL    HW2 2301   1.945   1.069   0.691
  468SOL     OW 2302   3.971   6.325   5.569
  468SOL    HW1 2303   3.931   6.299   5.657
  468SOL    HW2 2304   4.064   6.356   5.582
  469SOL     OW 2305   3.176   3.459   6.742
  469SOL    HW1 2306   3.140   3.515   6.667
  469SOL    HW2 2307   3.196   3.518   6.820
  470SOL     OW 2308   4.660   6.705   1.289
  470SOL    HW1 2309   4.625   6.628   1.237
  470SOL    HW2 2310   4.749   6.681   1.329
  471SOL     OW 2311   2.255   2.627   3.842
  471SOL    HW1 2312   2.208   2.698   3.895
  471SOL    HW2 2313   2.262   2.655   3.747
  472SOL     OW 2314   4.116   3.908   6.836
  472SOL    HW1 2315   4.161   3.872   6.918
  472SOL    HW2 2316   4.140   3.851   6.757
  473SOL     OW 2317   1.359   2.317   2.553
  473SOL    HW1 2318   1.406   2.309   2.465
  473SOL    HW2 2319   1.273   2.267   2.550
  474SOL     OW 2320   5.426   5.542   4.880
  474SOL    HW1 2321   5.481   5.552   4.797
  474SOL    HW2 2322   5.335   5.510   4.856
  475SOL     OW 2323   6.163   1.732   6.552
  475SOL    HW1 2324   6.120   1.734   6.642
  475SOL    HW2 2325   6.249   1.682   6.557
  476SOL     OW 2326   0.618   3.309   2.775
  476SOL    HW1 2327   0.541   3.309   2.711
  476SOL    HW2 2328   0.598   3.248   2.851
  477SOL     OW 2329   2.914   6.361   3.248
  477SOL    HW1 2330   2.995   6.419   3.246
  477SOL    HW2 2331   2.918   6.299   3.326
  478SOL     OW 2332   3.750   6.746   2.849
  478SOL    HW1 2333   3.742   6.839   2.814
  478SOL    HW2 2334   3.846   6.719   2.852
  479SOL     OW 2335   3.893   2.457   5.956
  479SOL    HW1 2336   3.870   2.393   6.030
  479SOL    HW2 2337   3.860   2.548   5.980
  480SOL     OW 2338   2.719   0.841   0.185
  480SOL    HW1 2339   2.660   0.845   0.266
  480SOL    HW2 2340   2.726   0.746   0.154
  481SOL     OW 2341   2.281   6.659   1.571
  481SOL    HW1 2342   2.277   6.659   1.671
  481SOL    HW2 2343   2.223   6.586   1.535
  482SOL     OW 2344   4.124   4.702   2.109
  482SOL    HW1 2345   4.169   4.700   2.020
  482SOL    HW2 2346   4.193   4.711   2.181
  483SOL     OW 2347   6.796   2.291   3.083
  483SOL    HW1 2348   6.825   2.228   3.011
  483SOL    HW2 2349   6.704   2.267   3.113
  484SOL     OW 2350   1.754   3.159   5.318
  484SOL    HW1 2351   1.834   3.212   5.344
  484SOL    HW2 2352   1.725   3.185   5.225
  485SOL     OW 2353   3.939   4.827   2.621
  485SOL    HW1 2354   3.948   4.925   2.638
  485SOL    HW2 2355   3.925   4.811   2.524
  486SOL     OW 2356   6.196   1.236   0.345
  486SOL    HW1 2357   6.253   1.157   0.323
  486SOL    HW2 2358   6.217   1.269   0.437
  487SOL     OW 2359   1.083   0.732   3.049
  487SOL    HW1 2360   1.079   0.633   3.063
  487SOL    HW2 2361   1.101   0.751   2.952
  488SOL     OW 2362   0.925   1.226   2.236
  488SOL    HW1 2363   0.976   1.140   2.238
  488SOL    HW2 2364   0.983   1.297   2.195
  489SOL     OW 2365   4.402   5.859   5.575
  489SOL    HW1 2366   4.401   5.776   5.631
  489SOL    HW2 2367   4.312   5.872   5.533
  490SOL     OW 2368   0.741   6.121   2.952
  490SOL    HW1 2369   0.821   6.175   2.926
  490SOL    HW2 2370   0.687   6.173   3.018
  491SOL     OW 2371   1.563   3.840   1.918
  491SOL    HW1 2372   1.566   3.939   1.904
  491SOL    HW2 2373   1.643   3.798   1.877
  492SOL     OW 2374   1.464   0.872   5.571
  492SOL    HW1 2375   1.527   0.944   5.600
  492SOL    HW2 2376   1.468   0.861   5.472
  493SOL     OW 2377   4.115   6.613   5.597
  493SOL    HW1 2378   4.181   6.560   5.651
  493SOL    HW2 2379   4.101   6.702   5.639
  494SOL     OW 2380   0.948   6.523   0.065
  494SOL    HW1 2381   0.981   6.607   0.108
  494SOL    HW2 2382   0.953   6.532   6.990
  495SOL     OW 2383   4.465   5.896   3.596
  495SOL    HW1 2384   4.489   5.837   3.520
  495SOL    HW2 2385   4.548   5.926   3.643
  496SOL     OW 2386   5.150   3.089   1.934
  496SOL    HW1 2387   5.111   3.074   2.025
  496SOL    HW2 2388   5.149   3.003   1.883
  497SOL     OW 2389   2.918   1.917   4.854
  497SOL    HW1 2390   2.822   1.891   4.858
  497SOL    HW2 2391   2.944   1.963   4.939
  498SOL     OW 2392   0.685   4.354   1.514
  498SOL    HW1 2393   0.711   4.451   1.508
  498SOL    HW2 2394   0.587   4.348   1.534
  499SOL     OW 2395   1.657   5.410   4.171
  499SOL    HW1 2396   1.745   5.403   4.124
  499SOL    HW2 2397   1.587   5.361   4.119
  500SOL     OW 2398   0.110   1.814   5.878
  500SOL    HW1 2399   0.058   1.888   5.920
  500SOL    HW2 2400   0.050   1.736   5.861
  501SOL     OW 2401   3.268   0.345   0.807
  501SOL    HW1 2402   3.317   0.387   0.731
  501SOL    HW2 2403   3.324   0.351   0.890
  502SOL     OW 2404   0.898   3.520   5.987
  502SOL    HW1 2405   0.890   3.496   6.084
  502SOL    HW2 2406   0.811   3.558   5.955
  503SOL     OW 2407   6.840   4.848   6.808
  503SOL    HW1 2408   6.804   4.925   6.860
  503SOL    HW2 2409   6.888   4.882   6.726
  504SOL     OW 2410   0.793   5.034   2.189
  504SOL    HW1 2411   0.833   5.042   2.280
  504SOL    HW2 2412   0.820   4.947   2.148
  505SOL     OW 2413   2.907   5.753   4.689
  505SOL    HW1 2414   2.935   5.835   4.638
  505SOL    HW2 2415   2.810   5.760   4.712
  506SOL     OW 2416   3.279   4.932   4.042
  506SOL    HW1 2417   3.201   4.892   4.092
  506SOL    HW2 2418   3.245   4.993   3.971
  507SOL     OW 2419   3.055   0.352   3.399
  507SOL    HW1 2420   3.130   0.293   3.372
  507SOL    HW2 2421   2.983   0.349   3.329
  508SOL     OW 2422   6.967   3.554   2.815
  508SOL    HW1 2423   0.034   3.513   2.813
  508SOL    HW2 2424   6.901   3.491   2.775
  509SOL     OW 2425   2.989   1.322   1.508
  509SOL    HW1 2426   3.088   1.341   1.506
  509SOL    HW2 2427   2.954   1.338   1.600
  510SOL     OW 2428   6.132   4.290   6.856
  510SOL    HW1 2429   6.126   4.271   6.954
  510SOL    HW2 2430   6.041   4.284   6.815
  511SOL     OW 2431   0.593   2.349   5.950
  511SOL    HW1 2432   0.684   2.356   5.991
  511SOL    HW2 2433   0.573   2.434   5.901
  512SOL     OW 2434   0.118   2.692   6.622
  512SOL    HW1 2435   0.093   2.676   6.527
  512SOL    HW2 2436   0.202   2.642   6.644
  513SOL     OW 2437   6.028   6.421   3.399
  513SOL    HW1 2438   6.004   6.354   3.469
  513SOL    HW2 2439   5.954   6.429   3.332
  514SOL     OW 2440   6.439   0.910   4.428
  514SOL    HW1 2441   6.413   0.882   4.520
  514SOL    HW2 2442   6.358   0.913   4.370
  515SOL     OW 2443   1.219   6.422   0.951
  515SOL    HW1 2444   1.287   6.478   0.904
  515SOL    HW2 2445   1.138   6.477   0.971
  516SOL     OW 2446   2.863   4.712   2.284
  516SOL    HW1 2447   2.882   4.622   2.246
  516SOL    HW2 2448   2.949   4.755   2.312
  517SOL     OW 2449   4.106   5.141   1.447
  517SOL    HW1 2450   4.132   5.214   1.385
  517SOL    HW2 2451   4.016   5.160   1.485
  518SOL     OW 2452   2.403   1.782   3.702
  518SOL    HW1 2453   2.421   1.875   3.734
  518SOL    HW2 2454   2.348   1.786   3.619
  519SOL     OW 2455   0.685   6.245   4.039
  519SOL    HW1 2456   0.609   6.197   3.997
  519SOL    HW2 2457   0.677   6.240   4.139
  520SOL     OW 2458   5.819   3.863   6.838
  520SOL    HW1 2459   5.897   3.826   6.889
  520SOL    HW2 2460   5.801   3.806   6.758
  521SOL     OW 2461   6.311   6.178   4.901
  521SOL    HW1 2462   6.308   6.229   4.815
  521SOL    HW2 2463   6.221   6.179   4.943
  522SOL     OW 2464   3.273   3.326   4.435
  522SOL    HW1 2465   3.230   3.373   4.512
  522SOL    HW2 2466   3.297   3.233   4.462
  523SOL     OW 2467   1.017   5.578   1.709
  523SOL    HW1 2468   1.113   5.594   1.733
  523SOL    HW2 2469   1.010   5.561   1.610
  524SOL     OW 2470   0.270   1.933   2.236
  524SOL    HW1 2471   0.369   1.921   2.247
  524SOL    HW2 2472   0.222   1.863   2.289
  525SOL     OW 2473   2.198   4.089   5.851
  525SOL    HW1 2474   2.211   3.997   5.813
  525SOL    HW2 2475   2.236   4.157   5.787
  526SOL     OW 2476   3.505   5.662   4.189
  526SOL    HW1 2477   3.516   5.577   4.242
  526SOL    HW2 2478   3.586   5.720   4.201
  527SOL     OW 2479   6.162   2.795   0.570
  527SOL    HW1 2480   6.105   2.811   0.651
  527SOL    HW2 2481   6.243   2.853   0.574
  528SOL     OW 2482   1.428   2.730   3.555
  528SOL    HW1 2483   1.482   2.665   3.609
  528SOL    HW2 2484   1.357   2.681   3.505
  529SOL     OW 2485   1.557   5.846   4.557
  529SOL    HW1 2486   1.558   5.754   4.597
  529SOL    HW2 2487   1.533   5.840   4.460
  530SOL     OW 2488   3.366   3.629   3.855
  530SOL    HW1 2489   3.284   3.668   3.813
  530SOL    HW2 2490   3.340   3.552   3.913
  531SOL     OW 2491   0.509   2.025   2.881
  531SOL    HW1 2492   0.494   2.124   2.879
  531SOL    HW2 2493   0.607   2.006   2.887
  532SOL     OW 2494   0.734   3.087   0.185
  532SOL    HW1 2495   0.687   3.176   0.184
  532SOL    HW2 2496   0.806   3.089   0.254
  533SOL     OW 2497   3.948   6.695   4.090
  533SOL    HW1 2498   3.926   6.711   3.994
  533SOL    HW2 2499   3.899   6.761   4.147
  534SOL     OW 2500   5.220   6.593   2.346
  534SOL    HW1 2501   5.206   6.544   2.259
  534SOL    HW2 2502   5.266   6.679   2.328
  535SOL     OW 2503   6.958   3.380   4.569
  535SOL    HW1 2504   7.009   3.415   4.647
  535SOL    HW2 2505   6.960   3.280   4.571
  536SOL     OW 2506   6.171   4.572   2.518
  536SOL    HW1 2507   6.217   4.485   2.504
  536SOL    HW2 2508   6.112   4.566   2.599
  537SOL     OW 2509   2.334   6.508   4.737
  537SOL    HW1 2510   2.387   6.435   4.693
  537SOL    HW2 2511   2.246   6.472   4.767
  538SOL     OW 2512   1.359   5.070   4.455
  538SOL    HW1 2513   1.395   4.977   4.446
  538SOL    HW2 2514   1.286   5.070   4.525
  539SOL     OW 2515   1.889   5.647   1.373
  539SOL    HW1 2516   1.967   5.708   1.383
  539SOL    HW2 2517   1.917   5.564   1.325
  540SOL     OW 2518   1.535   1.736   2.633
  540SOL    HW1 2519   1.452   1.714   2.685
  540SOL    HW2 2520   1.556   1.833   2.645
  541SOL     OW 2521   4.683   5.401   3.752
  541SOL    HW1 2522   4.664   5.321   3.695
  541SOL    HW2 2523   4.741   5.373   3.829
  542SOL     OW 2524   5.651   5.915   6.833
  542SOL    HW1 2525   5.559   5.877   6.844
  542SOL    HW2 2526   5.683   5.897   6.741
  543SOL     OW 2527   0.694   3.109   4.350
  543SOL    HW1 2528   0.782   3.149   4.375
  543SOL    HW2 2529   0.655   3.161   4.273
  544SOL     OW 2530   2.196   4.881   0.183
  544SOL    HW1 2531   2.105   4.881   0.143
  544SOL    HW2 2532   2.198   4.818   0.261
  545SOL     OW 2533   3.287   1.596   1.757
  545SOL    HW1 2534   3.350   1.614   1.833
  545SOL    HW2 2535   3.334   1.542   1.688
  546SOL     OW 2536   2.288   2.871   0.607
  546SOL    HW1 2537   2.301   2.889   0.510
  546SOL    HW2 2538   2.298   2.773   0.625
  547SOL     OW 2539   3.331   1.106   0.446
  547SOL    HW1 2540   3.324   1.197   0.404
  547SOL    HW2 2541   3.340   1.037   0.374
  548SOL     OW 2542   3.430   3.498   2.245
  548SOL    HW1 2543   3.414   3.561   2.170
  548SOL    HW2 2544   3.370   3.520   2.322
  549SOL     OW 2545   5.478   3.376   1.103
  549SOL    HW1 2546   5.440   3.288   1.134
  549SOL    HW2 2547   5.432   3.451   1.151
  550SOL     OW 2548   0.830   5.596   4.131
  550SOL    HW1 2549   0.790   5.647   4.055
  550SOL    HW2 2550   0.767   5.523   4.158
  551SOL     OW 2551   1.401   0.373   2.080
  551SOL    HW1 2552   1.338   0.311   2.034
  551SOL    HW2 2553   1.352   0.423   2.151
  552SOL     OW 2554   6.283   4.554   6.909
  552SOL    HW1 2555   6.288   4.467   6.958
  552SOL    HW2 2556   6.187   4.577   6.893
  553SOL     OW 2557   3.118   6.154   2.674
  553SOL    HW1 2558   3.149   6.181   2.766
  553SOL    HW2 2559   3.190   6.100   2.630
  554SOL     OW 2560   6.098   6.654   6.882
  554SOL    HW1 2561   6.139   6.711   6.810
  554SOL    HW2 2562   6.025   6.598   6.843
  555SOL     OW 2563   2.012   4.567   4.482
  555SOL    HW1 2564   1.929   4.552   4.536
  555SOL    HW2 2565   2.030   4.486   4.427
  556SOL     OW 2566   3.931   2.161   3.860
  556SOL    HW1 2567   3.842   2.204   3.872
  556SOL    HW2 2568   3.971   2.141   3.949
  557SOL     OW 2569   0.361   5.407   0.613
  557SOL    HW1 2570   0.432   5.437   0.678
  557SOL    HW2 2571   0.394   5.328   0.562
  558SOL     OW 2572   2.893   3.513   3.894
  558SOL    HW1 2573   2.887   3.485   3.798
  558SOL    HW2 2574   2.883   3.612   3.901
  559SOL     OW 2575   6.696   6.097   0.489
  559SOL    HW1 2576   6.756   6.068   0.414
  559SOL    HW2 2577   6.621   6.032   0.499
  560SOL     OW 2578   5.372   4.526   6.153
  560SOL    HW1 2579   5.383   4.617   6.113
  560SOL    HW2 2580   5.428   4.460   6.103
  561SOL     OW 2581   1.054   1.524   1.431
  561SOL    HW1 2582   1.012   1.443   1.391
  561SOL    HW2 2583   1.007   1.548   1.516
  562SOL     OW 2584   4.858   0.704   5.895
  562SOL    HW1 2585   4.763   0.690   5.923
  562SOL    HW2 2586   4.863   0.711   5.796
  563SOL     OW 2587   2.478   0.209   3.602
  563SOL    HW1 2588   2.465   0.276   3.676
  563SOL    HW2 2589   2.392   0.162   3.584
  564SOL     OW 2590   1.625   1.917   6.922
  564SOL    HW1 2591   1.690   1.841   6.924
  564SOL    HW2 2592   1.658   1.987   6.858
  565SOL     OW 2593   2.764   2.833   5.592
  565SOL    HW1 2594   2.831   2.800   5.526
  565SOL    HW2 2595   2.673   2.796   5.570
  566SOL     OW 2596   6.652   4.924   3.338
  566SOL    HW1 2597   6.748   4.909   3.315
  566SOL    HW2 2598   6.627   5.018   3.315
  567SOL     OW 2599   2.708   2.756   1.258
  567SOL    HW1 2600   2.664   2.797   1.338
  567SOL    HW2 2601   2.778   2.691   1.288
  568SOL     OW 2602   5.043   0.656   0.099
  568SOL    HW1 2603   5.066   0.564   0.130
  568SOL    HW2 2604   5.007   0.709   0.176
  569SOL     OW 2605   1.612   3.230   6.547
  569SOL    HW1 2606   1.634   3.189   6.636
  569SOL    HW2 2607   1.535   3.293   6.558
  570SOL     OW 2608   3.443   6.608   6.526
  570SOL    HW1 2609   3.373   6.673   6.553
  570SOL    HW2 2610   3.506   6.592   6.602
  571SOL     OW 2611   3.305   0.157   1.990
  571SOL    HW1 2612   3.401   0.130   1.979
  571SOL    HW2 2613   3.254   0.082   2.032
  572SOL     OW 2614   2.308   4.975   5.354
  572SOL    HW1 2615   2.245   4.898   5.348
  572SOL    HW2 2616   2.397   4.944   5.386
  573SOL     OW 2617   5.466   1.634   5.722
  573SOL    HW1 2618   5.458   1.543   5.764
  573SOL    HW2 2619   5.510   1.626   5.633
  574SOL     OW 2620   3.729   1.815   4.197
  574SOL    HW1 2621   3.749   1.909   4.171
  574SOL    HW2 2622   3.700   1.764   4.115
  575SOL     OW 2623   4.929   4.299   6.694
  575SOL    HW1 2624   4.850   4.238   6.705
  575SOL    HW2 2625   5.000   4.272   6.758
  576SOL     OW 2626   0.687   2.135   2.691
  576SOL    HW1 2627   0.660   2.049   2.647
  576SOL    HW2 2628   0.607   2.192   2.706
  577SOL     OW 2629   1.499   1.275   2.911
  577SOL    HW1 2630   1.455   1.361   2.937
  577SOL    HW2 2631   1.428   1.204   2.901
  578SOL     OW 2632   5.911   6.203   3.587
  578SOL    HW1 2633   5.863   6.171   3.668
  578SOL    HW2 2634   5.858   6.179   3.505
  579SOL     OW 2635   1.822   2.958   2.948
  579SOL    HW1 2636   1.740   2.983   2.896
  579SOL    HW2 2637   1.818   2.860   2.970
  580SOL     OW 2638   5.808   5.592   0.562
  580SOL    HW1 2639   5.907   5.609   0.568
  580SOL    HW2 2640   5.774   5.564   0.651
  581SOL     OW 2641   2.390   3.287   1.255
  581SOL    HW1 2642   2.425   3.326   1.340
  581SOL    HW2 2643   2.396   3.188   1.259
  582SOL     OW 2644   4.370   6.906   1.615
  582SOL    HW1 2645   4.293   6.897   1.679
  582SOL    HW2 2646   4.338   6.890   1.522
  583SOL     OW 2647   3.063   5.584   5.608
  583SOL    HW1 2648   3.002   5.553   5.535
  583SOL    HW2 2649   3.012   5.640   5.673
  584SOL     OW 2650   3.052   4.425   6.303
  584SOL    HW1 2651   3.007   4.336   6.311
  584SOL    HW2 2652   3.136   4.415   6.249
  585SOL     OW 2653   5.468   2.754   6.286
  585SOL    HW1 2654   5.407   2.736   6.363
  585SOL    HW2 2655   5.425   2.820   6.224
  586SOL     OW 2656   3.873   1.418   6.088
  586SOL    HW1 2657   3.931   1.500   6.080
  586SOL    HW2 2658   3.786   1.435   6.043
  587SOL     OW 2659   4.240   1.913   5.110
  587SOL    HW1 2660   4.291   1.988   5.069
  587SOL    HW2 2661   4.238   1.835   5.047
  588SOL     OW 2662   1.651   4.080   1.857
  588SOL    HW1 2663   1.662   4.155   1.792
  588SOL    HW2 2664   1.740   4.048   1.888
  589SOL     OW 2665   3.176   4.663   1.348
  589SOL    HW1 2666   3.187   4.761   1.364
  589SOL    HW2 2667   3.085   4.645   1.312
  590SOL     OW 2668   4.834   3.100   3.584
  590SOL    HW1 2669   4.820   3.117   3.682
  590SOL    HW2 2670   4.862   3.005   3.570
  591SOL     OW 2671   3.350   5.343   3.828
  591SOL    HW1 2672   3.340   5.408   3.903
  591SOL    HW2 2673   3.404   5.384   3.755
  592SOL     OW 2674   3.564   0.949   1.281
  592SOL    HW1 2675   3.590   1.007   1.204
  592SOL    HW2 2676   3.615   0.976   1.363
  593SOL     OW 2677   4.595   2.569   3.395
  593SOL    HW1 2678   4.612   2.484   3.345
  593SOL    HW2 2679   4.613   2.647   3.335
  594SOL     OW 2680   6.371   2.247   6.866
  594SOL    HW1 2681   6.302   2.302   6.819
  594SOL    HW2 2682   6.329   2.161   6.896
  595SOL     OW 2683   5.805   6.833   3.343
  595SOL    HW1 2684   5.788   6.841   3.441
  595SOL    HW2 2685   5.903   6.831   3.327
  596SOL     OW 2686   0.980   4.764   3.427
  596SOL    HW1 2687   0.917   4.772   3.504
  596SOL    HW2 2688   1.066   4.810   3.448
  597SOL     OW 2689   3.538   0.533   0.257
  597SOL    HW1 2690   3.556   0.434   0.258
  597SOL    HW2 2691   3.439   0.548   0.257
  598SOL     OW 2692   4.383   4.996   5.477
  598SOL    HW1 2693   4.353   5.076   5.425
  598SOL    HW2 2694   4.360   5.008   5.573
  599SOL     OW 2695   2.218   6.139   2.299
  599SOL    HW1 2696   2.230   6.051   2.346
  599SOL    HW2 2697   2.283   6.145   2.223
  600SOL     OW 2698   0.447   1.370   0.086
  600SOL    HW1 2699   0.408   1.285   0.049
  600SOL    HW2 2700   0.373   1.432   0.111
  601SOL     OW 2701   2.658   0.395   4.132
  601SOL    HW1 2702   2.565   0.361   4.119
  601SOL    HW2 2703   2.658   0.495   4.125
  602SOL     OW 2704   1.676   2.831   6.494
  602SOL    HW1 2705   1.593   2.868   6.452
  602SOL    HW2 2706   1.650   2.765   6.564
  603SOL     OW 2707   2.636   2.183   4.741
  603SOL    HW1 2708   2.703   2.216   4.807
  603SOL    HW2 2709   2.614   2.256   4.676
  604SOL     OW 2710   1.287   3.210   1.690
  604SOL    HW1 2711   1.201   3.159   1.679
  604SOL    HW2 2712   1.274   3.282   1.759
  605SOL     OW 2713   6.644   6.764   1.968
  605SOL    HW1 2714   6.623   6.833   2.038
  605SOL    HW2 2715   6.739   6.735   1.977
  606SOL     OW 2716   4.423   7.021   6.613
  606SOL    HW1 2717   4.396   0.073   6.672
  606SOL    HW2 2718   4.410   0.022   6.517
  607SOL     OW 2719   6.706   6.684   6.038
  607SOL    HW1 2720   6.762   6.683   6.121
  607SOL    HW2 2721   6.764   6.671   5.958
  608SOL     OW 2722   3.275   6.307   6.162
  608SOL    HW1 2723   3.312   6.214   6.171
  608SOL    HW2 2724   3.343   6.372   6.196
  609SOL     OW 2725   3.820   3.093   3.306
  609SOL    HW1 2726   3.860   3.100   3.398
  609SOL    HW2 2727   3.847   3.172   3.252
  610SOL     OW 2728   5.216   3.592   2.288
  610SOL    HW1 2729   5.121   3.604   2.318
  610SOL    HW2 2730   5.217   3.560   2.193
  611SOL     OW 2731   3.846   6.752   0.786
  611SOL    HW1 2732   3.748   6.738   0.798
  611SOL    HW2 2733   3.888   6.772   0.874
  612SOL     OW 2734   4.067   6.900   5.662
  612SOL    HW1 2735   4.070   6.937   5.570
  612SOL    HW2 2736   4.095   6.970   5.728
  613SOL     OW 2737   3.832   6.657   5.697
  613SOL    HW1 2738   3.777   6.701   5.627
  613SOL    HW2 2739   3.900   6.597   5.654
  614SOL     OW 2740   4.798   4.869   1.290
  614SOL    HW1 2741   4.699   4.869   1.304
  614SOL    HW2 2742   4.843   4.827   1.369
  615SOL     OW 2743   6.681   2.789   2.065
  615SOL    HW1 2744   6.692   2.880   2.105
  615SOL    HW2 2745   6.670   2.721   2.137
  616SOL     OW 2746   0.168   1.909   3.950
  616SOL    HW1 2747   0.227   1.951   3.881
  616SOL    HW2 2748   0.149   1.814   3.925
  617SOL     OW 2749   6.458   4.333   6.361
  617SOL    HW1 2750   6.554   4.344   6.333
  617SOL    HW2 2751   6.453   4.322   6.460
  618SOL     OW 2752   6.273   2.503   6.453
  618SOL    HW1 2753   6.370   2.502   6.479
  618SOL    HW2 2754   6.252   2.590   6.407
  619SOL     OW 2755   4.411   0.931   6.736
  619SOL    HW1 2756   4.458   0.896   6.655
  619SOL    HW2 2757   4.313   0.938   6.718
  620SOL     OW 2758   4.451   3.381   1.524
  620SOL    HW1 2759   4.365   3.426   1.551
  620SOL    HW2 2760   4.476   3.313   1.593
  621SOL     OW 2761   2.772   5.851   6.849
  621SOL    HW1 2762   2.845   5.843   6.917
  621SOL    HW2 2763   2.809   5.831   6.758
  622SOL     OW 2764   1.641   0.822   4.876
  622SOL    HW1 2765   1.683   0.906   4.842
  622SOL    HW2 2766   1.552   0.843   4.915
  623SOL     OW 2767   0.498   5.931   6.135
  623SOL    HW1 2768   0.513   6.030   6.127
  623SOL    HW2 2769   0.475   5.908   6.229
  624SOL     OW 2770   0.028   1.973   1.590
  624SOL    HW1 2771   7.002   1.901   1.541
  624SOL    HW2 2772   0.070   2.034   1.523
  625SOL     OW 2773   1.512   1.663   2.145
  625SOL    HW1 2774   1.437   1.599   2.133
  625SOL    HW2 2775   1.518   1.724   2.066
  626SOL     OW 2776   1.076   5.704   3.181
  626SOL    HW1 2777   1.063   5.639   3.106
  626SOL    HW2 2778   1.012   5.780   3.170
  627SOL     OW 2779   6.227   6.386   0.651
  627SOL    HW1 2780   6.321   6.418   0.639
  627SOL    HW2 2781   6.187   6.430   0.731
  628SOL     OW 2782   5.828   5.509   5.507
  628SOL    HW1 2783   5.800   5.573   5.578
  628SOL    HW2 2784   5.782   5.532   5.421
  629SOL     OW 2785   0.110   0.824   6.645
  629SOL    HW1 2786   0.075   0.917   6.633
  629SOL    HW2 2787   0.186   0.826   6.710
  630SOL     OW 2788   0.306   1.398   1.198
  630SOL    HW1 2789   0.389   1.379   1.146
  630SOL    HW2 2790   0.231   1.418   1.135
  631SOL     OW 2791   4.093   0.696   5.150
  631SOL    HW1 2792   4.010   0.697   5.205
  631SOL    HW2 2793   4.173   0.695   5.210
  632SOL     OW 2794   3.828   1.276   1.440
  632SOL    HW1 2795   3.812   1.246   1.346
  632SOL    HW2 2796   3.761   1.234   1.500
  633SOL     OW 2797   3.471   3.362   6.970
  633SOL    HW1 2798   3.484   3.399   6.878
  633SOL    HW2 2799   3.375   3.341   6.984
  634SOL     OW 2800   4.104   3.316   2.369
  634SOL    HW1 2801   4.058   3.249   2.311
  634SOL    HW2 2802   4.047   3.335   2.449
  635SOL     OW 2803   4.741   5.466   0.605
  635SOL    HW1 2804   4.661   5.491   0.661
  635SOL    HW2 2805   4.778   5.379   0.639
  636SOL     OW 2806   2.408   6.165   0.311
  636SOL    HW1 2807   2.324   6.201   0.272
  636SOL    HW2 2808   2.473   6.144   0.238
  637SOL     OW 2809   6.930   3.224   3.017
  637SOL    HW1 2810   6.973   3.314   3.021
  637SOL    HW2 2811   7.000   3.154   3.009
  638SOL     OW 2812   6.127   2.576   3.995
  638SOL    HW1 2813   6.221   2.570   3.961
  638SOL    HW2 2814   6.064   2.575   3.917
  639SOL     OW 2815   4.896   3.482   3.225
  639SOL    HW1 2816   4.811   3.456   3.180
  639SOL    HW2 2817   4.974   3.454   3.169
  640SOL     OW 2818   0.438   5.694   3.995
  640SOL    HW1 2819   0.452   5.751   3.914
  640SOL    HW2 2820   0.474   5.603   3.978
  641SOL     OW 2821   0.163   4.933   4.754
  641SOL    HW1 2822   0.154   4.867   4.829
  641SOL    HW2 2823   0.081   4.930   4.697
  642SOL     OW 2824   6.909   2.766   4.477
  642SOL    HW1 2825   6.888   2.777   4.574
  642SOL    HW2 2826   7.005   2.742   4.466
  643SOL     OW 2827   6.055   5.378   5.472
  643SOL    HW1 2828   5.960   5.405   5.488
  643SOL    HW2 2829   6.070   5.367   5.374
  644SOL     OW 2830   1.498   6.467   4.369
  644SOL    HW1 2831   1.537   6.378   4.395
  644SOL    HW2 2832   1.511   6.481   4.271
  645SOL     OW 2833   4.152   0.573   4.650
  645SOL    HW1 2834   4.081   0.600   4.585
  645SOL    HW2 2835   4.207   0.653   4.675
  646SOL     OW 2836   3.229   1.070   4.482
  646SOL    HW1 2837   3.322   1.036   4.464
  646SOL    HW2 2838   3.171   1.053   4.402
  647SOL     OW 2839   5.581   1.598   5.439
  647SOL    HW1 2840   5.571   1.521   5.376
  647SOL    HW2 2841   5.626   1.674   5.392
  648SOL     OW 2842   0.441   3.551   3.306
  648SOL    HW1 2843   0.345   3.578   3.301
  648SOL    HW2 2844   0.470   3.513   3.218
  649SOL     OW 2845   2.912   4.303   0.586
  649SOL    HW1 2846   2.988   4.271   0.530
  649SOL    HW2 2847   2.857   4.224   0.615
  650SOL     OW 2848   5.628   4.447   0.205
  650SOL    HW1 2849   5.681   4.363   0.201
  650SOL    HW2 2850   5.662   4.505   0.280
  651SOL     OW 2851   0.525   6.193   6.132
  651SOL    HW1 2852   0.593   6.233   6.194
  651SOL    HW2 2853   0.440   6.245   6.138
  652SOL     OW 2854   4.890   0.551   3.666
  652SOL    HW1 2855   4.856   0.472   3.717
  652SOL    HW2 2856   4.873   0.634   3.719
  653SOL     OW 2857   0.782   5.471   6.338
  653SOL    HW1 2858   0.704   5.425   6.380
  653SOL    HW2 2859   0.760   5.568   6.324
  654SOL     OW 2860   0.422   4.535   5.966
  654SOL    HW1 2861   0.493   4.464   5.974
  654SOL    HW2 2862   0.462   4.617   5.927
  655SOL     OW 2863   0.330   5.966   1.676
  655SOL    HW1 2864   0.260   5.908   1.719
  655SOL    HW2 2865   0.290   6.054   1.651
  656SOL     OW 2866   1.831   6.192   1.423
  656SOL    HW1 2867   1.785   6.111   1.388
  656SOL    HW2 2868   1.777   6.273   1.403
  657SOL     OW 2869   2.450   3.610   1.652
  657SOL    HW1 2870   2.548   3.591   1.661
  657SOL    HW2 2871   2.402   3.573   1.731
  658SOL     OW 2872   2.426   4.348   0.027
  658SOL    HW1 2873   2.428   4.421   0.096
  658SOL    HW2 2874   2.466   4.382   6.966
  659SOL     OW 2875   1.395   5.487   5.666
  659SOL    HW1 2876   1.466   5.460   5.601
  659SOL    HW2 2877   1.422   5.460   5.759
  660SOL     OW 2878   5.466   3.543   2.647
  660SOL    HW1 2879   5.385   3.507   2.692
  660SOL    HW2 2880   5.536   3.472   2.641
  661SOL     OW 2881   5.117   4.736   3.206
  661SOL    HW1 2882   5.072   4.818   3.240
  661SOL    HW2 2883   5.072   4.706   3.121
  662SOL     OW 2884   3.937   0.475   4.458
  662SOL    HW1 2885   3.929   0.535   4.378
  662SOL    HW2 2886   3.964   0.383   4.429
  663SOL     OW 2887   1.915   3.827   0.192
  663SOL    HW1 2888   1.877   3.889   0.124
  663SOL    HW2 2889   1.931   3.877   0.277
  664SOL     OW 2890   7.010   4.969   6.315
  664SOL    HW1 2891   6.940   4.914   6.271
  664SOL    HW2 2892   6.984   5.066   6.312
  665SOL     OW 2893   4.330   4.848   1.069
  665SOL    HW1 2894   4.336   4.761   1.119
  665SOL    HW2 2895   4.322   4.923   1.135
  666SOL     OW 2896   4.858   1.906   3.058
  666SOL    HW1 2897   4.867   1.893   2.959
  666SOL    HW2 2898   4.835   1.818   3.101
  667SOL     OW 2899   6.174   3.859   3.756
  667SOL    HW1 2900   6.184   3.830   3.661
  667SOL    HW2 2901   6.264   3.882   3.794
  668SOL     OW 2902   4.780   5.973   6.586
  668SOL    HW1 2903   4.859   5.912   6.594
  668SOL    HW2 2904   4.703   5.936   6.637
  669SOL     OW 2905   3.948   6.449   3.700
  669SOL    HW1 2906   3.865   6.395   3.689
  669SOL    HW2 2907   4.002   6.446   3.616
  670SOL     OW 2908   2.519   2.957   0.992
  670SOL    HW1 2909   2.562   2.912   0.914
  670SOL    HW2 2910   2.477   2.887   1.050
  671SOL     OW 2911   2.504   5.857   0.916
  671SOL    HW1 2912   2.535   5.763   0.901
  671SOL    HW2 2913   2.420   5.873   0.866
  672SOL     OW 2914   1.223   4.909   2.242
  672SOL    HW1 2915   1.240   4.984   2.306
  672SOL    HW2 2916   1.279   4.830   2.267
  673SOL     OW 2917   0.332   0.500   1.209
  673SOL    HW1 2918   0.265   0.491   1.135
  673SOL    HW2 2919   0.305   0.574   1.270
  674SOL     OW 2920   0.116   3.150   4.865
  674SOL    HW1 2921   0.172   3.175   4.786
  674SOL    HW2 2922   0.026   3.195   4.857
  675SOL     OW 2923   0.768   0.650   4.100
  675SOL    HW1 2924   0.743   0.584   4.030
  675SOL    HW2 2925   0.700   0.650   4.173
  676SOL     OW 2926   4.215   6.360   2.938
  676SOL    HW1 2927   4.308   6.397   2.937
  676SOL    HW2 2928   4.182   6.350   2.844
  677SOL     OW 2929   6.286   1.591   6.794
  677SOL    HW1 2930   6.226   1.515   6.820
  677SOL    HW2 2931   6.380   1.558   6.785
  678SOL     OW 2932   1.730   1.312   4.955
  678SOL    HW1 2933   1.761   1.326   5.049
  678SOL    HW2 2934   1.689   1.397   4.920
  679SOL     OW 2935   4.363   1.714   4.076
  679SOL    HW1 2936   4.265   1.715   4.098
  679SOL    HW2 2937   4.375   1.740   3.980
  680SOL     OW 2938   5.916   5.034   5.472
  680SOL    HW1 2939   5.855   5.113   5.478
  680SOL    HW2 2940   6.008   5.061   5.501
  681SOL     OW 2941   5.327   5.433   1.699
  681SOL    HW1 2942   5.408   5.489   1.677
  681SOL    HW2 2943   5.306   5.442   1.796
  682SOL     OW 2944   1.511   1.017   0.249
  682SOL    HW1 2945   1.506   1.098   0.308
  682SOL    HW2 2946   1.501   1.046   0.153
  683SOL     OW 2947   3.297   3.076   0.219
  683SOL    HW1 2948   3.224   3.008   0.213
  683SOL    HW2 2949   3.277   3.141   0.292
  684SOL     OW 2950   0.142   0.919   0.100
  684SOL    HW1 2951   0.092   0.907   0.186
  684SOL    HW2 2952   0.205   0.842   0.086
  685SOL     OW 2953   4.926   1.530   3.943
  685SOL    HW1 2954   4.972   1.442   3.942
  685SOL    HW2 2955   4.991   1.602   3.918
  686SOL     OW 2956   5.679   2.341   3.885
  686SOL    HW1 2957   5.702   2.402   3.961
  686SOL    HW2 2958   5.637   2.394   3.811
  687SOL     OW 2959   0.307   2.322   4.581
  687SOL    HW1 2960   0.358   2.350   4.663
  687SOL    HW2 2961   0.372   2.303   4.507
  688SOL     OW 2962   0.719   2.408   0.422
  688SOL    HW1 2963   0.721   2.314   0.457
  688SOL    HW2 2964   0.760   2.469   0.489
  689SOL     OW 2965   0.007   4.036   6.218
  689SOL    HW1 2966   0.035   3.956   6.271
  689SOL    HW2 2967   0.050   4.118   6.256
  690SOL     OW 2968   0.590   4.147   3.157
  690SOL    HW1 2969   0.546   4.113   3.241
  690SOL    HW2 2970   0.686   4.165   3.176
  691SOL     OW 2971   2.677   0.212   6.121
  691SOL    HW1 2972   2.585   0.236   6.154
  691SOL    HW2 2973   2.729   0.170   6.195
  692SOL     OW 2974   3.467   5.633   3.899
  692SOL    HW1 2975   3.555   5.590   3.882
  692SOL    HW2 2976   3.471   5.686   3.983
  693SOL     OW 2977   6.427   0.743   3.588
  693SOL    HW1 2978   6.386   0.747   3.679
  693SOL    HW2 2979   6.381   0.808   3.527
  694SOL     OW 2980   4.317   6.057   2.608
  694SOL    HW1 2981   4.351   6.054   2.702
  694SOL    HW2 2982   4.304   6.152   2.579
  695SOL     OW 2983   4.042   5.953   4.588
  695SOL    HW1 2984   3.985   5.988   4.661
  695SOL    HW2 2985   4.104   5.883   4.624
  696SOL     OW 2986   3.987   4.786   2.337
  696SOL    HW1 2987   3.893   4.805   2.308
  696SOL    HW2 2988   4.039   4.752   2.259
  697SOL     OW 2989   2.119   3.123   3.316
  697SOL    HW1 2990   2.142   3.189   3.245
  697SOL    HW2 2991   2.090   3.037   3.275
  698SOL     OW 2992   6.023   6.499   0.257
  698SOL    HW1 2993   5.967   6.517   0.176
  698SOL    HW2 2994   6.072   6.413   0.246
  699SOL     OW 2995   1.914   3.689   6.530
  699SOL    HW1 2996   1.981   3.682   6.603
  699SOL    HW2 2997   1.953   3.654   6.445
  700SOL     OW 2998   2.414   1.336   3.153
  700SOL    HW1 2999   2.357   1.302   3.078
  700SOL    HW2 3000   2.466   1.416   3.122
  701SOL     OW 3001   5.999   3.761   5.066
  701SOL    HW1 3002   5.980   3.670   5.029
  701SOL    HW2 3003   6.094   3.785   5.047
  702SOL     OW 3004   0.835   6.231   5.952
  702SOL    HW1 3005   0.831   6.131   5.960
  702SOL    HW2 3006   0.748   6.270   5.983
  703SOL     OW 3007   3.847   3.851   6.360
  703SOL    HW1 3008   3.785   3.780   6.326
  703SOL    HW2 3009   3.846   3.851   6.460
  704SOL     OW 3010   1.637   1.943   0.174
  704SOL    HW1 3011   1.585   1.939   0.089
  704SOL    HW2 3012   1.722   1.892   0.164
  705SOL     OW 3013   6.527   5.822   2.427
  705SOL    HW1 3014   6.473   5.748   2.387
  705SOL    HW2 3015   6.607   5.784   2.473
  706SOL     OW 3016   4.497   2.516   4.356
  706SOL    HW1 3017   4.595   2.498   4.355
  706SOL    HW2 3018   4.469   2.543   4.448
  707SOL     OW 3019   5.123   6.807   2.609
  707SOL    HW1 3020   5.066   6.745   2.662
  707SOL    HW2 3021   5.088   6.814   2.515
  708SOL     OW 3022   4.119   0.143   1.694
  708SOL    HW1 3023   4.188   0.183   1.634
  708SOL    HW2 3024   4.066   0.075   1.644
  709SOL     OW 3025   1.317   5.470   1.545
  709SOL    HW1 3026   1.299   5.537   1.617
  709SOL    HW2 3027   1.230   5.431   1.513
  710SOL     OW 3028   3.658   2.997   2.693
  710SOL    HW1 3029   3.735   2.964   2.746
  710SOL    HW2 3030   3.573   2.961   2.732
  711SOL     OW 3031   0.095   2.591   5.229
  711SOL    HW1 3032   0.076   2.499   5.194
  711SOL    HW2 3033   0.142   2.584   5.317
  712SOL     OW 3034   3.984   3.582   1.199
  712SOL    HW1 3035   3.927   3.609   1.121
  712SOL    HW2 3036   3.924   3.555   1.275
  713SOL     OW 3037   4.114   2.554   6.258
  713SOL    HW1 3038   4.094   2.578   6.353
  713SOL    HW2 3039   4.087   2.630   6.199
  714SOL     OW 3040   6.739   4.335   4.102
  714SOL    HW1 3041   6.649   4.294   4.116
  714SOL    HW2 3042   6.806   4.289   4.161
  715SOL     OW 3043   5.679   5.959   0.502
  715SOL    HW1 3044   5.731   5.995   0.580
  715SOL    HW2 3045   5.690   6.020   0.423
  716SOL     OW 3046   0.641   6.958   1.464
  716SOL    HW1 3047   0.545   6.950   1.490
  716SOL    HW2 3048   0.663   0.029   1.446
  717SOL     OW 3049   6.148   4.794   5.614
  717SOL    HW1 3050   6.195   4.723   5.666
  717SOL    HW2 3051   6.072   4.753   5.563
  718SOL     OW 3052   5.013   1.776   6.254
  718SOL    HW1 3053   4.922   1.739   6.234
  718SOL    HW2 3054   5.055   1.810   6.170
  719SOL     OW 3055   6.476   0.754   1.831
  719SOL    HW1 3056   6.487   0.790   1.739
  719SOL    HW2 3057   6.426   0.821   1.887
  720SOL     OW 3058   3.453   1.231   5.871
  720SOL    HW1 3059   3.486   1.140   5.845
  720SOL    HW2 3060   3.354   1.228   5.886
  721SOL     OW 3061   2.859   1.292   4.147
  721SOL    HW1 3062   2.760   1.297   4.143
  721SOL    HW2 3063   2.889   1.275   4.241
  722SOL     OW 3064   2.674   0.798   5.143
  722SOL    HW1 3065   2.736   0.762   5.073
  722SOL    HW2 3066   2.628   0.722   5.189
  723SOL     OW 3067   2.001   3.854   3.340
  723SOL    HW1 3068   1.942   3.792   3.392
  723SOL    HW2 3069   1.987   3.948   3.372
  724SOL     OW 3070   1.084   3.080   4.199
  724SOL    HW1 3071   1.044   3.052   4.112
  724SOL    HW2 3072   1.180   3.053   4.203
  725SOL     OW 3073   2.924   5.575   0.162
  725SOL    HW1 3074   2.962   5.510   0.226
  725SOL    HW2 3075   2.994   5.641   0.135
  726SOL     OW 3076   3.940   4.954   0.880
  726SOL    HW1 3077   3.917   4.888   0.951
  726SOL    HW2 3078   4.033   4.988   0.894
  727SOL     OW 3079   5.608   4.433   5.595
  727SOL    HW1 3080   5.698   4.475   5.603
  727SOL    HW2 3081   5.608   4.369   5.518
  728SOL     OW 3082   6.746   2.959   5.091
  728SOL    HW1 3083   6.831   3.012   5.085
  728SOL    HW2 3084   6.713   2.959   5.185
  729SOL     OW 3085   1.372   1.685   1.007
  729SOL    HW1 3086   1.310   1.611   1.034
  729SOL    HW2 3087   1.320   1.756   0.959
  730SOL     OW 3088   5.826   0.875   3.592
  730SOL    HW1 3089   5.896   0.827   3.540
  730SOL    HW2 3090   5.869   0.940   3.655
  731SOL     OW 3091   5.810   4.224   6.274
  731SOL    HW1 3092   5.755   4.155   6.322
  731SOL    HW2 3093   5.754   4.305   6.256
  732SOL     OW 3094   6.475   2.233   1.470
  732SOL    HW1 3095   6.468   2.306   1.402
  732SOL    HW2 3096   6.417   2.255   1.548
  733SOL     OW 3097   5.792   6.179   5.293
  733SOL    HW1 3098   5.780   6.266   5.247
  733SOL    HW2 3099   5.873   6.184   5.352
  734SOL     OW 3100   0.060   4.717   2.892
  734SOL    HW1 3101   7.002   4.715   2.949
  734SOL    HW2 3102   0.035   4.730   2.797
  735SOL     OW 3103   3.536   2.031   0.496
  735SOL    HW1 3104   3.548   1.934   0.514
  735SOL    HW2 3105   3.524   2.046   0.398
  736SOL     OW 3106   0.505   1.222   3.483
  736SOL    HW1 3107   0.600   1.225   3.515
  736SOL    HW2 3108   0.499   1.160   3.405
  737SOL     OW 3109   4.704   1.898   5.411
  737SOL    HW1 3110   4.664   1.824   5.358
  737SOL    HW2 3111   4.651   1.913   5.494
  738SOL     OW 3112   2.137   4.363   1.717
  738SOL    HW1 3113   2.046   4.329   1.692
  738SOL    HW2 3114   2.201   4.344   1.642
  739SOL     OW 3115   4.352   0.335   4.184
  739SOL    HW1 3116   4.384   0.245   4.212
  739SOL    HW2 3117   4.365   0.347   4.086
  740SOL     OW 3118   5.978   0.585   1.289
  740SOL    HW1 3119   5.970   0.616   1.384
  740SOL    HW2 3120   5.904   0.521   1.268
  741SOL     OW 3121   2.469   6.206   3.329
  741SOL    HW1 3122   2.418   6.123   3.306
  741SOL    HW2 3123   2.426   6.285   3.287
  742SOL     OW 3124   2.592   6.985   2.295
  742SOL    HW1 3125   2.632   6.894   2.286
  742SOL    HW2 3126   2.662   0.024   2.330
  743SOL     OW 3127   0.243   3.721   3.662
  743SOL    HW1 3128   0.294   3.796   3.704
  743SOL    HW2 3129   0.241   3.733   3.563
  744SOL     OW 3130   6.051   0.401   6.880
  744SOL    HW1 3131   6.118   0.344   6.927
  744SOL    HW2 3132   6.077   0.411   6.784
  745SOL     OW 3133   1.188   5.527   5.297
  745SOL    HW1 3134   1.134   5.473   5.232
  745SOL    HW2 3135   1.263   5.471   5.332
  746SOL     OW 3136   0.109   4.276   6.333
  746SOL    HW1 3137   0.201   4.256   6.301
  746SOL    HW2 3138   0.074   4.358   6.286
  747SOL     OW 3139   3.643   6.468   4.326
  747SOL    HW1 3140   3.736   6.431   4.317
  747SOL    HW2 3141   3.606   6.443   4.416
  748SOL     OW 3142   3.571   5.285   2.205
  748SOL    HW1 3143   3.656   5.281   2.259
  748SOL    HW2 3144   3.577   5.221   2.129
  749SOL     OW 3145   6.163   4.766   4.626
  749SOL    HW1 3146   6.158   4.770   4.726
  749SOL    HW2 3147   6.185   4.857   4.590
  750SOL     OW 3148   1.689   1.673   1.489
  750SOL    HW1 3149   1.654   1.689   1.581
  750SOL    HW2 3150   1.614   1.644   1.430
  751SOL     OW 3151   4.133   2.198   6.920
  751SOL    HW1 3152   4.110   2.156   7.007
  751SOL    HW2 3153   4.138   2.297   6.929
  752SOL     OW 3154   3.448   0.977   2.543
  752SOL    HW1 3155   3.459   0.954   2.639
  752SOL    HW2 3156   3.364   0.937   2.507
  753SOL     OW 3157   2.013   3.295   5.457
  753SOL    HW1 3158   2.087   3.354   5.424
  753SOL    HW2 3159   2.013   3.295   5.557
  754SOL     OW 3160   5.018   2.502   5.457
  754SOL    HW1 3161   4.991   2.571   5.390
  754SOL    HW2 3162   5.104   2.529   5.499
  755SOL     OW 3163   1.254   4.268   5.519
  755SOL    HW1 3164   1.241   4.367   5.517
  755SOL    HW2 3165   1.323   4.245   5.587
  756SOL     OW 3166   2.986   6.278   6.887
  756SOL    HW1 3167   2.993   6.360   6.944
  756SOL    HW2 3168   3.077   6.240   6.875
  757SOL     OW 3169   0.541   0.862   3.528
  757SOL    HW1 3170   0.631   0.905   3.517
  757SOL    HW2 3171   0.550   0.777   3.580
  758SOL     OW 3172   3.514   6.989   1.949
  758SOL    HW1 3173   3.489   6.903   1.993
  758SOL    HW2 3174   3.612   7.005   1.959
  759SOL     OW 3175   0.078   1.371   1.361
  759SOL    HW1 3176   0.058   1.465   1.390
  759SOL    HW2 3177   0.168   1.369   1.316
  760SOL     OW 3178   5.503   0.117   5.383
  760SOL    HW1 3179   5.533   0.037   5.331
  760SOL    HW2 3180   5.446   0.175   5.325
  761SOL     OW 3181   5.421   3.256   5.956
  761SOL    HW1 3182   5.496   3.315   5.925
  761SOL    HW2 3183   5.346   3.259   5.891
  762SOL     OW 3184   2.487   0.769   4.871
  762SOL    HW1 3185   2.458   0.685   4.825
  762SOL    HW2 3186   2.568   0.805   4.826
  763SOL     OW 3187   4.260   5.138   6.458
  763SOL    HW1 3188   4.294   5.211   6.399
  763SOL    HW2 3189   4.163   5.123   6.439
  764SOL     OW 3190   5.202   1.699   5.236
  764SOL    HW1 3191   5.233   1.614   5.194
  764SOL    HW2 3192   5.118   1.729   5.191
  765SOL     OW 3193   1.689   6.094   1.175
  765SOL    HW1 3194   1.681   6.182   1.221
  765SOL    HW2 3195   1.649   6.023   1.232
  766SOL     OW 3196   2.644   3.424   6.491
  766SOL    HW1 3197   2.671   3.433   6.587
  766SOL    HW2 3198   2.700   3.354   6.447
  767SOL     OW 3199   6.110   5.923   1.831
  767SOL    HW1 3200   6.010   5.911   1.830
  767SOL    HW2 3201   6.147   5.898   1.742
  768SOL     OW 3202   2.212   6.499   2.238
  768SOL    HW1 3203   2.257   6.461   2.319
  768SOL    HW2 3204   2.267   6.477   2.157
  769SOL     OW 3205   2.992   1.002   4.954
  769SOL    HW1 3206   3.055   1.039   5.022
  769SOL    HW2 3207   2.929   1.073   4.923
  770SOL     OW 3208   1.714   4.440   2.935
  770SOL    HW1 3209   1.757   4.354   2.907
  770SOL    HW2 3210   1.722   4.506   2.860
  771SOL     OW 3211   1.831   4.959   2.523
  771SOL    HW1 3212   1.922   4.993   2.548
  771SOL    HW2 3213   1.832   4.926   2.429
  772SOL     OW 3214   5.668   5.715   0.360
  772SOL    HW1 3215   5.724   5.664   0.425
  772SOL    HW2 3216   5.654   5.808   0.393
  773SOL     OW 3217   0.379   3.705   4.802
  773SOL    HW1 3218   0.469   3.697   4.760
  773SOL    HW2 3219   0.389   3.729   4.899
  774SOL     OW 3220   1.304   1.429   1.471
  774SOL    HW1 3221   1.230   1.496   1.464
  774SOL    HW2 3222   1.351   1.440   1.559
  775SOL     OW 3223   0.630   2.591   3.230
  775SOL    HW1 3224   0.574   2.664   3.191
  775SOL    HW2 3225   0.700   2.630   3.289
  776SOL     OW 3226   1.483   6.844   6.095
  776SOL    HW1 3227   1.456   6.915   6.030
  776SOL    HW2 3228   1.402   6.805   6.138
  777SOL     OW 3229   2.272   5.105   1.875
  777SOL    HW1 3230   2.338   5.042   1.834
  777SOL    HW2 3231   2.263   5.085   1.972
  778SOL     OW 3232   2.327   1.575   2.169
  778SOL    HW1 3233   2.405   1.561   2.230
  778SOL    HW2 3234   2.308   1.673   2.161
  779SOL     OW 3235   6.670   3.045   2.168
  779SOL    HW1 3236   6.700   3.109   2.097
  779SOL    HW2 3237   6.583   3.075   2.206
  780SOL     OW 3238   6.767   3.559   4.490
  780SOL    HW1 3239   6.831   3.616   4.440
  780SOL    HW2 3240   6.816   3.484   4.535
  781SOL     OW 3241   5.776   0.312   0.131
  781SOL    HW1 3242   5.695   0.339   0.078
  781SOL    HW2 3243   5.748   0.254   0.208
  782SOL     OW 3244   1.595   4.288   6.408
  782SOL    HW1 3245   1.515   4.241   6.446
  782SOL    HW2 3246   1.580   4.307   6.311
  783SOL     OW 3247   4.794   5.095   1.117
  783SOL    HW1 3248   4.827   5.026   1.181
  783SOL    HW2 3249   4.741   5.164   1.167
  784SOL     OW 3250   4.629   5.711   0.775
  784SOL    HW1 3251   4.611   5.758   0.689
  784SOL    HW2 3252   4.620   5.775   0.851
  785SOL     OW 3253   0.196   2.501   3.510
  785SOL    HW1 3254   0.140   2.555   3.448
  785SOL    HW2 3255   0.287   2.486   3.470
  786SOL     OW 3256   1.723   1.147   2.382
  786SOL    HW1 3257   1.799   1.083   2.370
  786SOL    HW2 3258   1.652   1.103   2.437
  787SOL     OW 3259   2.418   0.637   6.606
  787SOL    HW1 3260   2.455   0.562   6.551
  787SOL    HW2 3261   2.337   0.605   6.656
  788SOL     OW 3262   3.246   2.866   5.933
  788SOL    HW1 3263   3.263   2.962   5.952
  788SOL    HW2 3264   3.154   2.855   5.896
  789SOL     OW 3265   5.256   4.239   0.583
  789SOL    HW1 3266   5.247   4.283   0.673
  789SOL    HW2 3267   5.323   4.165   0.588
  790SOL     OW 3268   2.286   1.350   3.909
  790SOL    HW1 3269   2.257   1.378   3.817
  790SOL    HW2 3270   2.326   1.258   3.905
  791SOL     OW 3271   2.872   5.569   3.765
  791SOL    HW1 3272   2.953   5.608   3.810
  791SOL    HW2 3273   2.791   5.590   3.819
  792SOL     OW 3274   1.152   6.966   0.793
  792SOL    HW1 3275   1.231   6.925   0.840
  792SOL    HW2 3276   1.091   6.893   0.762
  793SOL     OW 3277   4.937   4.520   3.693
  793SOL    HW1 3278   4.986   4.445   3.737
  793SOL    HW2 3279   4.839   4.513   3.713
  794SOL     OW 3280   3.682   3.515   5.519
  794SOL    HW1 3281   3.694   3.593   5.458
  794SOL    HW2 3282   3.724   3.434   5.479
  795SOL     OW 3283   3.098   6.754   4.104
  795SOL    HW1 3284   3.005   6.717   4.105
  795SOL    HW2 3285   3.096   6.846   4.065
  796SOL     OW 3286   0.244   1.671   6.327
  796SOL    HW1 3287   0.323   1.626   6.368
  796SOL    HW2 3288   0.169   1.605   6.319
  797SOL     OW 3289   5.623   3.160   0.873
  797SOL    HW1 3290   5.679   3.215   0.934
  797SOL    HW2 3291   5.678   3.130   0.795
  798SOL     OW 3292   4.007   0.130   2.694
  798SOL    HW1 3293   3.929   0.186   2.723
  798SOL    HW2 3294   4.091   0.171   2.729
  799SOL     OW 3295   0.278   7.002   6.151
  799SOL    HW1 3296   0.302   0.062   6.200
  799SOL    HW2 3297   0.351   6.979   6.087
  800SOL     OW 3298   5.217   2.558   2.619
  800SOL    HW1 3299   5.167   2.496   2.559
  800SOL    HW2 3300   5.315   2.537   2.616
  801SOL     OW 3301   1.747   3.523   4.379
  801SOL    HW1 3302   1.818   3.477   4.326
  801SOL    HW2 3303   1.669   3.544   4.318
  802SOL     OW 3304   3.674   2.307   1.269
  802SOL    HW1 3305   3.625   2.236   1.218
  802SOL    HW2 3306   3.628   2.395   1.256
  803SOL     OW 3307   0.434   6.324   5.499
  803SOL    HW1 3308   0.467   6.238   5.460
  803SOL    HW2 3309   0.396   6.306   5.590
  804SOL     OW 3310   5.267   5.777   6.582
  804SOL    HW1 3311   5.168   5.791   6.592
  804SOL    HW2 3312   5.290   5.683   6.609
  805SOL     OW 3313   3.330   6.911   4.835
  805SOL    HW1 3314   3.327   6.936   4.738
  805SOL    HW2 3315   3.310   6.813   4.845
  806SOL     OW 3316   4.947   1.115   4.522
  806SOL    HW1 3317   5.035   1.068   4.536
  806SOL    HW2 3318   4.948   1.203   4.569
  807SOL     OW 3319   1.708   1.723   4.322
  807SOL    HW1 3320   1.635   1.785   4.351
  807SOL    HW2 3321   1.670   1.631   4.308
  808SOL     OW 3322   4.496   3.239   6.137
  808SOL    HW1 3323   4.553   3.157   6.137
  808SOL    HW2 3324   4.552   3.319   6.158
  809SOL     OW 3325   6.839   4.706   0.942
  809SOL    HW1 3326   6.933   4.739   0.947
  809SOL    HW2 3327   6.835   4.624   0.886
  810SOL     OW 3328   3.291   3.344   1.336
  810SOL    HW1 3329   3.215   3.409   1.348
  810SOL    HW2 3330   3.289   3.277   1.410
  811SOL     OW 3331   4.469   5.467   5.203
  811SOL    HW1 3332   4.462   5.485   5.105
  811SOL    HW2 3333   4.441   5.549   5.253
  812SOL     OW 3334   0.692   1.315   2.127
  812SOL    HW1 3335   0.669   1.219   2.113
  812SOL    HW2 3336   0.762   1.323   2.199
  813SOL     OW 3337   3.455   6.392   4.820
  813SOL    HW1 3338   3.490   6.438   4.901
  813SOL    HW2 3339   3.426   6.299   4.844
  814SOL     OW 3340   6.736   6.034   1.941
  814SOL    HW1 3341   6.733   6.011   2.038
  814SOL    HW2 3342   6.712   6.130   1.928
  815SOL     OW 3343   0.486   3.449   3.050
  815SOL    HW1 3344   0.421   3.507   3.001
  815SOL    HW2 3345   0.571   3.441   2.998
  816SOL     OW 3346   6.387   6.773   0.648
  816SOL    HW1 3347   6.374   6.706   0.574
  816SOL    HW2 3348   6.377   6.865   0.610
  817SOL     OW 3349   2.274   4.534   0.878
  817SOL    HW1 3350   2.281   4.439   0.910
  817SOL    HW2 3351   2.362   4.580   0.890
  818SOL     OW 3352   6.419   3.054   2.308
  818SOL    HW1 3353   6.428   3.014   2.399
  818SOL    HW2 3354   6.359   2.997   2.252
  819SOL     OW 3355   5.704   2.640   3.048
  819SOL    HW1 3356   5.739   2.734   3.047
  819SOL    HW2 3357   5.608   2.640   3.020
  820SOL     OW 3358   2.927   2.314   5.267
  820SOL    HW1 3359   3.015   2.325   5.221
  820SOL    HW2 3360   2.875   2.399   5.258
  821SOL     OW 3361   1.648   4.871   1.369
  821SOL    HW1 3362   1.647   4.803   1.296
  821SOL    HW2 3363   1.668   4.961   1.330
  822SOL     OW 3364   1.450   4.643   4.101
  822SOL    HW1 3365   1.413   4.612   4.014
  822SOL    HW2 3366   1.494   4.567   4.148
  823SOL     OW 3367   4.863   4.012   6.544
  823SOL    HW1 3368   4.897   3.939   6.484
  823SOL    HW2 3369   4.770   4.036   6.515
  824SOL     OW 3370   5.679   0.916   6.035
  824SOL    HW1 3371   5.618   0.974   6.088
  824SOL    HW2 3372   5.643   0.822   6.033
  825SOL     OW 3373   0.243   4.210   1.172
  825SOL    HW1 3374   0.270   4.142   1.241
  825SOL    HW2 3375   0.145   4.227   1.179
  826SOL     OW 3376   5.443   3.326   5.574
  826SOL    HW1 3377   5.418   3.319   5.477
  826SOL    HW2 3378   5.369   3.288   5.630
  827SOL     OW 3379   2.583   4.853   5.356
  827SOL    HW1 3380   2.654   4.783   5.368
  827SOL    HW2 3381   2.625   4.937   5.321
  828SOL     OW 3382   5.487   6.846   6.468
  828SOL    HW1 3383   5.410   6.783   6.474
  828SOL    HW2 3384   5.573   6.794   6.477
  829SOL     OW 3385   3.800   3.978   3.022
  829SOL    HW1 3386   3.755   4.058   2.981
  829SOL    HW2 3387   3.768   3.967   3.116
  830SOL     OW 3388   5.137   5.432   6.421
  830SOL    HW1 3389   5.082   5.350   6.439
  830SOL    HW2 3390   5.233   5.406   6.413
  831SOL     OW 3391   6.254   0.383   0.493
  831SOL    HW1 3392   6.328   0.349   0.435
  831SOL    HW2 3393   6.287   0.391   0.587
  832SOL     OW 3394   3.435   0.793   1.684
  832SOL    HW1 3395   3.489   0.807   1.767
  832SOL    HW2 3396   3.340   0.821   1.701
  833SOL     OW 3397   1.004   3.775   5.763
  833SOL    HW1 3398   0.977   3.806   5.672
  833SOL    HW2 3399   0.951   3.693   5.787
  834SOL     OW 3400   4.008   3.739   0.567
  834SOL    HW1 3401   4.063   3.659   0.592
  834SOL    HW2 3402   4.066   3.805   0.518
  835SOL     OW 3403   3.512   0.071   5.293
  835SOL    HW1 3404   3.476   0.113   5.210
  835SOL    HW2 3405   3.601   0.029   5.272
  836SOL     OW 3406   3.576   6.193   6.345
  836SOL    HW1 3407   3.640   6.219   6.273
  836SOL    HW2 3408   3.510   6.127   6.309
  837SOL     OW 3409   5.676   0.674   0.746
  837SOL    HW1 3410   5.581   0.645   0.753
  837SOL    HW2 3411   5.717   0.635   0.663
  838SOL     OW 3412   2.007   0.664   4.458
  838SOL    HW1 3413   2.056   0.636   4.375
  838SOL    HW2 3414   1.914   0.626   4.456
  839SOL     OW 3415   1.262   2.821   2.170
  839SOL    HW1 3416   1.266   2.726   2.138
  839SOL    HW2 3417   1.355   2.858   2.174
  840SOL     OW 3418   6.434   6.295   0.411
  840SOL    HW1 3419   6.415   6.278   0.314
  840SOL    HW2 3420   6.499   6.227   0.444
  841SOL     OW 3421   4.246   5.091   6.771
  841SOL    HW1 3422   4.165   5.034   6.757
  841SOL    HW2 3423   4.312   5.073   6.698
  842SOL     OW 3424   4.212   0.326   5.234
  842SOL    HW1 3425   4.113   0.327   5.230
  842SOL    HW2 3426   4.245   0.415   5.265
  843SOL     OW 3427   0.488   1.145   1.243
  843SOL    HW1 3428   0.473   1.216   1.311
  843SOL    HW2 3429   0.524   1.062   1.288
  844SOL     OW 3430   5.994   0.800   0.541
  844SOL    HW1 3431   5.994   0.853   0.455
  844SOL    HW2 3432   5.943   0.850   0.610
  845SOL     OW 3433   4.847   4.656   4.977
  845SOL    HW1 3434   4.765   4.601   4.998
  845SOL    HW2 3435   4.839   4.745   5.021
  846SOL     OW 3436   2.199   2.024   6.600
  846SOL    HW1 3437   2.123   1.964   6.626
  846SOL    HW2 3438   2.177   2.119   6.624
  847SOL     OW 3439   1.485   2.857   1.262
  847SOL    HW1 3440   1.483   2.780   1.325
  847SOL    HW2 3441   1.579   2.889   1.251
  848SOL     OW 3442   6.288   0.481   6.122
  848SOL    HW1 3443   6.236   0.533   6.055
  848SOL    HW2 3444   6.249   0.389   6.131
  849SOL     OW 3445   0.443   4.191   6.492
  849SOL    HW1 3446   0.352   4.201   6.534
  849SOL    HW2 3447   0.435   4.195   6.393
  850SOL     OW 3448   5.242   0.435   3.308
  850SOL    HW1 3449   5.231   0.501   3.383
  850SOL    HW2 3450   5.196   0.470   3.226
  851SOL     OW 3451   0.202   1.666   2.303
  851SOL    HW1 3452   0.135   1.598   2.331
  851SOL    HW2 3453   0.275   1.621   2.252
  852SOL     OW 3454   1.448   3.080   6.932
  852SOL    HW1 3455   1.496   3.133   7.001
  852SOL    HW2 3456   1.386   3.140   6.881
  853SOL     OW 3457   1.879   4.271   1.733
  853SOL    HW1 3458   1.845   4.346   1.791
  853SOL    HW2 3459   1.856   4.290   1.638
  854SOL     OW 3460   4.866   6.081   1.113
  854SOL    HW1 3461   4.959   6.088   1.079
  854SOL    HW2 3462   4.843   6.165   1.163
  855SOL     OW 3463   0.219   6.797   1.286
  855SOL    HW1 3464   0.252   6.879   1.238
  855SOL    HW2 3465   0.216   6.721   1.222
  856SOL     OW 3466   0.888   2.436   5.249
  856SOL    HW1 3467   0.975   2.453   5.202
  856SOL    HW2 3468   0.884   2.341   5.278
  857SOL     OW 3469   5.831   4.170   1.861
  857SOL    HW1 3470   5.902   4.187   1.929
  857SOL    HW2 3471   5.760   4.111   1.900
  858SOL     OW 3472   2.534   3.453   0.959
  858SOL    HW1 3473   2.587   3.469   0.876
  858SOL    HW2 3474   2.437   3.459   0.938
  859SOL     OW 3475   5.653   5.884   5.238
  859SOL    HW1 3476   5.605   5.901   5.152
  859SOL    HW2 3477   5.710   5.963   5.260
  860SOL     OW 3478   5.246   3.416   0.692
  860SOL    HW1 3479   5.197   3.329   0.694
  860SOL    HW2 3480   5.338   3.404   0.729
  861SOL     OW 3481   2.630   5.611   3.467
  861SOL    HW1 3482   2.681   5.658   3.395
  861SOL    HW2 3483   2.623   5.670   3.547
  862SOL     OW 3484   0.818   4.201   5.039
  862SOL    HW1 3485   0.719   4.209   5.036
  862SOL    HW2 3486   0.845   4.108   5.013
  863SOL     OW 3487   6.167   0.806   0.941
  863SOL    HW1 3488   6.100   0.732   0.943
  863SOL    HW2 3489   6.120   0.893   0.924
  864SOL     OW 3490   4.422   4.758   3.621
  864SOL    HW1 3491   4.447   4.851   3.647
  864SOL    HW2 3492   4.325   4.742   3.643
  865SOL     OW 3493   0.627   6.480   6.016
  865SOL    HW1 3494   0.698   6.542   5.982
  865SOL    HW2 3495   0.549   6.481   5.953
  866SOL     OW 3496   1.851   1.944   1.493
  866SOL    HW1 3497   1.942   1.905   1.507
  866SOL    HW2 3498   1.855   2.043   1.505
  867SOL     OW 3499   3.973   3.846   1.014
  867SOL    HW1 3500   4.062   3.824   0.975
  867SOL    HW2 3501   3.938   3.930   0.973
  868SOL     OW 3502   5.889   1.126   1.371
  868SOL    HW1 3503   5.988   1.132   1.386
  868SOL    HW2 3504   5.857   1.034   1.392
  869SOL     OW 3505   0.048   5.131   3.370
  869SOL    HW1 3506   0.094   5.072   3.436
  869SOL    HW2 3507   7.015   5.197   3.419
  870SOL     OW 3508   4.438   3.226   0.456
  870SOL    HW1 3509   4.396   3.306   0.412
  870SOL    HW2 3510   4.425   3.232   0.555
  871SOL     OW 3511   4.380   2.415   3.372
  871SOL    HW1 3512   4.414   2.326   3.403
  871SOL    HW2 3513   4.446   2.486   3.394
  872SOL     OW 3514   5.171   3.709   3.487
  872SOL    HW1 3515   5.265   3.709   3.452
  872SOL    HW2 3516   5.135   3.802   3.486
  873SOL     OW 3517   5.684   6.826   4.030
  873SOL    HW1 3518   5.596   6.779   4.022
  873SOL    HW2 3519   5.672   6.923   4.006
  874SOL     OW 3520   0.820   4.082   6.433
  874SOL    HW1 3521   0.771   4.106   6.517
  874SOL    HW2 3522   0.774   4.124   6.354
  875SOL     OW 3523   3.536   3.225   0.685
  875SOL    HW1 3524   3.472   3.286   0.732
  875SOL    HW2 3525   3.516   3.225   0.587
  876SOL     OW 3526   0.247   5.082   2.748
  876SOL    HW1 3527   0.192   5.130   2.816
  876SOL    HW2 3528   0.296   5.006   2.791
  877SOL     OW 3529   4.257   4.018   6.544
  877SOL    HW1 3530   4.187   4.046   6.610
  877SOL    HW2 3531   4.304   4.099   6.509
  878SOL     OW 3532   3.845   6.002   5.299
  878SOL    HW1 3533   3.751   6.031   5.319
  878SOL    HW2 3534   3.881   5.949   5.375
  879SOL     OW 3535   3.120   2.623   1.480
  879SOL    HW1 3536   3.212   2.642   1.445
  879SOL    HW2 3537   3.126   2.592   1.575
  880SOL     OW 3538   3.464   4.352   5.413
  880SOL    HW1 3539   3.413   4.411   5.475
  880SOL    HW2 3540   3.520   4.407   5.351
  881SOL     OW 3541   4.683   4.262   5.139
  881SOL    HW1 3542   4.761   4.293   5.193
  881SOL    HW2 3543   4.657   4.169   5.168
  882SOL     OW 3544   0.734   2.375   4.305
  882SOL    HW1 3545   0.800   2.403   4.376
  882SOL    HW2 3546   0.760   2.287   4.267
  883SOL     OW 3547   4.634   5.767   5.926
  883SOL    HW1 3548   4.666   5.749   6.020
  883SOL    HW2 3549   4.590   5.857   5.923
  884SOL     OW 3550   0.240   3.890   0.129
  884SOL    HW1 3551   0.292   3.869   0.212
  884SOL    HW2 3552   0.144   3.867   0.144
  885SOL     OW 3553   4.677   5.755   6.206
  885SOL    HW1 3554   4.760   5.699   6.213
  885SOL    HW2 3555   4.702   5.852   6.207
  886SOL     OW 3556   4.154   0.966   1.480
  886SOL    HW1 3557   4.072   0.995   1.430
  886SOL    HW2 3558   4.166   0.867   1.468
  887SOL     OW 3559   3.419   6.995   4.095
  887SOL    HW1 3560   3.321   6.981   4.112
  887SOL    HW2 3561   3.438   0.068   4.088
  888SOL     OW 3562   5.936   5.688   3.153
  888SOL    HW1 3563   5.840   5.692   3.126
  888SOL    HW2 3564   5.955   5.600   3.197
  889SOL     OW 3565   1.669   6.640   6.106
  889SOL    HW1 3566   1.676   6.599   6.014
  889SOL    HW2 3567   1.624   6.728   6.099
  890SOL     OW 3568   2.328   5.259   2.168
  890SOL    HW1 3569   2.331   5.211   2.256
  890SOL    HW2 3570   2.421   5.271   2.133
  891SOL     OW 3571   6.342   4.092   0.198
  891SOL    HW1 3572   6.359   3.995   0.181
  891SOL    HW2 3573   6.277   4.102   0.273
  892SOL     OW 3574   3.954   3.995   5.508
  892SOL    HW1 3575   3.998   4.011   5.420
  892SOL    HW2 3576   3.913   3.904   5.508
  893SOL     OW 3577   1.865   1.032   1.932
  893SOL    HW1 3578   1.796   1.042   2.004
  893SOL    HW2 3579   1.910   0.943   1.941
  894SOL     OW 3580   1.356   2.380   3.045
  894SOL    HW1 3581   1.281   2.318   3.021
  894SOL    HW2 3582   1.358   2.393   3.144
  895SOL     OW 3583   0.869   5.183   4.184
  895SOL    HW1 3584   0.898   5.162   4.277
  895SOL    HW2 3585   0.787   5.240   4.187
  896SOL     OW 3586   6.311   6.632   1.402
  896SOL    HW1 3587   6.369   6.604   1.478
  896SOL    HW2 3588   6.343   6.589   1.318
  897SOL     OW 3589   4.533   0.551   6.719
  897SOL    HW1 3590   4.438   0.569   6.694
  897SOL    HW2 3591   4.593   0.574   6.643
  898SOL     OW 3592   3.796   6.403   3.144
  898SOL    HW1 3593   3.719   6.381   3.204
  898SOL    HW2 3594   3.793   6.344   3.064
  899SOL     OW 3595   0.530   4.974   0.755
  899SOL    HW1 3596   0.497   4.879   0.763
  899SOL    HW2 3597   0.616   4.984   0.804
  900SOL     OW 3598   4.174   6.608   0.466
  900SOL    HW1 3599   4.122   6.694   0.474
  900SOL    HW2 3600   4.164   6.572   0.373
  901SOL     OW 3601   1.179   1.174   5.207
  901SOL    HW1 3602   1.093   1.224   5.215
  901SOL    HW2 3603   1.204   1.137   5.297
  902SOL     OW 3604   0.717   2.093   1.030
  902SOL    HW1 3605   0.654   2.016   1.027
  902SOL    HW2 3606   0.671   2.173   1.067
  903SOL     OW 3607   6.715   3.608   5.899
  903SOL    HW1 3608   6.706   3.605   5.998
  903SOL    HW2 3609   6.653   3.541   5.858
  904SOL     OW 3610   1.808   2.699   2.974
  904SOL    HW1 3611   1.812   2.642   3.057
  904SOL    HW2 3612   1.751   2.654   2.906
  905SOL     OW 3613   4.877   3.888   6.033
  905SOL    HW1 3614   4.792   3.914   5.988
  905SOL    HW2 3615   4.862   3.806   6.088
  906SOL     OW 3616   0.817   3.168   6.222
  906SOL    HW1 3617   0.839   3.072   6.208
  906SOL    HW2 3618   0.823   3.190   6.320
  907SOL     OW 3619   5.501   2.950   2.875
  907SOL    HW1 3620   5.480   3.042   2.907
  907SOL    HW2 3621   5.417   2.905   2.845
  908SOL     OW 3622   2.068   5.510   3.052
  908SOL    HW1 3623   1.972   5.512   3.021
  908SOL    HW2 3624   2.073   5.543   3.146
  909SOL     OW 3625   2.843   5.911   2.465
  909SOL    HW1 3626   2.847   5.988   2.529
  909SOL    HW2 3627   2.933   5.866   2.462
  910SOL     OW 3628   2.857   0.805   0.921
  910SOL    HW1 3629   2.830   0.756   1.004
  910SOL    HW2 3630   2.810   0.766   0.842
  911SOL     OW 3631   0.274   5.165   0.774
  911SOL    HW1 3632   0.348   5.103   0.747
  911SOL    HW2 3633   0.224   5.195   0.693
  912SOL     OW 3634   5.851   0.467   3.817
  912SOL    HW1 3635   5.805   0.414   3.746
  912SOL    HW2 3636   5.947   0.439   3.823
  913SOL     OW 3637   1.371   0.962   3.084
  913SOL    HW1 3638   1.348   0.867   3.105
  913SOL    HW2 3639   1.471   0.971   3.079
  914SOL     OW 3640   2.375   5.655   4.898
  914SOL    HW1 3641   2.426   5.609   4.971
  914SOL    HW2 3642   2.320   5.728   4.938
  915SOL     OW 3643   1.335   3.375   0.284
  915SOL    HW1 3644   1.379   3.463   0.268
  915SOL    HW2 3645   1.246   3.389   0.328
  916SOL     OW 3646   1.264   2.571   2.096
  916SOL    HW1 3647   1.249   2.595   2.000
  916SOL    HW2 3648   1.272   2.472   2.105
  917SOL     OW 3649   5.895   0.825   1.831
  917SOL    HW1 3650   5.939   0.791   1.914
  917SOL    HW2 3651   5.844   0.750   1.788
  918SOL     OW 3652   3.028   6.875   0.231
  918SOL    HW1 3653   3.034   6.806   0.304
  918SOL    HW2 3654   3.009   6.965   0.272
  919SOL     OW 3655   6.516   5.158   2.712
  919SOL    HW1 3656   6.434   5.109   2.681
  919SOL    HW2 3657   6.490   5.227   2.779
  920SOL     OW 3658   2.406   5.822   3.121
  920SOL    HW1 3659   2.401   5.745   3.185
  920SOL    HW2 3660   2.321   5.874   3.124
  921SOL     OW 3661   4.525   4.477   2.767
  921SOL    HW1 3662   4.551   4.425   2.686
  921SOL    HW2 3663   4.462   4.550   2.741
  922SOL     OW 3664   3.144   2.969   5.633
  922SOL    HW1 3665   3.198   3.053   5.629
  922SOL    HW2 3666   3.095   2.966   5.720
  923SOL     OW 3667   2.801   5.002   5.938
  923SOL    HW1 3668   2.843   4.939   6.003
  923SOL    HW2 3669   2.864   5.078   5.920
  924SOL     OW 3670   6.037   2.520   2.819
  924SOL    HW1 3671   6.020   2.590   2.749
  924SOL    HW2 3672   5.950   2.486   2.854
  925SOL     OW 3673   6.928   1.967   6.549
  925SOL    HW1 3674   6.975   2.053   6.568
  925SOL    HW2 3675   6.981   1.891   6.586
  926SOL     OW 3676   5.770   1.530   0.558
  926SOL    HW1 3677   5.781   1.457   0.625
  926SOL    HW2 3678   5.675   1.561   0.558
  927SOL     OW 3679   6.032   3.511   3.581
  927SOL    HW1 3680   6.056   3.588   3.523
  927SOL    HW2 3681   6.116   3.472   3.621
  928SOL     OW 3682   0.994   5.356   0.825
  928SOL    HW1 3683   1.048   5.408   0.892
  928SOL    HW2 3684   0.950   5.420   0.761
  929SOL     OW 3685   0.097   0.593   1.452
  929SOL    HW1 3686   0.196   0.610   1.447
  929SOL    HW2 3687   0.058   0.601   1.360
  930SOL     OW 3688   5.159   6.389   4.277
  930SOL    HW1 3689   5.060   6.374   4.279
  930SOL    HW2 3690   5.195   6.386   4.370
  931SOL     OW 3691   5.454   2.509   2.853
  931SOL    HW1 3692   5.440   2.410   2.854
  931SOL    HW2 3693   5.539   2.530   2.804
  932SOL     OW 3694   3.534   6.630   3.017
  932SOL    HW1 3695   3.529   6.657   3.113
  932SOL    HW2 3696   3.606   6.682   2.972
  933SOL     OW 3697   0.790   5.185   3.161
  933SOL    HW1 3698   0.711   5.164   3.220
  933SOL    HW2 3699   0.863   5.120   3.178
  934SOL     OW 3700   1.771   0.626   4.999
  934SOL    HW1 3701   1.722   0.701   4.954
  934SOL    HW2 3702   1.822   0.574   4.931
  935SOL     OW 3703   5.034   4.424   4.914
  935SOL    HW1 3704   5.082   4.389   4.994
  935SOL    HW2 3705   5.015   4.521   4.927
  936SOL     OW 3706   1.449   0.790   6.404
  936SOL    HW1 3707   1.370   0.817   6.460
  936SOL    HW2 3708   1.517   0.746   6.462
  937SOL     OW 3709   5.056   1.244   5.045
  937SOL    HW1 3710   5.016   1.312   4.984
  937SOL    HW2 3711   5.044   1.152   5.006
  938SOL     OW 3712   6.834   5.681   5.883
  938SOL    HW1 3713   6.812   5.719   5.793
  938SOL    HW2 3714   6.908   5.734   5.924
  939SOL     OW 3715   5.985   0.335   5.735
  939SOL    HW1 3716   5.997   0.372   5.828
  939SOL    HW2 3717   6.064   0.361   5.679
  940SOL     OW 3718   0.655   2.851   1.688
  940SOL    HW1 3719   0.751   2.824   1.680
  940SOL    HW2 3720   0.621   2.827   1.779
  941SOL     OW 3721   6.180   1.051   5.587
  941SOL    HW1 3722   6.253   1.072   5.523
  941SOL    HW2 3723   6.092   1.049   5.539
  942SOL     OW 3724   4.940   0.121   3.530
  942SOL    HW1 3725   4.924   0.043   3.470
  942SOL    HW2 3726   4.853   0.150   3.571
  943SOL     OW 3727   1.761   3.310   3.599
  943SOL    HW1 3728   1.813   3.283   3.518
  943SOL    HW2 3729   1.823   3.347   3.668
  944SOL     OW 3730   6.788   3.866   5.730
  944SOL    HW1 3731   6.737   3.795   5.779
  944SOL    HW2 3732   6.857   3.906   5.790
  945SOL     OW 3733   6.268   4.201   4.943
  945SOL    HW1 3734   6.328   4.270   4.984
  945SOL    HW2 3735   6.287   4.194   4.845
  946SOL     OW 3736   4.678   2.509   6.043
  946SOL    HW1 3737   4.675   2.428   5.983
  946SOL    HW2 3738   4.586   2.548   6.050
  947SOL     OW 3739   3.714   2.974   4.179
  947SOL    HW1 3740   3.801   2.986   4.131
  947SOL    HW2 3741   3.658   2.906   4.131
  948SOL     OW 3742   4.230   0.642   1.181
  948SOL    HW1 3743   4.247   0.738   1.157
  948SOL    HW2 3744   4.274   0.582   1.115
  949SOL     OW 3745   0.842   6.052   6.277
  949SOL    HW1 3746   0.817   6.001   6.195
  949SOL    HW2 3747   0.793   6.139   6.279
  950SOL     OW 3748   4.530   5.058   1.638
  950SOL    HW1 3749   4.527   5.021   1.545
  950SOL    HW2 3750   4.623   5.050   1.674
  951SOL     OW 3751   2.249   0.721   3.681
  951SOL    HW1 3752   2.345   0.748   3.681
  951SOL    HW2 3753   2.240   0.629   3.643
  952SOL     OW 3754   5.064   2.471   3.084
  952SOL    HW1 3755   5.079   2.372   3.083
  952SOL    HW2 3756   5.148   2.518   3.111
  953SOL     OW 3757   5.154   5.371   4.087
  953SOL    HW1 3758   5.212   5.443   4.049
  953SOL    HW2 3759   5.122   5.398   4.178
  954SOL     OW 3760   4.642   5.941   0.942
  954SOL    HW1 3761   4.723   5.986   0.980
  954SOL    HW2 3762   4.563   6.001   0.950
  955SOL     OW 3763   6.869   4.100   2.703
  955SOL    HW1 3764   6.814   4.018   2.721
  955SOL    HW2 3765   6.893   4.103   2.606
  956SOL     OW 3766   6.935   2.586   2.715
  956SOL    HW1 3767   7.023   2.633   2.730
  956SOL    HW2 3768   6.949   2.511   2.651
  957SOL     OW 3769   0.167   4.726   4.969
  957SOL    HW1 3770   0.119   4.668   5.035
  957SOL    HW2 3771   0.253   4.757   5.009
  958SOL     OW 3772   4.428   1.284   2.731
  958SOL    HW1 3773   4.450   1.315   2.639
  958SOL    HW2 3774   4.479   1.339   2.798
  959SOL     OW 3775   3.669   5.406   3.053
  959SOL    HW1 3776   3.712   5.403   2.963
  959SOL    HW2 3777   3.739   5.403   3.124
  960SOL     OW 3778   1.231   5.736   3.417
  960SOL    HW1 3779   1.295   5.671   3.375
  960SOL    HW2 3780   1.145   5.736   3.366
  961SOL     OW 3781   4.643   0.194   3.642
  961SOL    HW1 3782   4.707   0.234   3.708
  961SOL    HW2 3783   4.605   0.110   3.679
  962SOL     OW 3784   1.074   0.699   4.553
  962SOL    HW1 3785   1.099   0.620   4.609
  962SOL    HW2 3786   1.157   0.748   4.524
  963SOL     OW 3787   7.008   2.023   6.042
  963SOL    HW1 3788   0.056   2.089   6.022
  963SOL    HW2 3789   0.006   1.973   6.125
  964SOL     OW 3790   5.883   4.407   6.989
  964SOL    HW1 3791   5.923   4.431   6.901
  964SOL    HW2 3792   5.784   4.407   6.982
  965SOL     OW 3793   5.676   1.774   1.013
  965SOL    HW1 3794   5.624   1.801   0.932
  965SOL    HW2 3795   5.682   1.852   1.076
  966SOL     OW 3796   5.252   2.678   1.577
  966SOL    HW1 3797   5.325   2.612   1.595
  966SOL    HW2 3798   5.173   2.631   1.537
  967SOL     OW 3799   1.796   4.440   1.941
  967SOL    HW1 3800   1.795   4.538   1.920
  967SOL    HW2 3801   1.748   4.425   2.027
  968SOL     OW 3802   3.628   1.231   1.854
  968SOL    HW1 3803   3.559   1.167   1.887
  968SOL    HW2 3804   3.625   1.315   1.908
  969SOL     OW 3805   3.354   5.953   5.832
  969SOL    HW1 3806   3.337   5.863   5.873
  969SOL    HW2 3807   3.452   5.973   5.836
  970SOL     OW 3808   5.342   0.581   6.191
  970SOL    HW1 3809   5.252   0.602   6.153
  970SOL    HW2 3810   5.412   0.625   6.134
  971SOL     OW 3811   6.864   1.858   3.281
  971SOL    HW1 3812   6.783   1.805   3.256
  971SOL    HW2 3813   6.917   1.877   3.199
  972SOL     OW 3814   5.365   3.715   1.527
  972SOL    HW1 3815   5.398   3.810   1.523
  972SOL    HW2 3816   5.419   3.664   1.594
  973SOL     OW 3817   0.002   4.519   0.075
  973SOL    HW1 3818   0.023   4.424   0.051
  973SOL    HW2 3819   0.024   4.534   0.172
  974SOL     OW 3820   5.447   6.517   2.559
  974SOL    HW1 3821   5.493   6.596   2.516
  974SOL    HW2 3822   5.403   6.462   2.488
  975SOL     OW 3823   1.930   5.806   6.292
  975SOL    HW1 3824   1.932   5.905   6.282
  975SOL    HW2 3825   1.870   5.782   6.369
  976SOL     OW 3826   0.307   3.633   2.949
  976SOL    HW1 3827   0.280   3.606   2.856
  976SOL    HW2 3828   0.251   3.710   2.978
  977SOL     OW 3829   1.374   0.499   2.647
  977SOL    HW1 3830   1.463   0.516   2.603
  977SOL    HW2 3831   1.302   0.498   2.577
  978SOL     OW 3832   4.771   3.705   5.660
  978SOL    HW1 3833   4.711   3.689   5.581
  978SOL    HW2 3834   4.716   3.727   5.740
  979SOL     OW 3835   6.342   2.009   0.725
  979SOL    HW1 3836   6.285   2.028   0.805
  979SOL    HW2 3837   6.360   2.094   0.675
  980SOL     OW 3838   4.523   2.460   4.092
  980SOL    HW1 3839   4.486   2.471   4.184
  980SOL    HW2 3840   4.581   2.538   4.069
  981SOL     OW 3841   0.930   1.887   5.039
  981SOL    HW1 3842   0.919   1.934   4.951
  981SOL    HW2 3843   0.975   1.799   5.025
  982SOL     OW 3844   2.341   2.358   3.903
  982SOL    HW1 3845   2.340   2.452   3.870
  982SOL    HW2 3846   2.435   2.324   3.907
  983SOL     OW 3847   5.363   2.445   4.620
  983SOL    HW1 3848   5.406   2.471   4.707
  983SOL    HW2 3849   5.384   2.349   4.600
  984SOL     OW 3850   2.674   1.475   4.281
  984SOL    HW1 3851   2.595   1.488   4.222
  984SOL    HW2 3852   2.749   1.535   4.252
  985SOL     OW 3853   5.413   4.831   6.063
  985SOL    HW1 3854   5.372   4.902   6.006
  985SOL    HW2 3855   5.378   4.838   6.156
  986SOL     OW 3856   5.873   4.118   0.616
  986SOL    HW1 3857   5.878   4.123   0.716
  986SOL    HW2 3858   5.931   4.044   0.583
  987SOL     OW 3859   4.614   6.968   1.759
  987SOL    HW1 3860   4.531   6.961   1.705
  987SOL    HW2 3861   4.635   0.040   1.776
  988SOL     OW 3862   3.381   3.611   3.118
  988SOL    HW1 3863   3.424   3.522   3.132
  988SOL    HW2 3864   3.283   3.603   3.135
  989SOL     OW 3865   6.151   0.383   5.270
  989SOL    HW1 3866   6.131   0.285   5.271
  989SOL    HW2 3867   6.162   0.415   5.364
  990SOL     OW 3868   3.678   0.397   1.945
  990SOL    HW1 3869   3.740   0.364   2.016
  990SOL    HW2 3870   3.731   0.428   1.866
  991SOL     OW 3871   1.230   2.764   5.347
  991SOL    HW1 3872   1.193   2.677   5.380
  991SOL    HW2 3873   1.325   2.751   5.319
  992SOL     OW 3874   6.617   2.583   2.220
  992SOL    HW1 3875   6.689   2.550   2.280
  992SOL    HW2 3876   6.532   2.593   2.272
  993SOL     OW 3877   1.442   4.145   1.584
  993SOL    HW1 3878   1.458   4.213   1.656
  993SOL    HW2 3879   1.396   4.065   1.623
  994SOL     OW 3880   3.560   3.989   2.272
  994SOL    HW1 3881   3.498   3.918   2.305
  994SOL    HW2 3882   3.510   4.052   2.212
  995SOL     OW 3883   3.761   2.873   5.594
  995SOL    HW1 3884   3.677   2.861   5.541
  995SOL    HW2 3885   3.814   2.789   5.592
  996SOL     OW 3886   3.060   4.832   4.191
  996SOL    HW1 3887   3.012   4.910   4.151
  996SOL    HW2 3888   3.077   4.849   4.288
  997SOL     OW 3889   1.191   1.078   3.282
  997SOL    HW1 3890   1.161   1.148   3.218
  997SOL    HW2 3891   1.240   1.006   3.232
  998SOL     OW 3892   4.703   0.322   4.334
  998SOL    HW1 3893   4.803   0.325   4.331
  998SOL    HW2 3894   4.672   0.333   4.428
  999SOL     OW 3895   5.129   4.730   2.413
  999SOL    HW1 3896   5.094   4.715   2.321
  999SOL    HW2 3897   5.225   4.758   2.408
 1000SOL     OW 3898   2.217   1.209   2.365
 1000SOL    HW1 3899   2.198   1.243   2.272
 1000SOL    HW2 3900   2.312   1.229   2.389
 1001SOL     OW 3901   5.306   6.541   0.597
 1001SOL    HW1 3902   5.310   6.569   0.502
 1001SOL    HW2 3903   5.259   6.453   0.604
 1002SOL     OW 3904   6.013   1.766   0.517
 1002SOL    HW1 3905   5.962   1.704   0.457
 1002SOL    HW2 3906   5.967   1.772   0.605
 1003SOL     OW 3907   1.885   5.802   2.140
 1003SOL    HW1 3908   1.921   5.766   2.226
 1003SOL    HW2 3909   1.847   5.727   2.085
 1004SOL     OW 3910   0.525   0.236   1.944
 1004SOL    HW1 3911   0.572   0.273   2.024
 1004SOL    HW2 3912   0.457   0.303   1.912
 1005SOL     OW 3913   1.939   2.712   3.731
 1005SOL    HW1 3914   1.898   2.687   3.644
 1005SOL    HW2 3915   1.994   2.636   3.765
 1006SOL     OW 3916   1.467   4.520   0.902
 1006SOL    HW1 3917   1.495   4.522   0.997
 1006SOL    HW2 3918   1.534   4.467   0.849
 1007SOL     OW 3919   4.573   0.437   5.152
 1007SOL    HW1 3920   4.548   0.381   5.073
 1007SOL    HW2 3921   4.639   0.507   5.122
 1008SOL     OW 3922   1.628   2.904   5.003
 1008SOL    HW1 3923   1.710   2.950   5.038
 1008SOL    HW2 3924   1.653   2.817   4.961
 1009SOL     OW 3925   0.079   5.647   4.992
 1009SOL    HW1 3926   0.047   5.741   5.002
 1009SOL    HW2 3927   0.010   5.593   4.944
 1010SOL     OW 3928   3.432   2.773   5.752
 1010SOL    HW1 3929   3.357   2.826   5.793
 1010SOL    HW2 3930   3.499   2.751   5.822
 1011SOL     OW 3931   2.306   5.086   2.391
 1011SOL    HW1 3932   2.220   5.089   2.443
 1011SOL    HW2 3933   2.383   5.089   2.454
 1012SOL     OW 3934   6.786   0.526   1.402
 1012SOL    HW1 3935   6.807   0.441   1.451
 1012SOL    HW2 3936   6.714   0.576   1.451
 1013SOL     OW 3937   0.860   1.221   5.233
 1013SOL    HW1 3938   0.884   1.160   5.308
 1013SOL    HW2 3939   0.868   1.173   5.146
 1014SOL     OW 3940   5.363   5.920   6.368
 1014SOL    HW1 3941   5.297   5.993   6.350
 1014SOL    HW2 3942   5.334   5.867   6.447
 1015SOL     OW 3943   2.776   6.585   5.874
 1015SOL    HW1 3944   2.731   6.495   5.872
 1015SOL    HW2 3945   2.741   6.641   5.799
 1016SOL     OW 3946   3.967   3.617   6.757
 1016SOL    HW1 3947   4.043   3.571   6.803
 1016SOL    HW2 3948   3.892   3.552   6.743
 1017SOL     OW 3949   4.145   2.666   1.538
 1017SOL    HW1 3950   4.200   2.590   1.502
 1017SOL    HW2 3951   4.206   2.731   1.583
 1018SOL     OW 3952   0.528   3.765   4.471
 1018SOL    HW1 3953   0.449   3.712   4.501
 1018SOL    HW2 3954   0.606   3.744   4.531
 1019SOL     OW 3955   6.943   0.008   1.569
 1019SOL    HW1 3956   6.935   0.108   1.569
 1019SOL    HW2 3957   6.919   6.998   1.478
 1020SOL     OW 3958   0.666   0.592   1.254
 1020SOL    HW1 3959   0.693   0.687   1.269
 1020SOL    HW2 3960   0.655   0.577   1.156
 1021SOL     OW 3961   4.942   6.757   1.443
 1021SOL    HW1 3962   4.911   6.824   1.511
 1021SOL    HW2 3963   5.018   6.795   1.391
 1022SOL     OW 3964   3.902   5.042   5.736
 1022SOL    HW1 3965   3.959   5.073   5.660
 1022SOL    HW2 3966   3.951   5.054   5.822
 1023SOL     OW 3967   1.012   6.614   2.835
 1023SOL    HW1 3968   0.958   6.670   2.898
 1023SOL    HW2 3969   1.017   6.659   2.747
 1024SOL     OW 3970   0.004   2.309   4.188
 1024SOL    HW1 3971   6.991   2.218   4.172
 1024SOL    HW2 3972   0.090   2.320   4.138
 1025SOL     OW 3973   2.424   2.713   1.165
 1025SOL    HW1 3974   2.391   2.621   1.146
 1025SOL    HW2 3975   2.523   2.713   1.174
 1026SOL     OW 3976   2.336   2.768   1.572
 1026SOL    HW1 3977   2.246   2.751   1.530
 1026SOL    HW2 3978   2.328   2.841   1.639
 1027SOL     OW 3979   3.089   6.525   1.392
 1027SOL    HW1 3980   2.995   6.510   1.423
 1027SOL    HW2 3981   3.091   6.532   1.292
 1028SOL     OW 3982   3.106   6.170   0.222
 1028SOL    HW1 3983   3.011   6.198   0.215
 1028SOL    HW2 3984   3.133   6.167   0.318
 1029SOL     OW 3985   1.670   7.012   7.003
 1029SOL    HW1 3986   1.768   7.009   7.023
 1029SOL    HW2 3987   1.627   0.060   0.033
 1030SOL     OW 3988   2.879   3.259   1.889
 1030SOL    HW1 3989   2.943   3.201   1.941
 1030SOL    HW2 3990   2.787   3.221   1.896
 1031SOL     OW 3991   5.255   4.982   0.810
 1031SOL    HW1 3992   5.192   4.966   0.886
 1031SOL    HW2 3993   5.320   4.906   0.805
 1032SOL     OW 3994   2.254   1.848   4.627
 1032SOL    HW1 3995   2.350   1.823   4.617
 1032SOL    HW2 3996   2.205   1.824   4.543
 1033SOL     OW 3997   1.757   6.470   0.971
 1033SOL    HW1 3998   1.759   6.570   0.969
 1033SOL    HW2 3999   1.766   6.434   0.878
 1034SOL     OW 4000   0.651   5.469   4.840
 1034SOL    HW1 4001   0.704   5.536   4.891
 1034SOL    HW2 4002   0.553   5.482   4.859
 1035SOL     OW 4003   1.159   1.107   4.781
 1035SOL    HW1 4004   1.076   1.051   4.783
 1035SOL    HW2 4005   1.236   1.053   4.750
 1036SOL     OW 4006   3.429   1.107   1.960
 1036SOL    HW1 4007   3.454   1.079   2.053
 1036SOL    HW2 4008   3.330   1.113   1.953
 1037SOL     OW 4009   1.499   0.992   1.666
 1037SOL    HW1 4010   1.429   0.938   1.711
 1037SOL    HW2 4011   1.491   0.983   1.567
 1038SOL     OW 4012   1.036   0.022   5.210
 1038SOL    HW1 4013   1.018   0.070   5.124
 1038SOL    HW2 4014   0.994   6.956   5.208
 1039SOL     OW 4015   3.398   3.447   5.736
 1039SOL    HW1 4016   3.407   3.415   5.831
 1039SOL    HW2 4017   3.394   3.547   5.735
 1040SOL     OW 4018   4.795   2.960   2.646
 1040SOL    HW1 4019   4.757   2.876   2.607
 1040SOL    HW2 4020   4.750   2.979   2.733
 1041SOL     OW 4021   6.708   6.831   3.733
 1041SOL    HW1 4022   6.671   6.739   3.717
 1041SOL    HW2 4023   6.807   6.824   3.750
 1042SOL     OW 4024   4.467   5.228   2.248
 1042SOL    HW1 4025   4.450   5.146   2.301
 1042SOL    HW2 4026   4.449   5.309   2.305
 1043SOL     OW 4027   3.718   1.452   5.027
 1043SOL    HW1 4028   3.695   1.415   5.117
 1043SOL    HW2 4029   3.800   1.508   5.034
 1044SOL     OW 4030   5.379   4.438   2.476
 1044SOL    HW1 4031   5.444   4.423   2.402
 1044SOL    HW2 4032   5.327   4.521   2.459
 1045SOL     OW 4033   4.296   6.319   2.536
 1045SOL    HW1 4034   4.354   6.386   2.491
 1045SOL    HW2 4035   4.219   6.296   2.477
 1046SOL     OW 4036   1.223   0.929   0.168
 1046SOL    HW1 4037   1.294   0.916   0.238
 1046SOL    HW2 4038   1.136   0.894   0.201
 1047SOL     OW 4039   1.500   1.322   3.326
 1047SOL    HW1 4040   1.492   1.410   3.372
 1047SOL    HW2 4041   1.595   1.306   3.300
 1048SOL     OW 4042   5.269   6.587   4.140
 1048SOL    HW1 4043   5.226   6.673   4.168
 1048SOL    HW2 4044   5.219   6.511   4.181
 1049SOL     OW 4045   6.516   5.969   4.157
 1049SOL    HW1 4046   6.494   6.051   4.209
 1049SOL    HW2 4047   6.436   5.909   4.153
 1050SOL     OW 4048   4.503   5.168   0.944
 1050SOL    HW1 4049   4.556   5.083   0.935
 1050SOL    HW2 4050   4.530   5.214   1.029
 1051SOL     OW 4051   2.878   5.692   0.881
 1051SOL    HW1 4052   2.950   5.626   0.857
 1051SOL    HW2 4053   2.915   5.759   0.945
 1052SOL     OW 4054   3.585   0.408   4.710
 1052SOL    HW1 4055   3.674   0.389   4.668
 1052SOL    HW2 4056   3.512   0.391   4.643
 1053SOL     OW 4057   5.726   5.042   3.188
 1053SOL    HW1 4058   5.735   5.073   3.283
 1053SOL    HW2 4059   5.654   5.093   3.143
 1054SOL     OW 4060   2.818   4.103   5.902
 1054SOL    HW1 4061   2.879   4.076   5.978
 1054SOL    HW2 4062   2.806   4.202   5.904
 1055SOL     OW 4063   4.535   0.082   4.648
 1055SOL    HW1 4064   4.529   0.106   4.744
 1055SOL    HW2 4065   4.460   0.020   4.625
 1056SOL     OW 4066   2.028   5.103   6.345
 1056SOL    HW1 4067   2.030   5.201   6.369
 1056SOL    HW2 4068   1.968   5.055   6.409
 1057SOL     OW 4069   2.970   3.435   2.304
 1057SOL    HW1 4070   2.985   3.341   2.335
 1057SOL    HW2 4071   2.926   3.434   2.215
 1058SOL     OW 4072   4.466   1.503   3.463
 1058SOL    HW1 4073   4.494   1.598   3.457
 1058SOL    HW2 4074   4.535   1.445   3.421
 1059SOL     OW 4075   2.263   6.928   1.226
 1059SOL    HW1 4076   2.315   6.908   1.309
 1059SOL    HW2 4077   2.313   6.896   1.146
 1060SOL     OW 4078   0.220   4.350   4.447
 1060SOL    HW1 4079   0.293   4.328   4.512
 1060SOL    HW2 4080   0.140   4.294   4.467
 1061SOL     OW 4081   5.604   3.749   1.140
 1061SOL    HW1 4082   5.693   3.785   1.110
 1061SOL    HW2 4083   5.532   3.790   1.084
 1062SOL     OW 4084   5.832   3.978   6.466
 1062SOL    HW1 4085   5.827   3.908   6.538
 1062SOL    HW2 4086   5.742   3.990   6.426
 1063SOL     OW 4087   1.921   4.884   2.067
 1063SOL    HW1 4088   1.954   4.944   1.994
 1063SOL    HW2 4089   1.827   4.909   2.089
 1064SOL     OW 4090   1.805   3.879   1.600
 1064SOL    HW1 4091   1.747   3.896   1.521
 1064SOL    HW2 4092   1.761   3.812   1.661
 1065SOL     OW 4093   3.851   0.115   3.872
 1065SOL    HW1 4094   3.786   0.190   3.887
 1065SOL    HW2 4095   3.926   0.148   3.815
 1066SOL     OW 4096   4.664   0.576   3.926
 1066SOL    HW1 4097   4.622   0.608   3.841
 1066SOL    HW2 4098   4.592   0.541   3.986
 1067SOL     OW 4099   0.705   3.304   0.644
 1067SOL    HW1 4100   0.681   3.214   0.610
 1067SOL    HW2 4101   0.740   3.297   0.738
 1068SOL     OW 4102   5.565   5.232   2.778
 1068SOL    HW1 4103   5.542   5.267   2.687
 1068SOL    HW2 4104   5.648   5.176   2.771
 1069SOL     OW 4105   4.396   4.864   0.788
 1069SOL    HW1 4106   4.360   4.862   0.881
 1069SOL    HW2 4107   4.352   4.792   0.734
 1070SOL     OW 4108   0.132   0.192   2.308
 1070SOL    HW1 4109   0.141   0.288   2.335
 1070SOL    HW2 4110   0.148   0.134   2.388
 1071SOL     OW 4111   1.608   0.842   3.162
 1071SOL    HW1 4112   1.602   0.876   3.256
 1071SOL    HW2 4113   1.613   0.742   3.163
 1072SOL     OW 4114   2.233   0.540   0.660
 1072SOL    HW1 4115   2.213   0.456   0.610
 1072SOL    HW2 4116   2.182   0.540   0.747
 1073SOL     OW 4117   4.871   0.056   1.500
 1073SOL    HW1 4118   4.912   0.081   1.412
 1073SOL    HW2 4119   4.944   0.038   1.566
 1074SOL     OW 4120   2.604   5.615   0.855
 1074SOL    HW1 4121   2.600   5.519   0.825
 1074SOL    HW2 4122   2.700   5.640   0.869
 1075SOL     OW 4123   4.509   6.792   4.101
 1075SOL    HW1 4124   4.506   6.695   4.075
 1075SOL    HW2 4125   4.588   6.836   4.059
 1076SOL     OW 4126   6.941   3.079   5.880
 1076SOL    HW1 4127   0.010   3.086   5.843
 1076SOL    HW2 4128   6.892   3.164   5.865
 1077SOL     OW 4129   5.790   0.451   1.175
 1077SOL    HW1 4130   5.796   0.389   1.096
 1077SOL    HW2 4131   5.705   0.503   1.170
 1078SOL     OW 4132   1.021   1.570   2.578
 1078SOL    HW1 4133   0.974   1.517   2.506
 1078SOL    HW2 4134   0.954   1.629   2.624
 1079SOL     OW 4135   2.180   6.220   2.599
 1079SOL    HW1 4136   2.227   6.286   2.658
 1079SOL    HW2 4137   2.197   6.243   2.503
 1080SOL     OW 4138   1.089   4.302   3.858
 1080SOL    HW1 4139   1.132   4.294   3.948
 1080SOL    HW2 4140   1.155   4.277   3.787
 1081SOL     OW 4141   0.006   5.819   6.073
 1081SOL    HW1 4142   6.999   5.803   6.167
 1081SOL    HW2 4143   0.013   5.917   6.056
 1082SOL     OW 4144   3.895   1.923   5.811
 1082SOL    HW1 4145   3.824   1.991   5.792
 1082SOL    HW2 4146   3.861   1.832   5.786
 1083SOL     OW 4147   4.438   3.858   0.088
 1083SOL    HW1 4148   4.340   3.849   0.103
 1083SOL    HW2 4149   4.484   3.771   0.108
 1084SOL     OW 4150   6.027   6.127   6.969
 1084SOL    HW1 4151   6.106   6.141   6.910
 1084SOL    HW2 4152   6.027   6.195   0.017
 1085SOL     OW 4153   1.185   3.888   4.428
 1085SOL    HW1 4154   1.281   3.862   4.441
 1085SOL    HW2 4155   1.180   3.962   4.360
 1086SOL     OW 4156   6.558   6.480   1.470
 1086SOL    HW1 4157   6.554   6.417   1.547
 1086SOL    HW2 4158   6.653   6.504   1.450
 1087SOL     OW 4159   5.540   2.138   5.179
 1087SOL    HW1 4160   5.626   2.134   5.129
 1087SOL    HW2 4161   5.497   2.048   5.180
 1088SOL     OW 4162   6.401   4.368   3.313
 1088SOL    HW1 4163   6.327   4.301   3.314
 1088SOL    HW2 4164   6.378   4.442   3.250
 1089SOL     OW 4165   1.615   6.195   4.415
 1089SOL    HW1 4166   1.650   6.187   4.322
 1089SOL    HW2 4167   1.666   6.132   4.475
 1090SOL     OW 4168   2.116   1.817   3.515
 1090SOL    HW1 4169   2.076   1.885   3.577
 1090SOL    HW2 4170   2.065   1.817   3.429
 1091SOL     OW 4171   2.592   2.511   5.466
 1091SOL    HW1 4172   2.497   2.537   5.481
 1091SOL    HW2 4173   2.615   2.433   5.525
 1092SOL     OW 4174   2.054   4.328   1.332
 1092SOL    HW1 4175   2.061   4.259   1.260
 1092SOL    HW2 4176   2.064   4.419   1.292
 1093SOL     OW 4177   1.919   1.708   2.092
 1093SOL    HW1 4178   1.891   1.630   2.148
 1093SOL    HW2 4179   2.016   1.728   2.109
 1094SOL     OW 4180   1.041   6.473   3.541
 1094SOL    HW1 4181   1.133   6.433   3.546
 1094SOL    HW2 4182   1.003   6.480   3.633
 1095SOL     OW 4183   0.497   2.931   6.675
 1095SOL    HW1 4184   0.516   2.833   6.678
 1095SOL    HW2 4185   0.563   2.979   6.732
 1096SOL     OW 4186   3.469   4.476   1.665
 1096SOL    HW1 4187   3.503   4.386   1.693
 1096SOL    HW2 4188   3.514   4.547   1.719
 1097SOL     OW 4189   2.120   4.362   4.341
 1097SOL    HW1 4190   2.133   4.371   4.243
 1097SOL    HW2 4191   2.074   4.275   4.361
 1098SOL     OW 4192   4.657   3.453   0.544
 1098SOL    HW1 4193   4.683   3.549   0.551
 1098SOL    HW2 4194   4.726   3.403   0.494
 1099SOL     OW 4195   4.543   1.657   5.312
 1099SOL    HW1 4196   4.478   1.732   5.308
 1099SOL    HW2 4197   4.503   1.575   5.271
 1100SOL     OW 4198   3.516   2.307   6.080
 1100SOL    HW1 4199   3.463   2.289   6.163
 1100SOL    HW2 4200   3.603   2.258   6.084
 1101SOL     OW 4201   6.008   2.301   0.036
 1101SOL    HW1 4202   5.994   2.261   0.127
 1101SOL    HW2 4203   5.934   2.365   0.015
 1102SOL     OW 4204   0.841   5.682   4.910
 1102SOL    HW1 4205   0.877   5.685   4.816
 1102SOL    HW2 4206   0.768   5.750   4.920
 1103SOL     OW 4207   3.580   2.101   1.109
 1103SOL    HW1 4208   3.525   2.110   1.025
 1103SOL    HW2 4209   3.666   2.054   1.087
 1104SOL     OW 4210   2.295   3.175   5.360
 1104SOL    HW1 4211   2.359   3.146   5.289
 1104SOL    HW2 4212   2.345   3.194   5.445
 1105SOL     OW 4213   6.504   3.732   4.872
 1105SOL    HW1 4214   6.415   3.692   4.850
 1105SOL    HW2 4215   6.515   3.817   4.821
 1106SOL     OW 4216   0.981   1.635   1.679
 1106SOL    HW1 4217   1.069   1.682   1.687
 1106SOL    HW2 4218   0.965   1.581   1.761
 1107SOL     OW 4219   1.724   0.391   6.471
 1107SOL    HW1 4220   1.769   0.363   6.555
 1107SOL    HW2 4221   1.756   0.335   6.395
 1108SOL     OW 4222   3.790   0.288   5.455
 1108SOL    HW1 4223   3.746   0.364   5.408
 1108SOL    HW2 4224   3.770   0.292   5.553
 1109SOL     OW 4225   4.594   0.475   4.585
 1109SOL    HW1 4226   4.494   0.468   4.582
 1109SOL    HW2 4227   4.620   0.567   4.614
 1110SOL     OW 4228   2.519   2.054   3.491
 1110SOL    HW1 4229   2.613   2.022   3.499
 1110SOL    HW2 4230   2.467   1.991   3.434
 1111SOL     OW 4231   5.227   5.493   5.993
 1111SOL    HW1 4232   5.272   5.405   5.977
 1111SOL    HW2 4233   5.193   5.530   5.907
 1112SOL     OW 4234   5.119   1.693   2.361
 1112SOL    HW1 4235   5.198   1.645   2.321
 1112SOL    HW2 4236   5.049   1.627   2.387
 1113SOL     OW 4237   0.123   3.424   2.464
 1113SOL    HW1 4238   0.146   3.356   2.395
 1113SOL    HW2 4239   0.113   3.514   2.421
 1114SOL     OW 4240   3.674   1.704   6.656
 1114SOL    HW1 4241   3.733   1.779   6.684
 1114SOL    HW2 4242   3.683   1.689   6.557
 1115SOL     OW 4243   4.120   3.513   0.338
 1115SOL    HW1 4244   4.210   3.557   0.339
 1115SOL    HW2 4245   4.087   3.501   0.432
 1116SOL     OW 4246   5.194   6.446   5.037
 1116SOL    HW1 4247   5.243   6.381   4.978
 1116SOL    HW2 4248   5.244   6.533   5.038
 1117SOL     OW 4249   1.086   2.271   1.888
 1117SOL    HW1 4250   1.148   2.260   1.811
 1117SOL    HW2 4251   0.993   2.246   1.860
 1118SOL     OW 4252   2.485   4.569   1.330
 1118SOL    HW1 4253   2.444   4.636   1.392
 1118SOL    HW2 4254   2.585   4.578   1.334
 1119SOL     OW 4255   4.433   4.444   0.245
 1119SOL    HW1 4256   4.523   4.484   0.263
 1119SOL    HW2 4257   4.444   4.354   0.204
 1120SOL     OW 4258   6.036   6.899   5.142
 1120SOL    HW1 4259   5.982   6.822   5.176
 1120SOL    HW2 4260   6.027   6.906   5.043
 1121SOL     OW 4261   5.086   4.916   2.764
 1121SOL    HW1 4262   5.133   4.972   2.696
 1121SOL    HW2 4263   5.084   4.965   2.851
 1122SOL     OW 4264   5.179   3.424   6.804
 1122SOL    HW1 4265   5.194   3.396   6.709
 1122SOL    HW2 4266   5.090   3.469   6.812
 1123SOL     OW 4267   5.083   1.213   3.210
 1123SOL    HW1 4268   5.022   1.144   3.250
 1123SOL    HW2 4269   5.173   1.173   3.197
 1124SOL     OW 4270   6.536   3.593   5.560
 1124SOL    HW1 4271   6.450   3.602   5.509
 1124SOL    HW2 4272   6.515   3.568   5.655
 1125SOL     OW 4273   3.154   1.494   4.958
 1125SOL    HW1 4274   3.206   1.408   4.956
 1125SOL    HW2 4275   3.141   1.526   4.864
 1126SOL     OW 4276   6.259   5.210   6.654
 1126SOL    HW1 4277   6.263   5.293   6.598
 1126SOL    HW2 4278   6.351   5.172   6.663
 1127SOL     OW 4279   4.748   5.069   4.424
 1127SOL    HW1 4280   4.822   5.069   4.357
 1127SOL    HW2 4281   4.677   5.005   4.396
 1128SOL     OW 4282   5.561   1.926   5.649
 1128SOL    HW1 4283   5.497   1.855   5.678
 1128SOL    HW2 4284   5.511   2.005   5.615
 1129SOL     OW 4285   3.335   0.569   6.897
 1129SOL    HW1 4286   3.248   0.619   6.898
 1129SOL    HW2 4287   3.400   0.614   6.959
 1130SOL     OW 4288   2.573   4.967   0.546
 1130SOL    HW1 4289   2.580   4.870   0.523
 1130SOL    HW2 4290   2.520   4.977   0.631
 1131SOL     OW 4291   0.116   6.468   6.451
 1131SOL    HW1 4292   0.137   6.530   6.527
 1131SOL    HW2 4293   0.111   6.520   6.366
 1132SOL     OW 4294   5.362   0.271   1.191
 1132SOL    HW1 4295   5.332   0.227   1.106
 1132SOL    HW2 4296   5.395   0.202   1.254
 1133SOL     OW 4297   1.005   0.541   1.079
 1133SOL    HW1 4298   1.026   0.510   0.986
 1133SOL    HW2 4299   1.070   0.612   1.106
 1134SOL     OW 4300   5.234   1.139   1.592
 1134SOL    HW1 4301   5.222   1.103   1.684
 1134SOL    HW2 4302   5.331   1.142   1.569
 1135SOL     OW 4303   2.234   1.188   3.007
 1135SOL    HW1 4304   2.192   1.099   3.023
 1135SOL    HW2 4305   2.177   1.243   2.947
 1136SOL     OW 4306   3.231   4.896   4.667
 1136SOL    HW1 4307   3.146   4.893   4.720
 1136SOL    HW2 4308   3.307   4.865   4.725
 1137SOL     OW 4309   0.804   1.560   6.210
 1137SOL    HW1 4310   0.800   1.626   6.134
 1137SOL    HW2 4311   0.875   1.493   6.191
 1138SOL     OW 4312   0.180   0.962   6.245
 1138SOL    HW1 4313   0.180   1.061   6.252
 1138SOL    HW2 4314   0.268   0.931   6.208
 1139SOL     OW 4315   3.740   5.514   1.202
 1139SOL    HW1 4316   3.663   5.480   1.149
 1139SOL    HW2 4317   3.713   5.525   1.297
 1140SOL     OW 4318   4.348   1.178   2.088
 1140SOL    HW1 4319   4.360   1.093   2.138
 1140SOL    HW2 4320   4.431   1.197   2.034
 1141SOL     OW 4321   0.343   6.538   6.644
 1141SOL    HW1 4322   0.268   6.495   6.693
 1141SOL    HW2 4323   0.413   6.567   6.710
 1142SOL     OW 4324   2.972   0.097   4.562
 1142SOL    HW1 4325   2.917   0.177   4.539
 1142SOL    HW2 4326   2.996   0.047   4.479
 1143SOL     OW 4327   1.681   3.492   2.510
 1143SOL    HW1 4328   1.592   3.527   2.540
 1143SOL    HW2 4329   1.717   3.549   2.437
 1144SOL     OW 4330   6.287   4.971   5.325
 1144SOL    HW1 4331   6.338   5.022   5.256
 1144SOL    HW2 4332   6.272   5.029   5.405
 1145SOL     OW 4333   0.236   3.962   2.149
 1145SOL    HW1 4334   0.265   3.894   2.081
 1145SOL    HW2 4335   0.317   4.006   2.189
 1146SOL     OW 4336   6.271   0.791   2.085
 1146SOL    HW1 4337   6.269   0.865   2.017
 1146SOL    HW2 4338   6.341   0.811   2.154
 1147SOL     OW 4339   2.123   5.516   1.281
 1147SOL    HW1 4340   2.207   5.484   1.236
 1147SOL    HW2 4341   2.139   5.525   1.379
 1148SOL     OW 4342   4.838   6.760   0.710
 1148SOL    HW1 4343   4.842   6.840   0.651
 1148SOL    HW2 4344   4.813   6.787   0.802
 1149SOL     OW 4345   6.531   4.350   2.630
 1149SOL    HW1 4346   6.574   4.369   2.542
 1149SOL    HW2 4347   6.569   4.266   2.668
 1150SOL     OW 4348   2.908   3.986   0.293
 1150SOL    HW1 4349   2.844   3.942   0.230
 1150SOL    HW2 4350   2.991   3.931   0.301
 1151SOL     OW 4351   4.080   5.370   6.901
 1151SOL    HW1 4352   4.058   5.412   6.990
 1151SOL    HW2 4353   4.172   5.330   6.905
 1152SOL     OW 4354   6.204   4.749   6.161
 1152SOL    HW1 4355   6.154   4.670   6.197
 1152SOL    HW2 4356   6.149   4.831   6.173
 1153SOL     OW 4357   2.413   0.138   1.532
 1153SOL    HW1 4358   2.330   0.192   1.547
 1153SOL    HW2 4359   2.449   0.157   1.441
 1154SOL     OW 4360   0.790   4.130   1.485
 1154SOL    HW1 4361   0.754   4.219   1.515
 1154SOL    HW2 4362   0.720   4.081   1.433
 1155SOL     OW 4363   2.268   5.480   6.399
 1155SOL    HW1 4364   2.283   5.455   6.303
 1155SOL    HW2 4365   2.343   5.538   6.431
 1156SOL     OW 4366   2.882   1.741   4.516
 1156SOL    HW1 4367   2.920   1.670   4.457
 1156SOL    HW2 4368   2.950   1.768   4.584
 1157SOL     OW 4369   5.841   0.450   5.437
 1157SOL    HW1 4370   5.938   0.453   5.461
 1157SOL    HW2 4371   5.816   0.356   5.415
 1158SOL     OW 4372   6.608   5.697   5.492
 1158SOL    HW1 4373   6.638   5.626   5.428
 1158SOL    HW2 4374   6.531   5.747   5.453
 1159SOL     OW 4375   5.948   0.103   4.291
 1159SOL    HW1 4376   5.915   0.159   4.367
 1159SOL    HW2 4377   5.949   0.007   4.319
 1160SOL     OW 4378   3.887   3.874   1.275
 1160SOL    HW1 4379   3.917   3.874   1.180
 1160SOL    HW2 4380   3.823   3.950   1.290
 1161SOL     OW 4381   6.440   0.638   6.755
 1161SOL    HW1 4382   6.469   0.656   6.661
 1161SOL    HW2 4383   6.386   0.716   6.788
 1162SOL     OW 4384   2.635   1.923   6.497
 1162SOL    HW1 4385   2.611   1.971   6.413
 1162SOL    HW2 4386   2.581   1.960   6.573
 1163SOL     OW 4387   6.875   3.301   1.257
 1163SOL    HW1 4388   6.796   3.357   1.282
 1163SOL    HW2 4389   6.882   3.224   1.320
 1164SOL     OW 4390   5.526   2.632   5.385
 1164SOL    HW1 4391   5.510   2.541   5.424
 1164SOL    HW2 4392   5.597   2.625   5.315
 1165SOL     OW 4393   2.721   4.668   3.743
 1165SOL    HW1 4394   2.683   4.756   3.769
 1165SOL    HW2 4395   2.749   4.671   3.647
 1166SOL     OW 4396   3.487   6.900   0.009
 1166SOL    HW1 4397   3.526   6.900   6.941
 1166SOL    HW2 4398   3.404   6.957   0.009
 1167SOL     OW 4399   4.367   6.517   6.499
 1167SOL    HW1 4400   4.400   6.611   6.507
 1167SOL    HW2 4401   4.331   6.487   6.588
 1168SOL     OW 4402   5.104   2.094   3.903
 1168SOL    HW1 4403   5.114   2.171   3.966
 1168SOL    HW2 4404   5.144   2.119   3.814
 1169SOL     OW 4405   5.101   2.220   5.827
 1169SOL    HW1 4406   5.065   2.265   5.746
 1169SOL    HW2 4407   5.045   2.244   5.907
 1170SOL     OW 4408   5.184   1.259   2.895
 1170SOL    HW1 4409   5.116   1.311   2.946
 1170SOL    HW2 4410   5.181   1.163   2.923
 1171SOL     OW 4411   2.807   6.160   0.078
 1171SOL    HW1 4412   2.841   6.161   7.008
 1171SOL    HW2 4413   2.830   6.072   0.120
 1172SOL     OW 4414   3.148   3.969   2.015
 1172SOL    HW1 4415   3.103   3.880   2.004
 1172SOL    HW2 4416   3.097   4.039   1.965
 1173SOL     OW 4417   3.526   0.871   6.675
 1173SOL    HW1 4418   3.427   0.870   6.656
 1173SOL    HW2 4419   3.542   0.839   6.768
 1174SOL     OW 4420   3.573   4.459   0.379
 1174SOL    HW1 4421   3.639   4.385   0.387
 1174SOL    HW2 4422   3.493   4.438   0.435
 1175SOL     OW 4423   3.857   3.172   6.682
 1175SOL    HW1 4424   3.835   3.269   6.692
 1175SOL    HW2 4425   3.948   3.154   6.720
 1176SOL     OW 4426   6.214   4.948   6.814
 1176SOL    HW1 4427   6.170   5.021   6.761
 1176SOL    HW2 4428   6.221   4.866   6.758
 1177SOL     OW 4429   6.578   2.030   5.796
 1177SOL    HW1 4430   6.627   2.017   5.883
 1177SOL    HW2 4431   6.521   2.111   5.802
 1178SOL     OW 4432   3.030   3.378   1.251
 1178SOL    HW1 4433   3.063   3.306   1.190
 1178SOL    HW2 4434   3.023   3.464   1.201
 1179SOL     OW 4435   3.149   6.645   0.789
 1179SOL    HW1 4436   3.198   6.569   0.833
 1179SOL    HW2 4437   3.196   6.731   0.810
 1180SOL     OW 4438   2.437   5.930   3.642
 1180SOL    HW1 4439   2.391   5.995   3.582
 1180SOL    HW2 4440   2.370   5.868   3.683
 1181SOL     OW 4441   0.504   3.360   5.736
 1181SOL    HW1 4442   0.539   3.323   5.650
 1181SOL    HW2 4443   0.545   3.310   5.813
 1182SOL     OW 4444   3.051   5.063   3.319
 1182SOL    HW1 4445   2.953   5.061   3.302
 1182SOL    HW2 4446   3.068   5.063   3.417
 1183SOL     OW 4447   3.656   5.718   1.778
 1183SOL    HW1 4448   3.733   5.656   1.765
 1183SOL    HW2 4449   3.611   5.732   1.690
 1184SOL     OW 4450   5.466   7.024   6.709
 1184SOL    HW1 4451   5.480   6.932   6.672
 1184SOL    HW2 4452   5.380   0.037   6.675
 1185SOL     OW 4453   1.095   1.085   1.174
 1185SOL    HW1 4454   1.055   1.069   1.084
 1185SOL    HW2 4455   1.103   0.999   1.223
 1186SOL     OW 4456   5.585   5.895   5.496
 1186SOL    HW1 4457   5.565   5.992   5.483
 1186SOL    HW2 4458   5.627   5.858   5.414
 1187SOL     OW 4459   5.214   7.009   5.332
 1187SOL    HW1 4460   5.130   6.975   5.290
 1187SOL    HW2 4461   5.217   0.084   5.325
 1188SOL     OW 4462   3.734   5.556   6.158
 1188SOL    HW1 4463   3.732   5.585   6.062
 1188SOL    HW2 4464   3.667   5.484   6.172
 1189SOL     OW 4465   5.952   0.487   1.690
 1189SOL    HW1 4466   6.027   0.421   1.695
 1189SOL    HW2 4467   5.885   0.467   1.762
 1190SOL     OW 4468   3.635   5.656   2.894
 1190SOL    HW1 4469   3.584   5.579   2.934
 1190SOL    HW2 4470   3.711   5.622   2.840
 1191SOL     OW 4471   2.697   6.327   4.226
 1191SOL    HW1 4472   2.659   6.236   4.237
 1191SOL    HW2 4473   2.672   6.384   4.304
 1192SOL     OW 4474   5.893   6.109   3.305
 1192SOL    HW1 4475   5.973   6.073   3.258
 1192SOL    HW2 4476   5.835   6.157   3.240
 1193SOL     OW 4477   0.344   0.728   5.255
 1193SOL    HW1 4478   0.363   0.642   5.207
 1193SOL    HW2 4479   0.339   0.710   5.354
 1194SOL     OW 4480   6.727   1.817   0.573
 1194SOL    HW1 4481   6.760   1.727   0.544
 1194SOL    HW2 4482   6.778   1.846   0.654
 1195SOL     OW 4483   6.197   3.690   0.636
 1195SOL    HW1 4484   6.230   3.600   0.609
 1195SOL    HW2 4485   6.255   3.761   0.597
 1196SOL     OW 4486   5.834   4.299   2.863
 1196SOL    HW1 4487   5.823   4.368   2.935
 1196SOL    HW2 4488   5.766   4.315   2.792
 1197SOL     OW 4489   4.510   6.409   4.154
 1197SOL    HW1 4490   4.463   6.493   4.178
 1197SOL    HW2 4491   4.568   6.425   4.074
 1198SOL     OW 4492   1.196   3.749   2.236
 1198SOL    HW1 4493   1.244   3.682   2.293
 1198SOL    HW2 4494   1.252   3.771   2.156
 1199SOL     OW 4495   3.335   3.169   2.810
 1199SOL    HW1 4496   3.332   3.139   2.905
 1199SOL    HW2 4497   3.352   3.090   2.750
 1200SOL     OW 4498   3.910   4.041   4.456
 1200SOL    HW1 4499   3.878   4.093   4.376
 1200SOL    HW2 4500   3.967   3.965   4.425
 1201SOL     OW 4501   7.004   0.955   4.745
 1201SOL    HW1 4502   0.074   0.924   4.728
 1201SOL    HW2 4503   6.946   0.928   4.669
 1202SOL     OW 4504   6.508   6.569   5.550
 1202SOL    HW1 4505   6.597   6.539   5.516
 1202SOL    HW2 4506   6.508   6.669   5.560
 1203SOL     OW 4507   0.339   6.440   0.710
 1203SOL    HW1 4508   0.430   6.420   0.673
 1203SOL    HW2 4509   0.313   6.533   0.685
 1204SOL     OW 4510   4.908   1.474   1.818
 1204SOL    HW1 4511   4.825   1.474   1.763
 1204SOL    HW2 4512   4.885   1.455   1.914
 1205SOL     OW 4513   3.701   3.529   0.264
 1205SOL    HW1 4514   3.732   3.611   0.313
 1205SOL    HW2 4515   3.713   3.543   0.166
 1206SOL     OW 4516   1.110   3.294   4.640
 1206SOL    HW1 4517   1.198   3.316   4.683
 1206SOL    HW2 4518   1.096   3.195   4.643
 1207SOL     OW 4519   0.610   0.538   0.594
 1207SOL    HW1 4520   0.565   0.625   0.614
 1207SOL    HW2 4521   0.557   0.463   0.633
 1208SOL     OW 4522   3.193   3.809   1.730
 1208SOL    HW1 4523   3.223   3.904   1.728
 1208SOL    HW2 4524   3.269   3.750   1.704
 1209SOL     OW 4525   5.500   0.300   4.065
 1209SOL    HW1 4526   5.474   0.231   3.997
 1209SOL    HW2 4527   5.423   0.319   4.125
 1210SOL     OW 4528   4.928   6.708   3.897
 1210SOL    HW1 4529   4.964   6.624   3.938
 1210SOL    HW2 4530   4.974   6.725   3.810
 1211SOL     OW 4531   0.598   3.127   2.954
 1211SOL    HW1 4532   0.625   3.196   3.021
 1211SOL    HW2 4533   0.639   3.039   2.979
 1212SOL     OW 4534   6.709   0.447   5.966
 1212SOL    HW1 4535   6.707   0.361   6.018
 1212SOL    HW2 4536   6.684   0.429   5.871
 1213SOL     OW 4537   5.688   1.967   2.459
 1213SOL    HW1 4538   5.686   2.060   2.422
 1213SOL    HW2 4539   5.675   1.902   2.385
 1214SOL     OW 4540   0.434   2.447   6.726
 1214SOL    HW1 4541   0.403   2.520   6.788
 1214SOL    HW2 4542   0.518   2.476   6.680
 1215SOL     OW 4543   1.616   4.816   2.630
 1215SOL    HW1 4544   1.689   4.881   2.607
 1215SOL    HW2 4545   1.539   4.866   2.669
 1216SOL     OW 4546   6.040   1.375   1.012
 1216SOL    HW1 4547   6.025   1.298   1.073
 1216SOL    HW2 4548   5.980   1.451   1.038
 1217SOL     OW 4549   3.084   4.938   0.888
 1217SOL    HW1 4550   3.161   4.989   0.850
 1217SOL    HW2 4551   3.036   4.994   0.955
 1218SOL     OW 4552   1.614   3.001   5.631
 1218SOL    HW1 4553   1.640   2.986   5.536
 1218SOL    HW2 4554   1.639   2.922   5.686
 1219SOL     OW 4555   5.190   5.213   1.627
 1219SOL    HW1 4556   5.099   5.251   1.609
 1219SOL    HW2 4557   5.257   5.287   1.632
 1220SOL     OW 4558   6.829   3.969   1.895
 1220SOL    HW1 4559   6.916   3.953   1.847
 1220SOL    HW2 4560   6.834   3.929   1.986
 1221SOL     OW 4561   5.270   3.735   6.481
 1221SOL    HW1 4562   5.295   3.651   6.433
 1221SOL    HW2 4563   5.347   3.766   6.537
 1222SOL     OW 4564   0.321   0.810   6.789
 1222SOL    HW1 4565   0.402   0.867   6.777
 1222SOL    HW2 4566   0.349   0.717   6.814
 1223SOL     OW 4567   3.758   1.139   0.316
 1223SOL    HW1 4568   3.685   1.196   0.278
 1223SOL    HW2 4569   3.731   1.043   0.314
 1224SOL     OW 4570   3.143   5.898   6.711
 1224SOL    HW1 4571   3.097   5.930   6.793
 1224SOL    HW2 4572   3.119   5.956   6.633
 1225SOL     OW 4573   3.666   2.620   0.021
 1225SOL    HW1 4574   3.699   2.544   0.077
 1225SOL    HW2 4575   3.620   2.687   0.080
 1226SOL     OW 4576   3.357   6.120   0.123
 1226SOL    HW1 4577   3.420   6.102   0.198
 1226SOL    HW2 4578   3.265   6.131   0.158
 1227SOL     OW 4579   5.508   5.334   5.618
 1227SOL    HW1 4580   5.433   5.395   5.594
 1227SOL    HW2 4581   5.549   5.365   5.704
 1228SOL     OW 4582   3.822   2.465   6.401
 1228SOL    HW1 4583   3.842   2.556   6.364
 1228SOL    HW2 4584   3.880   2.448   6.481
 1229SOL     OW 4585   1.860   5.362   0.343
 1229SOL    HW1 4586   1.867   5.459   0.368
 1229SOL    HW2 4587   1.949   5.319   0.351
 1230SOL     OW 4588   5.929   5.879   2.131
 1230SOL    HW1 4589   5.898   5.811   2.197
 1230SOL    HW2 4590   5.862   5.953   2.124
 1231SOL     OW 4591   1.636   2.156   5.262
 1231SOL    HW1 4592   1.603   2.109   5.180
 1231SOL    HW2 4593   1.558   2.186   5.317
 1232SOL     OW 4594   6.395   1.016   4.934
 1232SOL    HW1 4595   6.443   0.962   5.003
 1232SOL    HW2 4596   6.302   1.036   4.966
 1233SOL     OW 4597   0.684   5.492   4.564
 1233SOL    HW1 4598   0.769   5.543   4.549
 1233SOL    HW2 4599   0.672   5.475   4.661
 1234SOL     OW 4600   5.761   1.988   5.445
 1234SOL    HW1 4601   5.753   2.084   5.418
 1234SOL    HW2 4602   5.716   1.975   5.534
 1235SOL     OW 4603   5.905   4.539   1.696
 1235SOL    HW1 4604   5.874   4.634   1.691
 1235SOL    HW2 4605   5.998   4.536   1.733
 1236SOL     OW 4606   4.276   1.509   1.804
 1236SOL    HW1 4607   4.198   1.501   1.867
 1236SOL    HW2 4608   4.359   1.529   1.857
 1237SOL     OW 4609   1.131   4.700   5.408
 1237SOL    HW1 4610   1.223   4.690   5.368
 1237SOL    HW2 4611   1.118   4.794   5.439
 1238SOL     OW 4612   1.396   0.246   5.804
 1238SOL    HW1 4613   1.483   0.291   5.825
 1238SOL    HW2 4614   1.325   0.315   5.791
 1239SOL     OW 4615   0.261   6.743   6.445
 1239SOL    HW1 4616   0.197   6.812   6.479
 1239SOL    HW2 4617   0.298   6.691   6.521
 1240SOL     OW 4618   5.914   6.041   1.470
 1240SOL    HW1 4619   5.819   6.067   1.451
 1240SOL    HW2 4620   5.946   6.089   1.551
 1241SOL     OW 4621   5.966   4.287   5.237
 1241SOL    HW1 4622   6.016   4.217   5.288
 1241SOL    HW2 4623   5.889   4.245   5.188
 1242SOL     OW 4624   2.194   4.119   1.157
 1242SOL    HW1 4625   2.288   4.124   1.192
 1242SOL    HW2 4626   2.169   4.023   1.144
 1243SOL     OW 4627   0.934   1.007   5.054
 1243SOL    HW1 4628   1.021   0.961   5.068
 1243SOL    HW2 4629   0.861   0.939   5.047
 1244SOL     OW 4630   5.244   6.275   4.514
 1244SOL    HW1 4631   5.192   6.241   4.593
 1244SOL    HW2 4632   5.248   6.203   4.444
 1245SOL     OW 4633   5.100   4.179   6.888
 1245SOL    HW1 4634   5.108   4.096   6.832
 1245SOL    HW2 4635   5.121   4.158   6.983
 1246SOL     OW 4636   3.131   1.689   1.535
 1246SOL    HW1 4637   3.203   1.705   1.468
 1246SOL    HW2 4638   3.160   1.620   1.601
 1247SOL     OW 4639   0.090   6.607   5.909
 1247SOL    HW1 4640   0.168   6.626   5.850
 1247SOL    HW2 4641   0.108   6.642   6.001
 1248SOL     OW 4642   1.996   6.633   3.648
 1248SOL    HW1 4643   2.043   6.698   3.588
 1248SOL    HW2 4644   1.940   6.571   3.593
 1249SOL     OW 4645   6.577   2.217   1.903
 1249SOL    HW1 4646   6.565   2.226   2.002
 1249SOL    HW2 4647   6.665   2.254   1.876
 1250SOL     OW 4648   5.757   5.085   3.495
 1250SOL    HW1 4649   5.705   5.000   3.485
 1250SOL    HW2 4650   5.800   5.087   3.586
 1251SOL     OW 4651   1.847   0.953   3.076
 1251SOL    HW1 4652   1.764   0.912   3.114
 1251SOL    HW2 4653   1.826   1.046   3.043
 1252SOL     OW 4654   3.929   4.622   6.852
 1252SOL    HW1 4655   3.829   4.622   6.847
 1252SOL    HW2 4656   3.959   4.653   6.942
 1253SOL     OW 4657   3.644   6.545   2.720
 1253SOL    HW1 4658   3.615   6.481   2.791
 1253SOL    HW2 4659   3.685   6.626   2.763
 1254SOL     OW 4660   0.477   2.481   3.662
 1254SOL    HW1 4661   0.433   2.401   3.704
 1254SOL    HW2 4662   0.493   2.551   3.731
 1255SOL     OW 4663   5.854   1.362   6.256
 1255SOL    HW1 4664   5.853   1.363   6.156
 1255SOL    HW2 4665   5.789   1.430   6.290
 1256SOL     OW 4666   0.123   0.011   3.703
 1256SOL    HW1 4667   0.048   6.984   3.744
 1256SOL    HW2 4668   0.108   0.018   3.604
 1257SOL     OW 4669   6.957   5.326   5.164
 1257SOL    HW1 4670   0.020   5.375   5.165
 1257SOL    HW2 4671   6.929   5.305   5.257
 1258SOL     OW 4672   1.575   5.260   3.097
 1258SOL    HW1 4673   1.542   5.166   3.107
 1258SOL    HW2 4674   1.575   5.285   3.000
 1259SOL     OW 4675   3.991   0.189   4.507
 1259SOL    HW1 4676   3.999   0.090   4.510
 1259SOL    HW2 4677   3.907   0.218   4.552
 1260SOL     OW 4678   3.067   1.812   0.276
 1260SOL    HW1 4679   3.027   1.873   0.208
 1260SOL    HW2 4680   3.008   1.809   0.357
 1261SOL     OW 4681   6.644   5.354   6.542
 1261SOL    HW1 4682   6.608   5.444   6.516
 1261SOL    HW2 4683   6.677   5.307   6.460
 1262SOL     OW 4684   5.591   4.784   1.189
 1262SOL    HW1 4685   5.558   4.705   1.137
 1262SOL    HW2 4686   5.607   4.861   1.127
 1263SOL     OW 4687   6.739   2.185   1.481
 1263SOL    HW1 4688   6.650   2.228   1.499
 1263SOL    HW2 4689   6.744   2.098   1.530
 1264SOL     OW 4690   0.278   3.582   1.362
 1264SOL    HW1 4691   0.365   3.545   1.332
 1264SOL    HW2 4692   0.203   3.534   1.315
 1265SOL     OW 4693   5.311   5.462   3.459
 1265SOL    HW1 4694   5.315   5.443   3.557
 1265SOL    HW2 4695   5.296   5.377   3.409
 1266SOL     OW 4696   1.077   1.266   4.472
 1266SOL    HW1 4697   1.000   1.311   4.426
 1266SOL    HW2 4698   1.043   1.191   4.528
 1267SOL     OW 4699   5.478   6.254   1.564
 1267SOL    HW1 4700   5.444   6.279   1.654
 1267SOL    HW2 4701   5.401   6.234   1.503
 1268SOL     OW 4702   3.768   3.124   0.259
 1268SOL    HW1 4703   3.698   3.062   0.222
 1268SOL    HW2 4704   3.724   3.191   0.319
 1269SOL     OW 4705   5.481   5.496   5.138
 1269SOL    HW1 4706   5.451   5.529   5.049
 1269SOL    HW2 4707   5.521   5.404   5.128
 1270SOL     OW 4708   2.275   4.203   3.685
 1270SOL    HW1 4709   2.270   4.190   3.784
 1270SOL    HW2 4710   2.365   4.239   3.660
 1271SOL     OW 4711   2.675   2.272   3.823
 1271SOL    HW1 4712   2.701   2.300   3.731
 1271SOL    HW2 4713   2.706   2.178   3.839
 1272SOL     OW 4714   5.664   5.675   0.091
 1272SOL    HW1 4715   5.679   5.687   0.189
 1272SOL    HW2 4716   5.741   5.716   0.040
 1273SOL     OW 4717   0.655   4.208   6.659
 1273SOL    HW1 4718   0.581   4.201   6.592
 1273SOL    HW2 4719   0.636   4.147   6.735
 1274SOL     OW 4720   6.629   4.221   1.316
 1274SOL    HW1 4721   6.567   4.143   1.304
 1274SOL    HW2 4722   6.576   4.302   1.342
 1275SOL     OW 4723   3.397   1.813   4.533
 1275SOL    HW1 4724   3.392   1.735   4.471
 1275SOL    HW2 4725   3.373   1.897   4.483
 1276SOL     OW 4726   6.944   6.908   4.690
 1276SOL    HW1 4727   6.946   6.977   4.762
 1276SOL    HW2 4728   6.873   6.931   4.623
 1277SOL     OW 4729   1.293   5.899   6.363
 1277SOL    HW1 4730   1.204   5.913   6.320
 1277SOL    HW2 4731   1.312   5.801   6.368
 1278SOL     OW 4732   0.750   0.002   5.329
 1278SOL    HW1 4733   0.803   0.084   5.353
 1278SOL    HW2 4734   0.772   6.998   5.236
 1279SOL     OW 4735   3.231   6.436   0.247
 1279SOL    HW1 4736   3.248   6.492   0.165
 1279SOL    HW2 4737   3.186   6.351   0.220
 1280SOL     OW 4738   3.089   6.355   5.146
 1280SOL    HW1 4739   3.006   6.352   5.201
 1280SOL    HW2 4740   3.076   6.300   5.063
 1281SOL     OW 4741   1.540   6.512   3.438
 1281SOL    HW1 4742   1.552   6.600   3.392
 1281SOL    HW2 4743   1.466   6.461   3.394
 1282SOL     OW 4744   0.435   2.049   6.709
 1282SOL    HW1 4745   0.359   2.043   6.775
 1282SOL    HW2 4746   0.518   2.076   6.757
 1283SOL     OW 4747   6.958   2.807   5.238
 1283SOL    HW1 4748   0.002   2.735   5.248
 1283SOL    HW2 4749   6.868   2.773   5.265
 1284SOL     OW 4750   4.894   1.727   1.717
 1284SOL    HW1 4751   4.928   1.636   1.743
 1284SOL    HW2 4752   4.818   1.717   1.653
 1285SOL     OW 4753   4.850   2.177   6.280
 1285SOL    HW1 4754   4.758   2.202   6.309
 1285SOL    HW2 4755   4.860   2.078   6.282
 1286SOL     OW 4756   5.043   4.060   2.142
 1286SOL    HW1 4757   5.031   4.156   2.166
 1286SOL    HW2 4758   5.119   4.021   2.194
 1287SOL     OW 4759   5.678   5.592   5.290
 1287SOL    HW1 4760   5.699   5.683   5.256
 1287SOL    HW2 4761   5.600   5.555   5.240
 1288SOL     OW 4762   4.179   3.541   6.896
 1288SOL    HW1 4763   4.139   3.546   6.987
 1288SOL    HW2 4764   4.264   3.488   6.899
 1289SOL     OW 4765   1.337   5.959   2.070
 1289SOL    HW1 4766   1.326   5.992   1.976
 1289SOL    HW2 4767   1.434   5.960   2.095
 1290SOL     OW 4768   1.028   6.446   6.461
 1290SOL    HW1 4769   1.016   6.494   6.548
 1290SOL    HW2 4770   1.082   6.363   6.476
 1291SOL     OW 4771   0.419   3.680   5.473
 1291SOL    HW1 4772   0.410   3.664   5.571
 1291SOL    HW2 4773   0.512   3.660   5.444
 1292SOL     OW 4774   0.482   5.791   2.171
 1292SOL    HW1 4775   0.530   5.764   2.087
 1292SOL    HW2 4776   0.383   5.784   2.156
 1293SOL     OW 4777   1.099   1.739   0.575
 1293SOL    HW1 4778   1.059   1.679   0.507
 1293SOL    HW2 4779   1.044   1.822   0.584
 1294SOL     OW 4780   0.914   3.174   6.852
 1294SOL    HW1 4781   0.996   3.192   6.799
 1294SOL    HW2 4782   0.927   3.205   6.946
 1295SOL     OW 4783   0.158   3.299   2.222
 1295SOL    HW1 4784   0.085   3.308   2.155
 1295SOL    HW2 4785   0.176   3.202   2.239
 1296SOL     OW 4786   3.627   0.272   5.712
 1296SOL    HW1 4787   3.552   0.292   5.775
 1296SOL    HW2 4788   3.714   0.292   5.757
 1297SOL     OW 4789   6.068   0.888   1.265
 1297SOL    HW1 4790   6.025   0.802   1.234
 1297SOL    HW2 4791   6.159   0.868   1.301
 1298SOL     OW 4792   5.812   4.371   2.448
 1298SOL    HW1 4793   5.900   4.328   2.464
 1298SOL    HW2 4794   5.754   4.360   2.529
 1299SOL     OW 4795   1.451   3.947   3.235
 1299SOL    HW1 4796   1.451   3.851   3.210
 1299SOL    HW2 4797   1.368   3.968   3.287
 1300SOL     OW 4798   3.073   2.898   1.834
 1300SOL    HW1 4799   3.155   2.840   1.834
 1300SOL    HW2 4800   3.003   2.856   1.776
 1301SOL     OW 4801   0.850   5.834   1.324
 1301SOL    HW1 4802   0.845   5.934   1.325
 1301SOL    HW2 4803   0.920   5.805   1.259
 1302SOL     OW 4804   5.018   0.811   5.410
 1302SOL    HW1 4805   5.111   0.777   5.393
 1302SOL    HW2 4806   4.988   0.866   5.332
 1303SOL     OW 4807   4.478   1.553   1.981
 1303SOL    HW1 4808   4.516   1.631   1.931
 1303SOL    HW2 4809   4.470   1.575   2.078
 1304SOL     OW 4810   2.178   1.327   6.432
 1304SOL    HW1 4811   2.155   1.230   6.424
 1304SOL    HW2 4812   2.099   1.382   6.403
 1305SOL     OW 4813   5.167   3.455   0.207
 1305SOL    HW1 4814   5.222   3.507   0.141
 1305SOL    HW2 4815   5.206   3.364   0.218
 1306SOL     OW 4816   0.469   4.783   4.268
 1306SOL    HW1 4817   0.396   4.781   4.337
 1306SOL    HW2 4818   0.449   4.854   4.200
 1307SOL     OW 4819   0.754   4.290   4.249
 1307SOL    HW1 4820   0.718   4.375   4.289
 1307SOL    HW2 4821   0.695   4.213   4.277
 1308SOL     OW 4822   5.707   6.374   5.086
 1308SOL    HW1 4823   5.610   6.367   5.107
 1308SOL    HW2 4824   5.731   6.469   5.068
 1309SOL     OW 4825   5.376   3.285   5.295
 1309SOL    HW1 4826   5.441   3.319   5.227
 1309SOL    HW2 4827   5.364   3.187   5.283
 1310SOL     OW 4828   6.883   3.684   4.227
 1310SOL    HW1 4829   6.811   3.753   4.238
 1310SOL    HW2 4830   6.971   3.730   4.218
 1311SOL     OW 4831   0.638   6.714   4.797
 1311SOL    HW1 4832   0.685   6.630   4.772
 1311SOL    HW2 4833   0.693   6.793   4.771
 1312SOL     OW 4834   1.335   6.979   6.615
 1312SOL    HW1 4835   1.295   6.892   6.644
 1312SOL    HW2 4836   1.435   6.973   6.620
 1313SOL     OW 4837   0.776   4.007   3.952
 1313SOL    HW1 4838   0.761   4.104   3.972
 1313SOL    HW2 4839   0.839   3.969   4.021
 1314SOL     OW 4840   4.237   1.448   5.624
 1314SOL    HW1 4841   4.313   1.385   5.607
 1314SOL    HW2 4842   4.264   1.541   5.603
 1315SOL     OW 4843   0.038   1.193   1.004
 1315SOL    HW1 4844   0.034   1.136   0.921
 1315SOL    HW2 4845   0.090   1.145   1.074
 1316SOL     OW 4846   2.220   6.277   4.994
 1316SOL    HW1 4847   2.259   6.335   5.066
 1316SOL    HW2 4848   2.191   6.190   5.033
 1317SOL     OW 4849   2.386   4.377   6.479
 1317SOL    HW1 4850   2.314   4.343   6.539
 1317SOL    HW2 4851   2.417   4.304   6.418
 1318SOL     OW 4852   0.771   1.206   1.067
 1318SOL    HW1 4853   0.797   1.180   0.974
 1318SOL    HW2 4854   0.699   1.145   1.100
 1319SOL     OW 4855   6.998   0.812   0.323
 1319SOL    HW1 4856   6.933   0.815   0.247
 1319SOL    HW2 4857   6.979   0.733   0.381
 1320SOL     OW 4858   4.847   4.037   0.600
 1320SOL    HW1 4859   4.842   3.973   0.677
 1320SOL    HW2 4860   4.759   4.084   0.589
 1321SOL     OW 4861   5.670   1.516   6.381
 1321SOL    HW1 4862   5.620   1.463   6.450
 1321SOL    HW2 4863   5.658   1.614   6.401
 1322SOL     OW 4864   3.668   0.979   3.921
 1322SOL    HW1 4865   3.600   0.962   3.850
 1322SOL    HW2 4866   3.621   0.995   4.008
 1323SOL     OW 4867   5.063   1.008   5.638
 1323SOL    HW1 4868   5.057   0.941   5.712
 1323SOL    HW2 4869   5.056   0.961   5.550
 1324SOL     OW 4870   1.267   3.133   0.433
 1324SOL    HW1 4871   1.288   3.224   0.398
 1324SOL    HW2 4872   1.302   3.064   0.370
 1325SOL     OW 4873   1.995   0.105   2.814
 1325SOL    HW1 4874   2.037   0.056   2.738
 1325SOL    HW2 4875   1.896   0.087   2.815
 1326SOL     OW 4876   5.016   3.550   5.184
 1326SOL    HW1 4877   4.930   3.597   5.166
 1326SOL    HW2 4878   5.003   3.451   5.174
 1327SOL     OW 4879   1.395   4.675   2.266
 1327SOL    HW1 4880   1.477   4.684   2.323
 1327SOL    HW2 4881   1.408   4.723   2.180
 1328SOL     OW 4882   1.478   2.923   0.770
 1328SOL    HW1 4883   1.390   2.875   0.762
 1328SOL    HW2 4884   1.499   2.969   0.684
 1329SOL     OW 4885   0.302   2.375   1.205
 1329SOL    HW1 4886   0.317   2.363   1.303
 1329SOL    HW2 4887   0.204   2.368   1.185
 1330SOL     OW 4888   0.345   1.394   1.849
 1330SOL    HW1 4889   0.365   1.391   1.947
 1330SOL    HW2 4890   0.251   1.424   1.835
 1331SOL     OW 4891   5.024   2.661   3.435
 1331SOL    HW1 4892   5.091   2.588   3.424
 1331SOL    HW2 4893   5.067   2.750   3.417
 1332SOL     OW 4894   2.815   0.209   6.361
 1332SOL    HW1 4895   2.815   0.306   6.335
 1332SOL    HW2 4896   2.876   0.196   6.439
 1333SOL     OW 4897   4.152   3.767   5.172
 1333SOL    HW1 4898   4.135   3.753   5.074
 1333SOL    HW2 4899   4.093   3.839   5.207
 1334SOL     OW 4900   6.363   1.892   4.610
 1334SOL    HW1 4901   6.290   1.850   4.557
 1334SOL    HW2 4902   6.400   1.971   4.560
 1335SOL     OW 4903   2.720   2.009   3.250
 1335SOL    HW1 4904   2.786   2.068   3.297
 1335SOL    HW2 4905   2.641   2.064   3.221
 1336SOL     OW 4906   1.982   2.108   5.528
 1336SOL    HW1 4907   1.955   2.105   5.432
 1336SOL    HW2 4908   2.056   2.175   5.540
 1337SOL     OW 4909   1.855   2.437   4.746
 1337SOL    HW1 4910   1.841   2.505   4.675
 1337SOL    HW2 4911   1.842   2.345   4.708
 1338SOL     OW 4912   5.833   2.101   5.064
 1338SOL    HW1 4913   5.932   2.107   5.079
 1338SOL    HW2 4914   5.812   2.015   5.017
 1339SOL     OW 4915   0.441   1.650   6.552
 1339SOL    HW1 4916   0.350   1.637   6.592
 1339SOL    HW2 4917   0.510   1.608   6.612
 1340SOL     OW 4918   0.097   1.864   2.845
 1340SOL    HW1 4919   0.189   1.824   2.843
 1340SOL    HW2 4920   0.100   1.955   2.805
 1341SOL     OW 4921   5.225   0.257   6.293
 1341SOL    HW1 4922   5.289   0.250   6.369
 1341SOL    HW2 4923   5.157   0.184   6.300
 1342SOL     OW 4924   1.749   5.646   6.014
 1342SOL    HW1 4925   1.744   5.601   5.924
 1342SOL    HW2 4926   1.844   5.656   6.041
 1343SOL     OW 4927   4.654   6.087   3.098
 1343SOL    HW1 4928   4.736   6.070   3.045
 1343SOL    HW2 4929   4.600   6.003   3.105
 1344SOL     OW 4930   6.955   5.124   4.614
 1344SOL    HW1 4931   6.891   5.182   4.664
 1344SOL    HW2 4932   6.939   5.028   4.639
 1345SOL     OW 4933   1.711   0.623   2.799
 1345SOL    HW1 4934   1.807   0.645   2.814
 1345SOL    HW2 4935   1.703   0.526   2.776
 1346SOL     OW 4936   1.015   6.098   4.491
 1346SOL    HW1 4937   1.062   6.173   4.443
 1346SOL    HW2 4938   0.957   6.048   4.426
 1347SOL     OW 4939   6.310   6.361   4.676
 1347SOL    HW1 4940   6.239   6.298   4.644
 1347SOL    HW2 4941   6.270   6.451   4.692
 1348SOL     OW 4942   5.410   5.287   2.519
 1348SOL    HW1 4943   5.456   5.228   2.453
 1348SOL    HW2 4944   5.334   5.237   2.561
 1349SOL     OW 4945   4.431   2.595   6.032
 1349SOL    HW1 4946   4.421   2.693   6.017
 1349SOL    HW2 4947   4.359   2.546   5.983
 1350SOL     OW 4948   5.637   4.693   6.018
 1350SOL    HW1 4949   5.621   4.692   5.919
 1350SOL    HW2 4950   5.566   4.747   6.062
 1351SOL     OW 4951   6.326   1.158   3.519
 1351SOL    HW1 4952   6.293   1.233   3.576
 1351SOL    HW2 4953   6.415   1.126   3.553
 1352SOL     OW 4954   6.797   6.704   2.736
 1352SOL    HW1 4955   6.889   6.704   2.775
 1352SOL    HW2 4956   6.730   6.685   2.808
 1353SOL     OW 4957   0.099   3.460   6.977
 1353SOL    HW1 4958   0.159   3.539   6.962
 1353SOL    HW2 4959   0.120   3.388   6.911
 1354SOL     OW 4960   1.042   3.252   0.611
 1354SOL    HW1 4961   1.126   3.295   0.644
 1354SOL    HW2 4962   0.995   3.208   0.688
 1355SOL     OW 4963   6.440   2.372   5.360
 1355SOL    HW1 4964   6.508   2.315   5.314
 1355SOL    HW2 4965   6.420   2.452   5.303
 1356SOL     OW 4966   2.917   3.713   2.851
 1356SOL    HW1 4967   2.980   3.773   2.801
 1356SOL    HW2 4968   2.860   3.768   2.912
 1357SOL     OW 4969   1.370   3.454   5.414
 1357SOL    HW1 4970   1.421   3.372   5.441
 1357SOL    HW2 4971   1.414   3.496   5.334
 1358SOL     OW 4972   4.106   1.041   5.559
 1358SOL    HW1 4973   4.200   1.070   5.540
 1358SOL    HW2 4974   4.103   0.993   5.647
 1359SOL     OW 4975   5.694   4.436   1.859
 1359SOL    HW1 4976   5.745   4.355   1.887
 1359SOL    HW2 4977   5.750   4.491   1.798
 1360SOL     OW 4978   3.920   2.637   0.316
 1360SOL    HW1 4979   3.908   2.718   0.259
 1360SOL    HW2 4980   3.980   2.659   0.393
 1361SOL     OW 4981   0.176   5.497   5.191
 1361SOL    HW1 4982   0.156   5.554   5.111
 1361SOL    HW2 4983   0.122   5.528   5.269
 1362SOL     OW 4984   2.919   3.663   4.685
 1362SOL    HW1 4985   2.928   3.587   4.749
 1362SOL    HW2 4986   2.976   3.739   4.717
 1363SOL     OW 4987   0.023   5.374   3.938
 1363SOL    HW1 4988   0.102   5.420   3.897
 1363SOL    HW2 4989   0.020   5.279   3.906
 1364SOL     OW 4990   6.704   2.046   1.191
 1364SOL    HW1 4991   6.664   2.061   1.282
 1364SOL    HW2 4992   6.641   1.994   1.135
 1365SOL     OW 4993   0.596   2.614   5.888
 1365SOL    HW1 4994   0.659   2.681   5.850
 1365SOL    HW2 4995   0.508   2.659   5.908
 1366SOL     OW 4996   0.824   4.655   6.890
 1366SOL    HW1 4997   0.848   4.584   6.955
 1366SOL    HW2 4998   0.758   4.619   6.823
 1367SOL     OW 4999   1.745   6.661   2.595
 1367SOL    HW1 5000   1.828   6.672   2.650
 1367SOL    HW2 5001   1.754   6.579   2.538
 1368SOL     OW 5002   6.857   0.365   3.743
 1368SOL    HW1 5003   6.895   0.342   3.654
 1368SOL    HW2 5004   6.766   0.322   3.753
 1369SOL     OW 5005   2.323   0.233   2.020
 1369SOL    HW1 5006   2.228   0.254   2.044
 1369SOL    HW2 5007   2.332   0.134   2.006
 1370SOL     OW 5008   4.217   1.525   2.356
 1370SOL    HW1 5009   4.214   1.491   2.262
 1370SOL    HW2 5010   4.132   1.502   2.403
 1371SOL     OW 5011   6.203   1.322   4.614
 1371SOL    HW1 5012   6.293   1.364   4.608
 1371SOL    HW2 5013   6.204   1.234   4.566
 1372SOL     OW 5014   0.863   2.596   0.532
 1372SOL    HW1 5015   0.804   2.599   0.613
 1372SOL    HW2 5016   0.880   2.689   0.500
 1373SOL     OW 5017   4.792   2.143   6.716
 1373SOL    HW1 5018   4.706   2.102   6.682
 1373SOL    HW2 5019   4.792   2.140   6.816
 1374SOL     OW 5020   4.541   1.769   0.104
 1374SOL    HW1 5021   4.581   1.682   0.131
 1374SOL    HW2 5022   4.497   1.811   0.183
 1375SOL     OW 5023   0.372   4.875   6.241
 1375SOL    HW1 5024   0.324   4.842   6.160
 1375SOL    HW2 5025   0.352   4.816   6.319
 1376SOL     OW 5026   4.543   4.867   5.103
 1376SOL    HW1 5027   4.506   4.925   5.031
 1376SOL    HW2 5028   4.633   4.901   5.132
 1377SOL     OW 5029   0.780   3.091   5.526
 1377SOL    HW1 5030   0.829   3.049   5.603
 1377SOL    HW2 5031   0.846   3.133   5.464
 1378SOL     OW 5032   6.021   1.339   4.835
 1378SOL    HW1 5033   6.087   1.341   4.760
 1378SOL    HW2 5034   6.049   1.404   4.906
 1379SOL     OW 5035   3.866   6.728   3.132
 1379SOL    HW1 5036   3.940   6.733   3.198
 1379SOL    HW2 5037   3.823   6.637   3.137
 1380SOL     OW 5038   0.480   7.000   2.563
 1380SOL    HW1 5039   0.568   6.953   2.575
 1380SOL    HW2 5040   0.427   6.994   2.647
 1381SOL     OW 5041   5.787   2.411   6.642
 1381SOL    HW1 5042   5.801   2.341   6.712
 1381SOL    HW2 5043   5.875   2.434   6.600
 1382SOL     OW 5044   4.944   3.487   0.374
 1382SOL    HW1 5045   5.029   3.507   0.325
 1382SOL    HW2 5046   4.951   3.398   0.418
 1383SOL     OW 5047   0.862   0.253   1.980
 1383SOL    HW1 5048   0.883   0.155   1.989
 1383SOL    HW2 5049   0.793   0.266   1.910
 1384SOL     OW 5050   5.093   0.419   2.105
 1384SOL    HW1 5051   5.170   0.384   2.051
 1384SOL    HW2 5052   5.060   0.504   2.065
 1385SOL     OW 5053   2.068   4.524   3.580
 1385SOL    HW1 5054   2.104   4.533   3.673
 1385SOL    HW2 5055   1.970   4.504   3.584
 1386SOL     OW 5056   2.938   0.385   4.332
 1386SOL    HW1 5057   2.928   0.465   4.273
 1386SOL    HW2 5058   2.864   0.321   4.313
 1387SOL     OW 5059   3.699   6.055   2.471
 1387SOL    HW1 5060   3.715   6.027   2.565
 1387SOL    HW2 5061   3.773   6.022   2.413
 1388SOL     OW 5062   0.512   0.301   2.972
 1388SOL    HW1 5063   0.577   0.292   2.897
 1388SOL    HW2 5064   0.560   0.324   3.056
 1389SOL     OW 5065   6.573   1.213   4.120
 1389SOL    HW1 5066   6.582   1.137   4.055
 1389SOL    HW2 5067   6.626   1.291   4.088
 1390SOL     OW 5068   6.489   3.108   5.998
 1390SOL    HW1 5069   6.588   3.112   6.010
 1390SOL    HW2 5070   6.447   3.188   6.039
 1391SOL     OW 5071   5.782   6.867   5.413
 1391SOL    HW1 5072   5.860   6.920   5.448
 1391SOL    HW2 5073   5.717   6.850   5.488
 1392SOL     OW 5074   5.472   6.723   6.129
 1392SOL    HW1 5075   5.444   6.690   6.039
 1392SOL    HW2 5076   5.403   6.696   6.197
 1393SOL     OW 5077   6.678   3.724   6.211
 1393SOL    HW1 5078   6.643   3.810   6.175
 1393SOL    HW2 5079   6.743   3.742   6.285
 1394SOL     OW 5080   3.610   5.908   5.034
 1394SOL    HW1 5081   3.621   6.006   5.050
 1394SOL    HW2 5082   3.601   5.891   4.936
 1395SOL     OW 5083   1.606   3.989   4.529
 1395SOL    HW1 5084   1.606   4.013   4.627
 1395SOL    HW2 5085   1.698   3.959   4.503
 1396SOL     OW 5086   0.507   0.354   4.867
 1396SOL    HW1 5087   0.427   0.406   4.840
 1396SOL    HW2 5088   0.504   0.264   4.824
 1397SOL     OW 5089   0.405   6.143   4.627
 1397SOL    HW1 5090   0.373   6.110   4.538
 1397SOL    HW2 5091   0.335   6.204   4.666
 1398SOL     OW 5092   2.606   1.212   6.764
 1398SOL    HW1 5093   2.695   1.183   6.801
 1398SOL    HW2 5094   2.535   1.150   6.797
 1399SOL     OW 5095   3.811   6.042   0.349
 1399SOL    HW1 5096   3.823   6.003   0.440
 1399SOL    HW2 5097   3.885   6.012   0.289
 1400SOL     OW 5098   0.516   1.818   4.364
 1400SOL    HW1 5099   0.553   1.725   4.364
 1400SOL    HW2 5100   0.462   1.833   4.281
 1401SOL     OW 5101   5.681   0.455   4.400
 1401SOL    HW1 5102   5.732   0.482   4.482
 1401SOL    HW2 5103   5.745   0.434   4.327
 1402SOL     OW 5104   5.642   4.505   6.547
 1402SOL    HW1 5105   5.562   4.505   6.487
 1402SOL    HW2 5106   5.720   4.544   6.499
 1403SOL     OW 5107   1.853   2.010   1.111
 1403SOL    HW1 5108   1.853   2.066   1.028
 1403SOL    HW2 5109   1.936   1.953   1.111
 1404SOL     OW 5110   6.867   0.667   0.116
 1404SOL    HW1 5111   6.818   0.721   0.047
 1404SOL    HW2 5112   6.801   0.613   0.169
 1405SOL     OW 5113   2.909   4.160   1.199
 1405SOL    HW1 5114   2.874   4.186   1.109
 1405SOL    HW2 5115   2.856   4.083   1.234
 1406SOL     OW 5116   1.702   5.399   1.225
 1406SOL    HW1 5117   1.651   5.458   1.161
 1406SOL    HW2 5118   1.790   5.375   1.184
 1407SOL     OW 5119   1.059   3.781   3.397
 1407SOL    HW1 5120   1.124   3.711   3.425
 1407SOL    HW2 5121   1.096   3.872   3.418
 1408SOL     OW 5122   5.583   0.240   6.576
 1408SOL    HW1 5123   5.638   0.291   6.641
 1408SOL    HW2 5124   5.561   0.150   6.615
 1409SOL     OW 5125   0.639   0.460   5.433
 1409SOL    HW1 5126   0.688   0.520   5.370
 1409SOL    HW2 5127   0.696   0.441   5.513
 1410SOL     OW 5128   1.990   4.420   6.168
 1410SOL    HW1 5129   1.899   4.460   6.162
 1410SOL    HW2 5130   1.982   4.321   6.181
 1411SOL     OW 5131   3.614   6.269   0.054
 1411SOL    HW1 5132   3.659   6.187   0.018
 1411SOL    HW2 5133   3.515   6.254   0.056
 1412SOL     OW 5134   0.806   4.054   1.148
 1412SOL    HW1 5135   0.888   4.009   1.183
 1412SOL    HW2 5136   0.801   4.042   1.049
 1413SOL     OW 5137   2.274   1.367   4.656
 1413SOL    HW1 5138   2.322   1.453   4.637
 1413SOL    HW2 5139   2.255   1.360   4.754
 1414SOL     OW 5140   2.445   1.473   1.763
 1414SOL    HW1 5141   2.445   1.415   1.682
 1414SOL    HW2 5142   2.503   1.553   1.747
 1415SOL     OW 5143   2.988   1.528   4.072
 1415SOL    HW1 5144   2.948   1.577   3.995
 1415SOL    HW2 5145   2.940   1.441   4.085
 1416SOL     OW 5146   4.066   6.540   4.441
 1416SOL    HW1 5147   4.055   6.442   4.424
 1416SOL    HW2 5148   4.160   6.567   4.417
 1417SOL     OW 5149   3.178   2.511   6.662
 1417SOL    HW1 5150   3.100   2.456   6.692
 1417SOL    HW2 5151   3.150   2.567   6.583
 1418SOL     OW 5152   2.742   3.375   1.386
 1418SOL    HW1 5153   2.820   3.396   1.327
 1418SOL    HW2 5154   2.733   3.446   1.456
 1419SOL     OW 5155   3.412   6.229   4.381
 1419SOL    HW1 5156   3.423   6.325   4.353
 1419SOL    HW2 5157   3.449   6.170   4.309
 1420SOL     OW 5158   3.641   5.994   3.201
 1420SOL    HW1 5159   3.605   5.939   3.276
 1420SOL    HW2 5160   3.632   5.943   3.115
 1421SOL     OW 5161   1.103   4.123   4.291
 1421SOL    HW1 5162   1.132   4.199   4.233
 1421SOL    HW2 5163   1.060   4.160   4.374
 1422SOL     OW 5164   2.439   4.059   6.676
 1422SOL    HW1 5165   2.413   4.075   6.581
 1422SOL    HW2 5166   2.501   4.131   6.707
 1423SOL     OW 5167   4.218   0.665   4.386
 1423SOL    HW1 5168   4.229   0.566   4.398
 1423SOL    HW2 5169   4.296   0.712   4.429
 1424SOL     OW 5170   7.024   3.690   6.753
 1424SOL    HW1 5171   0.060   3.619   6.716
 1424SOL    HW2 5172   6.929   3.659   6.748
 1425SOL     OW 5173   2.188   5.515   5.398
 1425SOL    HW1 5174   2.088   5.508   5.390
 1425SOL    HW2 5175   2.212   5.532   5.494
 1426SOL     OW 5176   2.439   2.243   6.113
 1426SOL    HW1 5177   2.495   2.165   6.142
 1426SOL    HW2 5178   2.498   2.313   6.072
 1427SOL     OW 5179   6.644   6.751   4.110
 1427SOL    HW1 5180   6.643   6.830   4.050
 1427SOL    HW2 5181   6.730   6.701   4.099
 1428SOL     OW 5182   1.055   2.206   1.568
 1428SOL    HW1 5183   0.969   2.161   1.593
 1428SOL    HW2 5184   1.048   2.240   1.475
 1429SOL     OW 5185   5.242   1.778   0.140
 1429SOL    HW1 5186   5.164   1.729   0.179
 1429SOL    HW2 5187   5.322   1.764   0.199
 1430SOL     OW 5188   2.447   4.714   3.969
 1430SOL    HW1 5189   2.489   4.727   4.058
 1430SOL    HW2 5190   2.511   4.742   3.897
 1431SOL     OW 5191   2.974   2.457   0.043
 1431SOL    HW1 5192   2.960   2.372   7.017
 1431SOL    HW2 5193   2.975   2.438   0.142
 1432SOL     OW 5194   3.253   1.117   1.060
 1432SOL    HW1 5195   3.170   1.129   1.114
 1432SOL    HW2 5196   3.238   1.045   0.992
 1433SOL     OW 5197   4.952   1.000   5.228
 1433SOL    HW1 5198   4.939   1.002   5.128
 1433SOL    HW2 5199   5.016   1.072   5.254
 1434SOL     OW 5200   0.738   0.833   6.650
 1434SOL    HW1 5201   0.810   0.893   6.616
 1434SOL    HW2 5202   0.777   0.766   6.712
 1435SOL     OW 5203   6.576   0.218   3.075
 1435SOL    HW1 5204   6.481   0.187   3.082
 1435SOL    HW2 5205   6.585   0.279   2.996
 1436SOL     OW 5206   5.322   4.353   6.833
 1436SOL    HW1 5207   5.274   4.361   6.920
 1436SOL    HW2 5208   5.330   4.256   6.809
 1437SOL     OW 5209   3.549   1.633   5.854
 1437SOL    HW1 5210   3.559   1.556   5.917
 1437SOL    HW2 5211   3.598   1.712   5.891
 1438SOL     OW 5212   2.524   0.199   1.274
 1438SOL    HW1 5213   2.621   0.178   1.287
 1438SOL    HW2 5214   2.487   0.141   1.201
 1439SOL     OW 5215   6.931   4.699   0.606
 1439SOL    HW1 5216   0.002   4.730   0.616
 1439SOL    HW2 5217   6.875   4.775   0.574
 1440SOL     OW 5218   3.005   3.032   5.938
 1440SOL    HW1 5219   2.960   3.017   6.026
 1440SOL    HW2 5220   2.937   3.061   5.871
 1441SOL     OW 5221   6.172   2.983   3.959
 1441SOL    HW1 5222   6.178   3.074   4.000
 1441SOL    HW2 5223   6.233   2.977   3.880
 1442SOL     OW 5224   6.312   5.300   6.936
 1442SOL    HW1 5225   6.265   5.298   6.848
 1442SOL    HW2 5226   6.375   5.223   6.942
 1443SOL     OW 5227   0.361   2.915   4.647
 1443SOL    HW1 5228   0.377   2.922   4.548
 1443SOL    HW2 5229   0.313   2.830   4.667
 1444SOL     OW 5230   4.125   6.148   1.200
 1444SOL    HW1 5231   4.130   6.073   1.134
 1444SOL    HW2 5232   4.167   6.230   1.161
 1445SOL     OW 5233   0.276   2.534   1.780
 1445SOL    HW1 5234   0.182   2.531   1.747
 1445SOL    HW2 5235   0.334   2.579   1.713
 1446SOL     OW 5236   4.796   2.185   7.003
 1446SOL    HW1 5237   4.878   2.192   0.036
 1446SOL    HW2 5238   4.767   2.089   6.998
 1447SOL     OW 5239   5.926   6.526   5.718
 1447SOL    HW1 5240   6.017   6.520   5.676
 1447SOL    HW2 5241   5.876   6.441   5.702
 1448SOL     OW 5242   6.394   2.647   0.255
 1448SOL    HW1 5243   6.481   2.603   0.232
 1448SOL    HW2 5244   6.320   2.604   0.203
 1449SOL     OW 5245   0.208   1.504   0.104
 1449SOL    HW1 5246   0.137   1.558   0.059
 1449SOL    HW2 5247   0.211   1.412   0.064
 1450SOL     OW 5248   0.815   2.116   1.646
 1450SOL    HW1 5249   0.762   2.054   1.588
 1450SOL    HW2 5250   0.755   2.159   1.713
 1451SOL     OW 5251   2.287   0.880   2.641
 1451SOL    HW1 5252   2.260   0.802   2.584
 1451SOL    HW2 5253   2.374   0.917   2.608
 1452SOL     OW 5254   4.178   1.264   4.314
 1452SOL    HW1 5255   4.170   1.212   4.229
 1452SOL    HW2 5256   4.275   1.277   4.335
 1453SOL     OW 5257   6.948   3.711   5.318
 1453SOL    HW1 5258   0.017   3.678   5.303
 1453SOL    HW2 5259   6.914   3.676   5.406
 1454SOL     OW 5260   6.590   2.778   2.968
 1454SOL    HW1 5261   6.659   2.784   3.040
 1454SOL    HW2 5262   6.634   2.758   2.880
 1455SOL     OW 5263   1.174   0.193   1.563
 1455SOL    HW1 5264   1.173   0.288   1.533
 1455SOL    HW2 5265   1.259   0.173   1.610
 1456SOL     OW 5266   6.314   6.947   5.257
 1456SOL    HW1 5267   6.244   7.000   5.207
 1456SOL    HW2 5268   6.389   7.008   5.283
 1457SOL     OW 5269   1.474   6.882   1.640
 1457SOL    HW1 5270   1.407   6.813   1.664
 1457SOL    HW2 5271   1.481   6.889   1.540
 1458SOL     OW 5272   5.785   5.830   3.387
 1458SOL    HW1 5273   5.808   5.912   3.336
 1458SOL    HW2 5274   5.866   5.796   3.435
 1459SOL     OW 5275   2.852   5.157   5.566
 1459SOL    HW1 5276   2.836   5.059   5.555
 1459SOL    HW2 5277   2.790   5.208   5.506
 1460SOL     OW 5278   0.091   5.366   5.935
 1460SOL    HW1 5279   0.136   5.451   5.906
 1460SOL    HW2 5280   0.120   5.342   6.028
 1461SOL     OW 5281   0.184   5.108   3.919
 1461SOL    HW1 5282   0.137   5.041   3.978
 1461SOL    HW2 5283   0.265   5.143   3.967
 1462SOL     OW 5284   1.072   1.075   6.298
 1462SOL    HW1 5285   1.057   1.074   6.397
 1462SOL    HW2 5286   1.170   1.071   6.279
 1463SOL     OW 5287   0.221   5.550   0.024
 1463SOL    HW1 5288   0.246   5.510   0.112
 1463SOL    HW2 5289   0.265   5.499   6.975
 1464SOL     OW 5290   5.923   6.708   0.882
 1464SOL    HW1 5291   5.979   6.768   0.939
 1464SOL    HW2 5292   5.826   6.727   0.899
 1465SOL     OW 5293   1.790   1.732   3.834
 1465SOL    HW1 5294   1.844   1.811   3.805
 1465SOL    HW2 5295   1.822   1.651   3.785
 1466SOL     OW 5296   1.671   1.649   2.368
 1466SOL    HW1 5297   1.616   1.653   2.285
 1466SOL    HW2 5298   1.613   1.665   2.448
 1467SOL     OW 5299   2.438   2.165   1.826
 1467SOL    HW1 5300   2.363   2.114   1.785
 1467SOL    HW2 5301   2.511   2.179   1.758
 1468SOL     OW 5302   5.548   5.443   3.180
 1468SOL    HW1 5303   5.614   5.489   3.120
 1468SOL    HW2 5304   5.597   5.397   3.254
 1469SOL     OW 5305   0.700   1.004   2.146
 1469SOL    HW1 5306   0.797   1.021   2.126
 1469SOL    HW2 5307   0.691   0.967   2.239
 1470SOL     OW 5308   1.857   1.489   2.245
 1470SOL    HW1 5309   1.869   1.424   2.319
 1470SOL    HW2 5310   1.803   1.567   2.277
 1471SOL     OW 5311   1.104   0.640   0.501
 1471SOL    HW1 5312   1.166   0.561   0.498
 1471SOL    HW2 5313   1.017   0.612   0.542
 1472SOL     OW 5314   3.923   6.050   5.042
 1472SOL    HW1 5315   3.907   6.030   5.138
 1472SOL    HW2 5316   3.951   6.145   5.031
 1473SOL     OW 5317   5.325   6.383   3.957
 1473SOL    HW1 5318   5.390   6.310   3.980
 1473SOL    HW2 5319   5.326   6.452   4.029
 1474SOL     OW 5320   5.944   5.395   3.185
 1474SOL    HW1 5321   5.873   5.372   3.252
 1474SOL    HW2 5322   5.928   5.343   3.101
 1475SOL     OW 5323   6.328   0.288   1.881
 1475SOL    HW1 5324   6.358   0.376   1.842
 1475SOL    HW2 5325   6.397   0.255   1.945
 1476SOL     OW 5326   2.466   1.331   1.539
 1476SOL    HW1 5327   2.421   1.271   1.474
 1476SOL    HW2 5328   2.544   1.375   1.496
 1477SOL     OW 5329   3.479   0.846   6.308
 1477SOL    HW1 5330   3.486   0.811   6.402
 1477SOL    HW2 5331   3.445   0.940   6.310
 1478SOL     OW 5332   5.888   5.397   0.108
 1478SOL    HW1 5333   5.839   5.429   0.027
 1478SOL    HW2 5334   5.889   5.297   0.111
 1479SOL     OW 5335   1.553   3.239   0.124
 1479SOL    HW1 5336   1.461   3.261   0.159
 1479SOL    HW2 5337   1.616   3.313   0.148
 1480SOL     OW 5338   3.719   6.961   6.108
 1480SOL    HW1 5339   3.708   6.970   6.009
 1480SOL    HW2 5340   3.814   6.976   6.132
 1481SOL     OW 5341   6.763   2.695   5.416
 1481SOL    HW1 5342   6.687   2.632   5.397
 1481SOL    HW2 5343   6.814   2.661   5.495
 1482SOL     OW 5344   4.814   2.652   1.378
 1482SOL    HW1 5345   4.758   2.570   1.379
 1482SOL    HW2 5346   4.773   2.722   1.437
 1483SOL     OW 5347   5.688   2.102   6.461
 1483SOL    HW1 5348   5.728   2.052   6.384
 1483SOL    HW2 5349   5.615   2.161   6.428
 1484SOL     OW 5350   5.864   4.917   3.940
 1484SOL    HW1 5351   5.867   4.822   3.908
 1484SOL    HW2 5352   5.853   4.978   3.861
 1485SOL     OW 5353   3.280   1.936   3.108
 1485SOL    HW1 5354   3.264   1.860   3.045
 1485SOL    HW2 5355   3.209   2.006   3.095
 1486SOL     OW 5356   4.777   2.019   3.292
 1486SOL    HW1 5357   4.726   2.093   3.335
 1486SOL    HW2 5358   4.753   2.014   3.195
 1487SOL     OW 5359   6.497   3.014   6.621
 1487SOL    HW1 5360   6.570   3.057   6.674
 1487SOL    HW2 5361   6.499   3.049   6.528
 1488SOL     OW 5362   5.362   2.030   3.654
 1488SOL    HW1 5363   5.417   1.960   3.701
 1488SOL    HW2 5364   5.285   1.986   3.607
 1489SOL     OW 5365   3.803   5.186   3.970
 1489SOL    HW1 5366   3.793   5.265   4.031
 1489SOL    HW2 5367   3.722   5.127   3.978
 1490SOL     OW 5368   1.192   2.926   1.020
 1490SOL    HW1 5369   1.137   2.943   1.102
 1490SOL    HW2 5370   1.281   2.972   1.029
 1491SOL     OW 5371   6.553   3.712   3.692
 1491SOL    HW1 5372   6.580   3.805   3.717
 1491SOL    HW2 5373   6.520   3.711   3.598
 1492SOL     OW 5374   5.837   1.342   2.203
 1492SOL    HW1 5375   5.818   1.277   2.130
 1492SOL    HW2 5376   5.825   1.298   2.292
 1493SOL     OW 5377   4.360   0.382   4.449
 1493SOL    HW1 5378   4.346   0.286   4.474
 1493SOL    HW2 5379   4.349   0.392   4.350
 1494SOL     OW 5380   6.030   1.773   5.845
 1494SOL    HW1 5381   6.033   1.823   5.932
 1494SOL    HW2 5382   5.937   1.773   5.810
 1495SOL     OW 5383   6.700   2.518   5.116
 1495SOL    HW1 5384   6.613   2.495   5.073
 1495SOL    HW2 5385   6.751   2.580   5.057
 1496SOL     OW 5386   0.469   1.146   1.797
 1496SOL    HW1 5387   0.537   1.161   1.725
 1496SOL    HW2 5388   0.431   1.234   1.825
 1497SOL     OW 5389   6.787   3.149   3.458
 1497SOL    HW1 5390   6.692   3.123   3.477
 1497SOL    HW2 5391   6.796   3.248   3.466
 1498SOL     OW 5392   1.849   4.718   6.103
 1498SOL    HW1 5393   1.906   4.662   6.043
 1498SOL    HW2 5394   1.899   4.799   6.132
 1499SOL     OW 5395   1.058   3.382   6.660
 1499SOL    HW1 5396   1.105   3.405   6.575
 1499SOL    HW2 5397   1.053   3.463   6.719
 1500SOL     OW 5398   6.704   5.988   0.103
 1500SOL    HW1 5399   6.647   5.990   0.020
 1500SOL    HW2 5400   6.754   6.074   0.109
 1501SOL     OW 5401   5.782   1.948   6.225
 1501SOL    HW1 5402   5.747   2.010   6.155
 1501SOL    HW2 5403   5.863   1.900   6.190
 1502SOL     OW 5404   5.582   0.617   1.130
 1502SOL    HW1 5405   5.518   0.649   1.060
 1502SOL    HW2 5406   5.531   0.594   1.213
 1503SOL     OW 5407   1.944   2.402   1.923
 1503SOL    HW1 5408   2.008   2.330   1.948
 1503SOL    HW2 5409   1.966   2.486   1.973
 1504SOL     OW 5410   0.870   0.247   5.359
 1504SOL    HW1 5411   0.831   0.310   5.427
 1504SOL    HW2 5412   0.967   0.233   5.379
 1505SOL     OW 5413   6.038   0.792   5.518
 1505SOL    HW1 5414   6.137   0.796   5.533
 1505SOL    HW2 5415   5.992   0.832   5.597
 1506SOL     OW 5416   1.683   5.188   1.000
 1506SOL    HW1 5417   1.724   5.163   1.088
 1506SOL    HW2 5418   1.682   5.287   0.990
 1507SOL     OW 5419   0.776   1.846   5.740
 1507SOL    HW1 5420   0.742   1.933   5.776
 1507SOL    HW2 5421   0.704   1.802   5.686
 1508SOL     OW 5422   6.710   0.438   1.992
 1508SOL    HW1 5423   6.660   0.462   2.075
 1508SOL    HW2 5424   6.808   0.448   2.008
 1509SOL     OW 5425   4.752   2.598   5.687
 1509SOL    HW1 5426   4.763   2.575   5.591
 1509SOL    HW2 5427   4.664   2.643   5.701
 1510SOL     OW 5428   5.275   2.734   4.905
 1510SOL    HW1 5429   5.248   2.651   4.856
 1510SOL    HW2 5430   5.287   2.714   5.002
 1511SOL     OW 5431   3.027   3.099   2.032
 1511SOL    HW1 5432   3.109   3.149   2.061
 1511SOL    HW2 5433   3.054   3.018   1.980
 1512SOL     OW 5434   0.865   4.995   1.574
 1512SOL    HW1 5435   0.955   4.984   1.533
 1512SOL    HW2 5436   0.866   5.070   1.639
 1513SOL     OW 5437   3.317   0.678   3.485
 1513SOL    HW1 5438   3.329   0.658   3.387
 1513SOL    HW2 5439   3.407   0.691   3.527
 1514SOL     OW 5440   4.212   2.207   6.066
 1514SOL    HW1 5441   4.130   2.154   6.042
 1514SOL    HW2 5442   4.214   2.222   6.165
 1515SOL     OW 5443   5.608   2.103   4.776
 1515SOL    HW1 5444   5.524   2.145   4.742
 1515SOL    HW2 5445   5.656   2.168   4.836
 1516SOL     OW 5446   6.982   0.052   0.461
 1516SOL    HW1 5447   6.887   0.058   0.431
 1516SOL    HW2 5448   0.017   0.033   0.383
 1517SOL     OW 5449   4.339   6.268   3.857
 1517SOL    HW1 5450   4.245   6.241   3.833
 1517SOL    HW2 5451   4.382   6.311   3.778
 1518SOL     OW 5452   0.987   3.296   0.059
 1518SOL    HW1 5453   0.918   3.352   0.103
 1518SOL    HW2 5454   1.048   3.354   0.004
 1519SOL     OW 5455   6.204   4.962   2.316
 1519SOL    HW1 5456   6.297   4.976   2.350
 1519SOL    HW2 5457   6.141   5.022   2.365
 1520SOL     OW 5458   0.496   3.872   2.453
 1520SOL    HW1 5459   0.581   3.823   2.475
 1520SOL    HW2 5460   0.497   3.961   2.498
 1521SOL     OW 5461   2.254   4.116   0.439
 1521SOL    HW1 5462   2.264   4.182   0.513
 1521SOL    HW2 5463   2.213   4.161   0.360
 1522SOL     OW 5464   6.425   6.801   5.027
 1522SOL    HW1 5465   6.412   6.846   5.115
 1522SOL    HW2 5466   6.380   6.711   5.029
 1523SOL     OW 5467   4.869   4.746   6.830
 1523SOL    HW1 5468   4.954   4.776   6.786
 1523SOL    HW2 5469   4.883   4.738   6.929
 1524SOL     OW 5470   1.405   2.193   2.308
 1524SOL    HW1 5471   1.363   2.243   2.233
 1524SOL    HW2 5472   1.365   2.102   2.315
 1525SOL     OW 5473   6.431   2.262   0.620
 1525SOL    HW1 5474   6.458   2.256   0.716
 1525SOL    HW2 5475   6.499   2.316   0.570
 1526SOL     OW 5476   0.472   6.616   0.115
 1526SOL    HW1 5477   0.502   6.618   0.020
 1526SOL    HW2 5478   0.373   6.631   0.119
 1527SOL     OW 5479   3.640   1.141   5.507
 1527SOL    HW1 5480   3.651   1.204   5.430
 1527SOL    HW2 5481   3.681   1.053   5.484
 1528SOL     OW 5482   5.079   5.906   2.499
 1528SOL    HW1 5483   5.145   5.967   2.455
 1528SOL    HW2 5484   5.024   5.861   2.429
 1529SOL     OW 5485   4.031   0.138   0.396
 1529SOL    HW1 5486   4.010   0.224   0.351
 1529SOL    HW2 5487   3.976   0.129   0.479
 1530SOL     OW 5488   3.407   1.391   2.574
 1530SOL    HW1 5489   3.316   1.351   2.587
 1530SOL    HW2 5490   3.405   1.487   2.603
 1531SOL     OW 5491   5.131   1.063   4.711
 1531SOL    HW1 5492   5.204   1.003   4.744
 1531SOL    HW2 5493   5.170   1.153   4.690
 1532SOL     OW 5494   2.527   3.772   5.875
 1532SOL    HW1 5495   2.620   3.800   5.897
 1532SOL    HW2 5496   2.463   3.845   5.900
 1533SOL     OW 5497   6.650   3.137   0.208
 1533SOL    HW1 5498   6.668   3.231   0.238
 1533SOL    HW2 5499   6.609   3.086   0.284
 1534SOL     OW 5500   1.644   5.006   6.207
 1534SOL    HW1 5501   1.638   4.931   6.273
 1534SOL    HW2 5502   1.676   4.970   6.119
 1535SOL     OW 5503   4.943   6.655   4.321
 1535SOL    HW1 5504   4.991   6.711   4.254
 1535SOL    HW2 5505   5.007   6.628   4.394
 1536SOL     OW 5506   4.183   4.284   5.306
 1536SOL    HW1 5507   4.249   4.268   5.379
 1536SOL    HW2 5508   4.209   4.365   5.254
 1537SOL     OW 5509   3.855   6.244   3.485
 1537SOL    HW1 5510   3.928   6.310   3.468
 1537SOL    HW2 5511   3.894   6.152   3.491
 1538SOL     OW 5512   3.953   6.350   5.056
 1538SOL    HW1 5513   3.890   6.427   5.048
 1538SOL    HW2 5514   3.981   6.339   5.151
 1539SOL     OW 5515   4.233   3.533   1.657
 1539SOL    HW1 5516   4.264   3.621   1.694
 1539SOL    HW2 5517   4.195   3.547   1.566
 1540SOL     OW 5518   1.985   6.154   6.329
 1540SOL    HW1 5519   1.924   6.168   6.251
 1540SOL    HW2 5520   2.079   6.141   6.296
 1541SOL     OW 5521   3.535   3.043   2.432
 1541SOL    HW1 5522   3.558   2.967   2.371
 1541SOL    HW2 5523   3.581   3.031   2.520
 1542SOL     OW 5524   6.800   5.873   1.718
 1542SOL    HW1 5525   6.837   5.925   1.641
 1542SOL    HW2 5526   6.765   5.936   1.788
 1543SOL     OW 5527   3.569   3.938   5.020
 1543SOL    HW1 5528   3.503   3.906   4.952
 1543SOL    HW2 5529   3.626   4.010   4.979
 1544SOL     OW 5530   3.464   3.788   2.931
 1544SOL    HW1 5531   3.458   3.888   2.933
 1544SOL    HW2 5532   3.410   3.750   3.007
 1545SOL     OW 5533   5.364   1.022   3.805
 1545SOL    HW1 5534   5.302   1.100   3.800
 1545SOL    HW2 5535   5.398   1.013   3.898
 1546SOL     OW 5536   4.534   0.004   5.922
 1546SOL    HW1 5537   4.488   6.962   5.982
 1546SOL    HW2 5538   4.632   7.008   5.920
 1547SOL     OW 5539   1.894   3.438   3.266
 1547SOL    HW1 5540   1.881   3.358   3.208
 1547SOL    HW2 5541   1.992   3.452   3.282
 1548SOL     OW 5542   4.639   4.150   5.908
 1548SOL    HW1 5543   4.722   4.167   5.855
 1548SOL    HW2 5544   4.637   4.211   5.988
 1549SOL     OW 5545   3.642   0.978   2.994
 1549SOL    HW1 5546   3.656   1.026   2.908
 1549SOL    HW2 5547   3.676   1.034   3.070
 1550SOL     OW 5548   2.271   4.968   5.978
 1550SOL    HW1 5549   2.366   4.956   6.008
 1550SOL    HW2 5550   2.270   5.019   5.892
 1551SOL     OW 5551   1.913   4.164   6.765
 1551SOL    HW1 5552   1.897   4.134   6.671
 1551SOL    HW2 5553   1.959   4.092   6.817
 1552SOL     OW 5554   0.143   0.056   0.661
 1552SOL    HW1 5555   0.213   0.088   0.597
 1552SOL    HW2 5556   0.060   0.032   0.611
 1553SOL     OW 5557   0.064   0.861   5.959
 1553SOL    HW1 5558   0.011   0.894   6.038
 1553SOL    HW2 5559   0.003   0.811   5.898
 1554SOL     OW 5560   3.805   1.794   3.427
 1554SOL    HW1 5561   3.714   1.753   3.440
 1554SOL    HW2 5562   3.795   1.892   3.413
 1555SOL     OW 5563   4.998   1.910   0.285
 1555SOL    HW1 5564   4.934   1.986   0.297
 1555SOL    HW2 5565   4.969   1.854   0.207
 1556SOL     OW 5566   3.439   1.035   0.691
 1556SOL    HW1 5567   3.492   1.116   0.715
 1556SOL    HW2 5568   3.427   1.031   0.591
 1557SOL     OW 5569   2.468   1.040   6.427
 1557SOL    HW1 5570   2.483   1.130   6.468
 1557SOL    HW2 5571   2.374   1.034   6.394
 1558SOL     OW 5572   5.251   1.311   4.076
 1558SOL    HW1 5573   5.169   1.276   4.031
 1558SOL    HW2 5574   5.243   1.299   4.175
 1559SOL     OW 5575   6.939   2.527   0.336
 1559SOL    HW1 5576   6.948   2.485   0.246
 1559SOL    HW2 5577   0.005   2.534   0.378
 1560SOL     OW 5578   3.126   1.669   5.942
 1560SOL    HW1 5579   3.082   1.702   5.860
 1560SOL    HW2 5580   3.182   1.588   5.921
 1561SOL     OW 5581   0.099   6.064   2.523
 1561SOL    HW1 5582   0.119   6.160   2.506
 1561SOL    HW2 5583   0.068   6.020   2.438
 1562SOL     OW 5584   4.069   6.219   1.685
 1562SOL    HW1 5585   4.084   6.155   1.610
 1562SOL    HW2 5586   3.982   6.265   1.673
 1563SOL     OW 5587   2.219   1.034   6.011
 1563SOL    HW1 5588   2.196   1.055   5.916
 1563SOL    HW2 5589   2.140   0.992   6.056
 1564SOL     OW 5590   1.073   2.563   2.690
 1564SOL    HW1 5591   1.171   2.569   2.667
 1564SOL    HW2 5592   1.055   2.620   2.771
 1565SOL     OW 5593   4.408   5.180   3.872
 1565SOL    HW1 5594   4.424   5.260   3.930
 1565SOL    HW2 5595   4.310   5.163   3.866
 1566SOL     OW 5596   5.553   5.232   4.235
 1566SOL    HW1 5597   5.472   5.180   4.209
 1566SOL    HW2 5598   5.635   5.186   4.199
 1567SOL     OW 5599   6.441   6.141   0.175
 1567SOL    HW1 5600   6.539   6.123   0.181
 1567SOL    HW2 5601   6.392   6.056   0.159
 1568SOL     OW 5602   2.467   5.952   1.465
 1568SOL    HW1 5603   2.430   5.976   1.555
 1568SOL    HW2 5604   2.413   5.997   1.394
 1569SOL     OW 5605   2.916   6.846   3.631
 1569SOL    HW1 5606   2.861   6.777   3.583
 1569SOL    HW2 5607   2.945   6.916   3.566
 1570SOL     OW 5608   2.494   6.707   0.618
 1570SOL    HW1 5609   2.550   6.646   0.562
 1570SOL    HW2 5610   2.397   6.681   0.608
 1571SOL     OW 5611   6.079   1.665   2.764
 1571SOL    HW1 5612   6.080   1.733   2.838
 1571SOL    HW2 5613   6.145   1.693   2.694
 1572SOL     OW 5614   1.248   5.625   0.571
 1572SOL    HW1 5615   1.214   5.533   0.553
 1572SOL    HW2 5616   1.201   5.662   0.652
 1573SOL     OW 5617   6.412   3.725   1.628
 1573SOL    HW1 5618   6.333   3.743   1.686
 1573SOL    HW2 5619   6.478   3.799   1.636
 1574SOL     OW 5620   6.598   1.220   3.326
 1574SOL    HW1 5621   6.657   1.141   3.312
 1574SOL    HW2 5622   6.637   1.280   3.396
 1575SOL     OW 5623   2.128   2.311   1.363
 1575SOL    HW1 5624   2.089   2.403   1.367
 1575SOL    HW2 5625   2.122   2.268   1.453
 1576SOL     OW 5626   0.950   0.417   2.556
 1576SOL    HW1 5627   0.997   0.332   2.531
 1576SOL    HW2 5628   1.007   0.495   2.532
 1577SOL     OW 5629   2.562   0.333   5.630
 1577SOL    HW1 5630   2.575   0.254   5.691
 1577SOL    HW2 5631   2.465   0.350   5.617
 1578SOL     OW 5632   5.378   2.655   5.898
 1578SOL    HW1 5633   5.415   2.748   5.897
 1578SOL    HW2 5634   5.290   2.655   5.945
 1579SOL     OW 5635   0.196   1.890   1.779
 1579SOL    HW1 5636   0.134   1.910   1.703
 1579SOL    HW2 5637   0.281   1.851   1.743
 1580SOL     OW 5638   3.315   4.033   4.093
 1580SOL    HW1 5639   3.376   3.960   4.122
 1580SOL    HW2 5640   3.259   4.063   4.171
 1581SOL     OW 5641   6.341   4.565   4.716
 1581SOL    HW1 5642   6.358   4.492   4.650
 1581SOL    HW2 5643   6.282   4.635   4.674
 1582SOL     OW 5644   2.118   6.958   4.375
 1582SOL    HW1 5645   2.121   7.015   4.293
 1582SOL    HW2 5646   2.023   6.932   4.394
 1583SOL     OW 5647   1.006   5.317   2.542
 1583SOL    HW1 5648   0.970   5.334   2.450
 1583SOL    HW2 5649   0.934   5.332   2.609
 1584SOL     OW 5650   0.510   5.944   6.474
 1584SOL    HW1 5651   0.421   5.988   6.482
 1584SOL    HW2 5652   0.581   6.006   6.509
 1585SOL     OW 5653   4.424   1.913   3.525
 1585SOL    HW1 5654   4.345   1.851   3.518
 1585SOL    HW2 5655   4.495   1.882   3.461
 1586SOL     OW 5656   3.265   4.919   1.979
 1586SOL    HW1 5657   3.336   4.897   2.046
 1586SOL    HW2 5658   3.277   4.862   1.898
 1587SOL     OW 5659   2.657   5.859   6.108
 1587SOL    HW1 5660   2.631   5.913   6.188
 1587SOL    HW2 5661   2.586   5.866   6.038
 1588SOL     OW 5662   3.686   1.149   2.781
 1588SOL    HW1 5663   3.610   1.208   2.810
 1588SOL    HW2 5664   3.698   1.157   2.682
 1589SOL     OW 5665   7.018   3.185   2.000
 1589SOL    HW1 5666   6.928   3.141   2.002
 1589SOL    HW2 5667   0.032   3.179   1.907
 1590SOL     OW 5668   3.865   0.149   4.877
 1590SOL    HW1 5669   3.862   0.174   4.780
 1590SOL    HW2 5670   3.859   0.232   4.933
 1591SOL     OW 5671   0.141   5.346   1.546
 1591SOL    HW1 5672   0.058   5.302   1.580
 1591SOL    HW2 5673   0.144   5.338   1.446
 1592SOL     OW 5674   2.150   3.704   6.976
 1592SOL    HW1 5675   2.139   3.789   6.924
 1592SOL    HW2 5676   2.198   3.637   6.920
 1593SOL     OW 5677   0.763   6.409   5.490
 1593SOL    HW1 5678   0.789   6.402   5.587
 1593SOL    HW2 5679   0.808   6.488   5.449
 1594SOL     OW 5680   1.084   6.303   1.678
 1594SOL    HW1 5681   1.154   6.367   1.646
 1594SOL    HW2 5682   1.063   6.238   1.604
 1595SOL     OW 5683   2.002   4.824   0.423
 1595SOL    HW1 5684   1.944   4.895   0.383
 1595SOL    HW2 5685   1.980   4.812   0.520
 1596SOL     OW 5686   0.264   2.279   4.068
 1596SOL    HW1 5687   0.298   2.309   3.979
 1596SOL    HW2 5688   0.314   2.197   4.097
 1597SOL     OW 5689   1.367   6.576   0.379
 1597SOL    HW1 5690   1.278   6.603   0.416
 1597SOL    HW2 5691   1.356   6.495   0.322
 1598SOL     OW 5692   0.025   4.632   5.437
 1598SOL    HW1 5693   0.105   4.671   5.484
 1598SOL    HW2 5694   6.967   4.652   5.490
 1599SOL     OW 5695   4.342   5.353   4.623
 1599SOL    HW1 5696   4.334   5.337   4.721
 1599SOL    HW2 5697   4.351   5.266   4.575
 1600SOL     OW 5698   3.652   1.294   3.187
 1600SOL    HW1 5699   3.749   1.320   3.187
 1600SOL    HW2 5700   3.640   1.211   3.241
 1601SOL     OW 5701   6.724   5.839   4.474
 1601SOL    HW1 5702   6.808   5.819   4.523
 1601SOL    HW2 5703   6.685   5.924   4.510
 1602SOL     OW 5704   3.983   5.673   4.219
 1602SOL    HW1 5705   3.997   5.640   4.125
 1602SOL    HW2 5706   4.036   5.616   4.282
 1603SOL     OW 5707   1.864   6.262   3.328
 1603SOL    HW1 5708   1.850   6.268   3.229
 1603SOL    HW2 5709   1.853   6.167   3.358
 1604SOL     OW 5710   5.186   4.196   1.146
 1604SOL    HW1 5711   5.200   4.113   1.200
 1604SOL    HW2 5712   5.187   4.173   1.049
 1605SOL     OW 5713   6.541   4.986   1.408
 1605SOL    HW1 5714   6.450   4.946   1.398
 1605SOL    HW2 5715   6.600   4.921   1.456
 1606SOL     OW 5716   4.082   6.985   5.346
 1606SOL    HW1 5717   4.095   0.057   5.324
 1606SOL    HW2 5718   4.166   6.935   5.327
 1607SOL     OW 5719   4.218   1.437   0.931
 1607SOL    HW1 5720   4.186   1.439   0.837
 1607SOL    HW2 5721   4.144   1.467   0.992
 1608SOL     OW 5722   0.791   1.212   3.569
 1608SOL    HW1 5723   0.798   1.307   3.599
 1608SOL    HW2 5724   0.855   1.155   3.621
 1609SOL     OW 5725   4.603   0.088   6.930
 1609SOL    HW1 5726   4.503   0.096   6.929
 1609SOL    HW2 5727   4.630   0.026   7.004
 1610SOL     OW 5728   6.266   4.591   6.640
 1610SOL    HW1 5729   6.295   4.561   6.731
 1610SOL    HW2 5730   6.202   4.525   6.601
 1611SOL     OW 5731   2.815   3.896   0.838
 1611SOL    HW1 5732   2.786   3.886   0.742
 1611SOL    HW2 5733   2.879   3.822   0.861
 1612SOL     OW 5734   2.795   0.188   6.822
 1612SOL    HW1 5735   2.803   0.234   6.911
 1612SOL    HW2 5736   2.778   0.090   6.837
 1613SOL     OW 5737   1.190   5.590   2.033
 1613SOL    HW1 5738   1.184   5.491   2.017
 1613SOL    HW2 5739   1.116   5.618   2.095
 1614SOL     OW 5740   4.971   3.033   6.704
 1614SOL    HW1 5741   5.071   3.032   6.698
 1614SOL    HW2 5742   4.940   2.948   6.747
 1615SOL     OW 5743   5.936   5.790   0.762
 1615SOL    HW1 5744   6.006   5.733   0.719
 1615SOL    HW2 5745   5.855   5.735   0.779
 1616SOL     OW 5746   3.356   1.394   5.189
 1616SOL    HW1 5747   3.326   1.379   5.094
 1616SOL    HW2 5748   3.278   1.423   5.244
 1617SOL     OW 5749   5.796   6.440   2.682
 1617SOL    HW1 5750   5.785   6.535   2.714
 1617SOL    HW2 5751   5.778   6.437   2.584
 1618SOL     OW 5752   1.428   5.552   2.379
 1618SOL    HW1 5753   1.413   5.643   2.341
 1618SOL    HW2 5754   1.429   5.485   2.305
 1619SOL     OW 5755   1.036   4.014   1.581
 1619SOL    HW1 5756   0.954   4.054   1.540
 1619SOL    HW2 5757   1.045   3.919   1.553
 1620SOL     OW 5758   2.712   4.646   1.722
 1620SOL    HW1 5759   2.620   4.608   1.735
 1620SOL    HW2 5760   2.777   4.595   1.779
 1621SOL     OW 5761   6.822   0.931   0.683
 1621SOL    HW1 5762   6.766   0.947   0.601
 1621SOL    HW2 5763   6.764   0.892   0.755
 1622SOL     OW 5764   0.578   2.993   5.016
 1622SOL    HW1 5765   0.482   2.966   5.027
 1622SOL    HW2 5766   0.585   3.092   5.023
 1623SOL     OW 5767   2.276   2.950   4.759
 1623SOL    HW1 5768   2.250   3.029   4.703
 1623SOL    HW2 5769   2.306   2.981   4.849
 1624SOL     OW 5770   3.063   1.212   5.225
 1624SOL    HW1 5771   3.096   1.301   5.254
 1624SOL    HW2 5772   2.975   1.194   5.267
 1625SOL     OW 5773   1.708   5.189   0.175
 1625SOL    HW1 5774   1.762   5.253   0.230
 1625SOL    HW2 5775   1.684   5.110   0.231
 1626SOL     OW 5776   4.289   1.334   0.187
 1626SOL    HW1 5777   4.316   1.294   0.100
 1626SOL    HW2 5778   4.370   1.371   0.233
 1627SOL     OW 5779   6.324   3.044   3.709
 1627SOL    HW1 5780   6.378   3.101   3.771
 1627SOL    HW2 5781   6.245   3.096   3.676
 1628SOL     OW 5782   4.870   4.737   0.089
 1628SOL    HW1 5783   4.884   4.671   0.163
 1628SOL    HW2 5784   4.780   4.780   0.099
 1629SOL     OW 5785   2.967   0.733   3.665
 1629SOL    HW1 5786   3.054   0.745   3.712
 1629SOL    HW2 5787   2.954   0.636   3.644
 1630SOL     OW 5788   1.532   4.577   5.767
 1630SOL    HW1 5789   1.470   4.503   5.792
 1630SOL    HW2 5790   1.480   4.662   5.758
 1631SOL     OW 5791   0.965   3.079   0.353
 1631SOL    HW1 5792   1.014   3.066   0.266
 1631SOL    HW2 5793   1.010   3.151   0.406
 1632SOL     OW 5794   5.741   2.442   0.714
 1632SOL    HW1 5795   5.774   2.476   0.803
 1632SOL    HW2 5796   5.805   2.373   0.680
 1633SOL     OW 5797   5.627   3.905   4.202
 1633SOL    HW1 5798   5.582   3.876   4.286
 1633SOL    HW2 5799   5.579   3.867   4.123
 1634SOL     OW 5800   3.866   5.697   4.600
 1634SOL    HW1 5801   3.943   5.690   4.663
 1634SOL    HW2 5802   3.870   5.621   4.534
 1635SOL     OW 5803   0.183   4.905   6.862
 1635SOL    HW1 5804   0.102   4.948   6.901
 1635SOL    HW2 5805   0.255   4.900   6.932
 1636SOL     OW 5806   2.762   4.342   1.578
 1636SOL    HW1 5807   2.770   4.424   1.520
 1636SOL    HW2 5808   2.821   4.353   1.658
 1637SOL     OW 5809   0.640   0.579   2.822
 1637SOL    HW1 5810   0.606   0.537   2.738
 1637SOL    HW2 5811   0.566   0.630   2.866
 1638SOL     OW 5812   6.765   4.474   3.828
 1638SOL    HW1 5813   6.757   4.433   3.919
 1638SOL    HW2 5814   6.699   4.549   3.820
 1639SOL     OW 5815   5.082   6.834   2.317
 1639SOL    HW1 5816   5.029   6.757   2.280
 1639SOL    HW2 5817   5.141   6.871   2.246
 1640SOL     OW 5818   5.804   0.712   0.256
 1640SOL    HW1 5819   5.819   0.626   0.207
 1640SOL    HW2 5820   5.886   0.736   0.307
 1641SOL     OW 5821   4.550   1.733   3.158
 1641SOL    HW1 5822   4.615   1.687   3.098
 1641SOL    HW2 5823   4.582   1.729   3.252
 1642SOL     OW 5824   6.252   3.552   6.510
 1642SOL    HW1 5825   6.315   3.525   6.437
 1642SOL    HW2 5826   6.186   3.479   6.526
 1643SOL     OW 5827   3.033   4.835   4.853
 1643SOL    HW1 5828   2.958   4.859   4.914
 1643SOL    HW2 5829   3.007   4.756   4.797
 1644SOL     OW 5830   6.087   3.582   0.343
 1644SOL    HW1 5831   6.178   3.544   0.360
 1644SOL    HW2 5832   6.045   3.538   0.264
 1645SOL     OW 5833   3.477   4.650   6.267
 1645SOL    HW1 5834   3.397   4.592   6.251
 1645SOL    HW2 5835   3.470   4.691   6.358
 1646SOL     OW 5836   3.027   6.519   0.004
 1646SOL    HW1 5837   3.106   6.575   7.004
 1646SOL    HW2 5838   2.979   6.562   0.081
 1647SOL     OW 5839   5.818   3.119   4.753
 1647SOL    HW1 5840   5.815   3.029   4.710
 1647SOL    HW2 5841   5.801   3.110   4.851
 1648SOL     OW 5842   5.268   5.839   0.651
 1648SOL    HW1 5843   5.254   5.909   0.581
 1648SOL    HW2 5844   5.194   5.844   0.718
 1649SOL     OW 5845   3.271   1.219   4.126
 1649SOL    HW1 5846   3.337   1.149   4.152
 1649SOL    HW2 5847   3.195   1.177   4.076
 1650SOL     OW 5848   1.786   6.385   5.951
 1650SOL    HW1 5849   1.851   6.310   5.963
 1650SOL    HW2 5850   1.715   6.359   5.886
 1651SOL     OW 5851   0.707   1.598   1.712
 1651SOL    HW1 5852   0.793   1.606   1.662
 1651SOL    HW2 5853   0.649   1.676   1.690
 1652SOL     OW 5854   1.203   3.460   2.090
 1652SOL    HW1 5855   1.105   3.479   2.096
 1652SOL    HW2 5856   1.245   3.479   2.179
 1653SOL     OW 5857   0.591   6.425   0.945
 1653SOL    HW1 5858   0.539   6.459   0.867
 1653SOL    HW2 5859   0.613   6.501   1.006
 1654SOL     OW 5860   0.628   3.594   1.565
 1654SOL    HW1 5861   0.656   3.520   1.504
 1654SOL    HW2 5862   0.612   3.557   1.657
 1655SOL     OW 5863   0.870   2.148   5.249
 1655SOL    HW1 5864   0.841   2.148   5.153
 1655SOL    HW2 5865   0.790   2.159   5.308
 1656SOL     OW 5866   2.410   4.507   2.575
 1656SOL    HW1 5867   2.314   4.532   2.580
 1656SOL    HW2 5868   2.464   4.567   2.635
 1657SOL     OW 5869   0.258   1.183   3.965
 1657SOL    HW1 5870   0.308   1.253   4.017
 1657SOL    HW2 5871   0.160   1.196   3.977
 1658SOL     OW 5872   0.166   6.375   0.926
 1658SOL    HW1 5873   0.232   6.408   0.858
 1658SOL    HW2 5874   0.214   6.330   1.001
 1659SOL     OW 5875   3.825   6.793   6.636
 1659SOL    HW1 5876   3.915   6.751   6.648
 1659SOL    HW2 5877   3.790   6.771   6.545
 1660SOL     OW 5878   1.362   5.577   3.858
 1660SOL    HW1 5879   1.330   5.483   3.849
 1660SOL    HW2 5880   1.285   5.636   3.882
 1661SOL     OW 5881   2.647   7.015   1.094
 1661SOL    HW1 5882   2.557   7.022   1.050
 1661SOL    HW2 5883   2.647   6.938   1.158
 1662SOL     OW 5884   6.698   0.213   4.184
 1662SOL    HW1 5885   6.703   0.120   4.147
 1662SOL    HW2 5886   6.641   0.213   4.267
 1663SOL     OW 5887   4.693   6.307   3.269
 1663SOL    HW1 5888   4.746   6.373   3.216
 1663SOL    HW2 5889   4.676   6.225   3.213
 1664SOL     OW 5890   2.107   6.886   4.824
 1664SOL    HW1 5891   2.036   6.817   4.810
 1664SOL    HW2 5892   2.156   6.902   4.738
 1665SOL     OW 5893   0.218   2.401   2.909
 1665SOL    HW1 5894   0.191   2.479   2.853
 1665SOL    HW2 5895   0.164   2.401   2.994
 1666SOL     OW 5896   5.648   2.082   6.841
 1666SOL    HW1 5897   5.735   2.090   6.792
 1666SOL    HW2 5898   5.664   2.036   6.929
 1667SOL     OW 5899   6.731   5.950   1.362
 1667SOL    HW1 5900   6.777   5.863   1.345
 1667SOL    HW2 5901   6.727   6.004   1.278
 1668SOL     OW 5902   5.492   6.411   4.453
 1668SOL    HW1 5903   5.421   6.374   4.513
 1668SOL    HW2 5904   5.540   6.336   4.408
 1669SOL     OW 5905   6.623   5.136   6.380
 1669SOL    HW1 5906   6.530   5.168   6.399
 1669SOL    HW2 5907   6.619   5.044   6.342
 1670SOL     OW 5908   0.483   4.016   6.145
 1670SOL    HW1 5909   0.564   4.058   6.186
 1670SOL    HW2 5910   0.444   3.949   6.208
 1671SOL     OW 5911   5.782   1.257   2.509
 1671SOL    HW1 5912   5.695   1.262   2.558
 1671SOL    HW2 5913   5.851   1.311   2.558
 1672SOL     OW 5914   1.522   2.643   0.630
 1672SOL    HW1 5915   1.560   2.713   0.689
 1672SOL    HW2 5916   1.422   2.643   0.638
 1673SOL     OW 5917   1.313   1.504   4.570
 1673SOL    HW1 5918   1.272   1.485   4.480
 1673SOL    HW2 5919   1.253   1.467   4.641
 1674SOL     OW 5920   0.863   3.245   2.335
 1674SOL    HW1 5921   0.860   3.344   2.352
 1674SOL    HW2 5922   0.958   3.214   2.334
 1675SOL     OW 5923   5.540   0.119   0.528
 1675SOL    HW1 5924   5.446   0.109   0.493
 1675SOL    HW2 5925   5.605   0.103   0.454
 1676SOL     OW 5926   2.340   2.717   2.289
 1676SOL    HW1 5927   2.395   2.777   2.346
 1676SOL    HW2 5928   2.398   2.672   2.221
 1677SOL     OW 5929   3.230   3.451   4.675
 1677SOL    HW1 5930   3.264   3.536   4.715
 1677SOL    HW2 5931   3.150   3.419   4.726
 1678SOL     OW 5932   5.450   4.169   4.126
 1678SOL    HW1 5933   5.451   4.191   4.223
 1678SOL    HW2 5934   5.435   4.071   4.113
 1679SOL     OW 5935   2.365   2.792   4.324
 1679SOL    HW1 5936   2.375   2.793   4.424
 1679SOL    HW2 5937   2.382   2.700   4.290
 1680SOL     OW 5938   0.272   2.978   5.003
 1680SOL    HW1 5939   0.301   3.017   5.091
 1680SOL    HW2 5940   0.223   3.048   4.951
 1681SOL     OW 5941   6.975   5.530   0.119
 1681SOL    HW1 5942   0.031   5.536   0.060
 1681SOL    HW2 5943   6.959   5.619   0.162
 1682SOL     OW 5944   1.627   1.284   4.649
 1682SOL    HW1 5945   1.672   1.203   4.688
 1682SOL    HW2 5946   1.693   1.359   4.643
 1683SOL     OW 5947   5.003   5.316   1.462
 1683SOL    HW1 5948   5.000   5.249   1.388
 1683SOL    HW2 5949   5.067   5.388   1.439
 1684SOL     OW 5950   1.057   5.713   2.253
 1684SOL    HW1 5951   0.995   5.787   2.226
 1684SOL    HW2 5952   1.122   5.747   2.321
 1685SOL     OW 5953   2.542   0.951   4.317
 1685SOL    HW1 5954   2.554   1.043   4.354
 1685SOL    HW2 5955   2.448   0.940   4.284
 1686SOL     OW 5956   2.812   6.208   4.552
 1686SOL    HW1 5957   2.780   6.190   4.645
 1686SOL    HW2 5958   2.756   6.156   4.487
 1687SOL     OW 5959   2.093   3.288   1.621
 1687SOL    HW1 5960   2.077   3.298   1.719
 1687SOL    HW2 5961   2.016   3.240   1.579
 1688SOL     OW 5962   2.393   2.798   4.039
 1688SOL    HW1 5963   2.400   2.794   4.139
 1688SOL    HW2 5964   2.451   2.728   3.998
 1689SOL     OW 5965   6.037   1.454   2.952
 1689SOL    HW1 5966   6.024   1.508   3.034
 1689SOL    HW2 5967   6.081   1.510   2.881
 1690SOL     OW 5968   1.868   2.566   4.010
 1690SOL    HW1 5969   1.804   2.579   3.934
 1690SOL    HW2 5970   1.889   2.469   4.020
 1691SOL     OW 5971   6.069   3.750   3.453
 1691SOL    HW1 5972   5.973   3.774   3.443
 1691SOL    HW2 5973   6.119   3.775   3.370
 1692SOL     OW 5974   5.366   6.354   1.797
 1692SOL    HW1 5975   5.358   6.356   1.897
 1692SOL    HW2 5976   5.311   6.429   1.758
 1693SOL     OW 5977   6.906   2.284   1.892
 1693SOL    HW1 5978   6.984   2.280   1.830
 1693SOL    HW2 5979   6.888   2.193   1.930
 1694SOL     OW 5980   5.860   0.951   2.166
 1694SOL    HW1 5981   5.908   1.003   2.236
 1694SOL    HW2 5982   5.785   1.006   2.129
 1695SOL     OW 5983   3.850   0.842   5.636
 1695SOL    HW1 5984   3.843   0.905   5.558
 1695SOL    HW2 5985   3.932   0.863   5.688
 1696SOL     OW 5986   4.317   5.121   0.660
 1696SOL    HW1 5987   4.341   5.027   0.686
 1696SOL    HW2 5988   4.401   5.175   0.650
 1697SOL     OW 5989   5.847   0.973   0.699
 1697SOL    HW1 5990   5.803   0.972   0.789
 1697SOL    HW2 5991   5.781   1.003   0.630
 1698SOL     OW 5992   3.720   0.340   6.875
 1698SOL    HW1 5993   3.741   0.397   6.795
 1698SOL    HW2 5994   3.782   0.363   6.950
 1699SOL     OW 5995   2.230   0.795   0.460
 1699SOL    HW1 5996   2.155   0.734   0.486
 1699SOL    HW2 5997   2.219   0.882   0.508
 1700SOL     OW 5998   6.049   3.253   4.118
 1700SOL    HW1 5999   6.077   3.308   4.196
 1700SOL    HW2 6000   6.098   3.283   4.036
 1701SOL     OW 6001   4.872   4.112   6.228
 1701SOL    HW1 6002   4.827   4.181   6.170
 1701SOL    HW2 6003   4.866   4.023   6.184
 1702SOL     OW 6004   6.253   1.900   0.477
 1702SOL    HW1 6005   6.274   1.934   0.568
 1702SOL    HW2 6006   6.169   1.846   0.480
 1703SOL     OW 6007   2.900   2.713   1.711
 1703SOL    HW1 6008   2.951   2.641   1.757
 1703SOL    HW2 6009   2.829   2.672   1.653
 1704SOL     OW 6010   0.974   2.307   1.218
 1704SOL    HW1 6011   1.014   2.216   1.216
 1704SOL    HW2 6012   0.972   2.344   1.125
 1705SOL     OW 6013   3.071   1.489   2.100
 1705SOL    HW1 6014   3.155   1.521   2.144
 1705SOL    HW2 6015   3.050   1.546   2.021
 1706SOL     OW 6016   5.061   1.363   2.201
 1706SOL    HW1 6017   5.153   1.379   2.165
 1706SOL    HW2 6018   5.058   1.387   2.298
 1707SOL     OW 6019   5.014   1.951   2.365
 1707SOL    HW1 6020   5.055   1.861   2.370
 1707SOL    HW2 6021   4.997   1.975   2.269
 1708SOL     OW 6022   5.026   5.407   2.069
 1708SOL    HW1 6023   5.045   5.492   2.019
 1708SOL    HW2 6024   4.928   5.403   2.092
 1709SOL     OW 6025   3.341   6.399   2.660
 1709SOL    HW1 6026   3.433   6.390   2.699
 1709SOL    HW2 6027   3.275   6.352   2.718
 1710SOL     OW 6028   5.404   4.750   3.795
 1710SOL    HW1 6029   5.333   4.786   3.855
 1710SOL    HW2 6030   5.394   4.651   3.787
 1711SOL     OW 6031   1.463   4.161   4.374
 1711SOL    HW1 6032   1.381   4.175   4.429
 1711SOL    HW2 6033   1.534   4.119   4.431
 1712SOL     OW 6034   6.547   2.159   5.242
 1712SOL    HW1 6035   6.489   2.116   5.312
 1712SOL    HW2 6036   6.548   2.102   5.160
 1713SOL     OW 6037   4.460   2.649   1.341
 1713SOL    HW1 6038   4.546   2.668   1.389
 1713SOL    HW2 6039   4.419   2.566   1.378
 1714SOL     OW 6040   3.550   1.365   5.633
 1714SOL    HW1 6041   3.548   1.281   5.579
 1714SOL    HW2 6042   3.511   1.347   5.724
 1715SOL     OW 6043   0.430   5.287   3.686
 1715SOL    HW1 6044   0.344   5.338   3.684
 1715SOL    HW2 6045   0.418   5.201   3.635
 1716SOL     OW 6046   5.165   6.978   3.217
 1716SOL    HW1 6047   5.168   0.049   3.187
 1716SOL    HW2 6048   5.079   6.961   3.266
 1717SOL     OW 6049   2.540   6.319   5.630
 1717SOL    HW1 6050   2.619   6.334   5.690
 1717SOL    HW2 6051   2.459   6.302   5.686
 1718SOL     OW 6052   2.365   1.531   1.339
 1718SOL    HW1 6053   2.353   1.440   1.299
 1718SOL    HW2 6054   2.462   1.549   1.353
 1719SOL     OW 6055   1.877   3.383   1.177
 1719SOL    HW1 6056   1.966   3.398   1.219
 1719SOL    HW2 6057   1.871   3.288   1.145
 1720SOL     OW 6058   6.759   3.406   0.498
 1720SOL    HW1 6059   6.797   3.469   0.430
 1720SOL    HW2 6060   6.682   3.450   0.544
 1721SOL     OW 6061   1.741   6.755   1.392
 1721SOL    HW1 6062   1.817   6.690   1.387
 1721SOL    HW2 6063   1.722   6.777   1.487
 1722SOL     OW 6064   3.177   1.249   3.725
 1722SOL    HW1 6065   3.227   1.192   3.790
 1722SOL    HW2 6066   3.109   1.304   3.774
 1723SOL     OW 6067   5.941   2.202   2.221
 1723SOL    HW1 6068   5.939   2.295   2.185
 1723SOL    HW2 6069   5.870   2.148   2.176
 1724SOL     OW 6070   6.671   2.594   1.466
 1724SOL    HW1 6071   6.751   2.594   1.527
 1724SOL    HW2 6072   6.631   2.685   1.464
 1725SOL     OW 6073   2.080   5.302   6.503
 1725SOL    HW1 6074   2.134   5.245   6.565
 1725SOL    HW2 6075   2.133   5.382   6.476
 1726SOL     OW 6076   6.116   4.774   4.909
 1726SOL    HW1 6077   6.075   4.683   4.919
 1726SOL    HW2 6078   6.044   4.841   4.895
 1727SOL     OW 6079   3.361   3.015   4.215
 1727SOL    HW1 6080   3.396   3.108   4.226
 1727SOL    HW2 6081   3.275   3.018   4.164
 1728SOL     OW 6082   5.042   4.931   4.637
 1728SOL    HW1 6083   5.054   4.864   4.710
 1728SOL    HW2 6084   4.976   5.000   4.667
 1729SOL     OW 6085   2.108   4.463   2.870
 1729SOL    HW1 6086   2.055   4.545   2.849
 1729SOL    HW2 6087   2.080   4.390   2.808
 1730SOL     OW 6088   1.061   6.576   5.860
 1730SOL    HW1 6089   1.065   6.502   5.927
 1730SOL    HW2 6090   1.122   6.650   5.887
 1731SOL     OW 6091   0.070   3.960   3.472
 1731SOL    HW1 6092   0.036   4.043   3.427
 1731SOL    HW2 6093   0.130   3.985   3.547
 1732SOL     OW 6094   2.772   5.029   5.271
 1732SOL    HW1 6095   2.826   4.979   5.338
 1732SOL    HW2 6096   2.778   4.984   5.182
 1733SOL     OW 6097   1.899   4.702   1.837
 1733SOL    HW1 6098   1.954   4.715   1.920
 1733SOL    HW2 6099   1.946   4.742   1.759
 1734SOL     OW 6100   4.496   3.243   1.271
 1734SOL    HW1 6101   4.489   3.275   1.366
 1734SOL    HW2 6102   4.405   3.217   1.238
 1735SOL     OW 6103   4.868   5.843   0.563
 1735SOL    HW1 6104   4.913   5.865   0.650
 1735SOL    HW2 6105   4.786   5.789   0.581
 1736SOL     OW 6106   3.517   3.712   0.519
 1736SOL    HW1 6107   3.612   3.685   0.507
 1736SOL    HW2 6108   3.500   3.798   0.470
 1737SOL     OW 6109   3.117   1.323   4.464
 1737SOL    HW1 6110   3.197   1.383   4.460
 1737SOL    HW2 6111   3.147   1.229   4.480
 1738SOL     OW 6112   1.721   2.850   4.184
 1738SOL    HW1 6113   1.681   2.855   4.276
 1738SOL    HW2 6114   1.756   2.941   4.159
 1739SOL     OW 6115   0.471   2.036   5.393
 1739SOL    HW1 6116   0.440   2.032   5.488
 1739SOL    HW2 6117   0.490   1.944   5.360
 1740SOL     OW 6118   0.069   2.114   5.647
 1740SOL    HW1 6119   0.103   2.022   5.627
 1740SOL    HW2 6120   7.008   2.130   5.597
 1741SOL     OW 6121   2.223   0.448   3.574
 1741SOL    HW1 6122   2.131   0.409   3.576
 1741SOL    HW2 6123   2.276   0.412   3.650
 1742SOL     OW 6124   5.876   0.584   6.463
 1742SOL    HW1 6125   5.960   0.537   6.489
 1742SOL    HW2 6126   5.820   0.600   6.544
 1743SOL     OW 6127   0.990   1.919   1.791
 1743SOL    HW1 6128   0.952   1.996   1.739
 1743SOL    HW2 6129   1.050   1.955   1.863
 1744SOL     OW 6130   6.722   2.336   2.619
 1744SOL    HW1 6131   6.704   2.335   2.717
 1744SOL    HW2 6132   6.652   2.391   2.573
 1745SOL     OW 6133   5.619   5.871   2.240
 1745SOL    HW1 6134   5.614   5.772   2.255
 1745SOL    HW2 6135   5.561   5.895   2.162
 1746SOL     OW 6136   1.447   3.758   4.486
 1746SOL    HW1 6137   1.451   3.755   4.586
 1746SOL    HW2 6138   1.499   3.837   4.453
 1747SOL     OW 6139   4.862   1.653   3.174
 1747SOL    HW1 6140   4.888   1.647   3.271
 1747SOL    HW2 6141   4.882   1.566   3.129
 1748SOL     OW 6142   1.403   0.867   4.997
 1748SOL    HW1 6143   1.318   0.816   4.982
 1748SOL    HW2 6144   1.381   0.957   5.035
 1749SOL     OW 6145   2.468   0.556   4.709
 1749SOL    HW1 6146   2.437   0.526   4.618
 1749SOL    HW2 6147   2.460   0.480   4.773
 1750SOL     OW 6148   5.084   6.202   4.034
 1750SOL    HW1 6149   5.156   6.135   4.014
 1750SOL    HW2 6150   5.122   6.276   4.089
 1751SOL     OW 6151   3.843   6.295   4.274
 1751SOL    HW1 6152   3.857   6.219   4.211
 1751SOL    HW2 6153   3.926   6.309   4.329
 1752SOL     OW 6154   6.653   1.927   2.038
 1752SOL    HW1 6155   6.555   1.911   2.046
 1752SOL    HW2 6156   6.673   2.023   2.060
 1753SOL     OW 6157   6.625   1.097   1.319
 1753SOL    HW1 6158   6.701   1.160   1.331
 1753SOL    HW2 6159   6.576   1.087   1.405
 1754SOL     OW 6160   1.421   4.597   6.792
 1754SOL    HW1 6161   1.325   4.627   6.796
 1754SOL    HW2 6162   1.424   4.500   6.771
 1755SOL     OW 6163   6.849   6.203   1.646
 1755SOL    HW1 6164   6.929   6.158   1.607
 1755SOL    HW2 6165   6.875   6.255   1.727
 1756SOL     OW 6166   4.188   6.126   5.841
 1756SOL    HW1 6167   4.215   6.123   5.745
 1756SOL    HW2 6168   4.249   6.187   5.891
 1757SOL     OW 6169   2.160   5.153   4.968
 1757SOL    HW1 6170   2.243   5.154   5.024
 1757SOL    HW2 6171   2.090   5.098   5.014
 1758SOL     OW 6172   2.396   0.315   4.078
 1758SOL    HW1 6173   2.395   0.236   4.139
 1758SOL    HW2 6174   2.308   0.361   4.082
 1759SOL     OW 6175   1.534   6.396   5.806
 1759SOL    HW1 6176   1.466   6.364   5.740
 1759SOL    HW2 6177   1.550   6.494   5.793
 1760SOL     OW 6178   5.504   1.636   2.823
 1760SOL    HW1 6179   5.475   1.542   2.810
 1760SOL    HW2 6180   5.502   1.684   2.735
 1761SOL     OW 6181   0.175   0.447   0.734
 1761SOL    HW1 6182   0.114   0.525   0.719
 1761SOL    HW2 6183   0.130   0.380   0.794
 1762SOL     OW 6184   0.487   0.885   4.808
 1762SOL    HW1 6185   0.574   0.890   4.856
 1762SOL    HW2 6186   0.503   0.868   4.711
 1763SOL     OW 6187   1.375   3.785   4.011
 1763SOL    HW1 6188   1.281   3.760   3.987
 1763SOL    HW2 6189   1.376   3.877   4.049
 1764SOL     OW 6190   2.026   3.284   2.431
 1764SOL    HW1 6191   1.929   3.275   2.454
 1764SOL    HW2 6192   2.058   3.199   2.389
 1765SOL     OW 6193   3.784   0.490   0.893
 1765SOL    HW1 6194   3.864   0.520   0.946
 1765SOL    HW2 6195   3.738   0.570   0.855
 1766SOL     OW 6196   5.387   4.295   2.700
 1766SOL    HW1 6197   5.382   4.362   2.626
 1766SOL    HW2 6198   5.352   4.207   2.668
 1767SOL     OW 6199   0.371   3.657   2.330
 1767SOL    HW1 6200   0.421   3.738   2.360
 1767SOL    HW2 6201   0.429   3.576   2.341
 1768SOL     OW 6202   3.950   1.696   6.754
 1768SOL    HW1 6203   3.950   1.711   6.655
 1768SOL    HW2 6204   4.001   1.612   6.775
 1769SOL     OW 6205   4.781   1.707   6.579
 1769SOL    HW1 6206   4.715   1.734   6.649
 1769SOL    HW2 6207   4.779   1.775   6.505
 1770SOL     OW 6208   6.878   4.371   4.566
 1770SOL    HW1 6209   6.903   4.427   4.645
 1770SOL    HW2 6210   6.932   4.287   4.567
 1771SOL     OW 6211   2.212   5.391   0.551
 1771SOL    HW1 6212   2.195   5.488   0.531
 1771SOL    HW2 6213   2.308   5.377   0.573
 1772SOL     OW 6214   3.449   7.017   3.272
 1772SOL    HW1 6215   3.529   7.000   3.330
 1772SOL    HW2 6216   3.471   6.993   3.177
 1773SOL     OW 6217   3.127   3.602   6.503
 1773SOL    HW1 6218   3.075   3.609   6.417
 1773SOL    HW2 6219   3.217   3.643   6.491
 1774SOL     OW 6220   4.510   0.300   1.982
 1774SOL    HW1 6221   4.564   0.265   1.906
 1774SOL    HW2 6222   4.526   0.243   2.063
 1775SOL     OW 6223   1.753   5.070   5.217
 1775SOL    HW1 6224   1.851   5.050   5.226
 1775SOL    HW2 6225   1.703   4.984   5.200
 1776SOL     OW 6226   5.108   1.019   6.347
 1776SOL    HW1 6227   5.111   1.119   6.343
 1776SOL    HW2 6228   5.054   0.984   6.270
 1777SOL     OW 6229   3.168   5.819   5.471
 1777SOL    HW1 6230   3.183   5.896   5.534
 1777SOL    HW2 6231   3.119   5.746   5.519
 1778SOL     OW 6232   4.466   2.207   4.273
 1778SOL    HW1 6233   4.486   2.126   4.218
 1778SOL    HW2 6234   4.548   2.264   4.280
 1779SOL     OW 6235   3.487   1.447   4.710
 1779SOL    HW1 6236   3.461   1.508   4.785
 1779SOL    HW2 6237   3.499   1.354   4.746
 1780SOL     OW 6238   2.216   4.242   6.146
 1780SOL    HW1 6239   2.189   4.337   6.159
 1780SOL    HW2 6240   2.247   4.229   6.052
 1781SOL     OW 6241   4.925   4.835   3.386
 1781SOL    HW1 6242   4.958   4.804   3.476
 1781SOL    HW2 6243   4.825   4.829   3.384
 1782SOL     OW 6244   2.762   1.590   3.265
 1782SOL    HW1 6245   2.832   1.660   3.279
 1782SOL    HW2 6246   2.755   1.570   3.167
 1783SOL     OW 6247   2.183   3.528   6.097
 1783SOL    HW1 6248   2.147   3.573   6.014
 1783SOL    HW2 6249   2.273   3.490   6.077
 1784SOL     OW 6250   2.476   1.300   2.421
 1784SOL    HW1 6251   2.557   1.325   2.367
 1784SOL    HW2 6252   2.500   1.293   2.517
 1785SOL     OW 6253   5.634   5.479   3.732
 1785SOL    HW1 6254   5.634   5.533   3.648
 1785SOL    HW2 6255   5.540   5.465   3.763
 1786SOL     OW 6256   1.216   3.862   0.137
 1786SOL    HW1 6257   1.277   3.804   0.191
 1786SOL    HW2 6258   1.267   3.942   0.104
 1787SOL     OW 6259   2.110   0.731   5.336
 1787SOL    HW1 6260   2.176   0.656   5.330
 1787SOL    HW2 6261   2.113   0.770   5.427
 1788SOL     OW 6262   3.367   3.997   6.922
 1788SOL    HW1 6263   3.289   3.975   6.981
 1788SOL    HW2 6264   3.397   4.091   6.939
 1789SOL     OW 6265   5.817   2.459   2.177
 1789SOL    HW1 6266   5.718   2.449   2.164
 1789SOL    HW2 6267   5.843   2.554   2.163
 1790SOL     OW 6268   3.996   6.814   4.463
 1790SOL    HW1 6269   3.953   6.858   4.541
 1790SOL    HW2 6270   4.019   6.720   4.486
 1791SOL     OW 6271   0.305   1.355   4.376
 1791SOL    HW1 6272   0.326   1.283   4.442
 1791SOL    HW2 6273   0.368   1.349   4.298
 1792SOL     OW 6274   0.872   1.077   4.583
 1792SOL    HW1 6275   0.817   1.145   4.631
 1792SOL    HW2 6276   0.911   1.012   4.649
 1793SOL     OW 6277   6.196   0.631   3.842
 1793SOL    HW1 6278   6.162   0.546   3.801
 1793SOL    HW2 6279   6.215   0.616   3.939
 1794SOL     OW 6280   4.932   6.359   5.978
 1794SOL    HW1 6281   4.933   6.282   6.042
 1794SOL    HW2 6282   4.916   6.325   5.885
 1795SOL     OW 6283   6.233   4.972   2.013
 1795SOL    HW1 6284   6.287   4.916   2.076
 1795SOL    HW2 6285   6.169   5.029   2.066
 1796SOL     OW 6286   2.360   0.701   4.093
 1796SOL    HW1 6287   2.340   0.777   4.155
 1796SOL    HW2 6288   2.429   0.642   4.136
 1797SOL     OW 6289   1.190   6.806   5.921
 1797SOL    HW1 6290   1.256   6.874   5.889
 1797SOL    HW2 6291   1.184   6.810   6.021
 1798SOL     OW 6292   4.844   2.843   5.080
 1798SOL    HW1 6293   4.828   2.880   5.171
 1798SOL    HW2 6294   4.895   2.909   5.025
 1799SOL     OW 6295   5.730   2.664   6.353
 1799SOL    HW1 6296   5.759   2.666   6.258
 1799SOL    HW2 6297   5.634   2.691   6.360
 1800SOL     OW 6298   5.018   4.363   3.454
 1800SOL    HW1 6299   4.969   4.392   3.537
 1800SOL    HW2 6300   5.073   4.439   3.420
 1801SOL     OW 6301   0.924   1.655   3.054
 1801SOL    HW1 6302   0.962   1.568   3.088
 1801SOL    HW2 6303   0.995   1.704   3.004
 1802SOL     OW 6304   6.229   5.828   2.912
 1802SOL    HW1 6305   6.321   5.821   2.949
 1802SOL    HW2 6306   6.173   5.753   2.947
 1803SOL     OW 6307   0.032   6.418   1.481
 1803SOL    HW1 6308   0.093   6.497   1.492
 1803SOL    HW2 6309   6.963   6.444   1.504
 1804SOL     OW 6310   3.480   3.122   5.538
 1804SOL    HW1 6311   3.550   3.094   5.604
 1804SOL    HW2 6312   3.393   3.137   5.586
 1805SOL     OW 6313   1.008   4.290   6.054
 1805SOL    HW1 6314   1.108   4.288   6.053
 1805SOL    HW2 6315   0.974   4.338   5.973
 1806SOL     OW 6316   1.770   2.194   1.568
 1806SOL    HW1 6317   1.706   2.152   1.504
 1806SOL    HW2 6318   1.756   2.293   1.571
 1807SOL     OW 6319   6.133   2.590   6.080
 1807SOL    HW1 6320   6.150   2.552   5.989
 1807SOL    HW2 6321   6.081   2.525   6.135
 1808SOL     OW 6322   5.733   4.511   4.424
 1808SOL    HW1 6323   5.828   4.531   4.448
 1808SOL    HW2 6324   5.720   4.411   4.422
 1809SOL     OW 6325   2.488   2.522   4.830
 1809SOL    HW1 6326   2.544   2.501   4.910
 1809SOL    HW2 6327   2.426   2.597   4.851
 1810SOL     OW 6328   1.450   0.086   5.082
 1810SOL    HW1 6329   1.388   0.021   5.037
 1810SOL    HW2 6330   1.410   0.115   5.169
 1811SOL     OW 6331   4.750   4.743   2.894
 1811SOL    HW1 6332   4.673   4.702   2.845
 1811SOL    HW2 6333   4.735   4.841   2.903
 1812SOL     OW 6334   5.137   0.061   6.041
 1812SOL    HW1 6335   5.173   7.000   6.005
 1812SOL    HW2 6336   5.200   0.136   6.020
 1813SOL     OW 6337   5.080   5.281   1.147
 1813SOL    HW1 6338   5.085   5.189   1.185
 1813SOL    HW2 6339   5.173   5.319   1.141
 1814SOL     OW 6340   6.368   0.446   0.728
 1814SOL    HW1 6341   6.296   0.514   0.712
 1814SOL    HW2 6342   6.387   0.441   0.826
 1815SOL     OW 6343   6.147   0.632   2.712
 1815SOL    HW1 6344   6.159   0.691   2.791
 1815SOL    HW2 6345   6.137   0.688   2.629
 1816SOL     OW 6346   2.886   4.797   0.468
 1816SOL    HW1 6347   2.868   4.807   0.566
 1816SOL    HW2 6348   2.825   4.857   0.417
 1817SOL     OW 6349   3.788   0.096   3.561
 1817SOL    HW1 6350   3.757   0.179   3.607
 1817SOL    HW2 6351   3.744   0.088   3.472
 1818SOL     OW 6352   2.310   6.352   1.227
 1818SOL    HW1 6353   2.365   6.269   1.216
 1818SOL    HW2 6354   2.245   6.359   1.151
 1819SOL     OW 6355   1.338   6.031   1.811
 1819SOL    HW1 6356   1.252   5.984   1.790
 1819SOL    HW2 6357   1.349   6.109   1.749
 1820SOL     OW 6358   3.381   0.630   2.365
 1820SOL    HW1 6359   3.321   0.600   2.291
 1820SOL    HW2 6360   3.476   0.633   2.332
 1821SOL     OW 6361   2.830   0.604   1.136
 1821SOL    HW1 6362   2.784   0.553   1.209
 1821SOL    HW2 6363   2.918   0.638   1.170
 1822SOL     OW 6364   1.027   2.527   1.397
 1822SOL    HW1 6365   1.117   2.568   1.385
 1822SOL    HW2 6366   1.001   2.477   1.315
 1823SOL     OW 6367   3.357   6.107   2.552
 1823SOL    HW1 6368   3.409   6.022   2.566
 1823SOL    HW2 6369   3.421   6.182   2.534
 1824SOL     OW 6370   3.915   3.946   0.712
 1824SOL    HW1 6371   3.831   3.924   0.762
 1824SOL    HW2 6372   3.950   3.863   0.669
 1825SOL     OW 6373   1.140   2.463   5.166
 1825SOL    HW1 6374   1.128   2.415   5.080
 1825SOL    HW2 6375   1.236   2.490   5.176
 1826SOL     OW 6376   2.948   1.890   1.596
 1826SOL    HW1 6377   2.994   1.979   1.606
 1826SOL    HW2 6378   3.016   1.818   1.591
 1827SOL     OW 6379   6.617   5.324   1.210
 1827SOL    HW1 6380   6.643   5.294   1.301
 1827SOL    HW2 6381   6.670   5.274   1.142
 1828SOL     OW 6382   1.862   2.943   0.202
 1828SOL    HW1 6383   1.931   2.885   0.159
 1828SOL    HW2 6384   1.835   3.016   0.139
 1829SOL     OW 6385   3.567   0.708   3.105
 1829SOL    HW1 6386   3.548   0.796   3.062
 1829SOL    HW2 6387   3.564   0.636   3.036
 1830SOL     OW 6388   5.740   5.894   4.582
 1830SOL    HW1 6389   5.733   5.990   4.609
 1830SOL    HW2 6390   5.750   5.837   4.663
 1831SOL     OW 6391   5.641   6.759   1.707
 1831SOL    HW1 6392   5.723   6.816   1.698
 1831SOL    HW2 6393   5.665   6.671   1.746
 1832SOL     OW 6394   4.334   2.207   0.591
 1832SOL    HW1 6395   4.274   2.225   0.513
 1832SOL    HW2 6396   4.369   2.294   0.626
 1833SOL     OW 6397   5.459   0.893   1.668
 1833SOL    HW1 6398   5.540   0.936   1.708
 1833SOL    HW2 6399   5.455   0.797   1.696
 1834SOL     OW 6400   2.536   3.668   0.601
 1834SOL    HW1 6401   2.483   3.685   0.518
 1834SOL    HW2 6402   2.629   3.703   0.590
 1835SOL     OW 6403   0.207   4.570   1.851
 1835SOL    HW1 6404   0.261   4.621   1.918
 1835SOL    HW2 6405   0.171   4.487   1.894
 1836SOL     OW 6406   5.225   2.583   1.274
 1836SOL    HW1 6407   5.171   2.541   1.347
 1836SOL    HW2 6408   5.171   2.585   1.189
 1837SOL     OW 6409   0.710   6.675   5.120
 1837SOL    HW1 6410   0.665   6.624   5.047
 1837SOL    HW2 6411   0.704   6.773   5.101
 1838SOL     OW 6412   6.667   1.175   5.398
 1838SOL    HW1 6413   6.642   1.189   5.303
 1838SOL    HW2 6414   6.739   1.241   5.423
 1839SOL     OW 6415   0.327   1.225   5.418
 1839SOL    HW1 6416   0.354   1.214   5.514
 1839SOL    HW2 6417   0.247   1.284   5.413
 1840SOL     OW 6418   3.783   0.041   1.934
 1840SOL    HW1 6419   3.830   0.126   1.959
 1840SOL    HW2 6420   3.746   0.050   1.842
 1841SOL     OW 6421   2.047   1.123   3.296
 1841SOL    HW1 6422   2.025   1.046   3.237
 1841SOL    HW2 6423   2.089   1.090   3.380
 1842SOL     OW 6424   1.513   5.724   0.679
 1842SOL    HW1 6425   1.452   5.666   0.624
 1842SOL    HW2 6426   1.535   5.807   0.628
 1843SOL     OW 6427   6.325   0.891   4.681
 1843SOL    HW1 6428   6.359   0.952   4.753
 1843SOL    HW2 6429   6.228   0.873   4.696
 1844SOL     OW 6430   3.181   6.606   5.249
 1844SOL    HW1 6431   3.161   6.532   5.185
 1844SOL    HW2 6432   3.275   6.637   5.234
 1845SOL     OW 6433   3.023   6.405   4.485
 1845SOL    HW1 6434   2.949   6.340   4.500
 1845SOL    HW2 6435   2.985   6.495   4.463
 1846SOL     OW 6436   3.791   1.102   2.316
 1846SOL    HW1 6437   3.876   1.142   2.281
 1846SOL    HW2 6438   3.739   1.173   2.364
 1847SOL     OW 6439   1.186   0.511   5.764
 1847SOL    HW1 6440   1.195   0.599   5.718
 1847SOL    HW2 6441   1.098   0.470   5.740
 1848SOL     OW 6442   2.140   6.254   3.289
 1848SOL    HW1 6443   2.217   6.317   3.290
 1848SOL    HW2 6444   2.057   6.301   3.317
 1849SOL     OW 6445   4.306   2.817   1.696
 1849SOL    HW1 6446   4.364   2.898   1.707
 1849SOL    HW2 6447   4.332   2.748   1.763
 1850SOL     OW 6448   0.254   2.445   2.456
 1850SOL    HW1 6449   0.212   2.535   2.447
 1850SOL    HW2 6450   0.352   2.455   2.470
 1851SOL     OW 6451   0.746   3.369   6.758
 1851SOL    HW1 6452   0.781   3.286   6.801
 1851SOL    HW2 6453   0.677   3.411   6.818
 1852SOL     OW 6454   6.664   4.679   2.645
 1852SOL    HW1 6455   6.646   4.732   2.727
 1852SOL    HW2 6456   6.578   4.656   2.599
 1853SOL     OW 6457   0.342   2.757   3.626
 1853SOL    HW1 6458   0.319   2.660   3.630
 1853SOL    HW2 6459   0.283   2.803   3.559
 1854SOL     OW 6460   2.321   5.443   2.944
 1854SOL    HW1 6461   2.232   5.482   2.969
 1854SOL    HW2 6462   2.356   5.490   2.863
 1855SOL     OW 6463   5.228   4.143   5.121
 1855SOL    HW1 6464   5.225   4.082   5.200
 1855SOL    HW2 6465   5.135   4.156   5.086
 1856SOL     OW 6466   5.258   3.863   6.001
 1856SOL    HW1 6467   5.224   3.940   6.056
 1856SOL    HW2 6468   5.230   3.777   6.043
 1857SOL     OW 6469   3.832   2.118   7.007
 1857SOL    HW1 6470   3.852   2.201   6.955
 1857SOL    HW2 6471   3.867   2.128   0.076
 1858SOL     OW 6472   5.722   3.201   3.004
 1858SOL    HW1 6473   5.750   3.293   3.029
 1858SOL    HW2 6474   5.800   3.139   3.012
 1859SOL     OW 6475   5.026   1.839   3.957
 1859SOL    HW1 6476   5.097   1.808   4.020
 1859SOL    HW2 6477   5.048   1.931   3.924
 1860SOL     OW 6478   0.769   0.783   4.990
 1860SOL    HW1 6479   0.752   0.704   4.930
 1860SOL    HW2 6480   0.725   0.767   5.079
 1861SOL     OW 6481   6.231   0.023   2.440
 1861SOL    HW1 6482   6.321   0.025   2.484
 1861SOL    HW2 6483   6.224   6.968   2.380
 1862SOL     OW 6484   3.052   0.505   6.297
 1862SOL    HW1 6485   3.091   0.591   6.264
 1862SOL    HW2 6486   3.009   0.457   6.221
 1863SOL     OW 6487   0.173   2.605   3.844
 1863SOL    HW1 6488   0.141   2.555   3.764
 1863SOL    HW2 6489   0.106   2.598   3.918
 1864SOL     OW 6490   2.272   6.017   4.637
 1864SOL    HW1 6491   2.315   5.995   4.725
 1864SOL    HW2 6492   2.254   6.115   4.632
 1865SOL     OW 6493   3.901   0.381   0.067
 1865SOL    HW1 6494   3.867   0.295   0.104
 1865SOL    HW2 6495   4.001   0.385   0.078
 1866SOL     OW 6496   6.288   5.259   3.954
 1866SOL    HW1 6497   6.324   5.175   3.913
 1866SOL    HW2 6498   6.194   5.243   3.986
 1867SOL     OW 6499   1.456   3.858   0.856
 1867SOL    HW1 6500   1.463   3.763   0.885
 1867SOL    HW2 6501   1.360   3.887   0.860
 1868SOL     OW 6502   4.699   3.701   6.964
 1868SOL    HW1 6503   4.627   3.696   6.895
 1868SOL    HW2 6504   4.753   3.784   6.951
 1869SOL     OW 6505   0.199   3.468   5.052
 1869SOL    HW1 6506   0.237   3.459   5.144
 1869SOL    HW2 6507   0.157   3.558   5.042
 1870SOL     OW 6508   1.307   3.364   5.084
 1870SOL    HW1 6509   1.358   3.433   5.134
 1870SOL    HW2 6510   1.209   3.378   5.097
 1871SOL     OW 6511   0.543   0.615   6.965
 1871SOL    HW1 6512   0.554   0.579   6.872
 1871SOL    HW2 6513   0.628   0.659   6.993
 1872SOL     OW 6514   4.363   1.863   0.349
 1872SOL    HW1 6515   4.337   1.889   0.442
 1872SOL    HW2 6516   4.285   1.876   0.288
 1873SOL     OW 6517   6.278   0.921   5.824
 1873SOL    HW1 6518   6.359   0.965   5.864
 1873SOL    HW2 6519   6.262   0.959   5.733
 1874SOL     OW 6520   2.126   1.054   6.803
 1874SOL    HW1 6521   2.083   1.108   6.731
 1874SOL    HW2 6522   2.084   1.075   6.891
 1875SOL     OW 6523   6.454   0.807   0.632
 1875SOL    HW1 6524   6.467   0.851   0.721
 1875SOL    HW2 6525   6.540   0.767   0.601
 1876SOL     OW 6526   3.768   5.858   5.995
 1876SOL    HW1 6527   3.729   5.858   5.903
 1876SOL    HW2 6528   3.855   5.908   5.995
 1877SOL     OW 6529   0.734   1.452   3.346
 1877SOL    HW1 6530   0.758   1.358   3.325
 1877SOL    HW2 6531   0.751   1.470   3.444
 1878SOL     OW 6532   0.113   2.432   4.429
 1878SOL    HW1 6533   0.156   2.366   4.491
 1878SOL    HW2 6534   0.122   2.399   4.335
 1879SOL     OW 6535   2.343   5.680   3.396
 1879SOL    HW1 6536   2.386   5.612   3.338
 1879SOL    HW2 6537   2.352   5.653   3.492
 1880SOL     OW 6538   0.474   1.596   2.988
 1880SOL    HW1 6539   0.545   1.538   3.028
 1880SOL    HW2 6540   0.384   1.555   3.004
 1881SOL     OW 6541   1.429   2.230   3.638
 1881SOL    HW1 6542   1.526   2.255   3.634
 1881SOL    HW2 6543   1.397   2.207   3.546
 1882SOL     OW 6544   1.102   4.048   6.441
 1882SOL    HW1 6545   1.004   4.070   6.445
 1882SOL    HW2 6546   1.137   4.036   6.534
 1883SOL     OW 6547   0.993   3.424   3.491
 1883SOL    HW1 6548   1.040   3.409   3.578
 1883SOL    HW2 6549   0.969   3.521   3.483
 1884SOL     OW 6550   6.197   2.386   0.711
 1884SOL    HW1 6551   6.266   2.451   0.681
 1884SOL    HW2 6552   6.194   2.383   0.811
 1885SOL     OW 6553   0.083   2.143   6.656
 1885SOL    HW1 6554   0.156   2.098   6.603
 1885SOL    HW2 6555   0.124   2.213   6.715
 1886SOL     OW 6556   2.670   1.333   1.164
 1886SOL    HW1 6557   2.599   1.268   1.140
 1886SOL    HW2 6558   2.755   1.309   1.117
 1887SOL     OW 6559   0.272   5.094   6.430
 1887SOL    HW1 6560   0.310   5.028   6.366
 1887SOL    HW2 6561   0.186   5.130   6.395
 1888SOL     OW 6562   2.926   2.314   6.207
 1888SOL    HW1 6563   2.908   2.221   6.238
 1888SOL    HW2 6564   3.010   2.348   6.250
 1889SOL     OW 6565   5.530   2.480   6.148
 1889SOL    HW1 6566   5.442   2.461   6.104
 1889SOL    HW2 6567   5.528   2.571   6.188
 1890SOL     OW 6568   1.413   5.866   5.029
 1890SOL    HW1 6569   1.338   5.911   5.077
 1890SOL    HW2 6570   1.410   5.768   5.047
 1891SOL     OW 6571   5.267   3.009   3.937
 1891SOL    HW1 6572   5.355   3.054   3.919
 1891SOL    HW2 6573   5.208   3.019   3.857
 1892SOL     OW 6574   4.057   0.415   0.757
 1892SOL    HW1 6575   3.992   0.491   0.760
 1892SOL    HW2 6576   4.110   0.420   0.672
 1893SOL     OW 6577   3.385   2.019   5.855
 1893SOL    HW1 6578   3.470   1.969   5.847
 1893SOL    HW2 6579   3.396   2.111   5.816
 1894SOL     OW 6580   3.768   3.733   2.765
 1894SOL    HW1 6581   3.840   3.790   2.804
 1894SOL    HW2 6582   3.794   3.705   2.673
 1895SOL     OW 6583   5.283   1.208   2.543
 1895SOL    HW1 6584   5.228   1.127   2.525
 1895SOL    HW2 6585   5.373   1.180   2.578
 1896SOL     OW 6586   0.882   0.442   2.812
 1896SOL    HW1 6587   0.803   0.503   2.804
 1896SOL    HW2 6588   0.930   0.439   2.725
 1897SOL     OW 6589   0.678   4.980   2.568
 1897SOL    HW1 6590   0.773   4.979   2.539
 1897SOL    HW2 6591   0.619   4.968   2.488
 1898SOL     OW 6592   3.396   4.880   2.276
 1898SOL    HW1 6593   3.406   4.911   2.371
 1898SOL    HW2 6594   3.365   4.785   2.276
 1899SOL     OW 6595   0.538   1.892   2.600
 1899SOL    HW1 6596   0.624   1.854   2.634
 1899SOL    HW2 6597   0.465   1.826   2.611
 1900SOL     OW 6598   1.093   0.570   5.082
 1900SOL    HW1 6599   1.147   0.487   5.069
 1900SOL    HW2 6600   1.007   0.562   5.031
 1901SOL     OW 6601   2.218   0.929   1.559
 1901SOL    HW1 6602   2.289   0.978   1.609
 1901SOL    HW2 6603   2.136   0.986   1.551
 1902SOL     OW 6604   2.162   2.452   4.703
 1902SOL    HW1 6605   2.090   2.389   4.732
 1902SOL    HW2 6606   2.240   2.399   4.669
 1903SOL     OW 6607   6.190   3.387   3.928
 1903SOL    HW1 6608   6.222   3.361   3.836
 1903SOL    HW2 6609   6.245   3.463   3.962
 1904SOL     OW 6610   5.950   6.828   4.310
 1904SOL    HW1 6611   5.875   6.809   4.373
 1904SOL    HW2 6612   5.934   6.783   4.223
 1905SOL     OW 6613   1.767   1.005   4.053
 1905SOL    HW1 6614   1.807   0.959   4.132
 1905SOL    HW2 6615   1.815   1.092   4.037
 1906SOL     OW 6616   2.496   0.087   5.317
 1906SOL    HW1 6617   2.467   0.162   5.257
 1906SOL    HW2 6618   2.581   0.112   5.362
 1907SOL     OW 6619   3.753   0.015   3.292
 1907SOL    HW1 6620   3.802   0.001   3.205
 1907SOL    HW2 6621   3.735   6.951   3.334
 1908SOL     OW 6622   3.794   1.082   4.696
 1908SOL    HW1 6623   3.845   1.063   4.612
 1908SOL    HW2 6624   3.791   1.181   4.711
 1909SOL     OW 6625   1.050   3.866   2.668
 1909SOL    HW1 6626   1.119   3.934   2.644
 1909SOL    HW2 6627   1.094   3.777   2.679
 1910SOL     OW 6628   0.582   2.666   0.092
 1910SOL    HW1 6629   0.539   2.586   0.133
 1910SOL    HW2 6630   0.518   2.708   0.028
 1911SOL     OW 6631   5.744   3.375   5.253
 1911SOL    HW1 6632   5.704   3.303   5.310
 1911SOL    HW2 6633   5.793   3.440   5.311
 1912SOL     OW 6634   3.194   0.062   1.362
 1912SOL    HW1 6635   3.200   0.050   1.263
 1912SOL    HW2 6636   3.111   0.016   1.396
 1913SOL     OW 6637   0.819   5.824   5.422
 1913SOL    HW1 6638   0.788   5.853   5.512
 1913SOL    HW2 6639   0.833   5.725   5.422
 1914SOL     OW 6640   3.429   2.696   6.431
 1914SOL    HW1 6641   3.338   2.717   6.396
 1914SOL    HW2 6642   3.476   2.635   6.367
 1915SOL     OW 6643   3.650   1.781   5.505
 1915SOL    HW1 6644   3.571   1.737   5.462
 1915SOL    HW2 6645   3.625   1.810   5.598
 1916SOL     OW 6646   3.272   6.011   1.067
 1916SOL    HW1 6647   3.194   6.067   1.096
 1916SOL    HW2 6648   3.340   6.069   1.022
 1917SOL     OW 6649   3.188   3.010   4.739
 1917SOL    HW1 6650   3.229   3.041   4.654
 1917SOL    HW2 6651   3.248   2.944   4.784
 1918SOL     OW 6652   0.682   1.372   6.986
 1918SOL    HW1 6653   0.699   1.289   6.933
 1918SOL    HW2 6654   0.590   1.369   0.000
 1919SOL     OW 6655   2.489   0.488   1.293
 1919SOL    HW1 6656   2.514   0.392   1.290
 1919SOL    HW2 6657   2.392   0.497   1.311
 1920SOL     OW 6658   1.402   4.958   2.703
 1920SOL    HW1 6659   1.397   5.040   2.647
 1920SOL    HW2 6660   1.342   4.887   2.664
 1921SOL     OW 6661   1.810   4.657   0.212
 1921SOL    HW1 6662   1.870   4.578   0.227
 1921SOL    HW2 6663   1.836   4.702   0.127
 1922SOL     OW 6664   3.261   4.309   0.753
 1922SOL    HW1 6665   3.275   4.354   0.841
 1922SOL    HW2 6666   3.203   4.229   0.765
 1923SOL     OW 6667   3.104   0.624   5.949
 1923SOL    HW1 6668   3.077   0.584   5.862
 1923SOL    HW2 6669   3.082   0.722   5.950
 1924SOL     OW 6670   5.141   5.181   1.945
 1924SOL    HW1 6671   5.100   5.245   2.010
 1924SOL    HW2 6672   5.122   5.214   1.852
 1925SOL     OW 6673   2.245   3.970   0.817
 1925SOL    HW1 6674   2.257   3.894   0.880
 1925SOL    HW2 6675   2.306   3.959   0.739
 1926SOL     OW 6676   1.422   7.023   2.947
 1926SOL    HW1 6677   1.412   0.072   2.880
 1926SOL    HW2 6678   1.486   0.027   3.018
 1927SOL     OW 6679   3.230   4.151   5.989
 1927SOL    HW1 6680   3.254   4.215   5.916
 1927SOL    HW2 6681   3.298   4.078   5.993
 1928SOL     OW 6682   6.463   4.385   5.704
 1928SOL    HW1 6683   6.540   4.321   5.698
 1928SOL    HW2 6684   6.399   4.366   5.630
 1929SOL     OW 6685   1.174   5.312   2.058
 1929SOL    HW1 6686   1.085   5.278   2.087
 1929SOL    HW2 6687   1.200   5.268   1.971
 1930SOL     OW 6688   3.590   3.762   6.627
 1930SOL    HW1 6689   3.685   3.792   6.635
 1930SOL    HW2 6690   3.553   3.742   6.717
 1931SOL     OW 6691   0.487   2.911   2.336
 1931SOL    HW1 6692   0.546   2.989   2.353
 1931SOL    HW2 6693   0.447   2.879   2.422
 1932SOL     OW 6694   5.184   3.457   3.592
 1932SOL    HW1 6695   5.193   3.550   3.555
 1932SOL    HW2 6696   5.097   3.417   3.563
 1933SOL     OW 6697   2.688   4.402   0.728
 1933SOL    HW1 6698   2.777   4.390   0.684
 1933SOL    HW2 6699   2.669   4.500   0.737
 1934SOL     OW 6700   0.910   0.339   4.821
 1934SOL    HW1 6701   0.846   0.343   4.897
 1934SOL    HW2 6702   0.877   0.272   4.754
 1935SOL     OW 6703   3.431   6.365   4.130
 1935SOL    HW1 6704   3.401   6.460   4.140
 1935SOL    HW2 6705   3.522   6.355   4.171
 1936SOL     OW 6706   6.542   3.788   3.982
 1936SOL    HW1 6707   6.612   3.858   3.967
 1936SOL    HW2 6708   6.552   3.750   4.074
 1937SOL     OW 6709   4.407   0.321   0.732
 1937SOL    HW1 6710   4.415   0.374   0.648
 1937SOL    HW2 6711   4.394   0.225   0.710
 1938SOL     OW 6712   2.617   1.051   1.917
 1938SOL    HW1 6713   2.555   1.049   1.838
 1938SOL    HW2 6714   2.568   1.084   1.998
 1939SOL     OW 6715   6.639   0.412   4.970
 1939SOL    HW1 6716   6.553   0.404   5.020
 1939SOL    HW2 6717   6.633   0.488   4.905
 1940SOL     OW 6718   4.685   5.077   0.425
 1940SOL    HW1 6719   4.779   5.060   0.456
 1940SOL    HW2 6720   4.674   5.175   0.406
 1941SOL     OW 6721   6.993   4.431   3.674
 1941SOL    HW1 6722   0.047   4.406   3.731
 1941SOL    HW2 6723   6.913   4.447   3.731
 1942SOL     OW 6724   5.564   0.243   1.573
 1942SOL    HW1 6725   5.513   0.222   1.489
 1942SOL    HW2 6726   5.619   0.163   1.599
 1943SOL     OW 6727   3.042   6.327   2.172
 1943SOL    HW1 6728   2.970   6.257   2.180
 1943SOL    HW2 6729   3.076   6.328   2.078
 1944SOL     OW 6730   5.760   2.383   0.403
 1944SOL    HW1 6731   5.800   2.458   0.351
 1944SOL    HW2 6732   5.798   2.382   0.495
 1945SOL     OW 6733   3.261   5.886   1.694
 1945SOL    HW1 6734   3.233   5.793   1.673
 1945SOL    HW2 6735   3.299   5.928   1.611
 1946SOL     OW 6736   6.168   0.058   1.430
 1946SOL    HW1 6737   6.198   0.152   1.417
 1946SOL    HW2 6738   6.079   0.058   1.476
 1947SOL     OW 6739   4.986   6.893   5.179
 1947SOL    HW1 6740   4.896   6.935   5.192
 1947SOL    HW2 6741   5.014   6.902   5.084
 1948SOL     OW 6742   5.566   5.476   4.068
 1948SOL    HW1 6743   5.521   5.431   4.145
 1948SOL    HW2 6744   5.655   5.433   4.051
 1949SOL     OW 6745   3.204   4.219   6.621
 1949SOL    HW1 6746   3.184   4.316   6.603
 1949SOL    HW2 6747   3.220   4.172   6.534
 1950SOL     OW 6748   4.178   4.500   0.226
 1950SOL    HW1 6749   4.170   4.596   0.252
 1950SOL    HW2 6750   4.274   4.471   0.233
 1951SOL     OW 6751   5.770   3.444   6.902
 1951SOL    HW1 6752   5.852   3.499   6.882
 1951SOL    HW2 6753   5.765   3.428   7.001
 1952SOL     OW 6754   4.828   2.630   0.482
 1952SOL    HW1 6755   4.848   2.653   0.387
 1952SOL    HW2 6756   4.833   2.713   0.538
 1953SOL     OW 6757   6.105   1.670   6.288
 1953SOL    HW1 6758   6.132   1.574   6.281
 1953SOL    HW2 6759   6.111   1.699   6.384
 1954SOL     OW 6760   5.554   1.346   3.167
 1954SOL    HW1 6761   5.637   1.300   3.135
 1954SOL    HW2 6762   5.481   1.279   3.180
 1955SOL     OW 6763   0.810   1.721   2.655
 1955SOL    HW1 6764   0.809   1.762   2.746
 1955SOL    HW2 6765   0.717   1.693   2.630
 1956SOL     OW 6766   5.083   6.559   2.888
 1956SOL    HW1 6767   5.000   6.540   2.835
 1956SOL    HW2 6768   5.075   6.650   2.929
 1957SOL     OW 6769   6.088   4.933   4.319
 1957SOL    HW1 6770   6.041   5.009   4.274
 1957SOL    HW2 6771   6.025   4.856   4.327
 1958SOL     OW 6772   5.015   2.703   2.743
 1958SOL    HW1 6773   4.928   2.677   2.701
 1958SOL    HW2 6774   5.083   2.633   2.726
 1959SOL     OW 6775   0.524   1.199   4.948
 1959SOL    HW1 6776   0.476   1.236   5.028
 1959SOL    HW2 6777   0.458   1.166   4.882
 1960SOL     OW 6778   6.958   4.560   2.147
 1960SOL    HW1 6779   0.005   4.501   2.186
 1960SOL    HW2 6780   6.920   4.516   2.066
 1961SOL     OW 6781   5.741   4.283   4.100
 1961SOL    HW1 6782   5.646   4.252   4.086
 1961SOL    HW2 6783   5.803   4.205   4.093
 1962SOL     OW 6784   1.804   6.314   3.835
 1962SOL    HW1 6785   1.854   6.377   3.894
 1962SOL    HW2 6786   1.724   6.279   3.883
 1963SOL     OW 6787   0.769   1.753   1.449
 1963SOL    HW1 6788   0.698   1.682   1.450
 1963SOL    HW2 6789   0.853   1.715   1.407
 1964SOL     OW 6790   4.431   4.109   0.347
 1964SOL    HW1 6791   4.436   4.154   0.258
 1964SOL    HW2 6792   4.503   4.143   0.406
 1965SOL     OW 6793   1.558   3.407   4.526
 1965SOL    HW1 6794   1.616   3.466   4.470
 1965SOL    HW2 6795   1.604   3.319   4.540
 1966SOL     OW 6796   6.922   6.365   0.299
 1966SOL    HW1 6797   6.879   6.411   0.377
 1966SOL    HW2 6798   6.996   6.306   0.332
 1967SOL     OW 6799   5.739   2.697   5.544
 1967SOL    HW1 6800   5.657   2.675   5.492
 1967SOL    HW2 6801   5.763   2.793   5.530
 1968SOL     OW 6802   2.429   6.862   6.460
 1968SOL    HW1 6803   2.505   6.925   6.445
 1968SOL    HW2 6804   2.342   6.910   6.444
 1969SOL     OW 6805   0.871   1.457   2.379
 1969SOL    HW1 6806   0.870   1.357   2.382
 1969SOL    HW2 6807   0.872   1.487   2.284
 1970SOL     OW 6808   2.703   6.417   6.236
 1970SOL    HW1 6809   2.747   6.393   6.322
 1970SOL    HW2 6810   2.741   6.503   6.202
 1971SOL     OW 6811   0.045   0.350   5.551
 1971SOL    HW1 6812   0.051   0.283   5.624
 1971SOL    HW2 6813   0.107   0.325   5.477
 1972SOL     OW 6814   5.309   2.425   1.880
 1972SOL    HW1 6815   5.242   2.414   1.807
 1972SOL    HW2 6816   5.275   2.383   1.964
 1973SOL     OW 6817   3.250   2.300   0.261
 1973SOL    HW1 6818   3.299   2.367   0.205
 1973SOL    HW2 6819   3.246   2.213   0.212
 1974SOL     OW 6820   5.807   6.874   4.956
 1974SOL    HW1 6821   5.875   6.916   4.896
 1974SOL    HW2 6822   5.743   6.943   4.989
 1975SOL     OW 6823   2.161   1.810   3.868
 1975SOL    HW1 6824   2.169   1.738   3.938
 1975SOL    HW2 6825   2.229   1.793   3.796
 1976SOL     OW 6826   0.567   6.422   0.314
 1976SOL    HW1 6827   0.501   6.469   0.256
 1976SOL    HW2 6828   0.651   6.405   0.262
 1977SOL     OW 6829   0.661   3.008   4.670
 1977SOL    HW1 6830   0.676   2.979   4.575
 1977SOL    HW2 6831   0.568   2.986   4.697
 1978SOL     OW 6832   1.724   0.075   2.773
 1978SOL    HW1 6833   1.681   0.036   2.854
 1978SOL    HW2 6834   1.677   0.160   2.748
 1979SOL     OW 6835   6.241   4.277   6.189
 1979SOL    HW1 6836   6.309   4.322   6.245
 1979SOL    HW2 6837   6.262   4.291   6.092
 1980SOL     OW 6838   2.748   0.189   4.306
 1980SOL    HW1 6839   2.686   0.111   4.299
 1980SOL    HW2 6840   2.712   0.265   4.252
 1981SOL     OW 6841   6.896   2.037   2.042
 1981SOL    HW1 6842   6.826   1.969   2.021
 1981SOL    HW2 6843   6.986   1.995   2.040
 1982SOL     OW 6844   0.174   4.269   5.137
 1982SOL    HW1 6845   0.165   4.207   5.058
 1982SOL    HW2 6846   0.091   4.323   5.147
 1983SOL     OW 6847   1.292   1.111   2.579
 1983SOL    HW1 6848   1.276   1.193   2.525
 1983SOL    HW2 6849   1.384   1.114   2.618
 1984SOL     OW 6850   5.462   1.331   5.710
 1984SOL    HW1 6851   5.405   1.260   5.751
 1984SOL    HW2 6852   5.445   1.335   5.612
 1985SOL     OW 6853   1.551   6.124   2.563
 1985SOL    HW1 6854   1.453   6.140   2.548
 1985SOL    HW2 6855   1.565   6.092   2.657
 1986SOL     OW 6856   1.808   1.722   0.022
 1986SOL    HW1 6857   1.832   1.652   0.088
 1986SOL    HW2 6858   1.878   1.794   0.022
 1987SOL     OW 6859   1.810   2.485   2.492
 1987SOL    HW1 6860   1.895   2.536   2.497
 1987SOL    HW2 6861   1.792   2.459   2.397
 1988SOL     OW 6862   6.095   4.278   1.033
 1988SOL    HW1 6863   6.069   4.333   0.954
 1988SOL    HW2 6864   6.073   4.329   1.117
 1989SOL     OW 6865   2.563   5.350   4.573
 1989SOL    HW1 6866   2.484   5.322   4.518
 1989SOL    HW2 6867   2.532   5.372   4.665
 1990SOL     OW 6868   3.569   6.251   0.577
 1990SOL    HW1 6869   3.482   6.301   0.577
 1990SOL    HW2 6870   3.630   6.291   0.508
 1991SOL     OW 6871   3.453   4.952   6.818
 1991SOL    HW1 6872   3.489   4.866   6.854
 1991SOL    HW2 6873   3.377   4.983   6.874
 1992SOL     OW 6874   1.308   0.856   0.502
 1992SOL    HW1 6875   1.403   0.828   0.486
 1992SOL    HW2 6876   1.255   0.777   0.534
 1993SOL     OW 6877   3.725   2.768   5.263
 1993SOL    HW1 6878   3.636   2.756   5.306
 1993SOL    HW2 6879   3.722   2.849   5.203
 1994SOL     OW 6880   0.497   1.051   0.690
 1994SOL    HW1 6881   0.593   1.047   0.718
 1994SOL    HW2 6882   0.453   1.129   0.735
 1995SOL     OW 6883   5.184   2.422   3.430
 1995SOL    HW1 6884   5.161   2.352   3.498
 1995SOL    HW2 6885   5.267   2.394   3.381
 1996SOL     OW 6886   2.007   3.520   0.902
 1996SOL    HW1 6887   1.975   3.608   0.867
 1996SOL    HW2 6888   1.933   3.453   0.895
 1997SOL     OW 6889   3.348   1.469   4.467
 1997SOL    HW1 6890   3.406   1.464   4.549
 1997SOL    HW2 6891   3.401   1.444   4.387
 1998SOL     OW 6892   1.821   4.691   6.559
 1998SOL    HW1 6893   1.915   4.695   6.595
 1998SOL    HW2 6894   1.783   4.600   6.577
 1999SOL     OW 6895   2.340   6.804   0.184
 1999SOL    HW1 6896   2.407   6.736   0.214
 1999SOL    HW2 6897   2.338   6.879   0.250
 2000SOL     OW 6898   4.048   2.244   5.375
 2000SOL    HW1 6899   3.994   2.172   5.419
 2000SOL    HW2 6900   4.015   2.334   5.403
 2001SOL     OW 6901   3.166   0.852   1.714
 2001SOL    HW1 6902   3.134   0.941   1.748
 2001SOL    HW2 6903   3.148   0.846   1.616
 2002SOL     OW 6904   0.747   4.705   6.547
 2002SOL    HW1 6905   0.747   4.647   6.466
 2002SOL    HW2 6906   0.659   4.751   6.555
 2003SOL     OW 6907   6.321   5.726   2.259
 2003SOL    HW1 6908   6.285   5.819   2.255
 2003SOL    HW2 6909   6.245   5.661   2.269
 2004SOL     OW 6910   5.303   1.088   5.769
 2004SOL    HW1 6911   5.212   1.079   5.728
 2004SOL    HW2 6912   5.308   1.030   5.850
 2005SOL     OW 6913   0.786   5.065   0.521
 2005SOL    HW1 6914   0.712   4.998   0.528
 2005SOL    HW2 6915   0.747   5.158   0.521
 2006SOL     OW 6916   5.078   6.808   4.137
 2006SOL    HW1 6917   5.115   6.799   4.045
 2006SOL    HW2 6918   5.088   6.902   4.168
 2007SOL     OW 6919   4.787   4.783   1.042
 2007SOL    HW1 6920   4.813   4.816   1.132
 2007SOL    HW2 6921   4.734   4.853   0.994
 2008SOL     OW 6922   2.955   4.811   3.856
 2008SOL    HW1 6923   3.028   4.824   3.923
 2008SOL    HW2 6924   2.897   4.734   3.885
 2009SOL     OW 6925   6.193   1.276   2.061
 2009SOL    HW1 6926   6.262   1.222   2.013
 2009SOL    HW2 6927   6.125   1.309   1.996
 2010SOL     OW 6928   2.150   1.838   0.924
 2010SOL    HW1 6929   2.078   1.809   0.860
 2010SOL    HW2 6930   2.164   1.937   0.916
 2011SOL     OW 6931   6.791   6.707   4.810
 2011SOL    HW1 6932   6.763   6.737   4.901
 2011SOL    HW2 6933   6.843   6.779   4.764
 2012SOL     OW 6934   1.651   3.770   2.164
 2012SOL    HW1 6935   1.656   3.852   2.221
 2012SOL    HW2 6936   1.613   3.794   2.075
 2013SOL     OW 6937   6.496   2.469   3.381
 2013SOL    HW1 6938   6.508   2.483   3.283
 2013SOL    HW2 6939   6.563   2.402   3.413
 2014SOL     OW 6940   2.422   5.259   3.496
 2014SOL    HW1 6941   2.343   5.219   3.450
 2014SOL    HW2 6942   2.399   5.350   3.530
 2015SOL     OW 6943   1.910   0.831   6.685
 2015SOL    HW1 6944   1.833   0.892   6.705
 2015SOL    HW2 6945   1.875   0.743   6.653
 2016SOL     OW 6946   1.150   6.219   5.627
 2016SOL    HW1 6947   1.226   6.277   5.597
 2016SOL    HW2 6948   1.164   6.192   5.722
 2017SOL     OW 6949   3.371   6.834   4.370
 2017SOL    HW1 6950   3.403   6.769   4.440
 2017SOL    HW2 6951   3.439   6.839   4.297
 2018SOL     OW 6952   5.402   0.271   5.607
 2018SOL    HW1 6953   5.459   0.352   5.593
 2018SOL    HW2 6954   5.432   0.197   5.547
 2019SOL     OW 6955   5.310   2.782   6.701
 2019SOL    HW1 6956   5.366   2.758   6.780
 2019SOL    HW2 6957   5.287   2.879   6.703
 2020SOL     OW 6958   1.434   6.602   5.170
 2020SOL    HW1 6959   1.381   6.664   5.227
 2020SOL    HW2 6960   1.379   6.520   5.151
 2021SOL     OW 6961   0.606   5.988   4.136
 2021SOL    HW1 6962   0.640   5.947   4.051
 2021SOL    HW2 6963   0.513   5.955   4.153
 2022SOL     OW 6964   1.839   3.662   3.494
 2022SOL    HW1 6965   1.875   3.576   3.457
 2022SOL    HW2 6966   1.800   3.646   3.585
 2023SOL     OW 6967   6.918   1.013   6.639
 2023SOL    HW1 6968   6.821   0.997   6.624
 2023SOL    HW2 6969   6.944   0.981   6.730
 2024SOL     OW 6970   0.338   6.800   3.732
 2024SOL    HW1 6971   0.278   6.744   3.789
 2024SOL    HW2 6972   0.284   6.845   3.661
 2025SOL     OW 6973   2.694   1.882   3.002
 2025SOL    HW1 6974   2.743   1.924   3.079
 2025SOL    HW2 6975   2.748   1.891   2.919
 2026SOL     OW 6976   0.380   2.822   5.884
 2026SOL    HW1 6977   0.302   2.848   5.940
 2026SOL    HW2 6978   0.432   2.903   5.859
 2027SOL     OW 6979   1.002   0.053   0.080
 2027SOL    HW1 6980   1.027   0.086   0.171
 2027SOL    HW2 6981   0.918   0.098   0.050
 2028SOL     OW 6982   3.052   6.478   5.459
 2028SOL    HW1 6983   3.104   6.525   5.388
 2028SOL    HW2 6984   2.989   6.412   5.417
 2029SOL     OW 6985   6.650   0.945   0.492
 2029SOL    HW1 6986   6.659   0.973   0.396
 2029SOL    HW2 6987   6.553   0.945   0.518
 2030SOL     OW 6988   2.530   1.037   2.985
 2030SOL    HW1 6989   2.459   1.048   3.054
 2030SOL    HW2 6990   2.489   1.040   2.894
 2031SOL     OW 6991   6.239   5.618   1.082
 2031SOL    HW1 6992   6.168   5.562   1.124
 2031SOL    HW2 6993   6.323   5.564   1.074
 2032SOL     OW 6994   4.829   0.243   2.251
 2032SOL    HW1 6995   4.891   0.173   2.287
 2032SOL    HW2 6996   4.865   0.279   2.165
 2033SOL     OW 6997   2.975   3.758   6.071
 2033SOL    HW1 6998   2.969   3.851   6.107
 2033SOL    HW2 6999   2.910   3.747   5.996
 2034SOL     OW 7000   2.861   5.534   5.413
 2034SOL    HW1 7001   2.801   5.455   5.423
 2034SOL    HW2 7002   2.907   5.529   5.324
 2035SOL     OW 7003   0.258   6.986   3.434
 2035SOL    HW1 7004   0.263   6.886   3.433
 2035SOL    HW2 7005   0.339   7.024   3.389
 2036SOL     OW 7006   1.363   4.041   2.422
 2036SOL    HW1 7007   1.332   3.968   2.362
 2036SOL    HW2 7008   1.292   4.061   2.490
 2037SOL     OW 7009   6.854   3.170   5.437
 2037SOL    HW1 7010   6.848   3.206   5.343
 2037SOL    HW2 7011   6.785   3.099   5.450
 2038SOL     OW 7012   1.872   2.535   0.375
 2038SOL    HW1 7013   1.836   2.579   0.293
 2038SOL    HW2 7014   1.893   2.439   0.355
 2039SOL     OW 7015   0.038   5.165   3.699
 2039SOL    HW1 7016   6.990   5.097   3.682
 2039SOL    HW2 7017   0.106   5.127   3.762
 2040SOL     OW 7018   3.244   3.223   5.676
 2040SOL    HW1 7019   3.161   3.258   5.719
 2040SOL    HW2 7020   3.312   3.297   5.670
 2041SOL     OW 7021   0.568   6.168   5.844
 2041SOL    HW1 7022   0.580   6.264   5.817
 2041SOL    HW2 7023   0.565   6.162   5.944
 2042SOL     OW 7024   4.798   5.938   0.138
 2042SOL    HW1 7025   4.866   5.871   0.110
 2042SOL    HW2 7026   4.779   6.000   0.061
 2043SOL     OW 7027   6.869   3.405   3.528
 2043SOL    HW1 7028   6.797   3.436   3.590
 2043SOL    HW2 7029   6.956   3.446   3.554
 2044SOL     OW 7030   6.326   7.000   2.019
 2044SOL    HW1 7031   6.355   6.957   1.934
 2044SOL    HW2 7032   6.227   7.003   2.024
 2045SOL     OW 7033   2.173   4.796   3.965
 2045SOL    HW1 7034   2.272   4.804   3.977
 2045SOL    HW2 7035   2.136   4.738   4.037
 2046SOL     OW 7036   6.795   2.074   3.758
 2046SOL    HW1 7037   6.785   2.079   3.659
 2046SOL    HW2 7038   6.705   2.080   3.801
 2047SOL     OW 7039   6.846   2.846   6.836
 2047SOL    HW1 7040   6.913   2.920   6.824
 2047SOL    HW2 7041   6.781   2.871   6.907
 2048SOL     OW 7042   1.459   6.282   6.045
 2048SOL    HW1 7043   1.401   6.204   6.022
 2048SOL    HW2 7044   1.491   6.327   5.962
 2049SOL     OW 7045   6.169   1.344   5.101
 2049SOL    HW1 7046   6.260   1.383   5.104
 2049SOL    HW2 7047   6.175   1.244   5.106
 2050SOL     OW 7048   6.541   2.207   3.876
 2050SOL    HW1 7049   6.529   2.257   3.962
 2050SOL    HW2 7050   6.570   2.271   3.804
 2051SOL     OW 7051   1.023   5.275   0.367
 2051SOL    HW1 7052   1.066   5.314   0.448
 2051SOL    HW2 7053   1.088   5.275   0.291
 2052SOL     OW 7054   1.470   3.781   1.141
 2052SOL    HW1 7055   1.518   3.696   1.123
 2052SOL    HW2 7056   1.474   3.840   1.060
 2053SOL     OW 7057   5.652   6.488   4.162
 2053SOL    HW1 7058   5.666   6.393   4.191
 2053SOL    HW2 7059   5.605   6.538   4.234
 2054SOL     OW 7060   3.443   4.056   2.959
 2054SOL    HW1 7061   3.495   4.074   3.043
 2054SOL    HW2 7062   3.502   4.073   2.880
 2055SOL     OW 7063   6.250   3.345   3.637
 2055SOL    HW1 7064   6.348   3.339   3.621
 2055SOL    HW2 7065   6.201   3.303   3.561
 2056SOL     OW 7066   4.323   5.909   2.359
 2056SOL    HW1 7067   4.283   5.958   2.437
 2056SOL    HW2 7068   4.258   5.909   2.283
 2057SOL     OW 7069   5.383   4.322   5.758
 2057SOL    HW1 7070   5.391   4.327   5.858
 2057SOL    HW2 7071   5.454   4.379   5.717
 2058SOL     OW 7072   0.407   1.558   3.297
 2058SOL    HW1 7073   0.370   1.645   3.262
 2058SOL    HW2 7074   0.488   1.577   3.352
 2059SOL     OW 7075   1.919   5.926   6.783
 2059SOL    HW1 7076   1.875   5.997   6.838
 2059SOL    HW2 7077   1.990   5.966   6.726
 2060SOL     OW 7078   0.525   4.453   1.801
 2060SOL    HW1 7079   0.583   4.374   1.821
 2060SOL    HW2 7080   0.484   4.442   1.710
 2061SOL     OW 7081   1.191   2.255   2.819
 2061SOL    HW1 7082   1.225   2.168   2.855
 2061SOL    HW2 7083   1.098   2.242   2.785
 2062SOL     OW 7084   6.155   6.144   4.049
 2062SOL    HW1 7085   6.253   6.157   4.040
 2062SOL    HW2 7086   6.127   6.063   3.998
 2063SOL     OW 7087   2.013   6.559   6.198
 2063SOL    HW1 7088   1.983   6.564   6.293
 2063SOL    HW2 7089   1.933   6.548   6.139
 2064SOL     OW 7090   1.139   2.732   5.868
 2064SOL    HW1 7091   1.140   2.640   5.827
 2064SOL    HW2 7092   1.233   2.761   5.887
 2065SOL     OW 7093   6.322   2.597   5.240
 2065SOL    HW1 7094   6.223   2.582   5.242
 2065SOL    HW2 7095   6.341   2.685   5.195
 2066SOL     OW 7096   0.602   4.491   4.346
 2066SOL    HW1 7097   0.556   4.445   4.421
 2066SOL    HW2 7098   0.630   4.582   4.375
 2067SOL     OW 7099   6.198   5.260   1.089
 2067SOL    HW1 7100   6.214   5.162   1.077
 2067SOL    HW2 7101   6.205   5.283   1.186
 2068SOL     OW 7102   2.328   0.196   4.590
 2068SOL    HW1 7103   2.364   0.241   4.672
 2068SOL    HW2 7104   2.307   0.101   4.611
 2069SOL     OW 7105   6.894   1.832   3.852
 2069SOL    HW1 7106   6.869   1.894   3.778
 2069SOL    HW2 7107   6.958   1.878   3.913
 2070SOL     OW 7108   0.579   0.969   1.419
 2070SOL    HW1 7109   0.647   0.905   1.382
 2070SOL    HW2 7110   0.616   1.015   1.499
 2071SOL     OW 7111   6.770   6.983   6.153
 2071SOL    HW1 7112   6.752   6.910   6.087
 2071SOL    HW2 7113   6.865   6.979   6.182
 2072SOL     OW 7114   4.474   5.883   4.185
 2072SOL    HW1 7115   4.435   5.951   4.123
 2072SOL    HW2 7116   4.444   5.902   4.278
 2073SOL     OW 7117   4.294   0.087   5.161
 2073SOL    HW1 7118   4.248   0.169   5.196
 2073SOL    HW2 7119   4.259   0.065   5.070
 2074SOL     OW 7120   2.057   2.783   6.631
 2074SOL    HW1 7121   2.152   2.810   6.614
 2074SOL    HW2 7122   2.009   2.858   6.675
 2075SOL     OW 7123   6.830   2.959   3.214
 2075SOL    HW1 7124   6.816   2.872   3.262
 2075SOL    HW2 7125   6.855   3.029   3.281
 2076SOL     OW 7126   5.935   0.246   6.475
 2076SOL    HW1 7127   5.919   0.203   6.386
 2076SOL    HW2 7128   5.848   0.269   6.517
 2077SOL     OW 7129   5.797   2.307   3.491
 2077SOL    HW1 7130   5.863   2.289   3.564
 2077SOL    HW2 7131   5.836   2.276   3.404
 2078SOL     OW 7132   1.122   5.752   5.788
 2078SOL    HW1 7133   1.074   5.665   5.797
 2078SOL    HW2 7134   1.059   5.823   5.756
 2079SOL     OW 7135   5.719   2.064   3.236
 2079SOL    HW1 7136   5.694   2.137   3.299
 2079SOL    HW2 7137   5.644   2.047   3.172
 2080SOL     OW 7138   1.719   0.074   5.059
 2080SOL    HW1 7139   1.762   0.025   4.983
 2080SOL    HW2 7140   1.621   0.054   5.060
 2081SOL     OW 7141   1.279   5.504   4.498
 2081SOL    HW1 7142   1.230   5.547   4.574
 2081SOL    HW2 7143   1.366   5.551   4.484
 2082SOL     OW 7144   0.626   6.878   3.313
 2082SOL    HW1 7145   0.622   6.827   3.227
 2082SOL    HW2 7146   0.580   6.966   3.303
 2083SOL     OW 7147   6.804   4.726   5.513
 2083SOL    HW1 7148   6.837   4.809   5.558
 2083SOL    HW2 7149   6.709   4.740   5.484
 2084SOL     OW 7150   0.455   4.469   3.412
 2084SOL    HW1 7151   0.544   4.473   3.368
 2084SOL    HW2 7152   0.419   4.562   3.423
 2085SOL     OW 7153   4.515   0.389   0.068
 2085SOL    HW1 7154   4.581   0.419   7.023
 2085SOL    HW2 7155   4.457   0.317   0.030
 2086SOL     OW 7156   3.810   6.525   6.217
 2086SOL    HW1 7157   3.813   6.436   6.261
 2086SOL    HW2 7158   3.847   6.518   6.125
 2087SOL     OW 7159   4.855   0.771   1.463
 2087SOL    HW1 7160   4.756   0.785   1.462
 2087SOL    HW2 7161   4.901   0.859   1.447
 2088SOL     OW 7162   1.448   5.925   0.136
 2088SOL    HW1 7163   1.462   5.950   0.041
 2088SOL    HW2 7164   1.368   5.865   0.143
 2089SOL     OW 7165   5.319   2.937   6.156
 2089SOL    HW1 7166   5.384   3.009   6.179
 2089SOL    HW2 7167   5.248   2.974   6.097
 2090SOL     OW 7168   4.618   3.820   5.851
 2090SOL    HW1 7169   4.598   3.843   5.946
 2090SOL    HW2 7170   4.535   3.832   5.796
 2091SOL     OW 7171   0.749   5.081   0.885
 2091SOL    HW1 7172   0.794   5.142   0.950
 2091SOL    HW2 7173   0.720   5.134   0.805
 2092SOL     OW 7174   5.176   4.139   0.161
 2092SOL    HW1 7175   5.268   4.114   0.194
 2092SOL    HW2 7176   5.107   4.090   0.215
 2093SOL     OW 7177   2.596   2.028   1.169
 2093SOL    HW1 7178   2.636   1.967   1.100
 2093SOL    HW2 7179   2.501   2.001   1.184
 2094SOL     OW 7180   6.459   2.001   3.024
 2094SOL    HW1 7181   6.502   2.005   2.933
 2094SOL    HW2 7182   6.361   2.015   3.015
 2095SOL     OW 7183   5.924   0.042   5.555
 2095SOL    HW1 7184   6.024   0.043   5.562
 2095SOL    HW2 7185   5.884   0.045   5.646
 2096SOL     OW 7186   4.812   4.020   3.010
 2096SOL    HW1 7187   4.746   4.025   2.935
 2096SOL    HW2 7188   4.902   3.996   2.974
 2097SOL     OW 7189   2.728   3.730   6.443
 2097SOL    HW1 7190   2.730   3.632   6.425
 2097SOL    HW2 7191   2.746   3.779   6.357
 2098SOL     OW 7192   4.025   6.343   2.144
 2098SOL    HW1 7193   4.064   6.271   2.087
 2098SOL    HW2 7194   4.067   6.431   2.121
 2099SOL     OW 7195   3.584   2.510   6.293
 2099SOL    HW1 7196   3.532   2.430   6.263
 2099SOL    HW2 7197   3.675   2.481   6.323
 2100SOL     OW 7198   5.546   2.327   6.902
 2100SOL    HW1 7199   5.518   2.357   6.811
 2100SOL    HW2 7200   5.592   2.239   6.895
 2101SOL     OW 7201   1.100   6.846   1.605
 2101SOL    HW1 7202   1.075   6.780   1.676
 2101SOL    HW2 7203   1.017   6.881   1.561
 2102SOL     OW 7204   5.615   4.841   2.520
 2102SOL    HW1 7205   5.636   4.744   2.534
 2102SOL    HW2 7206   5.589   4.882   2.607
 2103SOL     OW 7207   3.262   3.724   6.851
 2103SOL    HW1 7208   3.238   3.793   6.782
 2103SOL    HW2 7209   3.359   3.733   6.875
 2104SOL     OW 7210   1.468   4.333   1.777
 2104SOL    HW1 7211   1.533   4.396   1.735
 2104SOL    HW2 7212   1.393   4.385   1.817
 2105SOL     OW 7213   5.434   4.952   5.788
 2105SOL    HW1 7214   5.532   4.938   5.801
 2105SOL    HW2 7215   5.409   4.927   5.694
 2106SOL     OW 7216   5.054   3.866   0.837
 2106SOL    HW1 7217   4.989   3.859   0.913
 2106SOL    HW2 7218   5.036   3.793   0.771
 2107SOL     OW 7219   6.256   2.247   5.189
 2107SOL    HW1 7220   6.318   2.301   5.247
 2107SOL    HW2 7221   6.257   2.152   5.220
 2108SOL     OW 7222   6.216   5.405   4.838
 2108SOL    HW1 7223   6.264   5.490   4.821
 2108SOL    HW2 7224   6.216   5.349   4.755
 2109SOL     OW 7225   4.552   5.824   2.132
 2109SOL    HW1 7226   4.526   5.914   2.167
 2109SOL    HW2 7227   4.558   5.828   2.032
 2110SOL     OW 7228   2.440   1.062   0.272
 2110SOL    HW1 7229   2.474   1.134   0.332
 2110SOL    HW2 7230   2.485   0.976   0.295
 2111SOL     OW 7231   2.392   2.961   6.928
 2111SOL    HW1 7232   2.344   2.890   6.875
 2111SOL    HW2 7233   2.488   2.937   6.936
 2112SOL     OW 7234   5.150   2.950   0.836
 2112SOL    HW1 7235   5.186   2.932   0.928
 2112SOL    HW2 7236   5.182   2.880   0.773
 2113SOL     OW 7237   2.727   1.774   4.203
 2113SOL    HW1 7238   2.746   1.820   4.116
 2113SOL    HW2 7239   2.631   1.787   4.226
 2114SOL     OW 7240   2.436   1.986   6.804
 2114SOL    HW1 7241   2.368   2.017   6.739
 2114SOL    HW2 7242   2.507   2.055   6.814
 2115SOL     OW 7243   0.957   4.542   3.277
 2115SOL    HW1 7244   1.017   4.517   3.202
 2115SOL    HW2 7245   0.985   4.630   3.315
 2116SOL     OW 7246   0.428   4.340   3.006
 2116SOL    HW1 7247   0.475   4.269   3.058
 2116SOL    HW2 7248   0.385   4.300   2.925
 2117SOL     OW 7249   6.686   4.822   1.780
 2117SOL    HW1 7250   6.658   4.909   1.821
 2117SOL    HW2 7251   6.758   4.780   1.835
 2118SOL     OW 7252   6.399   2.790   3.167
 2118SOL    HW1 7253   6.461   2.771   3.091
 2118SOL    HW2 7254   6.313   2.739   3.153
 2119SOL     OW 7255   1.424   0.115   1.096
 2119SOL    HW1 7256   1.334   0.143   1.131
 2119SOL    HW2 7257   1.415   0.029   1.046
 2120SOL     OW 7258   0.567   4.347   3.884
 2120SOL    HW1 7259   0.508   4.267   3.891
 2120SOL    HW2 7260   0.660   4.324   3.912
 2121SOL     OW 7261   1.229   3.281   5.898
 2121SOL    HW1 7262   1.244   3.380   5.897
 2121SOL    HW2 7263   1.236   3.245   5.805
 2122SOL     OW 7264   5.904   4.742   6.095
 2122SOL    HW1 7265   5.805   4.731   6.102
 2122SOL    HW2 7266   5.927   4.839   6.102
 2123SOL     OW 7267   6.736   5.162   2.139
 2123SOL    HW1 7268   6.653   5.201   2.179
 2123SOL    HW2 7269   6.816   5.206   2.181
 2124SOL     OW 7270   3.038   2.049   0.983
 2124SOL    HW1 7271   3.018   2.144   0.962
 2124SOL    HW2 7272   3.094   2.043   1.065
 2125SOL     OW 7273   2.070   0.275   2.357
 2125SOL    HW1 7274   1.992   0.237   2.407
 2125SOL    HW2 7275   2.154   0.255   2.407
 2126SOL     OW 7276   3.978   2.386   6.609
 2126SOL    HW1 7277   4.071   2.415   6.627
 2126SOL    HW2 7278   3.975   2.286   6.597
 2127SOL     OW 7279   1.151   2.131   5.365
 2127SOL    HW1 7280   1.120   2.039   5.338
 2127SOL    HW2 7281   1.090   2.199   5.325
 2128SOL     OW 7282   6.674   2.862   3.953
 2128SOL    HW1 7283   6.602   2.855   3.884
 2128SOL    HW2 7284   6.638   2.911   4.033
 2129SOL     OW 7285   4.923   3.303   5.105
 2129SOL    HW1 7286   4.845   3.354   5.070
 2129SOL    HW2 7287   4.891   3.218   5.148
 2130SOL     OW 7288   3.423   0.241   2.960
 2130SOL    HW1 7289   3.500   0.178   2.972
 2130SOL    HW2 7290   3.345   0.209   3.014
 2131SOL     OW 7291   4.673   1.500   0.104
 2131SOL    HW1 7292   4.650   1.418   0.157
 2131SOL    HW2 7293   4.663   1.480   0.007
 2132SOL     OW 7294   3.841   1.370   0.804
 2132SOL    HW1 7295   3.875   1.420   0.724
 2132SOL    HW2 7296   3.895   1.395   0.885
 2133SOL     OW 7297   3.055   3.119   1.101
 2133SOL    HW1 7298   3.071   3.026   1.134
 2133SOL    HW2 7299   2.957   3.133   1.088
 2134SOL     OW 7300   1.105   0.810   5.187
 2134SOL    HW1 7301   1.077   0.832   5.280
 2134SOL    HW2 7302   1.121   0.712   5.179
 2135SOL     OW 7303   1.778   3.257   5.056
 2135SOL    HW1 7304   1.727   3.269   4.971
 2135SOL    HW2 7305   1.827   3.169   5.053
 2136SOL     OW 7306   0.762   4.063   4.505
 2136SOL    HW1 7307   0.695   4.089   4.576
 2136SOL    HW2 7308   0.835   4.132   4.503
 2137SOL     OW 7309   0.337   5.922   4.083
 2137SOL    HW1 7310   0.389   5.838   4.065
 2137SOL    HW2 7311   0.241   5.906   4.063
 2138SOL     OW 7312   0.207   0.813   2.003
 2138SOL    HW1 7313   0.197   0.900   1.956
 2138SOL    HW2 7314   0.303   0.799   2.028
 2139SOL     OW 7315   3.234   0.877   2.423
 2139SOL    HW1 7316   3.260   0.794   2.472
 2139SOL    HW2 7317   3.145   0.865   2.380
 2140SOL     OW 7318   3.769   6.042   3.966
 2140SOL    HW1 7319   3.838   6.097   4.014
 2140SOL    HW2 7320   3.809   5.955   3.938
 2141SOL     OW 7321   6.261   4.615   1.589
 2141SOL    HW1 7322   6.343   4.632   1.644
 2141SOL    HW2 7323   6.200   4.553   1.638
 2142SOL     OW 7324   1.298   2.029   2.951
 2142SOL    HW1 7325   1.282   2.015   3.048
 2142SOL    HW2 7326   1.397   2.034   2.934
 2143SOL     OW 7327   2.992   4.354   1.364
 2143SOL    HW1 7328   2.982   4.271   1.310
 2143SOL    HW2 7329   3.068   4.343   1.429
 2144SOL     OW 7330   1.626   5.634   3.774
 2144SOL    HW1 7331   1.530   5.606   3.766
 2144SOL    HW2 7332   1.638   5.690   3.856
 2145SOL     OW 7333   3.985   6.133   4.090
 2145SOL    HW1 7334   4.011   6.087   4.175
 2145SOL    HW2 7335   4.062   6.188   4.057
 2146SOL     OW 7336   2.849   3.896   1.274
 2146SOL    HW1 7337   2.782   3.823   1.285
 2146SOL    HW2 7338   2.935   3.871   1.318
 2147SOL     OW 7339   6.932   1.292   6.701
 2147SOL    HW1 7340   6.855   1.326   6.647
 2147SOL    HW2 7341   6.923   1.193   6.712
 2148SOL     OW 7342   5.177   2.786   4.409
 2148SOL    HW1 7343   5.268   2.744   4.405
 2148SOL    HW2 7344   5.142   2.797   4.316
 2149SOL     OW 7345   3.732   1.916   1.357
 2149SOL    HW1 7346   3.787   1.980   1.410
 2149SOL    HW2 7347   3.740   1.937   1.260
 2150SOL     OW 7348   2.702   2.067   2.244
 2150SOL    HW1 7349   2.773   2.075   2.315
 2150SOL    HW2 7350   2.628   2.009   2.277
 2151SOL     OW 7351   2.001   1.238   4.391
 2151SOL    HW1 7352   1.949   1.308   4.342
 2151SOL    HW2 7353   2.007   1.156   4.335
 2152SOL     OW 7354   3.810   6.346   1.686
 2152SOL    HW1 7355   3.716   6.332   1.718
 2152SOL    HW2 7356   3.840   6.438   1.710
 2153SOL     OW 7357   3.400   0.949   3.247
 2153SOL    HW1 7358   3.367   0.983   3.159
 2153SOL    HW2 7359   3.494   0.980   3.262
 2154SOL     OW 7360   4.772   0.436   4.828
 2154SOL    HW1 7361   4.767   0.448   4.729
 2154SOL    HW2 7362   4.791   0.525   4.871
 2155SOL     OW 7363   1.689   6.138   0.299
 2155SOL    HW1 7364   1.769   6.078   0.292
 2155SOL    HW2 7365   1.718   6.232   0.317
 2156SOL     OW 7366   2.138   0.510   3.298
 2156SOL    HW1 7367   2.176   0.462   3.378
 2156SOL    HW2 7368   2.064   0.571   3.328
 2157SOL     OW 7369   6.243   1.026   3.085
 2157SOL    HW1 7370   6.340   1.048   3.086
 2157SOL    HW2 7371   6.190   1.109   3.105
 2158SOL     OW 7372   3.410   6.182   0.881
 2158SOL    HW1 7373   3.448   6.123   0.809
 2158SOL    HW2 7374   3.387   6.272   0.841
 2159SOL     OW 7375   2.319   5.971   5.395
 2159SOL    HW1 7376   2.236   6.012   5.431
 2159SOL    HW2 7377   2.391   6.041   5.390
 2160SOL     OW 7378   4.685   3.713   0.581
 2160SOL    HW1 7379   4.770   3.749   0.542
 2160SOL    HW2 7380   4.651   3.776   0.651
 2161SOL     OW 7381   5.364   3.999   3.079
 2161SOL    HW1 7382   5.303   4.059   3.028
 2161SOL    HW2 7383   5.326   3.906   3.079
 2162SOL     OW 7384   2.610   0.595   0.550
 2162SOL    HW1 7385   2.559   0.539   0.615
 2162SOL    HW2 7386   2.696   0.624   0.591
 2163SOL     OW 7387   0.035   3.956   6.675
 2163SOL    HW1 7388   0.045   3.875   6.732
 2163SOL    HW2 7389   0.022   3.929   6.580
 2164SOL     OW 7390   2.201   2.884   0.330
 2164SOL    HW1 7391   2.135   2.922   0.394
 2164SOL    HW2 7392   2.183   2.921   0.238
 2165SOL     OW 7393   0.566   1.613   2.635
 2165SOL    HW1 7394   0.532   1.545   2.570
 2165SOL    HW2 7395   0.545   1.583   2.728
 2166SOL     OW 7396   1.496   2.397   5.504
 2166SOL    HW1 7397   1.588   2.366   5.529
 2166SOL    HW2 7398   1.477   2.485   5.548
 2167SOL     OW 7399   1.456   1.125   3.755
 2167SOL    HW1 7400   1.416   1.153   3.667
 2167SOL    HW2 7401   1.466   1.205   3.814
 2168SOL     OW 7402   0.726   1.964   3.515
 2168SOL    HW1 7403   0.806   1.945   3.572
 2168SOL    HW2 7404   0.643   1.955   3.571
 2169SOL     OW 7405   5.470   2.152   5.541
 2169SOL    HW1 7406   5.413   2.212   5.598
 2169SOL    HW2 7407   5.541   2.207   5.497
 2170SOL     OW 7408   6.324   5.744   5.385
 2170SOL    HW1 7409   6.253   5.704   5.443
 2170SOL    HW2 7410   6.320   5.703   5.294
 2171SOL     OW 7411   0.000   3.863   1.760
 2171SOL    HW1 7412   6.944   3.830   1.711
 2171SOL    HW2 7413   0.082   3.818   1.725
 2172SOL     OW 7414   2.403   2.128   0.344
 2172SOL    HW1 7415   2.425   2.038   0.306
 2172SOL    HW2 7416   2.449   2.199   0.289
 2173SOL     OW 7417   4.196   7.010   4.867
 2173SOL    HW1 7418   4.214   6.969   4.778
 2173SOL    HW2 7419   4.175   0.083   4.856
 2174SOL     OW 7420   5.405   4.946   5.392
 2174SOL    HW1 7421   5.436   4.986   5.305
 2174SOL    HW2 7422   5.481   4.898   5.435
 2175SOL     OW 7423   2.535   2.041   4.503
 2175SOL    HW1 7424   2.560   2.088   4.588
 2175SOL    HW2 7425   2.545   2.104   4.426
 2176SOL     OW 7426   0.583   3.015   7.018
 2176SOL    HW1 7427   0.629   2.993   6.932
 2176SOL    HW2 7428   0.650   3.027   0.066
 2177SOL     OW 7429   6.565   1.066   3.631
 2177SOL    HW1 7430   6.607   1.002   3.694
 2177SOL    HW2 7431   6.609   1.058   3.541
 2178SOL     OW 7432   1.019   3.893   6.955
 2178SOL    HW1 7433   0.932   3.877   7.003
 2178SOL    HW2 7434   1.095   3.867   7.015
 2179SOL     OW 7435   1.682   5.585   4.669
 2179SOL    HW1 7436   1.697   5.663   4.730
 2179SOL    HW2 7437   1.705   5.500   4.718
 2180SOL     OW 7438   2.192   2.921   1.960
 2180SOL    HW1 7439   2.108   2.966   1.990
 2180SOL    HW2 7440   2.268   2.948   2.019
 2181SOL     OW 7441   4.857   4.544   5.630
 2181SOL    HW1 7442   4.833   4.623   5.687
 2181SOL    HW2 7443   4.955   4.525   5.638
 2182SOL     OW 7444   0.470   3.408   5.291
 2182SOL    HW1 7445   0.427   3.488   5.333
 2182SOL    HW2 7446   0.544   3.375   5.351
 2183SOL     OW 7447   3.102   4.314   5.562
 2183SOL    HW1 7448   3.100   4.293   5.464
 2183SOL    HW2 7449   3.020   4.278   5.606
 2184SOL     OW 7450   4.674   1.453   6.452
 2184SOL    HW1 7451   4.727   1.522   6.500
 2184SOL    HW2 7452   4.615   1.496   6.384
 2185SOL     OW 7453   1.555   1.700   1.221
 2185SOL    HW1 7454   1.576   1.794   1.248
 2185SOL    HW2 7455   1.493   1.701   1.142
 2186SOL     OW 7456   6.899   5.366   2.268
 2186SOL    HW1 7457   6.950   5.414   2.196
 2186SOL    HW2 7458   6.963   5.319   2.329
 2187SOL     OW 7459   6.902   1.505   1.888
 2187SOL    HW1 7460   6.821   1.540   1.840
 2187SOL    HW2 7461   6.913   1.556   1.974
 2188SOL     OW 7462   5.700   6.016   4.180
 2188SOL    HW1 7463   5.710   5.917   4.167
 2188SOL    HW2 7464   5.752   6.064   4.109
 2189SOL     OW 7465   1.830   6.583   0.197
 2189SOL    HW1 7466   1.858   6.531   0.116
 2189SOL    HW2 7467   1.849   6.680   0.182
 2190SOL     OW 7468   0.854   2.540   1.784
 2190SOL    HW1 7469   0.786   2.603   1.823
 2190SOL    HW2 7470   0.852   2.547   1.685
 2191SOL     OW 7471   2.867   2.072   6.288
 2191SOL    HW1 7472   2.920   2.002   6.239
 2191SOL    HW2 7473   2.880   2.061   6.386
 2192SOL     OW 7474   3.533   0.393   3.332
 2192SOL    HW1 7475   3.594   0.351   3.266
 2192SOL    HW2 7476   3.585   0.455   3.391
 2193SOL     OW 7477   6.752   5.562   6.097
 2193SOL    HW1 7478   6.766   5.623   6.019
 2193SOL    HW2 7479   6.774   5.468   6.070
 2194SOL     OW 7480   2.004   4.989   6.628
 2194SOL    HW1 7481   1.907   4.970   6.612
 2194SOL    HW2 7482   2.059   4.911   6.597
 2195SOL     OW 7483   0.343   0.238   3.721
 2195SOL    HW1 7484   0.440   0.227   3.698
 2195SOL    HW2 7485   0.295   0.152   3.708
 2196SOL     OW 7486   3.155   0.052   4.971
 2196SOL    HW1 7487   3.191   6.994   4.928
 2196SOL    HW2 7488   3.135   0.121   4.901
 2197SOL     OW 7489   3.312   3.137   1.118
 2197SOL    HW1 7490   3.326   3.201   1.193
 2197SOL    HW2 7491   3.215   3.135   1.093
 2198SOL     OW 7492   6.668   0.991   0.216
 2198SOL    HW1 7493   6.696   0.966   0.123
 2198SOL    HW2 7494   6.604   1.067   0.213
 2199SOL     OW 7495   4.656   1.042   3.281
 2199SOL    HW1 7496   4.588   0.970   3.266
 2199SOL    HW2 7497   4.748   1.003   3.276
 2200SOL     OW 7498   3.260   0.214   4.532
 2200SOL    HW1 7499   3.292   0.309   4.530
 2200SOL    HW2 7500   3.334   0.155   4.566
 2201SOL     OW 7501   6.495   2.496   3.087
 2201SOL    HW1 7502   6.448   2.560   3.027
 2201SOL    HW2 7503   6.516   2.412   3.037
 2202SOL     OW 7504   2.968   4.902   2.841
 2202SOL    HW1 7505   2.955   4.927   2.745
 2202SOL    HW2 7506   2.968   4.985   2.897
 2203SOL     OW 7507   2.592   2.794   1.496
 2203SOL    HW1 7508   2.496   2.795   1.524
 2203SOL    HW2 7509   2.644   2.855   1.555
 2204SOL     OW 7510   3.633   1.552   6.892
 2204SOL    HW1 7511   3.691   1.548   6.973
 2204SOL    HW2 7512   3.677   1.610   6.823
 2205SOL     OW 7513   2.103   0.046   6.110
 2205SOL    HW1 7514   2.040   0.102   6.057
 2205SOL    HW2 7515   2.085   6.973   6.093
 2206SOL     OW 7516   2.340   4.285   5.682
 2206SOL    HW1 7517   2.313   4.339   5.602
 2206SOL    HW2 7518   2.422   4.232   5.659
 2207SOL     OW 7519   2.459   3.618   0.074
 2207SOL    HW1 7520   2.400   3.652   0.147
 2207SOL    HW2 7521   2.448   3.519   0.065
 2208SOL     OW 7522   1.542   6.004   2.818
 2208SOL    HW1 7523   1.573   6.024   2.911
 2208SOL    HW2 7524   1.552   5.906   2.800
 2209SOL     OW 7525   0.801   5.689   5.918
 2209SOL    HW1 7526   0.889   5.645   5.901
 2209SOL    HW2 7527   0.727   5.628   5.890
 2210SOL     OW 7528   0.250   4.771   4.427
 2210SOL    HW1 7529   0.214   4.864   4.432
 2210SOL    HW2 7530   0.193   4.716   4.367
 2211SOL     OW 7531   5.429   0.741   0.337
 2211SOL    HW1 7532   5.335   0.769   0.317
 2211SOL    HW2 7533   5.439   0.644   0.316
 2212SOL     OW 7534   2.454   6.669   6.983
 2212SOL    HW1 7535   2.446   6.570   6.990
 2212SOL    HW2 7536   2.393   6.712   0.026
 2213SOL     OW 7537   4.013   2.737   5.341
 2213SOL    HW1 7538   4.069   2.676   5.285
 2213SOL    HW2 7539   3.920   2.738   5.305
 2214SOL     OW 7540   4.421   2.868   6.004
 2214SOL    HW1 7541   4.361   2.937   5.964
 2214SOL    HW2 7542   4.509   2.870   5.957
 2215SOL     OW 7543   6.461   1.850   6.637
 2215SOL    HW1 7544   6.420   1.764   6.605
 2215SOL    HW2 7545   6.468   1.848   6.736
 2216SOL     OW 7546   1.581   0.130   6.097
 2216SOL    HW1 7547   1.485   0.114   6.119
 2216SOL    HW2 7548   1.590   0.218   6.049
 2217SOL     OW 7549   3.921   6.830   1.025
 2217SOL    HW1 7550   4.012   6.803   0.993
 2217SOL    HW2 7551   3.929   6.911   1.083
 2218SOL     OW 7552   0.546   6.694   0.692
 2218SOL    HW1 7553   0.479   6.685   0.619
 2218SOL    HW2 7554   0.524   6.774   0.749
 2219SOL     OW 7555   0.323   2.632   2.026
 2219SOL    HW1 7556   0.334   2.561   2.095
 2219SOL    HW2 7557   0.310   2.590   1.936
 2220SOL     OW 7558   0.877   0.934   4.360
 2220SOL    HW1 7559   0.834   0.844   4.371
 2220SOL    HW2 7560   0.858   0.990   4.441
 2221SOL     OW 7561   6.322   0.464   5.736
 2221SOL    HW1 7562   6.330   0.378   5.787
 2221SOL    HW2 7563   6.394   0.527   5.766
 2222SOL     OW 7564   4.279   0.445   0.473
 2222SOL    HW1 7565   4.357   0.506   0.479
 2222SOL    HW2 7566   4.196   0.498   0.459
 2223SOL     OW 7567   6.123   0.327   3.838
 2223SOL    HW1 7568   6.176   0.333   3.923
 2223SOL    HW2 7569   6.102   0.232   3.819
 2224SOL     OW 7570   1.571   4.538   1.610
 2224SOL    HW1 7571   1.549   4.547   1.512
 2224SOL    HW2 7572   1.617   4.622   1.641
 2225SOL     OW 7573   6.616   5.614   2.746
 2225SOL    HW1 7574   6.641   5.529   2.791
 2225SOL    HW2 7575   6.520   5.611   2.718
 2226SOL     OW 7576   4.107   5.289   0.736
 2226SOL    HW1 7577   4.021   5.281   0.685
 2226SOL    HW2 7578   4.177   5.231   0.693
 2227SOL     OW 7579   5.505   3.753   0.576
 2227SOL    HW1 7580   5.575   3.696   0.619
 2227SOL    HW2 7581   5.441   3.694   0.527
 2228SOL     OW 7582   2.669   5.351   1.784
 2228SOL    HW1 7583   2.679   5.410   1.704
 2228SOL    HW2 7584   2.716   5.391   1.862
 2229SOL     OW 7585   4.197   1.475   4.569
 2229SOL    HW1 7586   4.147   1.405   4.517
 2229SOL    HW2 7587   4.147   1.496   4.653
 2230SOL     OW 7588   6.122   5.635   5.538
 2230SOL    HW1 7589   6.083   5.546   5.513
 2230SOL    HW2 7590   6.083   5.665   5.625
 2231SOL     OW 7591   0.358   0.696   1.424
 2231SOL    HW1 7592   0.324   0.787   1.446
 2231SOL    HW2 7593   0.425   0.703   1.350
 2232SOL     OW 7594   1.152   2.669   4.593
 2232SOL    HW1 7595   1.094   2.751   4.598
 2232SOL    HW2 7596   1.144   2.618   4.678
 2233SOL     OW 7597   2.321   4.373   1.486
 2233SOL    HW1 7598   2.392   4.417   1.431
 2233SOL    HW2 7599   2.243   4.349   1.428
 2234SOL     OW 7600   4.594   2.074   1.801
 2234SOL    HW1 7601   4.635   2.121   1.879
 2234SOL    HW2 7602   4.494   2.079   1.807
 2235SOL     OW 7603   1.604   0.536   1.205
 2235SOL    HW1 7604   1.634   0.605   1.271
 2235SOL    HW2 7605   1.598   0.447   1.252
 2236SOL     OW 7606   0.670   4.508   6.730
 2236SOL    HW1 7607   0.708   4.562   6.656
 2236SOL    HW2 7608   0.686   4.411   6.712
 2237SOL     OW 7609   5.636   4.515   3.890
 2237SOL    HW1 7610   5.718   4.571   3.879
 2237SOL    HW2 7611   5.583   4.548   3.968
 2238SOL     OW 7612   5.687   5.179   2.001
 2238SOL    HW1 7613   5.612   5.115   2.016
 2238SOL    HW2 7614   5.739   5.151   1.920
 2239SOL     OW 7615   3.607   5.376   3.459
 2239SOL    HW1 7616   3.529   5.438   3.473
 2239SOL    HW2 7617   3.573   5.282   3.455
 2240SOL     OW 7618   5.776   5.991   3.764
 2240SOL    HW1 7619   5.695   5.994   3.706
 2240SOL    HW2 7620   5.773   6.067   3.829
 2241SOL     OW 7621   0.341   0.097   2.153
 2241SOL    HW1 7622   0.273   0.157   2.196
 2241SOL    HW2 7623   0.365   0.133   2.063
 2242SOL     OW 7624   4.978   2.728   3.041
 2242SOL    HW1 7625   5.012   2.640   3.071
 2242SOL    HW2 7626   5.038   2.765   2.969
 2243SOL     OW 7627   2.855   6.348   5.287
 2243SOL    HW1 7628   2.769   6.297   5.287
 2243SOL    HW2 7629   2.841   6.438   5.245
 2244SOL     OW 7630   2.666   0.401   2.325
 2244SOL    HW1 7631   2.740   0.372   2.264
 2244SOL    HW2 7632   2.586   0.344   2.311
 2245SOL     OW 7633   0.415   1.396   2.114
 2245SOL    HW1 7634   0.471   1.313   2.103
 2245SOL    HW2 7635   0.475   1.474   2.133
 2246SOL     OW 7636   1.094   1.274   5.877
 2246SOL    HW1 7637   1.045   1.235   5.954
 2246SOL    HW2 7638   1.102   1.373   5.889
 2247SOL     OW 7639   2.476   2.874   5.761
 2247SOL    HW1 7640   2.520   2.964   5.751
 2247SOL    HW2 7641   2.380   2.882   5.735
 2248SOL     OW 7642   3.855   3.857   6.629
 2248SOL    HW1 7643   3.891   3.783   6.685
 2248SOL    HW2 7644   3.880   3.945   6.671
 2249SOL     OW 7645   6.006   6.232   2.279
 2249SOL    HW1 7646   6.083   6.280   2.238
 2249SOL    HW2 7647   6.033   6.194   2.367
 2250SOL     OW 7648   4.514   3.714   0.346
 2250SOL    HW1 7649   4.567   3.683   0.267
 2250SOL    HW2 7650   4.573   3.713   0.427
 2251SOL     OW 7651   5.049   1.113   0.435
 2251SOL    HW1 7652   4.980   1.185   0.450
 2251SOL    HW2 7653   5.128   1.152   0.388
 2252SOL     OW 7654   6.144   2.332   3.050
 2252SOL    HW1 7655   6.190   2.411   3.090
 2252SOL    HW2 7656   6.084   2.363   2.976
 2253SOL     OW 7657   0.984   3.668   6.769
 2253SOL    HW1 7658   1.028   3.749   6.809
 2253SOL    HW2 7659   0.899   3.649   6.819
 2254SOL     OW 7660   2.444   3.189   5.591
 2254SOL    HW1 7661   2.389   3.271   5.579
 2254SOL    HW2 7662   2.499   3.197   5.674
 2255SOL     OW 7663   4.560   2.634   0.068
 2255SOL    HW1 7664   4.510   2.617   7.008
 2255SOL    HW2 7665   4.502   2.686   0.131
 2256SOL     OW 7666   4.305   6.288   1.825
 2256SOL    HW1 7667   4.220   6.267   1.775
 2256SOL    HW2 7668   4.311   6.386   1.839
 2257SOL     OW 7669   6.911   2.163   3.996
 2257SOL    HW1 7670   6.871   2.135   3.909
 2257SOL    HW2 7671   7.010   2.149   3.992
 2258SOL     OW 7672   1.209   5.306   5.641
 2258SOL    HW1 7673   1.274   5.376   5.669
 2258SOL    HW2 7674   1.123   5.349   5.614
 2259SOL     OW 7675   4.555   4.410   6.579
 2259SOL    HW1 7676   4.555   4.466   6.496
 2259SOL    HW2 7677   4.619   4.449   6.646
 2260SOL     OW 7678   5.768   4.520   3.037
 2260SOL    HW1 7679   5.733   4.437   3.081
 2260SOL    HW2 7680   5.787   4.589   3.107
 2261SOL     OW 7681   6.784   6.754   0.839
 2261SOL    HW1 7682   6.804   6.841   0.793
 2261SOL    HW2 7683   6.704   6.766   0.898
 2262SOL     OW 7684   4.867   2.194   2.472
 2262SOL    HW1 7685   4.895   2.118   2.413
 2262SOL    HW2 7686   4.899   2.177   2.565
 2263SOL     OW 7687   2.676   6.180   6.113
 2263SOL    HW1 7688   2.678   6.276   6.141
 2263SOL    HW2 7689   2.722   6.169   6.025
 2264SOL     OW 7690   2.794   2.718   1.002
 2264SOL    HW1 7691   2.748   2.766   1.077
 2264SOL    HW2 7692   2.761   2.623   0.999
 2265SOL     OW 7693   0.732   0.432   3.449
 2265SOL    HW1 7694   0.821   0.390   3.432
 2265SOL    HW2 7695   0.726   0.519   3.401
 2266SOL     OW 7696   6.337   1.838   1.314
 2266SOL    HW1 7697   6.297   1.929   1.299
 2266SOL    HW2 7698   6.328   1.783   1.231
 2267SOL     OW 7699   4.789   2.473   5.127
 2267SOL    HW1 7700   4.745   2.541   5.069
 2267SOL    HW2 7701   4.888   2.475   5.112
 2268SOL     OW 7702   6.539   3.952   6.155
 2268SOL    HW1 7703   6.592   4.024   6.111
 2268SOL    HW2 7704   6.448   3.986   6.179
 2269SOL     OW 7705   5.560   5.985   5.005
 2269SOL    HW1 7706   5.477   5.987   5.061
 2269SOL    HW2 7707   5.573   6.074   4.961
 2270SOL     OW 7708   3.185   2.439   6.232
 2270SOL    HW1 7709   3.139   2.450   6.144
 2270SOL    HW2 7710   3.189   2.527   6.279
 2271SOL     OW 7711   6.321   3.897   0.515
 2271SOL    HW1 7712   6.338   3.853   0.427
 2271SOL    HW2 7713   6.408   3.909   0.563
 2272SOL     OW 7714   5.757   1.323   5.127
 2272SOL    HW1 7715   5.784   1.390   5.057
 2272SOL    HW2 7716   5.817   1.334   5.207
 2273SOL     OW 7717   1.566   0.747   2.043
 2273SOL    HW1 7718   1.582   0.728   2.139
 2273SOL    HW2 7719   1.635   0.701   1.987
 2274SOL     OW 7720   1.775   2.714   6.062
 2274SOL    HW1 7721   1.871   2.731   6.083
 2274SOL    HW2 7722   1.733   2.661   6.135
 2275SOL     OW 7723   6.020   0.631   4.566
 2275SOL    HW1 7724   6.027   0.612   4.468
 2275SOL    HW2 7725   5.956   0.566   4.608
 2276SOL     OW 7726   2.841   4.924   1.486
 2276SOL    HW1 7727   2.805   4.907   1.577
 2276SOL    HW2 7728   2.902   5.004   1.488
 2277SOL     OW 7729   3.656   3.293   5.219
 2277SOL    HW1 7730   3.613   3.383   5.209
 2277SOL    HW2 7731   3.719   3.295   5.297
 2278SOL     OW 7732   6.279   5.483   3.622
 2278SOL    HW1 7733   6.259   5.511   3.528
 2278SOL    HW2 7734   6.352   5.541   3.660
 2279SOL     OW 7735   4.632   5.745   4.455
 2279SOL    HW1 7736   4.577   5.664   4.439
 2279SOL    HW2 7737   4.609   5.815   4.387
 2280SOL     OW 7738   0.025   6.282   4.971
 2280SOL    HW1 7739   0.043   6.214   5.043
 2280SOL    HW2 7740   6.995   6.356   5.008
 2281SOL     OW 7741   3.634   1.110   1.587
 2281SOL    HW1 7742   3.645   1.155   1.676
 2281SOL    HW2 7743   3.537   1.097   1.567
 2282SOL     OW 7744   4.910   6.975   4.878
 2282SOL    HW1 7745   4.914   6.939   4.784
 2282SOL    HW2 7746   4.864   0.039   4.877
 2283SOL     OW 7747   6.497   4.620   1.726
 2283SOL    HW1 7748   6.557   4.692   1.759
 2283SOL    HW2 7749   6.551   4.542   1.696
 2284SOL     OW 7750   2.597   1.384   0.104
 2284SOL    HW1 7751   2.602   1.421   0.197
 2284SOL    HW2 7752   2.611   1.458   0.038
 2285SOL     OW 7753   1.684   2.162   0.556
 2285SOL    HW1 7754   1.595   2.115   0.557
 2285SOL    HW2 7755   1.672   2.255   0.523
 2286SOL     OW 7756   0.511   0.124   4.699
 2286SOL    HW1 7757   0.450   0.093   4.626
 2286SOL    HW2 7758   0.604   0.133   4.664
 2287SOL     OW 7759   1.925   2.143   2.253
 2287SOL    HW1 7760   1.969   2.154   2.164
 2287SOL    HW2 7761   1.830   2.117   2.240
 2288SOL     OW 7762   6.971   4.650   4.429
 2288SOL    HW1 7763   6.986   4.554   4.454
 2288SOL    HW2 7764   6.954   4.657   4.331
 2289SOL     OW 7765   6.270   4.298   2.575
 2289SOL    HW1 7766   6.368   4.318   2.584
 2289SOL    HW2 7767   6.230   4.286   2.665
 2290SOL     OW 7768   1.697   3.372   1.834
 2290SOL    HW1 7769   1.712   3.446   1.901
 2290SOL    HW2 7770   1.610   3.326   1.854
 2291SOL     OW 7771   1.933   2.431   6.884
 2291SOL    HW1 7772   1.839   2.434   6.918
 2291SOL    HW2 7773   1.933   2.440   6.784
 2292SOL     OW 7774   5.927   2.535   3.807
 2292SOL    HW1 7775   5.915   2.583   3.720
 2292SOL    HW2 7776   5.865   2.456   3.810
 2293SOL     OW 7777   6.452   6.493   1.216
 2293SOL    HW1 7778   6.422   6.405   1.180
 2293SOL    HW2 7779   6.507   6.479   1.298
 2294SOL     OW 7780   3.603   1.413   6.015
 2294SOL    HW1 7781   3.548   1.353   5.957
 2294SOL    HW2 7782   3.571   1.406   6.109
 2295SOL     OW 7783   0.366   1.785   2.831
 2295SOL    HW1 7784   0.435   1.724   2.870
 2295SOL    HW2 7785   0.404   1.877   2.822
 2296SOL     OW 7786   3.829   5.739   2.534
 2296SOL    HW1 7787   3.902   5.671   2.529
 2296SOL    HW2 7788   3.745   5.702   2.494
 2297SOL     OW 7789   5.117   4.435   5.726
 2297SOL    HW1 7790   5.160   4.524   5.742
 2297SOL    HW2 7791   5.187   4.364   5.722
 2298SOL     OW 7792   4.066   3.856   2.154
 2298SOL    HW1 7793   4.102   3.932   2.207
 2298SOL    HW2 7794   4.084   3.770   2.201
 2299SOL     OW 7795   4.787   4.725   5.332
 2299SOL    HW1 7796   4.808   4.814   5.373
 2299SOL    HW2 7797   4.873   4.677   5.313
 2300SOL     OW 7798   2.154   5.943   3.110
 2300SOL    HW1 7799   2.106   6.015   3.160
 2300SOL    HW2 7800   2.096   5.910   3.036
 2301SOL     OW 7801   3.179   3.053   3.374
 2301SOL    HW1 7802   3.193   2.954   3.377
 2301SOL    HW2 7803   3.097   3.074   3.320
 2302SOL     OW 7804   3.972   0.609   1.064
 2302SOL    HW1 7805   4.055   0.610   1.120
 2302SOL    HW2 7806   3.892   0.620   1.123
 2303SOL     OW 7807   2.620   3.353   0.406
 2303SOL    HW1 7808   2.610   3.264   0.361
 2303SOL    HW2 7809   2.530   3.398   0.410
 2304SOL     OW 7810   5.544   6.672   4.393
 2304SOL    HW1 7811   5.526   6.577   4.414
 2304SOL    HW2 7812   5.457   6.721   4.382
 2305SOL     OW 7813   2.135   0.582   3.003
 2305SOL    HW1 7814   2.093   0.491   3.008
 2305SOL    HW2 7815   2.183   0.601   3.088
 2306SOL     OW 7816   2.139   5.407   2.492
 2306SOL    HW1 7817   2.238   5.403   2.475
 2306SOL    HW2 7818   2.092   5.340   2.434
 2307SOL     OW 7819   0.159   2.706   4.458
 2307SOL    HW1 7820   0.229   2.698   4.529
 2307SOL    HW2 7821   0.124   2.615   4.436
 2308SOL     OW 7822   2.601   5.103   1.702
 2308SOL    HW1 7823   2.689   5.058   1.715
 2308SOL    HW2 7824   2.599   5.188   1.755
 2309SOL     OW 7825   1.807   0.520   5.458
 2309SOL    HW1 7826   1.809   0.619   5.449
 2309SOL    HW2 7827   1.739   0.482   5.394
 2310SOL     OW 7828   5.463   5.701   1.292
 2310SOL    HW1 7829   5.471   5.620   1.350
 2310SOL    HW2 7830   5.436   5.779   1.348
 2311SOL     OW 7831   2.131   6.672   1.086
 2311SOL    HW1 7832   2.097   6.750   1.138
 2311SOL    HW2 7833   2.230   6.681   1.073
 2312SOL     OW 7834   5.150   5.899   3.232
 2312SOL    HW1 7835   5.099   5.822   3.272
 2312SOL    HW2 7836   5.108   5.924   3.145
 2313SOL     OW 7837   4.973   5.918   2.156
 2313SOL    HW1 7838   4.918   5.930   2.073
 2313SOL    HW2 7839   5.050   5.982   2.154
 2314SOL     OW 7840   5.418   5.728   3.403
 2314SOL    HW1 7841   5.371   5.648   3.441
 2314SOL    HW2 7842   5.383   5.746   3.311
 2315SOL     OW 7843   5.311   2.635   6.466
 2315SOL    HW1 7844   5.223   2.594   6.445
 2315SOL    HW2 7845   5.300   2.702   6.539
 2316SOL     OW 7846   3.960   1.782   3.783
 2316SOL    HW1 7847   4.036   1.840   3.753
 2316SOL    HW2 7848   3.984   1.686   3.768
 2317SOL     OW 7849   0.521   5.801   3.240
 2317SOL    HW1 7850   0.512   5.878   3.177
 2317SOL    HW2 7851   0.444   5.800   3.304
 2318SOL     OW 7852   0.995   2.759   3.699
 2318SOL    HW1 7853   1.046   2.674   3.710
 2318SOL    HW2 7854   0.908   2.751   3.748
 2319SOL     OW 7855   1.875   5.170   3.413
 2319SOL    HW1 7856   1.797   5.144   3.471
 2319SOL    HW2 7857   1.959   5.163   3.466
 2320SOL     OW 7858   0.850   2.294   3.932
 2320SOL    HW1 7859   0.933   2.266   3.980
 2320SOL    HW2 7860   0.836   2.393   3.943
 2321SOL     OW 7861   3.228   0.223   5.818
 2321SOL    HW1 7862   3.177   0.186   5.895
 2321SOL    HW2 7863   3.301   0.283   5.852
 2322SOL     OW 7864   2.478   1.551   4.728
 2322SOL    HW1 7865   2.526   1.626   4.775
 2322SOL    HW2 7866   2.539   1.508   4.662
 2323SOL     OW 7867   2.829   5.051   2.086
 2323SOL    HW1 7868   2.767   5.009   2.152
 2323SOL    HW2 7869   2.883   4.979   2.041
 2324SOL     OW 7870   6.675   6.318   2.218
 2324SOL    HW1 7871   6.749   6.357   2.272
 2324SOL    HW2 7872   6.618   6.261   2.277
 2325SOL     OW 7873   0.719   4.793   1.390
 2325SOL    HW1 7874   0.736   4.829   1.481
 2325SOL    HW2 7875   0.787   4.829   1.326
 2326SOL     OW 7876   3.355   4.795   5.172
 2326SOL    HW1 7877   3.335   4.845   5.256
 2326SOL    HW2 7878   3.290   4.720   5.162
 2327SOL     OW 7879   6.052   3.895   4.551
 2327SOL    HW1 7880   6.037   3.950   4.633
 2327SOL    HW2 7881   5.964   3.861   4.517
 2328SOL     OW 7882   3.772   2.079   3.347
 2328SOL    HW1 7883   3.778   2.136   3.264
 2328SOL    HW2 7884   3.857   2.086   3.399
 2329SOL     OW 7885   1.403   4.730   5.224
 2329SOL    HW1 7886   1.367   4.819   5.254
 2329SOL    HW2 7887   1.351   4.699   5.145
 2330SOL     OW 7888   0.736   4.161   2.521
 2330SOL    HW1 7889   0.761   4.106   2.442
 2330SOL    HW2 7890   0.811   4.224   2.542
 2331SOL     OW 7891   6.385   3.814   0.258
 2331SOL    HW1 7892   6.336   3.758   0.191
 2331SOL    HW2 7893   6.466   3.766   0.290
 2332SOL     OW 7894   4.284   1.922   5.647
 2332SOL    HW1 7895   4.303   1.837   5.597
 2332SOL    HW2 7896   4.267   1.900   5.743
 2333SOL     OW 7897   6.872   5.481   3.003
 2333SOL    HW1 7898   6.840   5.564   3.049
 2333SOL    HW2 7899   6.969   5.490   2.981
 2334SOL     OW 7900   2.422   0.075   6.644
 2334SOL    HW1 7901   2.432   0.038   6.736
 2334SOL    HW2 7902   2.453   0.008   6.577
 2335SOL     OW 7903   5.752   1.230   3.042
 2335SOL    HW1 7904   5.837   1.241   3.093
 2335SOL    HW2 7905   5.770   1.238   2.944
 2336SOL     OW 7906   4.010   1.923   5.281
 2336SOL    HW1 7907   4.096   1.924   5.231
 2336SOL    HW2 7908   4.023   1.966   5.370
 2337SOL     OW 7909   4.357   1.197   3.740
 2337SOL    HW1 7910   4.339   1.180   3.643
 2337SOL    HW2 7911   4.326   1.289   3.764
 2338SOL     OW 7912   0.969   0.827   6.921
 2338SOL    HW1 7913   1.053   0.788   6.959
 2338SOL    HW2 7914   0.955   0.918   6.959
 2339SOL     OW 7915   3.806   3.198   4.975
 2339SOL    HW1 7916   3.759   3.262   5.036
 2339SOL    HW2 7917   3.863   3.250   4.911
 2340SOL     OW 7918   5.629   6.024   5.914
 2340SOL    HW1 7919   5.560   5.991   5.979
 2340SOL    HW2 7920   5.584   6.076   5.842
 2341SOL     OW 7921   4.972   3.869   1.296
 2341SOL    HW1 7922   5.066   3.890   1.269
 2341SOL    HW2 7923   4.917   3.849   1.215
 2342SOL     OW 7924   0.587   5.572   5.772
 2342SOL    HW1 7925   0.541   5.545   5.687
 2342SOL    HW2 7926   0.529   5.637   5.821
 2343SOL     OW 7927   2.013   6.371   1.797
 2343SOL    HW1 7928   2.099   6.392   1.843
 2343SOL    HW2 7929   2.023   6.287   1.744
 2344SOL     OW 7930   1.608   1.212   1.318
 2344SOL    HW1 7931   1.526   1.264   1.294
 2344SOL    HW2 7932   1.671   1.213   1.240
 2345SOL     OW 7933   2.113   5.467   5.690
 2345SOL    HW1 7934   2.076   5.461   5.783
 2345SOL    HW2 7935   2.143   5.561   5.673
 2346SOL     OW 7936   5.004   3.604   4.753
 2346SOL    HW1 7937   5.041   3.593   4.845
 2346SOL    HW2 7938   5.024   3.522   4.699
 2347SOL     OW 7939   2.336   3.831   1.779
 2347SOL    HW1 7940   2.393   3.772   1.722
 2347SOL    HW2 7941   2.240   3.819   1.753
 2348SOL     OW 7942   3.552   5.782   3.377
 2348SOL    HW1 7943   3.512   5.790   3.469
 2348SOL    HW2 7944   3.495   5.722   3.321
 2349SOL     OW 7945   0.651   5.551   6.658
 2349SOL    HW1 7946   0.597   5.636   6.666
 2349SOL    HW2 7947   0.602   5.487   6.599
 2350SOL     OW 7948   5.079   6.962   6.297
 2350SOL    HW1 7949   5.145   6.949   6.223
 2350SOL    HW2 7950   5.007   6.893   6.290
 2351SOL     OW 7951   3.514   4.921   2.871
 2351SOL    HW1 7952   3.431   4.865   2.867
 2351SOL    HW2 7953   3.540   4.934   2.967
 2352SOL     OW 7954   0.840   3.745   2.528
 2352SOL    HW1 7955   0.883   3.803   2.597
 2352SOL    HW2 7956   0.885   3.759   2.440
 2353SOL     OW 7957   3.116   4.912   4.440
 2353SOL    HW1 7958   3.157   4.918   4.531
 2353SOL    HW2 7959   3.028   4.960   4.440
 2354SOL     OW 7960   3.464   2.337   6.611
 2354SOL    HW1 7961   3.543   2.396   6.627
 2354SOL    HW2 7962   3.380   2.392   6.614
 2355SOL     OW 7963   0.949   4.931   6.606
 2355SOL    HW1 7964   1.014   4.900   6.537
 2355SOL    HW2 7965   0.870   4.870   6.608
 2356SOL     OW 7966   2.770   4.059   0.563
 2356SOL    HW1 7967   2.675   4.090   0.556
 2356SOL    HW2 7968   2.795   4.011   0.479
 2357SOL     OW 7969   3.922   5.359   3.794
 2357SOL    HW1 7970   3.870   5.306   3.861
 2357SOL    HW2 7971   3.956   5.298   3.722
 2358SOL     OW 7972   2.920   5.088   4.540
 2358SOL    HW1 7973   2.918   5.164   4.475
 2358SOL    HW2 7974   2.837   5.033   4.528
 2359SOL     OW 7975   0.861   1.682   5.961
 2359SOL    HW1 7976   0.959   1.685   5.942
 2359SOL    HW2 7977   0.810   1.710   5.880
 2360SOL     OW 7978   4.712   6.155   5.086
 2360SOL    HW1 7979   4.760   6.150   4.998
 2360SOL    HW2 7980   4.691   6.063   5.117
 2361SOL     OW 7981   2.418   0.189   4.350
 2361SOL    HW1 7982   2.478   0.114   4.375
 2361SOL    HW2 7983   2.357   0.210   4.426
 2362SOL     OW 7984   4.274   6.793   5.274
 2362SOL    HW1 7985   4.306   6.812   5.181
 2362SOL    HW2 7986   4.222   6.708   5.275
 2363SOL     OW 7987   4.550   2.258   4.931
 2363SOL    HW1 7988   4.612   2.246   4.853
 2363SOL    HW2 7989   4.512   2.351   4.929
 2364SOL     OW 7990   6.862   2.083   2.932
 2364SOL    HW1 7991   6.950   2.082   2.884
 2364SOL    HW2 7992   6.868   2.024   3.013
 2365SOL     OW 7993   5.859   3.419   5.956
 2365SOL    HW1 7994   5.771   3.423   5.908
 2365SOL    HW2 7995   5.930   3.394   5.891
 2366SOL     OW 7996   1.273   3.500   5.680
 2366SOL    HW1 7997   1.312   3.575   5.733
 2366SOL    HW2 7998   1.337   3.473   5.608
 2367SOL     OW 7999   2.227   3.904   6.783
 2367SOL    HW1 8000   2.320   3.941   6.780
 2367SOL    HW2 8001   2.184   3.915   6.694
 2368SOL     OW 8002   5.250   1.284   4.352
 2368SOL    HW1 8003   5.281   1.203   4.401
 2368SOL    HW2 8004   5.150   1.291   4.359
 2369SOL     OW 8005   2.206   3.020   3.975
 2369SOL    HW1 8006   2.284   2.960   3.992
 2369SOL    HW2 8007   2.121   2.970   3.991
 2370SOL     OW 8008   4.359   4.346   6.787
 2370SOL    HW1 8009   4.374   4.423   6.850
 2370SOL    HW2 8010   4.400   4.367   6.698
 2371SOL     OW 8011   1.710   5.805   2.387
 2371SOL    HW1 8012   1.753   5.879   2.336
 2371SOL    HW2 8013   1.614   5.797   2.360
 2372SOL     OW 8014   0.776   1.764   0.497
 2372SOL    HW1 8015   0.756   1.844   0.440
 2372SOL    HW2 8016   0.776   1.790   0.593
 2373SOL     OW 8017   6.270   1.158   6.908
 2373SOL    HW1 8018   6.248   1.077   6.854
 2373SOL    HW2 8019   6.186   1.201   6.940
 2374SOL     OW 8020   6.431   5.851   3.430
 2374SOL    HW1 8021   6.400   5.907   3.353
 2374SOL    HW2 8022   6.478   5.909   3.497
 2375SOL     OW 8023   1.137   6.370   3.884
 2375SOL    HW1 8024   1.181   6.457   3.902
 2375SOL    HW2 8025   1.046   6.369   3.924
 2376SOL     OW 8026   6.444   3.029   4.094
 2376SOL    HW1 8027   6.454   3.096   4.167
 2376SOL    HW2 8028   6.368   2.967   4.114
 2377SOL     OW 8029   3.224   3.674   4.089
 2377SOL    HW1 8030   3.186   3.744   4.029
 2377SOL    HW2 8031   3.170   3.668   4.173
 2378SOL     OW 8032   5.033   2.138   6.600
 2378SOL    HW1 8033   4.933   2.134   6.602
 2378SOL    HW2 8034   5.063   2.231   6.619
 2379SOL     OW 8035   6.759   2.655   0.077
 2379SOL    HW1 8036   6.749   2.644   7.002
 2379SOL    HW2 8037   6.700   2.588   0.123
 2380SOL     OW 8038   6.614   0.292   5.773
 2380SOL    HW1 8039   6.677   0.218   5.750
 2380SOL    HW2 8040   6.524   0.255   5.793
 2381SOL     OW 8041   1.815   4.096   4.216
 2381SOL    HW1 8042   1.888   4.061   4.276
 2381SOL    HW2 8043   1.769   4.019   4.173
 2382SOL     OW 8044   2.437   5.520   2.702
 2382SOL    HW1 8045   2.441   5.614   2.736
 2382SOL    HW2 8046   2.528   5.479   2.707
 2383SOL     OW 8047   5.847   6.584   0.051
 2383SOL    HW1 8048   5.762   6.616   0.092
 2383SOL    HW2 8049   5.827   6.511   7.009
 2384SOL     OW 8050   1.957   1.106   1.596
 2384SOL    HW1 8051   1.861   1.091   1.573
 2384SOL    HW2 8052   1.963   1.155   1.683
 2385SOL     OW 8053   6.486   6.993   1.146
 2385SOL    HW1 8054   6.456   6.958   1.235
 2385SOL    HW2 8055   6.427   0.045   1.119
 2386SOL     OW 8056   3.928   4.938   3.931
 2386SOL    HW1 8057   3.935   5.037   3.941
 2386SOL    HW2 8058   3.851   4.905   3.985
 2387SOL     OW 8059   6.562   2.324   4.754
 2387SOL    HW1 8060   6.590   2.417   4.729
 2387SOL    HW2 8061   6.629   2.284   4.816
 2388SOL     OW 8062   1.187   1.865   5.223
 2388SOL    HW1 8063   1.098   1.834   5.188
 2388SOL    HW2 8064   1.217   1.946   5.172
 2389SOL     OW 8065   4.820   4.115   3.607
 2389SOL    HW1 8066   4.819   4.128   3.707
 2389SOL    HW2 8067   4.809   4.018   3.587
 2390SOL     OW 8068   3.768   4.098   4.902
 2390SOL    HW1 8069   3.787   4.127   4.996
 2390SOL    HW2 8070   3.849   4.053   4.863
 2391SOL     OW 8071   3.302   4.583   5.458
 2391SOL    HW1 8072   3.333   4.621   5.545
 2391SOL    HW2 8073   3.365   4.611   5.385
 2392SOL     OW 8074   3.240   5.408   5.733
 2392SOL    HW1 8075   3.307   5.356   5.679
 2392SOL    HW2 8076   3.184   5.464   5.673
 2393SOL     OW 8077   3.923   5.314   1.076
 2393SOL    HW1 8078   3.901   5.399   1.124
 2393SOL    HW2 8079   3.840   5.258   1.069
 2394SOL     OW 8080   1.173   3.830   4.864
 2394SOL    HW1 8081   1.228   3.748   4.853
 2394SOL    HW2 8082   1.165   3.852   4.962
 2395SOL     OW 8083   6.735   2.216   6.562
 2395SOL    HW1 8084   6.795   2.138   6.580
 2395SOL    HW2 8085   6.701   2.252   6.649
 2396SOL     OW 8086   5.875   6.309   1.002
 2396SOL    HW1 8087   5.862   6.356   0.915
 2396SOL    HW2 8088   5.811   6.346   1.069
 2397SOL     OW 8089   6.514   4.802   0.414
 2397SOL    HW1 8090   6.521   4.748   0.498
 2397SOL    HW2 8091   6.534   4.744   0.335
 2398SOL     OW 8092   1.977   4.908   5.610
 2398SOL    HW1 8093   1.987   5.006   5.593
 2398SOL    HW2 8094   2.068   4.867   5.623
 2399SOL     OW 8095   4.418   1.777   2.632
 2399SOL    HW1 8096   4.333   1.820   2.602
 2399SOL    HW2 8097   4.496   1.830   2.597
 2400SOL     OW 8098   3.502   4.114   0.618
 2400SOL    HW1 8099   3.407   4.127   0.648
 2400SOL    HW2 8100   3.552   4.200   0.627
 2401SOL     OW 8101   3.147   0.592   5.623
 2401SOL    HW1 8102   3.098   0.667   5.578
 2401SOL    HW2 8103   3.238   0.623   5.651
 2402SOL     OW 8104   6.702   1.978   4.662
 2402SOL    HW1 8105   6.769   1.961   4.734
 2402SOL    HW2 8106   6.722   2.066   4.619
 2403SOL     OW 8107   3.040   2.981   0.498
 2403SOL    HW1 8108   2.951   3.004   0.539
 2403SOL    HW2 8109   3.067   2.889   0.526
 2404SOL     OW 8110   5.651   1.838   2.207
 2404SOL    HW1 8111   5.576   1.830   2.141
 2404SOL    HW2 8112   5.699   1.751   2.214
 2405SOL     OW 8113   4.107   3.406   5.576
 2405SOL    HW1 8114   4.098   3.324   5.519
 2405SOL    HW2 8115   4.202   3.439   5.571
 2406SOL     OW 8116   2.380   0.741   2.957
 2406SOL    HW1 8117   2.378   0.673   3.030
 2406SOL    HW2 8118   2.368   0.695   2.869
 2407SOL     OW 8119   4.539   2.015   3.108
 2407SOL    HW1 8120   4.564   1.920   3.125
 2407SOL    HW2 8121   4.457   2.038   3.162
 2408SOL     OW 8122   3.429   5.380   2.522
 2408SOL    HW1 8123   3.428   5.409   2.617
 2408SOL    HW2 8124   3.523   5.359   2.494
 2409SOL     OW 8125   2.319   2.467   1.913
 2409SOL    HW1 8126   2.371   2.480   1.829
 2409SOL    HW2 8127   2.353   2.386   1.961
 2410SOL     OW 8128   6.517   2.774   5.745
 2410SOL    HW1 8129   6.487   2.860   5.705
 2410SOL    HW2 8130   6.504   2.777   5.844
 2411SOL     OW 8131   3.709   4.455   5.294
 2411SOL    HW1 8132   3.697   4.554   5.286
 2411SOL    HW2 8133   3.771   4.435   5.370
 2412SOL     OW 8134   2.690   3.771   0.221
 2412SOL    HW1 8135   2.624   3.847   0.220
 2412SOL    HW2 8136   2.664   3.703   0.152
 2413SOL     OW 8137   5.995   3.598   6.826
 2413SOL    HW1 8138   6.020   3.693   6.847
 2413SOL    HW2 8139   6.050   3.566   6.749
 2414SOL     OW 8140   5.985   3.802   2.683
 2414SOL    HW1 8141   5.905   3.782   2.627
 2414SOL    HW2 8142   6.060   3.741   2.656
 2415SOL     OW 8143   1.687   0.110   1.168
 2415SOL    HW1 8144   1.698   0.050   1.247
 2415SOL    HW2 8145   1.592   0.107   1.137
 2416SOL     OW 8146   2.513   1.296   4.865
 2416SOL    HW1 8147   2.591   1.271   4.808
 2416SOL    HW2 8148   2.454   1.359   4.814
 2417SOL     OW 8149   4.927   2.453   0.075
 2417SOL    HW1 8150   4.960   2.362   0.101
 2417SOL    HW2 8151   4.864   2.446   7.023
 2418SOL     OW 8152   3.735   3.526   4.967
 2418SOL    HW1 8153   3.638   3.540   4.988
 2418SOL    HW2 8154   3.747   3.524   4.868
 2419SOL     OW 8155   0.341   6.768   4.863
 2419SOL    HW1 8156   0.284   6.695   4.902
 2419SOL    HW2 8157   0.428   6.729   4.832
 2420SOL     OW 8158   4.264   0.212   2.765
 2420SOL    HW1 8159   4.297   0.120   2.740
 2420SOL    HW2 8160   4.330   0.255   2.826
 2421SOL     OW 8161   2.795   1.115   4.374
 2421SOL    HW1 8162   2.712   1.151   4.415
 2421SOL    HW2 8163   2.864   1.098   4.445
 2422SOL     OW 8164   5.099   0.377   1.071
 2422SOL    HW1 8165   5.177   0.381   1.134
 2422SOL    HW2 8166   5.016   0.356   1.123
 2423SOL     OW 8167   1.176   6.032   2.432
 2423SOL    HW1 8168   1.189   5.961   2.501
 2423SOL    HW2 8169   1.204   6.121   2.469
 2424SOL     OW 8170   5.561   5.670   5.875
 2424SOL    HW1 8171   5.501   5.727   5.819
 2424SOL    HW2 8172   5.545   5.689   5.972
 2425SOL     OW 8173   6.157   6.662   4.667
 2425SOL    HW1 8174   6.191   6.736   4.725
 2425SOL    HW2 8175   6.191   6.674   4.573
 2426SOL     OW 8176   1.307   4.772   4.282
 2426SOL    HW1 8177   1.377   4.744   4.216
 2426SOL    HW2 8178   1.263   4.856   4.249
 2427SOL     OW 8179   5.875   5.521   6.818
 2427SOL    HW1 8180   5.919   5.431   6.812
 2427SOL    HW2 8181   5.781   5.514   6.785
 2428SOL     OW 8182   1.370   0.266   3.719
 2428SOL    HW1 8183   1.428   0.343   3.694
 2428SOL    HW2 8184   1.319   0.288   3.802
 2429SOL     OW 8185   6.490   5.133   3.176
 2429SOL    HW1 8186   6.512   5.055   3.118
 2429SOL    HW2 8187   6.420   5.189   3.131
 2430SOL     OW 8188   5.513   2.902   0.911
 2430SOL    HW1 8189   5.570   2.848   0.849
 2430SOL    HW2 8190   5.537   2.999   0.902
 2431SOL     OW 8191   4.095   0.607   2.079
 2431SOL    HW1 8192   4.142   0.527   2.042
 2431SOL    HW2 8193   4.039   0.649   2.007
 2432SOL     OW 8194   4.545   6.316   2.951
 2432SOL    HW1 8195   4.567   6.256   3.028
 2432SOL    HW2 8196   4.507   6.402   2.986
 2433SOL     OW 8197   2.826   6.753   0.067
 2433SOL    HW1 8198   2.897   6.784   0.130
 2433SOL    HW2 8199   2.746   6.725   0.120
 2434SOL     OW 8200   4.667   1.321   3.363
 2434SOL    HW1 8201   4.717   1.363   3.287
 2434SOL    HW2 8202   4.661   1.222   3.349
 2435SOL     OW 8203   4.551   5.573   0.347
 2435SOL    HW1 8204   4.514   5.646   0.290
 2435SOL    HW2 8205   4.484   5.548   0.417
 2436SOL     OW 8206   2.079   6.816   0.802
 2436SOL    HW1 8207   2.055   6.908   0.833
 2436SOL    HW2 8208   2.051   6.749   0.871
 2437SOL     OW 8209   4.975   5.729   1.166
 2437SOL    HW1 8210   4.934   5.638   1.166
 2437SOL    HW2 8211   5.032   5.741   1.247
 2438SOL     OW 8212   3.846   0.922   5.142
 2438SOL    HW1 8213   3.821   0.829   5.171
 2438SOL    HW2 8214   3.937   0.921   5.102
 2439SOL     OW 8215   1.298   4.103   0.038
 2439SOL    HW1 8216   1.348   4.093   6.976
 2439SOL    HW2 8217   1.273   4.198   0.051
 2440SOL     OW 8218   3.660   6.540   5.313
 2440SOL    HW1 8219   3.626   6.455   5.275
 2440SOL    HW2 8220   3.745   6.567   5.266
 2441SOL     OW 8221   6.285   1.311   0.600
 2441SOL    HW1 8222   6.205   1.319   0.660
 2441SOL    HW2 8223   6.346   1.389   0.615
 2442SOL     OW 8224   5.675   5.599   3.483
 2442SOL    HW1 8225   5.742   5.663   3.446
 2442SOL    HW2 8226   5.583   5.628   3.456
 2443SOL     OW 8227   3.362   0.529   6.315
 2443SOL    HW1 8228   3.371   0.589   6.235
 2443SOL    HW2 8229   3.265   0.519   6.338
 2444SOL     OW 8230   4.129   4.415   6.450
 2444SOL    HW1 8231   4.214   4.365   6.464
 2444SOL    HW2 8232   4.090   4.441   6.538
 2445SOL     OW 8233   6.721   0.798   1.947
 2445SOL    HW1 8234   6.633   0.754   1.929
 2445SOL    HW2 8235   6.790   0.762   1.884
 2446SOL     OW 8236   0.348   3.000   4.148
 2446SOL    HW1 8237   0.254   3.034   4.153
 2446SOL    HW2 8238   0.378   3.001   4.053
 2447SOL     OW 8239   2.870   1.002   1.170
 2447SOL    HW1 8240   2.937   1.073   1.190
 2447SOL    HW2 8241   2.790   1.014   1.230
 2448SOL     OW 8242   6.656   1.117   4.382
 2448SOL    HW1 8243   6.590   1.045   4.402
 2448SOL    HW2 8244   6.635   1.158   4.293
 2449SOL     OW 8245   6.925   4.119   3.288
 2449SOL    HW1 8246   6.825   4.120   3.286
 2449SOL    HW2 8247   6.959   4.208   3.318
 2450SOL     OW 8248   3.513   5.459   5.572
 2450SOL    HW1 8249   3.457   5.377   5.557
 2450SOL    HW2 8250   3.482   5.533   5.513
 2451SOL     OW 8251   0.987   0.459   3.615
 2451SOL    HW1 8252   1.008   0.362   3.606
 2451SOL    HW2 8253   0.928   0.474   3.694
 2452SOL     OW 8254   2.789   1.968   3.550
 2452SOL    HW1 8255   2.809   1.881   3.505
 2452SOL    HW2 8256   2.873   2.022   3.556
 2453SOL     OW 8257   6.810   3.817   0.832
 2453SOL    HW1 8258   6.761   3.872   0.900
 2453SOL    HW2 8259   6.772   3.724   0.832
 2454SOL     OW 8260   3.669   0.866   6.934
 2454SOL    HW1 8261   3.643   0.963   6.933
 2454SOL    HW2 8262   3.755   0.855   6.984
 2455SOL     OW 8263   4.294   0.207   0.355
 2455SOL    HW1 8264   4.204   0.167   0.339
 2455SOL    HW2 8265   4.286   0.283   0.419
 2456SOL     OW 8266   5.794   2.003   0.560
 2456SOL    HW1 8267   5.869   2.003   0.493
 2456SOL    HW2 8268   5.795   1.917   0.610
 2457SOL     OW 8269   6.953   0.189   6.404
 2457SOL    HW1 8270   6.858   0.216   6.420
 2457SOL    HW2 8271   6.958   0.127   6.326
 2458SOL     OW 8272   2.287   5.745   3.774
 2458SOL    HW1 8273   2.271   5.721   3.869
 2458SOL    HW2 8274   2.215   5.806   3.742
 2459SOL     OW 8275   2.393   6.027   5.962
 2459SOL    HW1 8276   2.325   6.090   5.925
 2459SOL    HW2 8277   2.474   6.078   5.989
 2460SOL     OW 8278   2.307   1.209   1.318
 2460SOL    HW1 8279   2.222   1.238   1.361
 2460SOL    HW2 8280   2.285   1.163   1.231
 2461SOL     OW 8281   4.681   1.218   3.077
 2461SOL    HW1 8282   4.652   1.154   3.148
 2461SOL    HW2 8283   4.601   1.266   3.041
 2462SOL     OW 8284   1.848   5.585   0.511
 2462SOL    HW1 8285   1.861   5.606   0.608
 2462SOL    HW2 8286   1.779   5.646   0.472
 2463SOL     OW 8287   6.514   2.298   5.820
 2463SOL    HW1 8288   6.487   2.314   5.915
 2463SOL    HW2 8289   6.447   2.338   5.759
 2464SOL     OW 8290   2.110   4.000   2.254
 2464SOL    HW1 8291   2.152   3.940   2.186
 2464SOL    HW2 8292   2.030   3.955   2.293
 2465SOL     OW 8293   0.889   0.204   1.103
 2465SOL    HW1 8294   0.824   0.279   1.105
 2465SOL    HW2 8295   0.920   0.183   1.196
 2466SOL     OW 8296   1.928   1.569   2.879
 2466SOL    HW1 8297   1.903   1.523   2.964
 2466SOL    HW2 8298   1.940   1.666   2.896
 2467SOL     OW 8299   5.109   1.273   5.581
 2467SOL    HW1 8300   5.075   1.194   5.632
 2467SOL    HW2 8301   5.032   1.326   5.546
 2468SOL     OW 8302   4.575   6.494   1.983
 2468SOL    HW1 8303   4.539   6.411   2.025
 2468SOL    HW2 8304   4.588   6.565   2.053
 2469SOL     OW 8305   3.984   4.390   5.759
 2469SOL    HW1 8306   4.067   4.419   5.711
 2469SOL    HW2 8307   3.929   4.333   5.698
 2470SOL     OW 8308   3.905   4.638   6.448
 2470SOL    HW1 8309   3.989   4.682   6.482
 2470SOL    HW2 8310   3.898   4.652   6.349
 2471SOL     OW 8311   2.648   6.295   0.680
 2471SOL    HW1 8312   2.744   6.297   0.708
 2471SOL    HW2 8313   2.589   6.299   0.761
 2472SOL     OW 8314   4.957   2.549   4.775
 2472SOL    HW1 8315   5.026   2.545   4.702
 2472SOL    HW2 8316   4.875   2.500   4.746
 2473SOL     OW 8317   2.219   4.025   4.749
 2473SOL    HW1 8318   2.237   4.122   4.736
 2473SOL    HW2 8319   2.232   4.001   4.845
 2474SOL     OW 8320   0.965   6.140   0.682
 2474SOL    HW1 8321   1.031   6.210   0.655
 2474SOL    HW2 8322   0.928   6.095   0.600
 2475SOL     OW 8323   4.678   1.240   2.322
 2475SOL    HW1 8324   4.582   1.224   2.343
 2475SOL    HW2 8325   4.731   1.158   2.343
 2476SOL     OW 8326   7.004   1.591   3.276
 2476SOL    HW1 8327   6.914   1.556   3.250
 2476SOL    HW2 8328   6.995   1.656   3.351
 2477SOL     OW 8329   4.816   1.289   2.105
 2477SOL    HW1 8330   4.901   1.328   2.139
 2477SOL    HW2 8331   4.757   1.264   2.182
 2478SOL     OW 8332   6.376   1.452   2.548
 2478SOL    HW1 8333   6.435   1.491   2.478
 2478SOL    HW2 8334   6.306   1.395   2.505
 2479SOL     OW 8335   1.379   3.792   1.594
 2479SOL    HW1 8336   1.437   3.841   1.530
 2479SOL    HW2 8337   1.361   3.850   1.674
 2480SOL     OW 8338   5.569   4.536   0.716
 2480SOL    HW1 8339   5.536   4.487   0.636
 2480SOL    HW2 8340   5.617   4.473   0.777
 2481SOL     OW 8341   2.161   0.793   6.816
 2481SOL    HW1 8342   2.074   0.752   6.787
 2481SOL    HW2 8343   2.157   0.892   6.802
 2482SOL     OW 8344   4.775   3.438   5.594
 2482SOL    HW1 8345   4.858   3.443   5.538
 2482SOL    HW2 8346   4.759   3.527   5.637
 2483SOL     OW 8347   1.777   2.083   6.754
 2483SOL    HW1 8348   1.830   2.083   6.669
 2483SOL    HW2 8349   1.827   2.132   6.825
 2484SOL     OW 8350   3.330   0.654   0.565
 2484SOL    HW1 8351   3.259   0.584   0.553
 2484SOL    HW2 8352   3.312   0.706   0.648
 2485SOL     OW 8353   5.862   3.866   1.228
 2485SOL    HW1 8354   5.933   3.812   1.184
 2485SOL    HW2 8355   5.809   3.808   1.290
 2486SOL     OW 8356   1.911   5.032   4.547
 2486SOL    HW1 8357   1.968   4.975   4.487
 2486SOL    HW2 8358   1.840   4.975   4.588
 2487SOL     OW 8359   3.583   6.078   6.826
 2487SOL    HW1 8360   3.575   6.038   6.735
 2487SOL    HW2 8361   3.541   6.168   6.828
 2488SOL     OW 8362   2.142   4.560   2.227
 2488SOL    HW1 8363   2.180   4.641   2.272
 2488SOL    HW2 8364   2.052   4.540   2.265
 2489SOL     OW 8365   1.030   5.530   2.988
 2489SOL    HW1 8366   0.934   5.503   2.991
 2489SOL    HW2 8367   1.087   5.451   3.010
 2490SOL     OW 8368   6.698   4.799   1.508
 2490SOL    HW1 8369   6.706   4.811   1.607
 2490SOL    HW2 8370   6.758   4.724   1.479
 2491SOL     OW 8371   2.775   5.405   1.068
 2491SOL    HW1 8372   2.743   5.480   1.010
 2491SOL    HW2 8373   2.715   5.326   1.056
 2492SOL     OW 8374   4.378   2.321   0.293
 2492SOL    HW1 8375   4.401   2.397   0.353
 2492SOL    HW2 8376   4.445   2.316   0.218
 2493SOL     OW 8377   6.152   0.870   2.466
 2493SOL    HW1 8378   6.101   0.943   2.419
 2493SOL    HW2 8379   6.153   0.788   2.408
 2494SOL     OW 8380   5.870   3.866   2.022
 2494SOL    HW1 8381   5.945   3.809   2.055
 2494SOL    HW2 8382   5.878   3.957   2.062
 2495SOL     OW 8383   5.203   0.599   4.266
 2495SOL    HW1 8384   5.166   0.662   4.335
 2495SOL    HW2 8385   5.141   0.594   4.188
 2496SOL     OW 8386   0.640   4.056   5.691
 2496SOL    HW1 8387   0.596   4.145   5.685
 2496SOL    HW2 8388   0.620   4.003   5.608
 2497SOL     OW 8389   0.214   0.281   0.971
 2497SOL    HW1 8390   0.182   0.187   0.973
 2497SOL    HW2 8391   0.310   0.283   0.944
 2498SOL     OW 8392   3.171   1.815   4.310
 2498SOL    HW1 8393   3.265   1.789   4.287
 2498SOL    HW2 8394   3.112   1.734   4.311
 2499SOL     OW 8395   5.580   1.975   4.346
 2499SOL    HW1 8396   5.524   1.894   4.329
 2499SOL    HW2 8397   5.677   1.948   4.351
 2500SOL     OW 8398   4.308   3.118   6.991
 2500SOL    HW1 8399   4.307   3.021   6.965
 2500SOL    HW2 8400   4.311   3.125   0.066
 2501SOL     OW 8401   6.082   5.752   0.031
 2501SOL    HW1 8402   5.992   5.782   0.000
 2501SOL    HW2 8403   6.076   5.657   0.062
 2502SOL     OW 8404   2.417   5.778   2.824
 2502SOL    HW1 8405   2.392   5.859   2.771
 2502SOL    HW2 8406   2.417   5.800   2.922
 2503SOL     OW 8407   3.204   5.447   4.746
 2503SOL    HW1 8408   3.211   5.458   4.647
 2503SOL    HW2 8409   3.107   5.439   4.771
 2504SOL     OW 8410   2.902   5.146   4.817
 2504SOL    HW1 8411   2.992   5.174   4.852
 2504SOL    HW2 8412   2.911   5.121   4.721
 2505SOL     OW 8413   1.849   5.950   3.881
 2505SOL    HW1 8414   1.770   5.935   3.939
 2505SOL    HW2 8415   1.844   5.891   3.801
 2506SOL     OW 8416   6.239   3.174   6.432
 2506SOL    HW1 8417   6.170   3.212   6.371
 2506SOL    HW2 8418   6.200   3.159   6.522
 2507SOL     OW 8419   1.012   4.503   0.567
 2507SOL    HW1 8420   0.924   4.527   0.607
 2507SOL    HW2 8421   1.059   4.437   0.626
 2508SOL     OW 8422   2.657   1.491   1.975
 2508SOL    HW1 8423   2.650   1.429   2.053
 2508SOL    HW2 8424   2.599   1.459   1.901
 2509SOL     OW 8425   6.239   2.858   2.254
 2509SOL    HW1 8426   6.254   2.832   2.350
 2509SOL    HW2 8427   6.206   2.779   2.203
 2510SOL     OW 8428   3.352   4.370   1.356
 2510SOL    HW1 8429   3.317   4.278   1.334
 2510SOL    HW2 8430   3.436   4.386   1.304
 2511SOL     OW 8431   2.863   1.449   3.487
 2511SOL    HW1 8432   2.810   1.478   3.407
 2511SOL    HW2 8433   2.934   1.385   3.459
 2512SOL     OW 8434   4.822   4.735   4.650
 2512SOL    HW1 8435   4.882   4.811   4.624
 2512SOL    HW2 8436   4.768   4.707   4.571
 2513SOL     OW 8437   1.147   3.500   4.888
 2513SOL    HW1 8438   1.180   3.525   4.797
 2513SOL    HW2 8439   1.209   3.433   4.928
 2514SOL     OW 8440   6.771   3.477   4.050
 2514SOL    HW1 8441   6.777   3.543   4.125
 2514SOL    HW2 8442   6.721   3.396   4.080
 2515SOL     OW 8443   1.374   6.521   0.725
 2515SOL    HW1 8444   1.376   6.618   0.699
 2515SOL    HW2 8445   1.442   6.505   0.795
 2516SOL     OW 8446   6.025   0.942   3.263
 2516SOL    HW1 8447   6.111   0.981   3.230
 2516SOL    HW2 8448   6.044   0.876   3.336
 2517SOL     OW 8449   0.479   5.033   5.855
 2517SOL    HW1 8450   0.382   5.009   5.849
 2517SOL    HW2 8451   0.500   5.064   5.947
 2518SOL     OW 8452   1.942   3.556   0.105
 2518SOL    HW1 8453   2.028   3.527   0.147
 2518SOL    HW2 8454   1.939   3.655   0.099
 2519SOL     OW 8455   5.275   6.516   3.728
 2519SOL    HW1 8456   5.299   6.470   3.813
 2519SOL    HW2 8457   5.359   6.548   3.683
 2520SOL     OW 8458   1.204   2.655   0.083
 2520SOL    HW1 8459   1.216   2.711   0.165
 2520SOL    HW2 8460   1.107   2.638   0.068
 2521SOL     OW 8461   1.339   6.031   5.428
 2521SOL    HW1 8462   1.260   5.972   5.411
 2521SOL    HW2 8463   1.314   6.106   5.488
 2522SOL     OW 8464   6.985   3.606   5.936
 2522SOL    HW1 8465   6.989   3.705   5.945
 2522SOL    HW2 8466   6.892   3.579   5.909
 2523SOL     OW 8467   0.468   2.868   2.058
 2523SOL    HW1 8468   0.408   2.794   2.030
 2523SOL    HW2 8469   0.468   2.876   2.158
 2524SOL     OW 8470   0.728   5.374   5.639
 2524SOL    HW1 8471   0.680   5.445   5.691
 2524SOL    HW2 8472   0.661   5.308   5.605
 2525SOL     OW 8473   0.433   2.901   4.395
 2525SOL    HW1 8474   0.440   2.980   4.334
 2525SOL    HW2 8475   0.472   2.821   4.351
 2526SOL     OW 8476   2.023   4.511   5.416
 2526SOL    HW1 8477   2.019   4.512   5.316
 2526SOL    HW2 8478   1.960   4.580   5.452
 2527SOL     OW 8479   5.328   5.983   5.174
 2527SOL    HW1 8480   5.276   6.057   5.216
 2527SOL    HW2 8481   5.264   5.917   5.134
 2528SOL     OW 8482   5.605   4.311   1.201
 2528SOL    HW1 8483   5.627   4.227   1.251
 2528SOL    HW2 8484   5.662   4.386   1.234
 2529SOL     OW 8485   6.855   6.030   6.676
 2529SOL    HW1 8486   6.933   6.024   6.738
 2529SOL    HW2 8487   6.839   5.941   6.635
 2530SOL     OW 8488   1.770   6.924   4.837
 2530SOL    HW1 8489   1.820   6.838   4.835
 2530SOL    HW2 8490   1.709   6.929   4.758
 2531SOL     OW 8491   4.874   5.981   4.093
 2531SOL    HW1 8492   4.950   5.950   4.036
 2531SOL    HW2 8493   4.789   5.938   4.061
 2532SOL     OW 8494   1.131   5.757   0.784
 2532SOL    HW1 8495   1.149   5.853   0.762
 2532SOL    HW2 8496   1.059   5.752   0.854
 2533SOL     OW 8497   3.490   6.954   2.999
 2533SOL    HW1 8498   3.569   7.000   2.959
 2533SOL    HW2 8499   3.438   6.908   2.927
 2534SOL     OW 8500   2.984   0.754   2.970
 2534SOL    HW1 8501   3.015   0.792   3.057
 2534SOL    HW2 8502   2.954   0.827   2.909
 2535SOL     OW 8503   2.915   2.993   6.722
 2535SOL    HW1 8504   2.844   2.959   6.660
 2535SOL    HW2 8505   2.872   3.040   6.799
 2536SOL     OW 8506   6.448   1.962   3.861
 2536SOL    HW1 8507   6.478   2.056   3.875
 2536SOL    HW2 8508   6.515   1.900   3.901
 2537SOL     OW 8509   4.855   6.640   6.578
 2537SOL    HW1 8510   4.805   6.565   6.536
 2537SOL    HW2 8511   4.796   6.686   6.645
 2538SOL     OW 8512   1.286   4.306   4.557
 2538SOL    HW1 8513   1.253   4.358   4.478
 2538SOL    HW2 8514   1.212   4.298   4.624
 2539SOL     OW 8515   5.515   0.636   5.986
 2539SOL    HW1 8516   5.457   0.683   5.920
 2539SOL    HW2 8517   5.578   0.575   5.938
 2540SOL     OW 8518   4.216   0.775   2.790
 2540SOL    HW1 8519   4.122   0.746   2.775
 2540SOL    HW2 8520   4.260   0.793   2.701
 2541SOL     OW 8521   1.877   6.458   5.428
 2541SOL    HW1 8522   1.940   6.527   5.394
 2541SOL    HW2 8523   1.783   6.484   5.403
 2542SOL     OW 8524   5.016   1.281   6.342
 2542SOL    HW1 8525   5.025   1.355   6.409
 2542SOL    HW2 8526   4.920   1.272   6.316
 2543SOL     OW 8527   2.220   1.890   2.772
 2543SOL    HW1 8528   2.285   1.899   2.848
 2543SOL    HW2 8529   2.131   1.865   2.808
 2544SOL     OW 8530   0.115   5.153   1.225
 2544SOL    HW1 8531   0.100   5.102   1.310
 2544SOL    HW2 8532   0.181   5.226   1.243
 2545SOL     OW 8533   1.959   0.638   1.221
 2545SOL    HW1 8534   1.975   0.587   1.136
 2545SOL    HW2 8535   1.862   0.632   1.246
 2546SOL     OW 8536   0.000   2.605   1.739
 2546SOL    HW1 8537   0.062   2.668   1.786
 2546SOL    HW2 8538   6.930   2.624   1.766
 2547SOL     OW 8539   5.961   4.591   0.174
 2547SOL    HW1 8540   6.045   4.644   0.161
 2547SOL    HW2 8541   5.930   4.556   0.086
 2548SOL     OW 8542   2.888   6.992   5.899
 2548SOL    HW1 8543   2.814   6.967   5.837
 2548SOL    HW2 8544   2.937   6.909   5.927
 2549SOL     OW 8545   1.957   0.894   1.115
 2549SOL    HW1 8546   1.901   0.888   1.032
 2549SOL    HW2 8547   1.949   0.809   1.167
 2550SOL     OW 8548   0.038   0.625   6.483
 2550SOL    HW1 8549   0.054   0.685   6.561
 2550SOL    HW2 8550   0.036   0.679   6.399
 2551SOL     OW 8551   3.037   5.351   0.338
 2551SOL    HW1 8552   3.089   5.339   0.423
 2551SOL    HW2 8553   3.027   5.263   0.292
 2552SOL     OW 8554   1.120   5.624   6.369
 2552SOL    HW1 8555   1.210   5.611   6.329
 2552SOL    HW2 8556   1.065   5.542   6.356
 2553SOL     OW 8557   3.687   3.539   7.022
 2553SOL    HW1 8558   3.612   3.476   0.017
 2553SOL    HW2 8559   3.694   3.553   6.923
 2554SOL     OW 8560   1.684   6.521   6.372
 2554SOL    HW1 8561   1.697   6.422   6.380
 2554SOL    HW2 8562   1.674   6.545   6.276
 2555SOL     OW 8563   6.419   6.371   6.295
 2555SOL    HW1 8564   6.449   6.280   6.267
 2555SOL    HW2 8565   6.322   6.369   6.320
 2556SOL     OW 8566   4.086   5.652   0.375
 2556SOL    HW1 8567   4.084   5.557   0.343
 2556SOL    HW2 8568   4.039   5.710   0.309
 2557SOL     OW 8569   2.582   2.651   6.168
 2557SOL    HW1 8570   2.661   2.664   6.227
 2557SOL    HW2 8571   2.597   2.573   6.108
 2558SOL     OW 8572   4.028   3.493   6.091
 2558SOL    HW1 8573   4.128   3.489   6.090
 2558SOL    HW2 8574   3.991   3.419   6.035
 2559SOL     OW 8575   6.388   3.196   4.791
 2559SOL    HW1 8576   6.296   3.236   4.792
 2559SOL    HW2 8577   6.450   3.255   4.739
 2560SOL     OW 8578   5.915   3.512   4.520
 2560SOL    HW1 8579   5.950   3.587   4.464
 2560SOL    HW2 8580   5.815   3.516   4.522
 2561SOL     OW 8581   3.158   0.278   3.937
 2561SOL    HW1 8582   3.092   0.349   3.961
 2561SOL    HW2 8583   3.164   0.270   3.837
 2562SOL     OW 8584   2.017   5.640   2.305
 2562SOL    HW1 8585   2.074   5.720   2.324
 2562SOL    HW2 8586   1.975   5.608   2.389
 2563SOL     OW 8587   4.216   1.837   0.078
 2563SOL    HW1 8588   4.271   1.753   0.084
 2563SOL    HW2 8589   4.119   1.813   0.073
 2564SOL     OW 8590   1.254   6.722   6.612
 2564SOL    HW1 8591   1.169   6.738   6.562
 2564SOL    HW2 8592   1.310   6.656   6.562
 2565SOL     OW 8593   0.328   1.034   0.374
 2565SOL    HW1 8594   0.384   1.098   0.321
 2565SOL    HW2 8595   0.342   1.051   0.472
 2566SOL     OW 8596   1.595   6.772   1.152
 2566SOL    HW1 8597   1.648   6.771   1.067
 2566SOL    HW2 8598   1.657   6.771   1.230
 2567SOL     OW 8599   1.465   1.415   1.728
 2567SOL    HW1 8600   1.500   1.344   1.789
 2567SOL    HW2 8601   1.505   1.503   1.752
 2568SOL     OW 8602   3.446   0.066   6.421
 2568SOL    HW1 8603   3.496   7.003   6.415
 2568SOL    HW2 8604   3.377   0.070   6.349
 2569SOL     OW 8605   2.709   0.383   1.775
 2569SOL    HW1 8606   2.769   0.428   1.841
 2569SOL    HW2 8607   2.695   0.444   1.696
 2570SOL     OW 8608   6.271   0.552   0.105
 2570SOL    HW1 8609   6.198   0.546   0.173
 2570SOL    HW2 8610   6.303   0.647   0.098
 2571SOL     OW 8611   2.067   3.674   5.599
 2571SOL    HW1 8612   2.121   3.644   5.521
 2571SOL    HW2 8613   1.980   3.625   5.601
 2572SOL     OW 8614   2.325   6.153   0.819
 2572SOL    HW1 8615   2.305   6.135   0.723
 2572SOL    HW2 8616   2.268   6.094   0.877
 2573SOL     OW 8617   6.704   1.667   2.144
 2573SOL    HW1 8618   6.804   1.665   2.133
 2573SOL    HW2 8619   6.672   1.762   2.138
 2574SOL     OW 8620   6.258   3.075   0.227
 2574SOL    HW1 8621   6.239   3.117   0.316
 2574SOL    HW2 8622   6.213   2.986   0.222
 2575SOL     OW 8623   4.699   5.346   0.314
 2575SOL    HW1 8624   4.794   5.374   0.328
 2575SOL    HW2 8625   4.640   5.427   0.318
 2576SOL     OW 8626   4.232   6.923   4.410
 2576SOL    HW1 8627   4.146   6.873   4.420
 2576SOL    HW2 8628   4.239   6.958   4.316
 2577SOL     OW 8629   4.047   6.591   2.364
 2577SOL    HW1 8630   3.993   6.676   2.370
 2577SOL    HW2 8631   4.088   6.584   2.273
 2578SOL     OW 8632   4.760   2.178   4.319
 2578SOL    HW1 8633   4.798   2.218   4.236
 2578SOL    HW2 8634   4.831   2.123   4.364
 2579SOL     OW 8635   1.026   0.430   3.047
 2579SOL    HW1 8636   1.073   0.343   3.039
 2579SOL    HW2 8637   0.969   0.444   2.965
 2580SOL     OW 8638   2.308   2.696   6.886
 2580SOL    HW1 8639   2.211   2.714   6.900
 2580SOL    HW2 8640   2.322   2.600   6.861
 2581SOL     OW 8641   6.723   4.384   1.127
 2581SOL    HW1 8642   6.633   4.420   1.101
 2581SOL    HW2 8643   6.712   4.316   1.200
 2582SOL     OW 8644   0.830   4.041   2.264
 2582SOL    HW1 8645   0.739   4.054   2.225
 2582SOL    HW2 8646   0.899   4.066   2.196
 2583SOL     OW 8647   0.460   1.577   1.359
 2583SOL    HW1 8648   0.397   1.537   1.292
 2583SOL    HW2 8649   0.416   1.580   1.449
 2584SOL     OW 8650   3.929   5.749   0.147
 2584SOL    HW1 8651   3.931   5.652   0.125
 2584SOL    HW2 8652   3.847   5.790   0.107
 2585SOL     OW 8653   4.004   2.821   1.003
 2585SOL    HW1 8654   4.036   2.770   1.083
 2585SOL    HW2 8655   4.080   2.831   0.938
 2586SOL     OW 8656   3.403   1.555   3.875
 2586SOL    HW1 8657   3.359   1.542   3.964
 2586SOL    HW2 8658   3.346   1.615   3.818
 2587SOL     OW 8659   0.302   0.514   3.730
 2587SOL    HW1 8660   0.309   0.415   3.734
 2587SOL    HW2 8661   0.208   0.540   3.707
 2588SOL     OW 8662   4.631   6.821   0.159
 2588SOL    HW1 8663   4.639   6.921   0.161
 2588SOL    HW2 8664   4.716   6.780   0.193
 2589SOL     OW 8665   0.013   6.117   6.367
 2589SOL    HW1 8666   0.094   6.111   6.425
 2589SOL    HW2 8667   6.968   6.174   6.412
 2590SOL     OW 8668   3.179   6.262   1.946
 2590SOL    HW1 8669   3.255   6.198   1.933
 2590SOL    HW2 8670   3.097   6.226   1.902
 2591SOL     OW 8671   6.991   5.939   2.279
 2591SOL    HW1 8672   6.894   5.940   2.257
 2591SOL    HW2 8673   7.021   5.845   2.296
 2592SOL     OW 8674   3.502   6.477   1.090
 2592SOL    HW1 8675   3.536   6.383   1.084
 2592SOL    HW2 8676   3.549   6.525   1.164
 2593SOL     OW 8677   2.720   6.032   0.874
 2593SOL    HW1 8678   2.648   5.964   0.859
 2593SOL    HW2 8679   2.739   6.040   0.971
 2594SOL     OW 8680   0.448   5.699   5.959
 2594SOL    HW1 8681   0.472   5.781   6.011
 2594SOL    HW2 8682   0.477   5.618   6.009
 2595SOL     OW 8683   6.426   1.657   4.735
 2595SOL    HW1 8684   6.384   1.615   4.655
 2595SOL    HW2 8685   6.430   1.756   4.723
 2596SOL     OW 8686   3.978   1.930   1.798
 2596SOL    HW1 8687   3.902   1.994   1.793
 2596SOL    HW2 8688   3.990   1.885   1.709
 2597SOL     OW 8689   1.380   4.052   6.235
 2597SOL    HW1 8690   1.384   3.956   6.264
 2597SOL    HW2 8691   1.299   4.066   6.177
 2598SOL     OW 8692   6.333   1.234   4.273
 2598SOL    HW1 8693   6.423   1.245   4.231
 2598SOL    HW2 8694   6.342   1.181   4.358
 2599SOL     OW 8695   2.495   6.900   0.802
 2599SOL    HW1 8696   2.568   6.968   0.792
 2599SOL    HW2 8697   2.489   6.845   0.719
 2600SOL     OW 8698   5.297   3.386   4.253
 2600SOL    HW1 8699   5.248   3.320   4.311
 2600SOL    HW2 8700   5.365   3.337   4.198
 2601SOL     OW 8701   1.976   2.302   0.247
 2601SOL    HW1 8702   1.956   2.212   0.285
 2601SOL    HW2 8703   2.049   2.295   0.179
 2602SOL     OW 8704   6.327   4.799   3.980
 2602SOL    HW1 8705   6.268   4.810   3.900
 2602SOL    HW2 8706   6.406   4.744   3.955
 2603SOL     OW 8707   2.224   1.819   1.736
 2603SOL    HW1 8708   2.189   1.726   1.740
 2603SOL    HW2 8709   2.287   1.835   1.812
 2604SOL     OW 8710   4.902   1.374   3.071
 2604SOL    HW1 8711   4.960   1.315   3.127
 2604SOL    HW2 8712   4.814   1.328   3.055
 2605SOL     OW 8713   2.386   4.397   2.907
 2605SOL    HW1 8714   2.425   4.425   2.995
 2605SOL    HW2 8715   2.300   4.446   2.891
 2606SOL     OW 8716   6.884   4.597   1.428
 2606SOL    HW1 8717   6.926   4.598   1.338
 2606SOL    HW2 8718   6.955   4.601   1.498
 2607SOL     OW 8719   0.127   1.177   6.944
 2607SOL    HW1 8720   0.068   1.210   7.018
 2607SOL    HW2 8721   0.169   1.090   6.972
 2608SOL     OW 8722   4.914   4.747   1.510
 2608SOL    HW1 8723   4.936   4.825   1.569
 2608SOL    HW2 8724   4.912   4.663   1.564
 2609SOL     OW 8725   6.875   1.779   1.376
 2609SOL    HW1 8726   6.860   1.808   1.282
 2609SOL    HW2 8727   6.826   1.694   1.393
 2610SOL     OW 8728   0.232   4.656   4.657
 2610SOL    HW1 8729   0.232   4.688   4.563
 2610SOL    HW2 8730   0.211   4.732   4.719
 2611SOL     OW 8731   4.407   6.366   0.848
 2611SOL    HW1 8732   4.366   6.393   0.761
 2611SOL    HW2 8733   4.439   6.272   0.842
 2612SOL     OW 8734   7.010   0.044   5.587
 2612SOL    HW1 8735   0.063   0.043   5.524
 2612SOL    HW2 8736   0.017   0.074   5.677
 2613SOL     OW 8737   2.806   6.950   6.898
 2613SOL    HW1 8738   2.804   6.905   6.808
 2613SOL    HW2 8739   2.817   6.881   6.969
 2614SOL     OW 8740   0.122   0.579   6.113
 2614SOL    HW1 8741   0.214   0.597   6.146
 2614SOL    HW2 8742   0.059   0.645   6.155
 2615SOL     OW 8743   0.024   2.672   3.313
 2615SOL    HW1 8744   6.949   2.669   3.300
 2615SOL    HW2 8745   0.069   2.636   3.232
 2616SOL     OW 8746   3.687   2.972   5.092
 2616SOL    HW1 8747   3.610   3.004   5.147
 2616SOL    HW2 8748   3.722   3.047   5.035
 2617SOL     OW 8749   3.383   6.463   0.772
 2617SOL    HW1 8750   3.450   6.530   0.802
 2617SOL    HW2 8751   3.370   6.470   0.673
 2618SOL     OW 8752   0.018   0.240   4.232
 2618SOL    HW1 8753   0.019   0.260   4.134
 2618SOL    HW2 8754   6.980   0.165   4.250
 2619SOL     OW 8755   4.227   1.727   3.435
 2619SOL    HW1 8756   4.193   1.820   3.427
 2619SOL    HW2 8757   4.206   1.677   3.350
 2620SOL     OW 8758   0.152   6.995   2.941
 2620SOL    HW1 8759   0.181   0.063   2.964
 2620SOL    HW2 8760   0.062   6.977   2.982
 2621SOL     OW 8761   1.292   6.045   2.991
 2621SOL    HW1 8762   1.315   5.969   2.930
 2621SOL    HW2 8763   1.328   6.130   2.954
 2622SOL     OW 8764   1.864   3.084   5.737
 2622SOL    HW1 8765   1.771   3.066   5.705
 2622SOL    HW2 8766   1.907   2.998   5.764
 2623SOL     OW 8767   2.101   1.592   5.468
 2623SOL    HW1 8768   2.110   1.670   5.407
 2623SOL    HW2 8769   2.007   1.558   5.466
 2624SOL     OW 8770   6.703   2.233   5.608
 2624SOL    HW1 8771   6.752   2.166   5.553
 2624SOL    HW2 8772   6.685   2.197   5.699
 2625SOL     OW 8773   2.288   2.687   5.398
 2625SOL    HW1 8774   2.260   2.706   5.303
 2625SOL    HW2 8775   2.344   2.762   5.432
 2626SOL     OW 8776   0.760   6.960   5.768
 2626SOL    HW1 8777   0.817   0.017   5.757
 2626SOL    HW2 8778   0.667   6.980   5.738
 2627SOL     OW 8779   1.571   1.353   5.559
 2627SOL    HW1 8780   1.500   1.348   5.489
 2627SOL    HW2 8781   1.654   1.393   5.519
 2628SOL     OW 8782   2.107   4.745   6.511
 2628SOL    HW1 8783   2.056   4.727   6.427
 2628SOL    HW2 8784   2.170   4.668   6.529
 2629SOL     OW 8785   2.655   3.131   1.399
 2629SOL    HW1 8786   2.667   3.230   1.399
 2629SOL    HW2 8787   2.681   3.094   1.488
 2630SOL     OW 8788   2.929   2.071   2.417
 2630SOL    HW1 8789   3.014   2.116   2.389
 2630SOL    HW2 8790   2.886   2.124   2.490
 2631SOL     OW 8791   5.465   1.029   5.555
 2631SOL    HW1 8792   5.521   0.951   5.586
 2631SOL    HW2 8793   5.391   1.044   5.620
 2632SOL     OW 8794   4.056   2.684   6.490
 2632SOL    HW1 8795   4.065   2.730   6.578
 2632SOL    HW2 8796   3.960   2.685   6.462
 2633SOL     OW 8797   0.165   1.119   4.589
 2633SOL    HW1 8798   0.113   1.179   4.650
 2633SOL    HW2 8799   0.106   1.045   4.556
 2634SOL     OW 8800   0.694   4.636   3.319
 2634SOL    HW1 8801   0.777   4.586   3.296
 2634SOL    HW2 8802   0.713   4.702   3.392
 2635SOL     OW 8803   6.185   6.441   5.439
 2635SOL    HW1 8804   6.165   6.539   5.437
 2635SOL    HW2 8805   6.266   6.423   5.382
 2636SOL     OW 8806   4.715   0.763   5.319
 2636SOL    HW1 8807   4.652   0.700   5.364
 2636SOL    HW2 8808   4.796   0.775   5.376
 2637SOL     OW 8809   4.659   1.771   3.412
 2637SOL    HW1 8810   4.678   1.732   3.502
 2637SOL    HW2 8811   4.730   1.838   3.389
 2638SOL     OW 8812   6.863   0.184   3.526
 2638SOL    HW1 8813   6.800   0.128   3.580
 2638SOL    HW2 8814   6.816   0.216   3.444
 2639SOL     OW 8815   0.565   5.745   0.904
 2639SOL    HW1 8816   0.503   5.823   0.903
 2639SOL    HW2 8817   0.597   5.728   0.997
 2640SOL     OW 8818   0.713   5.811   5.148
 2640SOL    HW1 8819   0.751   5.821   5.240
 2640SOL    HW2 8820   0.751   5.882   5.089
 2641SOL     OW 8821   5.289   3.350   2.465
 2641SOL    HW1 8822   5.284   3.415   2.389
 2641SOL    HW2 8823   5.267   3.397   2.551
 2642SOL     OW 8824   4.229   6.668   3.835
 2642SOL    HW1 8825   4.133   6.687   3.816
 2642SOL    HW2 8826   4.239   6.640   3.931
 2643SOL     OW 8827   0.253   4.073   3.207
 2643SOL    HW1 8828   0.160   4.038   3.219
 2643SOL    HW2 8829   0.256   4.170   3.231
 2644SOL     OW 8830   5.858   6.049   5.652
 2644SOL    HW1 8831   5.911   5.999   5.583
 2644SOL    HW2 8832   5.788   5.988   5.691
 2645SOL     OW 8833   4.357   5.674   4.678
 2645SOL    HW1 8834   4.452   5.653   4.654
 2645SOL    HW2 8835   4.318   5.734   4.608
 2646SOL     OW 8836   6.132   0.689   6.765
 2646SOL    HW1 8837   6.075   0.673   6.845
 2646SOL    HW2 8838   6.136   0.606   6.709
 2647SOL     OW 8839   6.853   0.206   2.349
 2647SOL    HW1 8840   6.871   0.268   2.273
 2647SOL    HW2 8841   6.849   0.259   2.434
 2648SOL     OW 8842   0.646   0.077   4.271
 2648SOL    HW1 8843   0.715   0.006   4.287
 2648SOL    HW2 8844   0.577   0.073   4.343
 2649SOL     OW 8845   5.471   2.941   0.088
 2649SOL    HW1 8846   5.494   2.898   0.001
 2649SOL    HW2 8847   5.372   2.943   0.100
 2650SOL     OW 8848   0.970   4.261   4.479
 2650SOL    HW1 8849   0.982   4.282   4.576
 2650SOL    HW2 8850   0.949   4.346   4.429
 2651SOL     OW 8851   1.215   1.127   0.523
 2651SOL    HW1 8852   1.240   1.133   0.620
 2651SOL    HW2 8853   1.239   1.036   0.489
 2652SOL     OW 8854   3.992   3.554   4.132
 2652SOL    HW1 8855   4.033   3.562   4.222
 2652SOL    HW2 8856   3.900   3.594   4.134
 2653SOL     OW 8857   4.881   0.197   5.233
 2653SOL    HW1 8858   4.818   0.121   5.220
 2653SOL    HW2 8859   4.851   0.252   5.311
 2654SOL     OW 8860   4.490   6.089   2.304
 2654SOL    HW1 8861   4.431   6.019   2.344
 2654SOL    HW2 8862   4.581   6.052   2.288
 2655SOL     OW 8863   4.646   6.248   4.317
 2655SOL    HW1 8864   4.592   6.197   4.384
 2655SOL    HW2 8865   4.585   6.303   4.260
 2656SOL     OW 8866   3.651   4.921   4.346
 2656SOL    HW1 8867   3.557   4.892   4.329
 2656SOL    HW2 8868   3.652   5.019   4.368
 2657SOL     OW 8869   0.826   3.799   6.113
 2657SOL    HW1 8870   0.774   3.765   6.035
 2657SOL    HW2 8871   0.885   3.875   6.083
 2658SOL     OW 8872   5.174   4.548   0.844
 2658SOL    HW1 8873   5.251   4.607   0.867
 2658SOL    HW2 8874   5.117   4.535   0.924
 2659SOL     OW 8875   5.451   3.009   4.371
 2659SOL    HW1 8876   5.487   2.958   4.449
 2659SOL    HW2 8877   5.406   2.946   4.308
 2660SOL     OW 8878   1.466   0.164   1.712
 2660SOL    HW1 8879   1.489   0.121   1.625
 2660SOL    HW2 8880   1.413   0.100   1.768
 2661SOL     OW 8881   2.389   6.758   1.021
 2661SOL    HW1 8882   2.445   6.676   1.006
 2661SOL    HW2 8883   2.395   6.818   0.941
 2662SOL     OW 8884   4.954   6.866   4.625
 2662SOL    HW1 8885   4.878   6.812   4.588
 2662SOL    HW2 8886   5.003   6.910   4.549
 2663SOL     OW 8887   2.895   3.950   6.723
 2663SOL    HW1 8888   2.917   3.854   6.702
 2663SOL    HW2 8889   2.846   3.955   6.810
 2664SOL     OW 8890   4.433   4.242   5.428
 2664SOL    HW1 8891   4.432   4.260   5.527
 2664SOL    HW2 8892   4.508   4.291   5.386
 2665SOL     OW 8893   2.430   2.905   5.426
 2665SOL    HW1 8894   2.413   2.967   5.502
 2665SOL    HW2 8895   2.428   2.956   5.340
 2666SOL     OW 8896   5.731   4.546   1.273
 2666SOL    HW1 8897   5.773   4.631   1.241
 2666SOL    HW2 8898   5.703   4.556   1.368
 2667SOL     OW 8899   0.251   6.572   3.875
 2667SOL    HW1 8900   0.332   6.602   3.925
 2667SOL    HW2 8901   0.278   6.535   3.786
 2668SOL     OW 8902   0.611   3.351   4.497
 2668SOL    HW1 8903   0.606   3.272   4.436
 2668SOL    HW2 8904   0.530   3.408   4.484
 2669SOL     OW 8905   2.760   4.649   5.373
 2669SOL    HW1 8906   2.812   4.593   5.309
 2669SOL    HW2 8907   2.752   4.601   5.461
 2670SOL     OW 8908   5.999   3.426   6.540
 2670SOL    HW1 8909   5.936   3.469   6.475
 2670SOL    HW2 8910   5.949   3.363   6.599
 2671SOL     OW 8911   4.436   5.666   5.750
 2671SOL    HW1 8912   4.511   5.678   5.816
 2671SOL    HW2 8913   4.349   5.679   5.797
 2672SOL     OW 8914   1.599   4.928   0.974
 2672SOL    HW1 8915   1.501   4.914   0.956
 2672SOL    HW2 8916   1.618   5.026   0.978
 2673SOL     OW 8917   6.066   0.753   3.499
 2673SOL    HW1 8918   6.075   0.654   3.486
 2673SOL    HW2 8919   6.149   0.789   3.542
 2674SOL     OW 8920   1.339   4.236   3.701
 2674SOL    HW1 8921   1.295   4.281   3.623
 2674SOL    HW2 8922   1.362   4.142   3.677
 2675SOL     OW 8923   6.647   5.500   3.420
 2675SOL    HW1 8924   6.622   5.537   3.510
 2675SOL    HW2 8925   6.592   5.418   3.402
 2676SOL     OW 8926   3.766   2.626   0.818
 2676SOL    HW1 8927   3.713   2.568   0.756
 2676SOL    HW2 8928   3.772   2.718   0.780
 2677SOL     OW 8929   3.040   3.599   0.557
 2677SOL    HW1 8930   3.135   3.606   0.527
 2677SOL    HW2 8931   3.006   3.507   0.538
 2678SOL     OW 8932   0.442   2.671   1.576
 2678SOL    HW1 8933   0.430   2.675   1.476
 2678SOL    HW2 8934   0.530   2.712   1.599
 2679SOL     OW 8935   3.422   4.586   0.713
 2679SOL    HW1 8936   3.381   4.644   0.784
 2679SOL    HW2 8937   3.368   4.593   0.629
 2680SOL     OW 8938   0.851   1.708   0.984
 2680SOL    HW1 8939   0.786   1.705   1.061
 2680SOL    HW2 8940   0.933   1.656   1.008
 2681SOL     OW 8941   1.305   2.538   3.972
 2681SOL    HW1 8942   1.275   2.492   4.056
 2681SOL    HW2 8943   1.229   2.543   3.907
 2682SOL     OW 8944   4.709   4.112   2.746
 2682SOL    HW1 8945   4.659   4.189   2.706
 2682SOL    HW2 8946   4.800   4.142   2.775
 2683SOL     OW 8947   2.419   5.189   1.509
 2683SOL    HW1 8948   2.349   5.252   1.545
 2683SOL    HW2 8949   2.454   5.132   1.583
 2684SOL     OW 8950   4.318   5.792   1.515
 2684SOL    HW1 8951   4.397   5.731   1.519
 2684SOL    HW2 8952   4.299   5.829   1.606
 2685SOL     OW 8953   6.082   6.572   6.328
 2685SOL    HW1 8954   6.060   6.592   6.233
 2685SOL    HW2 8955   6.137   6.646   6.366
 2686SOL     OW 8956   1.809   2.175   5.797
 2686SOL    HW1 8957   1.905   2.150   5.783
 2686SOL    HW2 8958   1.767   2.109   5.859
 2687SOL     OW 8959   4.917   4.662   1.936
 2687SOL    HW1 8960   4.877   4.571   1.936
 2687SOL    HW2 8961   4.989   4.667   1.867
 2688SOL     OW 8962   3.907   4.197   6.927
 2688SOL    HW1 8963   3.882   4.256   6.850
 2688SOL    HW2 8964   3.946   4.253   7.000
 2689SOL     OW 8965   1.656   3.914   3.486
 2689SOL    HW1 8966   1.729   3.849   3.507
 2689SOL    HW2 8967   1.693   3.990   3.433
 2690SOL     OW 8968   3.232   3.413   3.977
 2690SOL    HW1 8969   3.149   3.358   3.983
 2690SOL    HW2 8970   3.225   3.492   4.038
 2691SOL     OW 8971   1.813   5.553   2.496
 2691SOL    HW1 8972   1.755   5.502   2.559
 2691SOL    HW2 8973   1.765   5.636   2.465
 2692SOL     OW 8974   3.475   5.388   2.795
 2692SOL    HW1 8975   3.437   5.436   2.874
 2692SOL    HW2 8976   3.541   5.320   2.826
 2693SOL     OW 8977   2.477   5.528   3.210
 2693SOL    HW1 8978   2.419   5.456   3.171
 2693SOL    HW2 8979   2.565   5.489   3.237
 2694SOL     OW 8980   3.885   5.900   3.036
 2694SOL    HW1 8981   3.807   5.937   3.087
 2694SOL    HW2 8982   3.943   5.975   3.005
 2695SOL     OW 8983   5.816   0.366   2.568
 2695SOL    HW1 8984   5.826   0.286   2.510
 2695SOL    HW2 8985   5.892   0.429   2.551
 2696SOL     OW 8986   3.852   3.339   5.419
 2696SOL    HW1 8987   3.871   3.333   5.517
 2696SOL    HW2 8988   3.938   3.340   5.368
 2697SOL     OW 8989   3.130   1.881   2.648
 2697SOL    HW1 8990   3.217   1.915   2.613
 2697SOL    HW2 8991   3.094   1.812   2.586
 2698SOL     OW 8992   2.197   6.302   0.211
 2698SOL    HW1 8993   2.218   6.398   0.193
 2698SOL    HW2 8994   2.168   6.258   0.126
 2699SOL     OW 8995   2.522   6.629   0.289
 2699SOL    HW1 8996   2.605   6.668   0.329
 2699SOL    HW2 8997   2.507   6.537   0.325
 2700SOL     OW 8998   2.311   3.668   0.419
 2700SOL    HW1 8999   2.259   3.689   0.336
 2700SOL    HW2 9000   2.258   3.608   0.478
 2701SOL     OW 9001   5.758   1.769   5.791
 2701SOL    HW1 9002   5.707   1.856   5.794
 2701SOL    HW2 9003   5.711   1.702   5.849
 2702SOL     OW 9004   0.544   3.115   3.451
 2702SOL    HW1 9005   0.482   3.094   3.527
 2702SOL    HW2 9006   0.573   3.210   3.457
 2703SOL     OW 9007   1.002   0.116   1.374
 2703SOL    HW1 9008   0.966   0.024   1.389
 2703SOL    HW2 9009   1.061   0.141   1.451
 2704SOL     OW 9010   6.882   5.726   1.373
 2704SOL    HW1 9011   6.860   5.662   1.447
 2704SOL    HW2 9012   6.970   5.700   1.332
 2705SOL     OW 9013   0.119   5.881   4.731
 2705SOL    HW1 9014   0.030   5.925   4.742
 2705SOL    HW2 9015   0.139   5.826   4.812
 2706SOL     OW 9016   0.240   6.235   1.556
 2706SOL    HW1 9017   0.165   6.294   1.527
 2706SOL    HW2 9018   0.272   6.181   1.478
 2707SOL     OW 9019   3.821   6.862   4.269
 2707SOL    HW1 9020   3.901   6.846   4.326
 2707SOL    HW2 9021   3.823   6.955   4.233
 2708SOL     OW 9022   0.253   2.474   0.035
 2708SOL    HW1 9023   0.306   2.462   0.119
 2708SOL    HW2 9024   0.294   2.546   7.004
 2709SOL     OW 9025   5.799   0.321   6.791
 2709SOL    HW1 9026   5.797   0.221   6.795
 2709SOL    HW2 9027   5.878   0.355   6.842
 2710SOL     OW 9028   0.587   3.741   3.677
 2710SOL    HW1 9029   0.680   3.705   3.686
 2710SOL    HW2 9030   0.574   3.778   3.585
 2711SOL     OW 9031   2.591   0.598   3.314
 2711SOL    HW1 9032   2.647   0.630   3.237
 2711SOL    HW2 9033   2.617   0.647   3.397
 2712SOL     OW 9034   2.947   4.561   1.213
 2712SOL    HW1 9035   2.947   4.501   1.292
 2712SOL    HW2 9036   2.876   4.531   1.148
 2713SOL     OW 9037   2.573   2.396   4.583
 2713SOL    HW1 9038   2.495   2.402   4.521
 2713SOL    HW2 9039   2.561   2.462   4.657
 2714SOL     OW 9040   3.305   2.080   0.611
 2714SOL    HW1 9041   3.293   2.177   0.591
 2714SOL    HW2 9042   3.392   2.049   0.573
 2715SOL     OW 9043   4.918   1.953   0.857
 2715SOL    HW1 9044   4.974   1.933   0.937
 2715SOL    HW2 9045   4.874   1.870   0.824
 2716SOL     OW 9046   5.016   4.326   2.173
 2716SOL    HW1 9047   4.938   4.358   2.119
 2716SOL    HW2 9048   5.051   4.402   2.229
 2717SOL     OW 9049   0.896   6.431   2.487
 2717SOL    HW1 9050   0.854   6.389   2.568
 2717SOL    HW2 9051   0.893   6.366   2.411
 2718SOL     OW 9052   1.765   2.055   4.945
 2718SOL    HW1 9053   1.841   2.120   4.943
 2718SOL    HW2 9054   1.799   1.963   4.924
 2719SOL     OW 9055   6.982   5.412   1.058
 2719SOL    HW1 9056   6.942   5.443   0.971
 2719SOL    HW2 9057   6.946   5.322   1.081
 2720SOL     OW 9058   2.051   5.990   1.989
 2720SOL    HW1 9059   2.017   5.912   2.043
 2720SOL    HW2 9060   2.050   6.072   2.045
 2721SOL     OW 9061   2.879   6.843   3.184
 2721SOL    HW1 9062   2.788   6.848   3.142
 2721SOL    HW2 9063   2.880   6.772   3.254
 2722SOL     OW 9064   6.913   5.440   0.786
 2722SOL    HW1 9065   6.818   5.446   0.757
 2722SOL    HW2 9066   6.973   5.446   0.705
 2723SOL     OW 9067   0.715   0.245   6.270
 2723SOL    HW1 9068   0.749   0.180   6.338
 2723SOL    HW2 9069   0.635   0.292   6.307
 2724SOL     OW 9070   1.672   6.683   6.962
 2724SOL    HW1 9071   1.689   6.781   6.977
 2724SOL    HW2 9072   1.754   6.641   6.923
 2725SOL     OW 9073   5.131   5.228   4.409
 2725SOL    HW1 9074   5.229   5.208   4.403
 2725SOL    HW2 9075   5.117   5.327   4.405
 2726SOL     OW 9076   7.008   2.618   0.906
 2726SOL    HW1 9077   0.006   2.696   0.963
 2726SOL    HW2 9078   0.067   2.568   0.883
 2727SOL     OW 9079   0.467   5.319   3.147
 2727SOL    HW1 9080   0.478   5.240   3.087
 2727SOL    HW2 9081   0.369   5.335   3.162
 2728SOL     OW 9082   4.816   6.572   5.748
 2728SOL    HW1 9083   4.822   6.472   5.757
 2728SOL    HW2 9084   4.725   6.597   5.716
 2729SOL     OW 9085   0.114   5.904   0.892
 2729SOL    HW1 9086   0.135   5.816   0.936
 2729SOL    HW2 9087   0.083   5.888   0.799
 2730SOL     OW 9088   1.568   5.635   1.672
 2730SOL    HW1 9089   1.548   5.629   1.574
 2730SOL    HW2 9090   1.668   5.636   1.685
 2731SOL     OW 9091   4.030   3.662   3.201
 2731SOL    HW1 9092   4.089   3.695   3.128
 2731SOL    HW2 9093   4.066   3.576   3.237
 2732SOL     OW 9094   5.523   2.171   1.670
 2732SOL    HW1 9095   5.557   2.180   1.576
 2732SOL    HW2 9096   5.431   2.132   1.669
 2733SOL     OW 9097   6.798   0.796   4.887
 2733SOL    HW1 9098   6.877   0.857   4.883
 2733SOL    HW2 9099   6.800   0.746   4.974
 2734SOL     OW 9100   2.765   6.078   1.140
 2734SOL    HW1 9101   2.677   6.126   1.136
 2734SOL    HW2 9102   2.814   6.106   1.223
 2735SOL     OW 9103   1.292   3.499   2.329
 2735SOL    HW1 9104   1.203   3.478   2.371
 2735SOL    HW2 9105   1.365   3.483   2.395
 2736SOL     OW 9106   4.996   6.663   5.333
 2736SOL    HW1 9107   4.900   6.638   5.324
 2736SOL    HW2 9108   5.017   6.739   5.272
 2737SOL     OW 9109   3.355   3.430   6.020
 2737SOL    HW1 9110   3.430   3.392   6.074
 2737SOL    HW2 9111   3.343   3.527   6.043
 2738SOL     OW 9112   4.868   6.248   2.446
 2738SOL    HW1 9113   4.780   6.293   2.464
 2738SOL    HW2 9114   4.943   6.307   2.477
 2739SOL     OW 9115   0.026   5.027   1.458
 2739SOL    HW1 9116   0.010   5.076   1.544
 2739SOL    HW2 9117   0.073   4.941   1.478
 2740SOL     OW 9118   0.101   3.961   2.418
 2740SOL    HW1 9119   0.149   4.034   2.467
 2740SOL    HW2 9120   0.129   3.963   2.322
 2741SOL     OW 9121   6.282   0.433   4.871
 2741SOL    HW1 9122   6.203   0.483   4.907
 2741SOL    HW2 9123   6.338   0.495   4.816
 2742SOL     OW 9124   2.453   5.495   6.760
 2742SOL    HW1 9125   2.545   5.494   6.723
 2742SOL    HW2 9126   2.432   5.586   6.796
 2743SOL     OW 9127   6.643   4.930   2.224
 2743SOL    HW1 9128   6.703   4.998   2.182
 2743SOL    HW2 9129   6.698   4.865   2.277
 2744SOL     OW 9130   5.346   1.738   6.372
 2744SOL    HW1 9131   5.390   1.763   6.286
 2744SOL    HW2 9132   5.297   1.817   6.409
 2745SOL     OW 9133   0.029   0.033   6.213
 2745SOL    HW1 9134   0.119   7.021   6.187
 2745SOL    HW2 9135   7.023   0.098   6.144
 2746SOL     OW 9136   2.418   2.036   3.810
 2746SOL    HW1 9137   2.351   2.106   3.786
 2746SOL    HW2 9138   2.509   2.077   3.812
 2747SOL     OW 9139   6.231   3.965   6.605
 2747SOL    HW1 9140   6.302   3.975   6.675
 2747SOL    HW2 9141   6.273   3.968   6.515
 2748SOL     OW 9142   5.323   1.373   1.183
 2748SOL    HW1 9143   5.329   1.472   1.168
 2748SOL    HW2 9144   5.229   1.348   1.204
 2749SOL     OW 9145   6.976   4.950   2.309
 2749SOL    HW1 9146   7.012   5.041   2.329
 2749SOL    HW2 9147   6.893   4.935   2.363
 2750SOL     OW 9148   0.849   5.224   1.107
 2750SOL    HW1 9149   0.940   5.253   1.139
 2750SOL    HW2 9150   0.790   5.205   1.186
 2751SOL     OW 9151   1.114   5.285   1.536
 2751SOL    HW1 9152   1.156   5.270   1.625
 2751SOL    HW2 9153   1.074   5.199   1.503
 2752SOL     OW 9154   4.216   5.340   5.750
 2752SOL    HW1 9155   4.298   5.332   5.694
 2752SOL    HW2 9156   4.235   5.302   5.841
 2753SOL     OW 9157   0.502   6.086   5.409
 2753SOL    HW1 9158   0.466   6.017   5.346
 2753SOL    HW2 9159   0.517   6.045   5.498
 2754SOL     OW 9160   0.484   0.490   2.593
 2754SOL    HW1 9161   0.446   0.566   2.541
 2754SOL    HW2 9162   0.421   0.412   2.589
 2755SOL     OW 9163   2.351   6.848   2.982
 2755SOL    HW1 9164   2.439   6.892   2.999
 2755SOL    HW2 9165   2.313   6.883   2.897
 2756SOL     OW 9166   6.025   4.630   6.800
 2756SOL    HW1 9167   5.925   4.640   6.803
 2756SOL    HW2 9168   6.059   4.667   6.714
 2757SOL     OW 9169   2.586   0.293   6.654
 2757SOL    HW1 9170   2.662   0.292   6.719
 2757SOL    HW2 9171   2.532   0.210   6.666
 2758SOL     OW 9172   4.269   6.287   4.128
 2758SOL    HW1 9173   4.286   6.274   4.030
 2758SOL    HW2 9174   4.355   6.308   4.174
 2759SOL     OW 9175   5.107   5.782   5.131
 2759SOL    HW1 9176   5.022   5.739   5.102
 2759SOL    HW2 9177   5.088   5.851   5.200
 2760SOL     OW 9178   0.853   5.593   2.524
 2760SOL    HW1 9179   0.935   5.587   2.468
 2760SOL    HW2 9180   0.779   5.634   2.470
 2761SOL     OW 9181   1.661   4.690   4.965
 2761SOL    HW1 9182   1.599   4.769   4.960
 2761SOL    HW2 9183   1.701   4.673   4.875
 2762SOL     OW 9184   1.638   0.437   5.723
 2762SOL    HW1 9185   1.668   0.389   5.641
 2762SOL    HW2 9186   1.663   0.533   5.717
 2763SOL     OW 9187   4.790   2.459   3.829
 2763SOL    HW1 9188   4.747   2.397   3.894
 2763SOL    HW2 9189   4.722   2.486   3.760
 2764SOL     OW 9190   6.522   1.095   1.063
 2764SOL    HW1 9191   6.573   1.091   1.149
 2764SOL    HW2 9192   6.424   1.105   1.083
 2765SOL     OW 9193   6.749   0.369   0.316
 2765SOL    HW1 9194   6.844   0.352   0.342
 2765SOL    HW2 9195   6.726   0.311   0.238
 2766SOL     OW 9196   5.118   2.802   0.430
 2766SOL    HW1 9197   5.090   2.898   0.428
 2766SOL    HW2 9198   5.124   2.772   0.525
 2767SOL     OW 9199   6.263   4.878   0.455
 2767SOL    HW1 9200   6.253   4.972   0.490
 2767SOL    HW2 9201   6.359   4.859   0.437
 2768SOL     OW 9202   4.251   0.926   1.115
 2768SOL    HW1 9203   4.312   0.973   1.178
 2768SOL    HW2 9204   4.260   0.965   1.023
 2769SOL     OW 9205   1.792   4.831   5.814
 2769SOL    HW1 9206   1.854   4.853   5.739
 2769SOL    HW2 9207   1.829   4.755   5.867
 2770SOL     OW 9208   4.191   5.637   5.926
 2770SOL    HW1 9209   4.221   5.727   5.958
 2770SOL    HW2 9210   4.244   5.566   5.973
 2771SOL     OW 9211   6.234   0.878   3.744
 2771SOL    HW1 9212   6.228   0.947   3.817
 2771SOL    HW2 9213   6.219   0.787   3.783
 2772SOL     OW 9214   4.062   2.199   0.761
 2772SOL    HW1 9215   3.966   2.229   0.761
 2772SOL    HW2 9216   4.120   2.277   0.784
 2773SOL     OW 9217   5.979   1.845   4.603
 2773SOL    HW1 9218   5.900   1.867   4.660
 2773SOL    HW2 9219   5.980   1.905   4.523
 2774SOL     OW 9220   5.190   3.110   3.134
 2774SOL    HW1 9221   5.229   3.022   3.163
 2774SOL    HW2 9222   5.210   3.125   3.037
 2775SOL     OW 9223   6.552   4.279   5.290
 2775SOL    HW1 9224   6.625   4.344   5.309
 2775SOL    HW2 9225   6.487   4.279   5.366
 2776SOL     OW 9226   4.786   4.827   6.088
 2776SOL    HW1 9227   4.784   4.779   6.000
 2776SOL    HW2 9228   4.830   4.917   6.076
 2777SOL     OW 9229   2.853   1.692   1.180
 2777SOL    HW1 9230   2.888   1.638   1.256
 2777SOL    HW2 9231   2.843   1.787   1.209
 2778SOL     OW 9232   1.483   6.780   5.496
 2778SOL    HW1 9233   1.412   6.816   5.434
 2778SOL    HW2 9234   1.440   6.724   5.566
 2779SOL     OW 9235   5.178   6.588   2.080
 2779SOL    HW1 9236   5.088   6.578   2.036
 2779SOL    HW2 9237   5.214   6.679   2.061
 2780SOL     OW 9238   0.761   6.819   0.171
 2780SOL    HW1 9239   0.772   6.797   0.268
 2780SOL    HW2 9240   0.688   6.762   0.133
 2781SOL     OW 9241   5.908   0.446   2.097
 2781SOL    HW1 9242   5.973   0.383   2.055
 2781SOL    HW2 9243   5.948   0.538   2.101
 2782SOL     OW 9244   4.821   1.575   5.295
 2782SOL    HW1 9245   4.726   1.601   5.312
 2782SOL    HW2 9246   4.838   1.576   5.196
 2783SOL     OW 9247   4.998   4.117   2.790
 2783SOL    HW1 9248   5.003   4.024   2.753
 2783SOL    HW2 9249   5.084   4.139   2.836
 2784SOL     OW 9250   3.373   1.518   2.189
 2784SOL    HW1 9251   3.403   1.552   2.278
 2784SOL    HW2 9252   3.436   1.447   2.157
 2785SOL     OW 9253   5.382   2.578   0.924
 2785SOL    HW1 9254   5.349   2.487   0.949
 2785SOL    HW2 9255   5.479   2.585   0.943
 2786SOL     OW 9256   5.069   0.167   2.698
 2786SOL    HW1 9257   5.109   0.091   2.749
 2786SOL    HW2 9258   5.130   0.247   2.704
 2787SOL     OW 9259   5.558   0.355   6.272
 2787SOL    HW1 9260   5.466   0.392   6.262
 2787SOL    HW2 9261   5.582   0.348   6.368
 2788SOL     OW 9262   1.539   5.734   5.686
 2788SOL    HW1 9263   1.504   5.827   5.699
 2788SOL    HW2 9264   1.463   5.669   5.694
 2789SOL     OW 9265   1.088   2.208   4.043
 2789SOL    HW1 9266   1.165   2.215   3.979
 2789SOL    HW2 9267   1.074   2.296   4.087
 2790SOL     OW 9268   3.846   5.782   2.110
 2790SOL    HW1 9269   3.878   5.717   2.041
 2790SOL    HW2 9270   3.771   5.836   2.073
 2791SOL     OW 9271   0.774   2.704   2.901
 2791SOL    HW1 9272   0.867   2.718   2.866
 2791SOL    HW2 9273   0.760   2.765   2.980
 2792SOL     OW 9274   1.819   0.450   3.820
 2792SOL    HW1 9275   1.754   0.512   3.775
 2792SOL    HW2 9276   1.865   0.499   3.894
 2793SOL     OW 9277   5.053   4.082   1.511
 2793SOL    HW1 9278   5.112   4.013   1.471
 2793SOL    HW2 9279   5.101   4.125   1.588
 2794SOL     OW 9280   0.011   1.872   6.275
 2794SOL    HW1 9281   7.016   1.775   6.263
 2794SOL    HW2 9282   6.965   1.913   6.334
 2795SOL     OW 9283   0.872   3.116   0.789
 2795SOL    HW1 9284   0.914   3.145   0.875
 2795SOL    HW2 9285   0.864   3.016   0.788
 2796SOL     OW 9286   0.542   6.551   3.319
 2796SOL    HW1 9287   0.512   6.637   3.360
 2796SOL    HW2 9288   0.579   6.492   3.391
 2797SOL     OW 9289   4.911   5.500   4.655
 2797SOL    HW1 9290   4.931   5.404   4.675
 2797SOL    HW2 9291   4.865   5.506   4.567
 2798SOL     OW 9292   0.262   5.250   2.006
 2798SOL    HW1 9293   0.264   5.299   2.093
 2798SOL    HW2 9294   0.237   5.314   1.933
 2799SOL     OW 9295   5.996   5.771   6.064
 2799SOL    HW1 9296   5.945   5.800   6.145
 2799SOL    HW2 9297   6.087   5.740   6.090
 2800SOL     OW 9298   4.846   6.204   6.704
 2800SOL    HW1 9299   4.946   6.215   6.706
 2800SOL    HW2 9300   4.822   6.129   6.643
 2801SOL     OW 9301   6.768   5.853   5.688
 2801SOL    HW1 9302   6.714   5.822   5.611
 2801SOL    HW2 9303   6.826   5.930   5.659
 2802SOL     OW 9304   5.553   6.178   5.454
 2802SOL    HW1 9305   5.643   6.150   5.419
 2802SOL    HW2 9306   5.507   6.236   5.387
 2803SOL     OW 9307   4.293   5.417   6.093
 2803SOL    HW1 9308   4.334   5.437   6.182
 2803SOL    HW2 9309   4.257   5.323   6.093
 2804SOL     OW 9310   0.521   4.284   5.581
 2804SOL    HW1 9311   0.452   4.308   5.650
 2804SOL    HW2 9312   0.482   4.299   5.490
 2805SOL     OW 9313   6.159   3.474   2.202
 2805SOL    HW1 9314   6.147   3.448   2.298
 2805SOL    HW2 9315   6.205   3.400   2.153
 2806SOL     OW 9316   0.295   4.120   5.947
 2806SOL    HW1 9317   0.351   4.073   6.015
 2806SOL    HW2 9318   0.269   4.055   5.875
 2807SOL     OW 9319   3.666   0.186   4.349
 2807SOL    HW1 9320   3.575   0.192   4.306
 2807SOL    HW2 9321   3.733   0.160   4.280
 2808SOL     OW 9322   6.566   5.123   1.926
 2808SOL    HW1 9323   6.625   5.071   1.988
 2808SOL    HW2 9324   6.470   5.105   1.950
 2809SOL     OW 9325   5.283   2.909   1.053
 2809SOL    HW1 9326   5.368   2.881   1.009
 2809SOL    HW2 9327   5.288   2.887   1.151
 2810SOL     OW 9328   3.135   5.564   3.427
 2810SOL    HW1 9329   3.077   5.500   3.376
 2810SOL    HW2 9330   3.078   5.638   3.463
 2811SOL     OW 9331   1.085   2.125   4.293
 2811SOL    HW1 9332   1.086   2.130   4.193
 2811SOL    HW2 9333   1.117   2.211   4.332
 2812SOL     OW 9334   4.863   2.868   6.894
 2812SOL    HW1 9335   4.934   2.852   6.963
 2812SOL    HW2 9336   4.815   2.953   6.914
 2813SOL     OW 9337   0.842   0.517   6.389
 2813SOL    HW1 9338   0.861   0.422   6.364
 2813SOL    HW2 9339   0.912   0.577   6.350
 2814SOL     OW 9340   3.851   4.020   5.856
 2814SOL    HW1 9341   3.927   3.970   5.898
 2814SOL    HW2 9342   3.885   4.074   5.779
 2815SOL     OW 9343   6.747   5.858   6.487
 2815SOL    HW1 9344   6.795   5.833   6.403
 2815SOL    HW2 9345   6.693   5.941   6.471
 2816SOL     OW 9346   6.280   5.616   3.375
 2816SOL    HW1 9347   6.306   5.709   3.401
 2816SOL    HW2 9348   6.315   5.597   3.283
 2817SOL     OW 9349   3.390   0.142   1.704
 2817SOL    HW1 9350   3.376   0.234   1.666
 2817SOL    HW2 9351   3.351   0.138   1.796
 2818SOL     OW 9352   0.621   0.555   2.072
 2818SOL    HW1 9353   0.716   0.555   2.040
 2818SOL    HW2 9354   0.580   0.644   2.052
 2819SOL     OW 9355   1.965   0.754   1.596
 2819SOL    HW1 9356   1.879   0.770   1.644
 2819SOL    HW2 9357   2.013   0.841   1.585
 2820SOL     OW 9358   0.806   2.394   3.438
 2820SOL    HW1 9359   0.814   2.494   3.441
 2820SOL    HW2 9360   0.733   2.368   3.375
 2821SOL     OW 9361   3.666   4.438   6.128
 2821SOL    HW1 9362   3.746   4.436   6.069
 2821SOL    HW2 9363   3.668   4.359   6.190
 2822SOL     OW 9364   3.655   2.036   0.770
 2822SOL    HW1 9365   3.672   2.030   0.671
 2822SOL    HW2 9366   3.570   2.085   0.787
 2823SOL     OW 9367   5.292   0.756   1.002
 2823SOL    HW1 9368   5.317   0.813   1.080
 2823SOL    HW2 9369   5.235   0.809   0.939
 2824SOL     OW 9370   2.627   1.175   4.031
 2824SOL    HW1 9371   2.643   1.168   3.932
 2824SOL    HW2 9372   2.688   1.111   4.078
 2825SOL     OW 9373   5.122   6.198   6.688
 2825SOL    HW1 9374   5.188   6.161   6.754
 2825SOL    HW2 9375   5.162   6.277   6.641
 2826SOL     OW 9376   4.662   1.432   6.874
 2826SOL    HW1 9377   4.746   1.378   6.870
 2826SOL    HW2 9378   4.586   1.378   6.840
 2827SOL     OW 9379   0.832   1.387   6.519
 2827SOL    HW1 9380   0.737   1.381   6.490
 2827SOL    HW2 9381   0.872   1.473   6.485
 2828SOL     OW 9382   2.624   1.761   0.120
 2828SOL    HW1 9383   2.625   1.741   0.022
 2828SOL    HW2 9384   2.529   1.764   0.151
 2829SOL     OW 9385   2.978   3.215   4.705
 2829SOL    HW1 9386   3.035   3.132   4.709
 2829SOL    HW2 9387   2.904   3.201   4.640
 2830SOL     OW 9388   3.002   3.903   5.425
 2830SOL    HW1 9389   3.067   3.851   5.482
 2830SOL    HW2 9390   3.053   3.951   5.353
 2831SOL     OW 9391   0.835   4.255   3.260
 2831SOL    HW1 9392   0.874   4.216   3.344
 2831SOL    HW2 9393   0.876   4.345   3.243
 2832SOL     OW 9394   0.975   3.063   1.733
 2832SOL    HW1 9395   0.946   2.968   1.742
 2832SOL    HW2 9396   0.926   3.105   1.657
 2833SOL     OW 9397   2.843   1.904   2.072
 2833SOL    HW1 9398   2.793   1.970   2.128
 2833SOL    HW2 9399   2.782   1.829   2.047
 2834SOL     OW 9400   4.285   6.716   5.955
 2834SOL    HW1 9401   4.185   6.716   5.950
 2834SOL    HW2 9402   4.314   6.773   6.032
 2835SOL     OW 9403   0.431   5.875   1.436
 2835SOL    HW1 9404   0.399   5.911   1.523
 2835SOL    HW2 9405   0.519   5.829   1.449
 2836SOL     OW 9406   0.715   6.489   1.991
 2836SOL    HW1 9407   0.660   6.415   2.031
 2836SOL    HW2 9408   0.794   6.450   1.944
 2837SOL     OW 9409   4.550   4.403   2.313
 2837SOL    HW1 9410   4.507   4.378   2.227
 2837SOL    HW2 9411   4.607   4.484   2.300
 2838SOL     OW 9412   3.947   4.140   0.958
 2838SOL    HW1 9413   3.857   4.155   0.915
 2838SOL    HW2 9414   4.018   4.148   0.889
 2839SOL     OW 9415   6.811   2.050   2.652
 2839SOL    HW1 9416   6.789   2.147   2.641
 2839SOL    HW2 9417   6.829   2.031   2.749
 2840SOL     OW 9418   1.605   0.317   1.904
 2840SOL    HW1 9419   1.536   0.342   1.972
 2840SOL    HW2 9420   1.562   0.265   1.830
 2841SOL     OW 9421   0.015   1.356   6.242
 2841SOL    HW1 9422   0.101   1.317   6.274
 2841SOL    HW2 9423   0.019   1.368   6.143
 2842SOL     OW 9424   6.825   4.758   3.972
 2842SOL    HW1 9425   6.794   4.852   3.958
 2842SOL    HW2 9426   6.924   4.752   3.959
 2843SOL     OW 9427   2.252   1.915   3.056
 2843SOL    HW1 9428   2.205   2.003   3.047
 2843SOL    HW2 9429   2.301   1.912   3.143
 2844SOL     OW 9430   6.408   5.461   0.165
 2844SOL    HW1 9431   6.316   5.460   0.127
 2844SOL    HW2 9432   6.465   5.394   0.118
 2845SOL     OW 9433   5.906   3.230   2.157
 2845SOL    HW1 9434   5.938   3.236   2.062
 2845SOL    HW2 9435   5.857   3.313   2.181
 2846SOL     OW 9436   4.052   0.563   6.863
 2846SOL    HW1 9437   3.962   0.608   6.862
 2846SOL    HW2 9438   4.043   0.469   6.829
 2847SOL     OW 9439   5.587   4.272   3.063
 2847SOL    HW1 9440   5.665   4.234   3.114
 2847SOL    HW2 9441   5.571   4.217   2.981
 2848SOL     OW 9442   1.988   2.467   5.278
 2848SOL    HW1 9443   2.070   2.412   5.261
 2848SOL    HW2 9444   1.937   2.480   5.193
 2849SOL     OW 9445   4.304   0.493   0.942
 2849SOL    HW1 9446   4.355   0.442   0.873
 2849SOL    HW2 9447   4.240   0.432   0.988
 2850SOL     OW 9448   2.090   6.929   2.572
 2850SOL    HW1 9449   2.142   6.980   2.504
 2850SOL    HW2 9450   2.082   6.833   2.543
 2851SOL     OW 9451   5.537   2.258   5.866
 2851SOL    HW1 9452   5.455   2.246   5.923
 2851SOL    HW2 9453   5.528   2.341   5.812
 2852SOL     OW 9454   6.927   4.093   6.869
 2852SOL    HW1 9455   6.983   4.046   6.800
 2852SOL    HW2 9456   6.832   4.097   6.837
 2853SOL     OW 9457   1.834   1.982   6.257
 2853SOL    HW1 9458   1.827   2.049   6.183
 2853SOL    HW2 9459   1.764   2.002   6.326
 2854SOL     OW 9460   4.626   0.922   5.646
 2854SOL    HW1 9461   4.693   0.850   5.626
 2854SOL    HW2 9462   4.617   0.933   5.745
 2855SOL     OW 9463   2.011   1.990   5.755
 2855SOL    HW1 9464   1.994   2.011   5.659
 2855SOL    HW2 9465   2.109   1.980   5.770
 2856SOL     OW 9466   0.396   3.654   5.737
 2856SOL    HW1 9467   0.455   3.574   5.750
 2856SOL    HW2 9468   0.403   3.713   5.818
 2857SOL     OW 9469   2.037   2.806   1.587
 2857SOL    HW1 9470   2.066   2.749   1.663
 2857SOL    HW2 9471   2.046   2.903   1.611
 2858SOL     OW 9472   4.479   4.880   1.931
 2858SOL    HW1 9473   4.529   4.906   1.849
 2858SOL    HW2 9474   4.532   4.905   2.012
 2859SOL     OW 9475   6.104   0.066   6.937
 2859SOL    HW1 9476   6.093   0.097   0.007
 2859SOL    HW2 9477   6.054   7.004   6.925
 2860SOL     OW 9478   2.107   1.568   1.672
 2860SOL    HW1 9479   2.027   1.562   1.611
 2860SOL    HW2 9480   2.188   1.534   1.624
 2861SOL     OW 9481   3.315   5.053   6.021
 2861SOL    HW1 9482   3.278   4.973   5.974
 2861SOL    HW2 9483   3.272   5.061   6.112
 2862SOL     OW 9484   4.162   1.765   2.210
 2862SOL    HW1 9485   4.085   1.731   2.156
 2862SOL    HW2 9486   4.220   1.689   2.238
 2863SOL     OW 9487   4.969   1.838   6.893
 2863SOL    HW1 9488   5.052   1.894   6.884
 2863SOL    HW2 9489   4.980   1.753   6.843
 2864SOL     OW 9490   5.109   2.116   1.764
 2864SOL    HW1 9491   5.018   2.079   1.784
 2864SOL    HW2 9492   5.177   2.072   1.824
 2865SOL     OW 9493   4.319   6.216   4.626
 2865SOL    HW1 9494   4.247   6.176   4.682
 2865SOL    HW2 9495   4.297   6.312   4.606
 2866SOL     OW 9496   5.667   5.228   6.604
 2866SOL    HW1 9497   5.627   5.252   6.692
 2866SOL    HW2 9498   5.645   5.132   6.583
 2867SOL     OW 9499   6.146   6.287   2.889
 2867SOL    HW1 9500   6.178   6.382   2.886
 2867SOL    HW2 9501   6.046   6.286   2.879
 2868SOL     OW 9502   2.188   1.229   5.321
 2868SOL    HW1 9503   2.093   1.230   5.352
 2868SOL    HW2 9504   2.227   1.138   5.336
 2869SOL     OW 9505   6.990   0.831   3.019
 2869SOL    HW1 9506   7.014   0.866   3.109
 2869SOL    HW2 9507   6.896   0.796   3.020
 2870SOL     OW 9508   0.163   1.855   5.614
 2870SOL    HW1 9509   0.110   1.795   5.554
 2870SOL    HW2 9510   0.143   1.831   5.709
 2871SOL     OW 9511   6.500   1.451   0.044
 2871SOL    HW1 9512   6.445   1.534   0.032
 2871SOL    HW2 9513   6.532   1.419   6.980
 2872SOL     OW 9514   2.628   2.166   1.645
 2872SOL    HW1 9515   2.564   2.130   1.577
 2872SOL    HW2 9516   2.664   2.254   1.615
 2873SOL     OW 9517   7.010   5.644   2.553
 2873SOL    HW1 9518   0.045   5.717   2.587
 2873SOL    HW2 9519   7.021   5.562   2.609
 2874SOL     OW 9520   4.951   0.038   3.041
 2874SOL    HW1 9521   4.902   0.093   3.109
 2874SOL    HW2 9522   5.044   0.073   3.031
 2875SOL     OW 9523   5.543   0.325   1.856
 2875SOL    HW1 9524   5.614   0.394   1.870
 2875SOL    HW2 9525   5.505   0.336   1.764
 2876SOL     OW 9526   1.927   0.508   2.406
 2876SOL    HW1 9527   1.951   0.513   2.503
 2876SOL    HW2 9528   1.989   0.445   2.359
 2877SOL     OW 9529   2.303   1.481   5.268
 2877SOL    HW1 9530   2.235   1.529   5.212
 2877SOL    HW2 9531   2.263   1.395   5.301
 2878SOL     OW 9532   3.949   4.390   5.436
 2878SOL    HW1 9533   4.021   4.348   5.381
 2878SOL    HW2 9534   3.909   4.322   5.496
 2879SOL     OW 9535   5.250   4.877   6.537
 2879SOL    HW1 9536   5.180   4.861   6.607
 2879SOL    HW2 9537   5.314   4.946   6.569
 2880SOL     OW 9538   0.258   1.558   2.589
 2880SOL    HW1 9539   0.280   1.579   2.685
 2880SOL    HW2 9540   0.222   1.640   2.545
 2881SOL     OW 9541   4.457   6.075   6.325
 2881SOL    HW1 9542   4.373   6.056   6.274
 2881SOL    HW2 9543   4.472   6.004   6.394
 2882SOL     OW 9544   0.213   5.620   1.880
 2882SOL    HW1 9545   0.296   5.606   1.825
 2882SOL    HW2 9546   0.132   5.611   1.823
 2883SOL     OW 9547   6.151   0.508   3.422
 2883SOL    HW1 9548   6.200   0.511   3.335
 2883SOL    HW2 9549   6.206   0.461   3.491
 2884SOL     OW 9550   0.756   6.687   3.471
 2884SOL    HW1 9551   0.710   6.771   3.441
 2884SOL    HW2 9552   0.769   6.626   3.393
 2885SOL     OW 9553   1.836   3.721   3.793
 2885SOL    HW1 9554   1.908   3.779   3.755
 2885SOL    HW2 9555   1.753   3.774   3.808
 2886SOL     OW 9556   1.185   2.914   6.421
 2886SOL    HW1 9557   1.125   2.977   6.469
 2886SOL    HW2 9558   1.131   2.854   6.362
 2887SOL     OW 9559   0.621   0.444   5.787
 2887SOL    HW1 9560   0.652   0.536   5.809
 2887SOL    HW2 9561   0.527   0.448   5.751
 2888SOL     OW 9562   6.903   4.254   6.555
 2888SOL    HW1 9563   6.955   4.200   6.488
 2888SOL    HW2 9564   6.840   4.315   6.507
 2889SOL     OW 9565   2.826   6.466   2.444
 2889SOL    HW1 9566   2.924   6.450   2.446
 2889SOL    HW2 9567   2.809   6.562   2.420
 2890SOL     OW 9568   1.200   6.003   0.639
 2890SOL    HW1 9569   1.105   6.033   0.647
 2890SOL    HW2 9570   1.212   5.956   0.551
 2891SOL     OW 9571   0.491   4.763   3.188
 2891SOL    HW1 9572   0.572   4.724   3.234
 2891SOL    HW2 9573   0.467   4.706   3.110
 2892SOL     OW 9574   6.273   3.402   0.977
 2892SOL    HW1 9575   6.181   3.368   0.959
 2892SOL    HW2 9576   6.297   3.472   0.910
 2893SOL     OW 9577   0.218   5.521   4.363
 2893SOL    HW1 9578   0.290   5.574   4.409
 2893SOL    HW2 9579   0.181   5.575   4.288
 2894SOL     OW 9580   0.598   3.094   2.023
 2894SOL    HW1 9581   0.532   3.022   2.046
 2894SOL    HW2 9582   0.686   3.073   2.066
 2895SOL     OW 9583   5.122   1.709   5.517
 2895SOL    HW1 9584   5.069   1.630   5.548
 2895SOL    HW2 9585   5.163   1.688   5.428
 2896SOL     OW 9586   4.538   6.586   5.674
 2896SOL    HW1 9587   4.498   6.648   5.607
 2896SOL    HW2 9588   4.538   6.493   5.638
 2897SOL     OW 9589   3.852   4.876   3.039
 2897SOL    HW1 9590   3.806   4.915   3.119
 2897SOL    HW2 9591   3.788   4.820   2.988
 2898SOL     OW 9592   4.627   4.564   4.162
 2898SOL    HW1 9593   4.572   4.532   4.239
 2898SOL    HW2 9594   4.567   4.596   4.089
 2899SOL     OW 9595   0.704   2.008   0.315
 2899SOL    HW1 9596   0.802   1.998   0.301
 2899SOL    HW2 9597   0.657   2.008   0.227
 2900SOL     OW 9598   2.379   4.087   6.389
 2900SOL    HW1 9599   2.393   3.998   6.346
 2900SOL    HW2 9600   2.312   4.140   6.336
 2901SOL     OW 9601   1.948   4.716   3.334
 2901SOL    HW1 9602   1.850   4.716   3.355
 2901SOL    HW2 9603   1.974   4.627   3.296
 2902SOL     OW 9604   5.751   5.374   3.362
 2902SOL    HW1 9605   5.724   5.450   3.421
 2902SOL    HW2 9606   5.755   5.290   3.415
 2903SOL     OW 9607   3.838   0.321   0.449
 2903SOL    HW1 9608   3.821   0.405   0.397
 2903SOL    HW2 9609   3.751   0.285   0.484
 2904SOL     OW 9610   2.360   4.793   4.327
 2904SOL    HW1 9611   2.392   4.767   4.419
 2904SOL    HW2 9612   2.412   4.871   4.294
 2905SOL     OW 9613   1.373   3.190   4.841
 2905SOL    HW1 9614   1.363   3.221   4.936
 2905SOL    HW2 9615   1.318   3.107   4.827
 2906SOL     OW 9616   4.905   5.232   2.348
 2906SOL    HW1 9617   4.986   5.278   2.311
 2906SOL    HW2 9618   4.832   5.299   2.361
 2907SOL     OW 9619   0.450   1.384   3.696
 2907SOL    HW1 9620   0.418   1.313   3.759
 2907SOL    HW2 9621   0.456   1.346   3.603
 2908SOL     OW 9622   5.110   6.753   3.692
 2908SOL    HW1 9623   5.101   6.800   3.604
 2908SOL    HW2 9624   5.150   6.663   3.678
 2909SOL     OW 9625   1.454   5.287   4.066
 2909SOL    HW1 9626   1.400   5.293   3.982
 2909SOL    HW2 9627   1.395   5.257   4.142
 2910SOL     OW 9628   5.385   0.999   4.339
 2910SOL    HW1 9629   5.400   0.907   4.301
 2910SOL    HW2 9630   5.404   1.067   4.268
 2911SOL     OW 9631   1.214   5.915   3.631
 2911SOL    HW1 9632   1.231   5.880   3.538
 2911SOL    HW2 9633   1.220   5.840   3.696
 2912SOL     OW 9634   5.330   6.961   0.185
 2912SOL    HW1 9635   5.404   7.004   0.133
 2912SOL    HW2 9636   5.370   6.906   0.259
 2913SOL     OW 9637   3.243   5.145   2.210
 2913SOL    HW1 9638   3.236   5.162   2.112
 2913SOL    HW2 9639   3.292   5.059   2.226
 2914SOL     OW 9640   6.343   6.508   6.015
 2914SOL    HW1 9641   6.310   6.416   5.993
 2914SOL    HW2 9642   6.331   6.524   6.113
 2915SOL     OW 9643   3.379   2.041   4.009
 2915SOL    HW1 9644   3.438   2.059   3.931
 2915SOL    HW2 9645   3.294   2.092   3.999
 2916SOL     OW 9646   1.159   5.376   0.608
 2916SOL    HW1 9647   1.083   5.374   0.672
 2916SOL    HW2 9648   1.234   5.319   0.642
 2917SOL     OW 9649   2.478   0.420   2.967
 2917SOL    HW1 9650   2.418   0.474   3.027
 2917SOL    HW2 9651   2.573   0.439   2.990
 2918SOL     OW 9652   6.012   4.512   4.902
 2918SOL    HW1 9653   6.068   4.434   4.932
 2918SOL    HW2 9654   5.939   4.529   4.968
 2919SOL     OW 9655   5.453   0.870   2.409
 2919SOL    HW1 9656   5.443   0.905   2.502
 2919SOL    HW2 9657   5.507   0.786   2.410
 2920SOL     OW 9658   3.295   1.109   1.478
 2920SOL    HW1 9659   3.269   1.171   1.552
 2920SOL    HW2 9660   3.335   1.161   1.403
 2921SOL     OW 9661   0.788   6.918   4.686
 2921SOL    HW1 9662   0.808   6.853   4.613
 2921SOL    HW2 9663   0.849   6.902   4.764
 2922SOL     OW 9664   4.519   0.154   1.238
 2922SOL    HW1 9665   4.425   0.133   1.208
 2922SOL    HW2 9666   4.562   0.213   1.170
 2923SOL     OW 9667   6.230   4.867   2.752
 2923SOL    HW1 9668   6.161   4.796   2.738
 2923SOL    HW2 9669   6.245   4.880   2.850
 2924SOL     OW 9670   6.216   1.930   5.633
 2924SOL    HW1 9671   6.274   2.009   5.655
 2924SOL    HW2 9672   6.209   1.871   5.714
 2925SOL     OW 9673   4.725   1.704   2.079
 2925SOL    HW1 9674   4.660   1.640   2.118
 2925SOL    HW2 9675   4.700   1.797   2.106
 2926SOL     OW 9676   5.877   1.294   5.447
 2926SOL    HW1 9677   5.877   1.208   5.498
 2926SOL    HW2 9678   5.837   1.366   5.504
 2927SOL     OW 9679   1.674   3.877   1.361
 2927SOL    HW1 9680   1.613   3.835   1.293
 2927SOL    HW2 9681   1.682   3.975   1.341
 2928SOL     OW 9682   0.666   0.361   0.042
 2928SOL    HW1 9683   0.644   0.452   0.007
 2928SOL    HW2 9684   0.632   0.352   0.135
 2929SOL     OW 9685   1.182   1.890   6.512
 2929SOL    HW1 9686   1.146   1.817   6.569
 2929SOL    HW2 9687   1.160   1.872   6.416
 2930SOL     OW 9688   5.371   6.787   5.269
 2930SOL    HW1 9689   5.359   6.754   5.175
 2930SOL    HW2 9690   5.310   6.865   5.285
 2931SOL     OW 9691   5.538   4.668   0.072
 2931SOL    HW1 9692   5.578   4.591   0.121
 2931SOL    HW2 9693   5.504   4.637   7.008
 2932SOL     OW 9694   0.817   5.607   1.988
 2932SOL    HW1 9695   0.844   5.693   2.032
 2932SOL    HW2 9696   0.853   5.604   1.895
 2933SOL     OW 9697   0.771   5.414   2.999
 2933SOL    HW1 9698   0.693   5.476   3.012
 2933SOL    HW2 9699   0.748   5.324   3.034
 2934SOL     OW 9700   5.259   1.207   0.246
 2934SOL    HW1 9701   5.341   1.151   0.258
 2934SOL    HW2 9702   5.245   1.226   0.149
 2935SOL     OW 9703   0.363   2.760   6.987
 2935SOL    HW1 9704   0.297   2.799   6.922
 2935SOL    HW2 9705   0.345   2.796   0.054
 2936SOL     OW 9706   4.153   6.967   0.786
 2936SOL    HW1 9707   4.076   0.006   0.783
 2936SOL    HW2 9708   4.208   6.978   0.703
 2937SOL     OW 9709   5.376   4.412   1.455
 2937SOL    HW1 9710   5.363   4.489   1.516
 2937SOL    HW2 9711   5.371   4.443   1.360
 2938SOL     OW 9712   4.626   5.607   6.662
 2938SOL    HW1 9713   4.553   5.616   6.730
 2938SOL    HW2 9714   4.591   5.628   6.571
 2939SOL     OW 9715   2.091   0.584   2.616
 2939SOL    HW1 9716   2.178   0.560   2.658
 2939SOL    HW2 9717   2.106   0.624   2.526
 2940SOL     OW 9718   5.790   4.471   5.335
 2940SOL    HW1 9719   5.697   4.434   5.335
 2940SOL    HW2 9720   5.856   4.397   5.329
 2941SOL     OW 9721   1.154   2.329   4.452
 2941SOL    HW1 9722   1.191   2.406   4.401
 2941SOL    HW2 9723   1.204   2.318   4.538
 2942SOL     OW 9724   3.267   2.354   0.540
 2942SOL    HW1 9725   3.281   2.326   0.445
 2942SOL    HW2 9726   3.317   2.439   0.557
 2943SOL     OW 9727   5.725   4.259   3.506
 2943SOL    HW1 9728   5.818   4.226   3.491
 2943SOL    HW2 9729   5.660   4.202   3.457
 2944SOL     OW 9730   2.732   6.053   4.318
 2944SOL    HW1 9731   2.650   6.003   4.343
 2944SOL    HW2 9732   2.783   6.001   4.249
 2945SOL     OW 9733   3.092   3.562   3.085
 2945SOL    HW1 9734   3.039   3.582   3.002
 2945SOL    HW2 9735   3.092   3.463   3.102
 2946SOL     OW 9736   1.268   4.722   5.774
 2946SOL    HW1 9737   1.339   4.763   5.717
 2946SOL    HW2 9738   1.255   4.778   5.856
 2947SOL     OW 9739   0.488   4.325   1.207
 2947SOL    HW1 9740   0.514   4.325   1.110
 2947SOL    HW2 9741   0.390   4.309   1.215
 2948SOL     OW 9742   0.842   3.793   4.573
 2948SOL    HW1 9743   0.798   3.867   4.522
 2948SOL    HW2 9744   0.895   3.736   4.511
 2949SOL     OW 9745   2.467   5.328   0.790
 2949SOL    HW1 9746   2.389   5.266   0.784
 2949SOL    HW2 9747   2.514   5.331   0.701
 2950SOL     OW 9748   5.312   5.104   4.136
 2950SOL    HW1 9749   5.258   5.024   4.161
 2950SOL    HW2 9750   5.251   5.182   4.121
 2951SOL     OW 9751   5.308   1.536   2.239
 2951SOL    HW1 9752   5.289   1.567   2.146
 2951SOL    HW2 9753   5.350   1.445   2.236
 2952SOL     OW 9754   6.961   4.524   4.783
 2952SOL    HW1 9755   6.896   4.532   4.859
 2952SOL    HW2 9756   0.006   4.597   4.791
 2953SOL     OW 9757   5.433   3.707   2.430
 2953SOL    HW1 9758   5.354   3.660   2.391
 2953SOL    HW2 9759   5.456   3.665   2.518
 2954SOL     OW 9760   0.935   4.812   2.071
 2954SOL    HW1 9761   1.000   4.788   2.143
 2954SOL    HW2 9762   0.977   4.798   1.982
 2955SOL     OW 9763   0.766   3.621   1.854
 2955SOL    HW1 9764   0.804   3.693   1.797
 2955SOL    HW2 9765   0.782   3.644   1.951
 2956SOL     OW 9766   5.669   5.731   3.062
 2956SOL    HW1 9767   5.587   5.731   3.005
 2956SOL    HW2 9768   5.650   5.780   3.147
 2957SOL     OW 9769   5.629   4.017   1.591
 2957SOL    HW1 9770   5.680   3.931   1.593
 2957SOL    HW2 9771   5.692   4.093   1.606
 2958SOL     OW 9772   2.420   4.511   3.172
 2958SOL    HW1 9773   2.353   4.557   3.230
 2958SOL    HW2 9774   2.477   4.579   3.126
 2959SOL     OW 9775   5.359   3.641   0.369
 2959SOL    HW1 9776   5.410   3.664   0.286
 2959SOL    HW2 9777   5.286   3.708   0.383
 2960SOL     OW 9778   3.078   0.511   0.501
 2960SOL    HW1 9779   3.068   0.593   0.444
 2960SOL    HW2 9780   3.032   0.527   0.589
 2961SOL     OW 9781   5.637   3.763   3.028
 2961SOL    HW1 9782   5.626   3.774   3.127
 2961SOL    HW2 9783   5.676   3.847   2.990
 2962SOL     OW 9784   4.048   6.434   3.434
 2962SOL    HW1 9785   4.137   6.388   3.437
 2962SOL    HW2 9786   4.032   6.470   3.342
 2963SOL     OW 9787   2.004   1.150   5.708
 2963SOL    HW1 9788   2.023   1.208   5.787
 2963SOL    HW2 9789   1.946   1.073   5.735
 2964SOL     OW 9790   0.704   0.937   4.098
 2964SOL    HW1 9791   0.791   0.890   4.113
 2964SOL    HW2 9792   0.706   0.987   4.012
 2965SOL     OW 9793   0.200   0.669   4.487
 2965SOL    HW1 9794   0.184   0.596   4.421
 2965SOL    HW2 9795   0.181   0.757   4.443
 2966SOL     OW 9796   4.540   5.836   3.155
 2966SOL    HW1 9797   4.608   5.806   3.088
 2966SOL    HW2 9798   4.573   5.816   3.247
 2967SOL     OW 9799   6.433   0.631   5.290
 2967SOL    HW1 9800   6.436   0.544   5.243
 2967SOL    HW2 9801   6.342   0.672   5.280
 2968SOL     OW 9802   0.837   2.863   0.472
 2968SOL    HW1 9803   0.749   2.835   0.436
 2968SOL    HW2 9804   0.870   2.943   0.421
 2969SOL     OW 9805   5.004   2.384   4.250
 2969SOL    HW1 9806   5.045   2.317   4.311
 2969SOL    HW2 9807   5.075   2.443   4.212
 2970SOL     OW 9808   2.132   3.675   5.878
 2970SOL    HW1 9809   2.125   3.696   5.780
 2970SOL    HW2 9810   2.203   3.731   5.919
 2971SOL     OW 9811   5.216   4.572   0.119
 2971SOL    HW1 9812   5.290   4.529   0.170
 2971SOL    HW2 9813   5.184   4.653   0.169
 2972SOL     OW 9814   6.586   4.865   6.650
 2972SOL    HW1 9815   6.624   4.833   6.737
 2972SOL    HW2 9816   6.634   4.819   6.575
 2973SOL     OW 9817   5.405   6.409   2.078
 2973SOL    HW1 9818   5.478   6.433   2.142
 2973SOL    HW2 9819   5.321   6.457   2.104
 2974SOL     OW 9820   0.912   4.469   3.693
 2974SOL    HW1 9821   0.970   4.517   3.628
 2974SOL    HW2 9822   0.969   4.417   3.757
 2975SOL     OW 9823   5.378   3.292   3.686
 2975SOL    HW1 9824   5.367   3.197   3.655
 2975SOL    HW2 9825   5.305   3.348   3.647
 2976SOL     OW 9826   3.800   2.030   2.643
 2976SOL    HW1 9827   3.775   2.023   2.547
 2976SOL    HW2 9828   3.729   1.987   2.699
 2977SOL     OW 9829   2.285   6.764   2.246
 2977SOL    HW1 9830   2.244   6.674   2.232
 2977SOL    HW2 9831   2.374   6.754   2.289
 2978SOL     OW 9832   4.517   4.973   0.124
 2978SOL    HW1 9833   4.433   4.985   0.071
 2978SOL    HW2 9834   4.502   5.004   0.218
 2979SOL     OW 9835   3.250   0.780   4.170
 2979SOL    HW1 9836   3.246   0.722   4.089
 2979SOL    HW2 9837   3.210   0.732   4.248
 2980SOL     OW 9838   1.515   5.624   4.072
 2980SOL    HW1 9839   1.565   5.544   4.105
 2980SOL    HW2 9840   1.455   5.597   3.997
 2981SOL     OW 9841   2.713   1.047   6.097
 2981SOL    HW1 9842   2.683   1.141   6.078
 2981SOL    HW2 9843   2.634   0.987   6.103
 2982SOL     OW 9844   3.346   5.761   1.960
 2982SOL    HW1 9845   3.265   5.719   2.001
 2982SOL    HW2 9846   3.328   5.780   1.863
 2983SOL     OW 9847   0.167   1.335   2.465
 2983SOL    HW1 9848   0.211   1.417   2.501
 2983SOL    HW2 9849   0.229   1.257   2.475
 2984SOL     OW 9850   5.728   4.778   0.752
 2984SOL    HW1 9851   5.713   4.823   0.664
 2984SOL    HW2 9852   5.667   4.699   0.759
 2985SOL     OW 9853   1.692   2.899   5.399
 2985SOL    HW1 9854   1.711   2.965   5.326
 2985SOL    HW2 9855   1.778   2.858   5.430
 2986SOL     OW 9856   3.574   4.043   3.212
 2986SOL    HW1 9857   3.578   3.943   3.214
 2986SOL    HW2 9858   3.580   4.079   3.305
 2987SOL     OW 9859   0.429   1.591   3.953
 2987SOL    HW1 9860   0.525   1.578   3.929
 2987SOL    HW2 9861   0.375   1.603   3.870
 2988SOL     OW 9862   1.805   5.623   3.114
 2988SOL    HW1 9863   1.726   5.621   3.054
 2988SOL    HW2 9864   1.792   5.558   3.189
 2989SOL     OW 9865   5.427   5.846   5.718
 2989SOL    HW1 9866   5.372   5.926   5.740
 2989SOL    HW2 9867   5.474   5.860   5.631
 2990SOL     OW 9868   3.685   2.069   4.631
 2990SOL    HW1 9869   3.588   2.083   4.614
 2990SOL    HW2 9870   3.700   2.056   4.729
 2991SOL     OW 9871   6.838   3.623   5.538
 2991SOL    HW1 9872   6.847   3.667   5.627
 2991SOL    HW2 9873   6.742   3.602   5.521
 2992SOL     OW 9874   2.238   6.273   4.595
 2992SOL    HW1 9875   2.169   6.314   4.654
 2992SOL    HW2 9876   2.217   6.293   4.500
 2993SOL     OW 9877   0.746   4.883   1.086
 2993SOL    HW1 9878   0.692   4.959   1.048
 2993SOL    HW2 9879   0.841   4.912   1.095
 2994SOL     OW 9880   4.079   6.806   6.823
 2994SOL    HW1 9881   4.083   6.739   6.749
 2994SOL    HW2 9882   3.994   6.795   6.874
 2995SOL     OW 9883   2.841   1.579   6.046
 2995SOL    HW1 9884   2.757   1.525   6.049
 2995SOL    HW2 9885   2.902   1.541   5.976
 2996SOL     OW 9886   1.554   1.511   4.368
 2996SOL    HW1 9887   1.532   1.528   4.464
 2996SOL    HW2 9888   1.471   1.480   4.320
 2997SOL     OW 9889   5.607   0.016   3.332
 2997SOL    HW1 9890   5.526   6.982   3.332
 2997SOL    HW2 9891   5.688   6.985   3.317
 2998SOL     OW 9892   4.412   0.197   3.919
 2998SOL    HW1 9893   4.439   0.155   3.832
 2998SOL    HW2 9894   4.486   0.186   3.985
 2999SOL     OW 9895   2.364   5.201   4.782
 2999SOL    HW1 9896   2.458   5.183   4.811
 2999SOL    HW2 9897   2.301   5.178   4.857
 3000SOL     OW 9898   3.420   3.639   6.290
 3000SOL    HW1 9899   3.406   3.690   6.375
 3000SOL    HW2 9900   3.365   3.679   6.217
 3001SOL     OW 9901   0.030   0.297   6.093
 3001SOL    HW1 9902   0.012   0.393   6.073
 3001SOL    HW2 9903   0.086   0.290   6.175
 3002SOL     OW 9904   3.054   1.675   0.002
 3002SOL    HW1 9905   3.016   1.618   6.954
 3002SOL    HW2 9906   3.127   1.732   6.988
 3003SOL     OW 9907   1.402   6.818   0.695
 3003SOL    HW1 9908   1.324   6.861   0.648
 3003SOL    HW2 9909   1.476   6.804   0.629
 3004SOL     OW 9910   0.418   4.244   3.597
 3004SOL    HW1 9911   0.358   4.313   3.556
 3004SOL    HW2 9912   0.507   4.285   3.616
 3005SOL     OW 9913   1.985   1.778   0.687
 3005SOL    HW1 9914   1.951   1.872   0.694
 3005SOL    HW2 9915   1.920   1.724   0.634
 3006SOL     OW 9916   5.358   1.552   4.839
 3006SOL    HW1 9917   5.455   1.559   4.814
 3006SOL    HW2 9918   5.350   1.540   4.938
 3007SOL     OW 9919   5.172   4.341   0.366
 3007SOL    HW1 9920   5.199   4.294   0.450
 3007SOL    HW2 9921   5.166   4.276   0.291
 3008SOL     OW 9922   3.781   2.440   5.711
 3008SOL    HW1 9923   3.854   2.480   5.656
 3008SOL    HW2 9924   3.815   2.422   5.803
 3009SOL     OW 9925   7.007   1.668   2.610
 3009SOL    HW1 9926   6.995   1.586   2.666
 3009SOL    HW2 9927   0.027   1.740   2.664
 3010SOL     OW 9928   3.875   5.425   3.509
 3010SOL    HW1 9929   3.943   5.361   3.472
 3010SOL    HW2 9930   3.784   5.387   3.497
 3011SOL     OW 9931   6.292   1.698   2.589
 3011SOL    HW1 9932   6.307   1.601   2.570
 3011SOL    HW2 9933   6.241   1.739   2.513
 3012SOL     OW 9934   1.883   3.382   5.970
 3012SOL    HW1 9935   1.886   3.299   6.026
 3012SOL    HW2 9936   1.924   3.364   5.881
 3013SOL     OW 9937   5.154   5.350   3.740
 3013SOL    HW1 9938   5.204   5.395   3.815
 3013SOL    HW2 9939   5.191   5.258   3.726
 3014SOL     OW 9940   4.383   2.165   4.595
 3014SOL    HW1 9941   4.463   2.108   4.574
 3014SOL    HW2 9942   4.331   2.182   4.512
 3015SOL     OW 9943   3.119   1.532   0.275
 3015SOL    HW1 9944   3.085   1.519   0.182
 3015SOL    HW2 9945   3.095   1.623   0.307
 3016SOL     OW 9946   2.496   6.457   3.838
 3016SOL    HW1 9947   2.583   6.434   3.794
 3016SOL    HW2 9948   2.426   6.472   3.768
 3017SOL     OW 9949   6.448   4.967   2.423
 3017SOL    HW1 9950   6.520   4.963   2.354
 3017SOL    HW2 9951   6.425   4.874   2.453
 3018SOL     OW 9952   3.000   6.755   6.050
 3018SOL    HW1 9953   3.000   6.668   6.099
 3018SOL    HW2 9954   3.003   6.830   6.116
 3019SOL     OW 9955   0.713   6.677   0.416
 3019SOL    HW1 9956   0.650   6.616   0.368
 3019SOL    HW2 9957   0.731   6.642   0.508
 3020SOL     OW 9958   3.865   2.574   1.526
 3020SOL    HW1 9959   3.846   2.509   1.453
 3020SOL    HW2 9960   3.962   2.600   1.525
 3021SOL     OW 9961   3.046   0.157   6.019
 3021SOL    HW1 9962   3.022   0.249   6.051
 3021SOL    HW2 9963   2.962   0.105   6.003
 3022SOL     OW 9964   4.049   5.208   5.026
 3022SOL    HW1 9965   4.115   5.147   5.069
 3022SOL    HW2 9966   3.956   5.176   5.046
 3023SOL     OW 9967   4.103   6.869   2.659
 3023SOL    HW1 9968   4.112   6.873   2.758
 3023SOL    HW2 9969   4.006   6.867   2.634
 3024SOL     OW 9970   5.097   0.485   4.569
 3024SOL    HW1 9971   5.048   0.551   4.627
 3024SOL    HW2 9972   5.090   0.513   4.474
 3025SOL     OW 9973   3.890   6.794   0.494
 3025SOL    HW1 9974   3.845   6.709   0.468
 3025SOL    HW2 9975   3.901   6.797   0.593
 3026SOL     OW 9976   1.316   0.381   6.424
 3026SOL    HW1 9977   1.415   0.366   6.420
 3026SOL    HW2 9978   1.294   0.473   6.391
 3027SOL     OW 9979   3.965   1.133   3.307
 3027SOL    HW1 9980   4.063   1.125   3.323
 3027SOL    HW2 9981   3.947   1.210   3.246
 3028SOL     OW 9982   1.329   3.764   6.149
 3028SOL    HW1 9983   1.289   3.676   6.122
 3028SOL    HW2 9984   1.318   3.830   6.075
 3029SOL     OW 9985   0.271   2.281   5.526
 3029SOL    HW1 9986   0.222   2.205   5.567
 3029SOL    HW2 9987   0.368   2.277   5.550
 3030SOL     OW 9988   0.615   3.318   0.223
 3030SOL    HW1 9989   0.668   3.396   0.190
 3030SOL    HW2 9990   0.565   3.344   0.305
 3031SOL     OW 9991   0.085   4.313   1.589
 3031SOL    HW1 9992   0.088   4.233   1.649
 3031SOL    HW2 9993   0.094   4.283   1.494
 3032SOL     OW 9994   2.844   6.411   1.514
 3032SOL    HW1 9995   2.789   6.365   1.583
 3032SOL    HW2 9996   2.846   6.356   1.430
 3033SOL     OW 9997   5.430   1.842   1.386
 3033SOL    HW1 9998   5.389   1.905   1.321
 3033SOL    HW2 9999   5.394   1.860   1.478
 3034SOL     OW10000   1.763   6.301   2.752
 3034SOL    HW110001   1.826   6.224   2.765
 3034SOL    HW210002   1.674   6.278   2.793
 3035SOL     OW10003   0.227   2.891   6.796
 3035SOL    HW110004   0.318   2.915   6.763
 3035SOL    HW210005   0.179   2.840   6.725
 3036SOL     OW10006   2.295   1.924   6.343
 3036SOL    HW110007   2.243   1.936   6.258
 3036SOL    HW210008   2.239   1.950   6.421
 3037SOL     OW10009   5.857   5.786   6.296
 3037SOL    HW110010   5.821   5.698   6.326
 3037SOL    HW210011   5.787   5.857   6.308
 3038SOL     OW10012   4.922   5.718   5.630
 3038SOL    HW110013   4.992   5.651   5.605
 3038SOL    HW210014   4.860   5.678   5.698
 3039SOL     OW10015   6.986   3.479   0.846
 3039SOL    HW110016   7.017   3.414   0.916
 3039SOL    HW210017   6.980   3.433   0.758
 3040SOL     OW10018   3.661   3.696   6.191
 3040SOL    HW110019   3.654   3.671   6.094
 3040SOL    HW210020   3.588   3.651   6.242
 3041SOL     OW10021   2.185   3.218   4.723
 3041SOL    HW110022   2.262   3.275   4.752
 3041SOL    HW210023   2.116   3.216   4.795
 3042SOL     OW10024   5.291   5.697   2.515
 3042SOL    HW110025   5.323   5.677   2.608
 3042SOL    HW210026   5.237   5.781   2.516
 3043SOL     OW10027   2.439   4.081   1.652
 3043SOL    HW110028   2.384   4.012   1.700
 3043SOL    HW210029   2.521   4.038   1.614
 3044SOL     OW10030   3.675   4.851   5.544
 3044SOL    HW110031   3.740   4.776   5.539
 3044SOL    HW210032   3.641   4.860   5.638
 3045SOL     OW10033   4.892   6.942   3.353
 3045SOL    HW110034   4.859   7.021   3.302
 3045SOL    HW210035   4.835   6.862   3.331
 3046SOL     OW10036   2.283   1.096   5.671
 3046SOL    HW110037   2.348   1.151   5.619
 3046SOL    HW210038   2.190   1.122   5.646
 3047SOL     OW10039   5.702   0.499   1.571
 3047SOL    HW110040   5.797   0.497   1.599
 3047SOL    HW210041   5.670   0.405   1.555
 3048SOL     OW10042   3.969   2.351   1.719
 3048SOL    HW110043   3.873   2.373   1.739
 3048SOL    HW210044   4.020   2.344   1.805
 3049SOL     OW10045   1.404   7.021   2.519
 3049SOL    HW110046   1.491   6.975   2.534
 3049SOL    HW210047   1.392   0.015   2.421
 3050SOL     OW10048   3.614   1.347   2.149
 3050SOL    HW110049   3.712   1.343   2.128
 3050SOL    HW210050   3.582   1.255   2.172
 3051SOL     OW10051   1.661   5.543   6.286
 3051SOL    HW110052   1.682   5.590   6.200
 3051SOL    HW210053   1.645   5.446   6.269
 3052SOL     OW10054   5.142   5.377   2.385
 3052SOL    HW110055   5.088   5.390   2.468
 3052SOL    HW210056   5.159   5.466   2.343
 3053SOL     OW10057   6.754   2.211   0.590
 3053SOL    HW110058   6.846   2.197   0.552
 3053SOL    HW210059   6.756   2.189   0.688
 3054SOL     OW10060   6.680   2.320   1.122
 3054SOL    HW110061   6.597   2.347   1.171
 3054SOL    HW210062   6.722   2.242   1.169
 3055SOL     OW10063   4.429   0.652   4.864
 3055SOL    HW110064   4.448   0.678   4.958
 3055SOL    HW210065   4.445   0.554   4.852
 3056SOL     OW10066   6.808   0.054   5.274
 3056SOL    HW110067   6.871   7.011   5.235
 3056SOL    HW210068   6.860   0.133   5.307
 3057SOL     OW10069   4.670   5.966   2.719
 3057SOL    HW110070   4.611   6.018   2.781
 3057SOL    HW210071   4.614   5.915   2.655
 3058SOL     OW10072   0.001   4.688   1.203
 3058SOL    HW110073   0.074   4.725   1.260
 3058SOL    HW210074   6.966   4.762   1.171
 3059SOL     OW10075   2.634   2.370   4.078
 3059SOL    HW110076   2.718   2.407   4.116
 3059SOL    HW210077   2.644   2.358   3.979
 3060SOL     OW10078   1.573   5.002   0.364
 3060SOL    HW110079   1.484   5.036   0.333
 3060SOL    HW210080   1.566   4.977   0.461
 3061SOL     OW10081   0.382   6.540   5.843
 3061SOL    HW110082   0.402   6.610   5.912
 3061SOL    HW210083   0.381   6.582   5.752
 3062SOL     OW10084   1.875   0.046   0.294
 3062SOL    HW110085   1.791   0.069   0.345
 3062SOL    HW210086   1.931   0.128   0.284
 3063SOL     OW10087   2.351   4.915   2.174
 3063SOL    HW110088   2.331   4.998   2.224
 3063SOL    HW210089   2.302   4.838   2.216
 3064SOL     OW10090   4.836   3.655   1.952
 3064SOL    HW110091   4.774   3.625   2.024
 3064SOL    HW210092   4.850   3.580   1.887
 3065SOL     OW10093   1.831   1.525   0.216
 3065SOL    HW110094   1.769   1.447   0.215
 3065SOL    HW210095   1.925   1.493   0.224
 3066SOL     OW10096   4.607   4.702   0.558
 3066SOL    HW110097   4.547   4.691   0.637
 3066SOL    HW210098   4.703   4.693   0.587
 3067SOL     OW10099   3.902   1.235   5.631
 3067SOL    HW110100   3.817   1.192   5.600
 3067SOL    HW210101   3.976   1.167   5.632
 3068SOL     OW10102   6.682   0.095   0.535
 3068SOL    HW110103   6.660   0.188   0.566
 3068SOL    HW210104   6.598   0.047   0.512
 3069SOL     OW10105   6.502   5.789   1.493
 3069SOL    HW110106   6.566   5.855   1.454
 3069SOL    HW210107   6.535   5.761   1.583
 3070SOL     OW10108   2.935   1.345   6.820
 3070SOL    HW110109   2.867   1.287   6.864
 3070SOL    HW210110   2.914   1.441   6.839
 3071SOL     OW10111   6.707   6.387   2.991
 3071SOL    HW110112   6.641   6.459   3.009
 3071SOL    HW210113   6.799   6.425   2.991
 3072SOL     OW10114   2.628   6.027   6.353
 3072SOL    HW110115   2.539   6.063   6.380
 3072SOL    HW210116   2.669   6.088   6.286
 3073SOL     OW10117   6.254   3.551   4.800
 3073SOL    HW110118   6.235   3.474   4.861
 3073SOL    HW210119   6.169   3.601   4.782
 3074SOL     OW10120   6.066   3.720   1.098
 3074SOL    HW110121   6.119   3.739   1.016
 3074SOL    HW210122   6.120   3.663   1.160
 3075SOL     OW10123   2.708   5.548   1.598
 3075SOL    HW110124   2.803   5.550   1.568
 3075SOL    HW210125   2.649   5.529   1.520
 3076SOL     OW10126   6.608   0.233   3.740
 3076SOL    HW110127   6.606   0.151   3.682
 3076SOL    HW210128   6.559   0.307   3.694
 3077SOL     OW10129   5.909   4.767   1.241
 3077SOL    HW110130   5.912   4.827   1.321
 3077SOL    HW210131   5.998   4.767   1.196
 3078SOL     OW10132   0.709   2.914   3.076
 3078SOL    HW110133   0.745   2.922   3.169
 3078SOL    HW210134   0.615   2.882   3.080
 3079SOL     OW10135   2.562   2.486   2.769
 3079SOL    HW110136   2.502   2.530   2.836
 3079SOL    HW210137   2.521   2.495   2.678
 3080SOL     OW10138   5.298   5.211   2.220
 3080SOL    HW110139   5.249   5.257   2.293
 3080SOL    HW210140   5.236   5.150   2.171
 3081SOL     OW10141   0.839   2.560   5.640
 3081SOL    HW110142   0.845   2.589   5.545
 3081SOL    HW210143   0.754   2.595   5.680
 3082SOL     OW10144   2.351   5.515   3.632
 3082SOL    HW110145   2.332   5.608   3.663
 3082SOL    HW210146   2.414   5.471   3.696
 3083SOL     OW10147   3.090   6.383   3.985
 3083SOL    HW110148   3.116   6.301   3.933
 3083SOL    HW210149   3.106   6.367   4.082
 3084SOL     OW10150   6.425   3.539   4.052
 3084SOL    HW110151   6.470   3.584   3.976
 3084SOL    HW210152   6.494   3.506   4.117
 3085SOL     OW10153   5.758   4.653   0.359
 3085SOL    HW110154   5.793   4.617   0.446
 3085SOL    HW210155   5.827   4.640   0.288
 3086SOL     OW10156   5.055   1.300   1.250
 3086SOL    HW110157   5.024   1.233   1.318
 3086SOL    HW210158   5.013   1.280   1.162
 3087SOL     OW10159   1.685   6.073   4.180
 3087SOL    HW110160   1.637   5.987   4.196
 3087SOL    HW210161   1.783   6.059   4.192
 3088SOL     OW10162   2.175   4.706   4.958
 3088SOL    HW110163   2.119   4.720   4.876
 3088SOL    HW210164   2.264   4.749   4.945
 3089SOL     OW10165   1.959   2.840   5.779
 3089SOL    HW110166   1.946   2.750   5.739
 3089SOL    HW210167   1.967   2.832   5.878
 3090SOL     OW10168   2.433   1.928   1.558
 3090SOL    HW110169   2.371   1.881   1.621
 3090SOL    HW210170   2.517   1.874   1.547
 3091SOL     OW10171   1.992   0.199   1.548
 3091SOL    HW110172   2.076   0.251   1.564
 3091SOL    HW210173   1.926   0.219   1.620
 3092SOL     OW10174   5.119   1.429   0.457
 3092SOL    HW110175   5.188   1.442   0.385
 3092SOL    HW210176   5.150   1.357   0.519
 3093SOL     OW10177   5.229   6.369   6.514
 3093SOL    HW110178   5.203   6.466   6.515
 3093SOL    HW210179   5.282   6.349   6.432
 3094SOL     OW10180   1.831   6.888   4.132
 3094SOL    HW110181   1.897   6.823   4.094
 3094SOL    HW210182   1.870   6.980   4.131
 3095SOL     OW10183   2.365   5.146   5.120
 3095SOL    HW110184   2.395   5.073   5.182
 3095SOL    HW210185   2.412   5.231   5.143
 3096SOL     OW10186   0.528   5.223   5.533
 3096SOL    HW110187   0.483   5.256   5.450
 3096SOL    HW210188   0.521   5.123   5.537
 3097SOL     OW10189   5.458   2.222   0.133
 3097SOL    HW110190   5.499   2.234   0.043
 3097SOL    HW210191   5.359   2.209   0.123
 3098SOL     OW10192   2.161   2.702   1.816
 3098SOL    HW110193   2.172   2.780   1.877
 3098SOL    HW210194   2.216   2.625   1.849
 3099SOL     OW10195   0.790   0.078   3.478
 3099SOL    HW110196   0.768   0.040   3.388
 3099SOL    HW210197   0.712   0.067   3.539
 3100SOL     OW10198   6.914   6.232   3.458
 3100SOL    HW110199   6.826   6.249   3.414
 3100SOL    HW210200   6.978   6.195   3.391
 3101SOL     OW10201   6.155   6.263   0.197
 3101SOL    HW110202   6.250   6.232   0.192
 3101SOL    HW210203   6.104   6.206   0.261
 3102SOL     OW10204   6.491   5.370   2.518
 3102SOL    HW110205   6.507   5.284   2.566
 3102SOL    HW210206   6.578   5.405   2.483
 3103SOL     OW10207   4.655   0.907   2.150
 3103SOL    HW110208   4.710   0.824   2.153
 3103SOL    HW210209   4.635   0.930   2.055
 3104SOL     OW10210   5.371   1.254   5.437
 3104SOL    HW110211   5.426   1.172   5.452
 3104SOL    HW210212   5.277   1.237   5.465
 3105SOL     OW10213   5.344   4.424   1.174
 3105SOL    HW110214   5.435   4.382   1.184
 3105SOL    HW210215   5.278   4.353   1.150
 3106SOL     OW10216   4.492   0.757   3.767
 3106SOL    HW110217   4.545   0.803   3.695
 3106SOL    HW210218   4.421   0.819   3.801
 3107SOL     OW10219   4.611   2.005   5.000
 3107SOL    HW110220   4.581   2.094   4.966
 3107SOL    HW210221   4.568   1.933   4.946
 3108SOL     OW10222   1.983   6.226   4.330
 3108SOL    HW110223   1.916   6.182   4.389
 3108SOL    HW210224   1.971   6.194   4.236
 3109SOL     OW10225   5.442   6.098   3.959
 3109SOL    HW110226   5.503   6.139   3.891
 3109SOL    HW210227   5.496   6.075   4.041
 3110SOL     OW10228   0.976   3.063   2.741
 3110SOL    HW110229   0.922   3.130   2.792
 3110SOL    HW210230   0.916   3.008   2.683
 3111SOL     OW10231   0.176   4.857   3.453
 3111SOL    HW110232   0.242   4.799   3.499
 3111SOL    HW210233   0.083   4.833   3.483
 3112SOL     OW10234   4.009   3.053   6.972
 3112SOL    HW110235   4.047   3.073   6.881
 3112SOL    HW210236   4.082   3.054   0.015
 3113SOL     OW10237   2.668   4.668   3.438
 3113SOL    HW110238   2.602   4.741   3.418
 3113SOL    HW210239   2.624   4.579   3.425
 3114SOL     OW10240   3.810   2.270   0.761
 3114SOL    HW110241   3.742   2.342   0.776
 3114SOL    HW210242   3.764   2.183   0.745
 3115SOL     OW10243   4.132   4.571   6.183
 3115SOL    HW110244   4.150   4.492   6.242
 3115SOL    HW210245   4.034   4.578   6.166
 3116SOL     OW10246   6.952   3.019   0.661
 3116SOL    HW110247   6.935   2.922   0.675
 3116SOL    HW210248   6.945   3.041   0.564
 3117SOL     OW10249   4.647   3.980   5.270
 3117SOL    HW110250   4.696   3.894   5.258
 3117SOL    HW210251   4.558   3.963   5.311
 3118SOL     OW10252   0.713   5.468   2.213
 3118SOL    HW110253   0.691   5.382   2.167
 3118SOL    HW210254   0.725   5.540   2.144
 3119SOL     OW10255   2.496   3.103   6.520
 3119SOL    HW110256   2.474   3.177   6.584
 3119SOL    HW210257   2.476   3.134   6.427
 3120SOL     OW10258   3.156   0.418   5.360
 3120SOL    HW110259   3.169   0.433   5.458
 3120SOL    HW210260   3.225   0.354   5.326
 3121SOL     OW10261   0.277   0.931   3.487
 3121SOL    HW110262   0.370   0.900   3.507
 3121SOL    HW210263   0.262   1.020   3.529
 3122SOL     OW10264   3.973   5.402   6.072
 3122SOL    HW110265   3.880   5.427   6.099
 3122SOL    HW210266   4.033   5.482   6.080
 3123SOL     OW10267   1.629   1.911   3.106
 3123SOL    HW110268   1.584   1.948   3.025
 3123SOL    HW210269   1.728   1.919   3.095
 3124SOL     OW10270   5.067   0.205   4.592
 3124SOL    HW110271   4.970   0.183   4.602
 3124SOL    HW210272   5.084   0.296   4.628
 3125SOL     OW10273   0.904   2.689   4.812
 3125SOL    HW110274   0.901   2.758   4.739
 3125SOL    HW210275   0.818   2.692   4.864
 3126SOL     OW10276   5.614   3.953   5.785
 3126SOL    HW110277   5.646   4.047   5.800
 3126SOL    HW210278   5.684   3.902   5.734
 3127SOL     OW10279   0.949   2.963   5.738
 3127SOL    HW110280   0.969   3.036   5.804
 3127SOL    HW210281   1.035   2.929   5.699
 3128SOL     OW10282   3.262   0.881   6.572
 3128SOL    HW110283   3.219   0.798   6.607
 3128SOL    HW210284   3.191   0.945   6.541
 3129SOL     OW10285   6.309   3.583   0.119
 3129SOL    HW110286   6.293   3.544   0.028
 3129SOL    HW210287   6.315   3.508   0.185
 3130SOL     OW10288   1.656   4.149   1.356
 3130SOL    HW110289   1.721   4.186   1.422
 3130SOL    HW210290   1.563   4.152   1.394
 3131SOL     OW10291   0.513   3.422   2.301
 3131SOL    HW110292   0.479   3.430   2.207
 3131SOL    HW210293   0.612   3.409   2.299
 3132SOL     OW10294   3.665   5.840   6.264
 3132SOL    HW110295   3.704   5.830   6.173
 3132SOL    HW210296   3.736   5.867   6.328
 3133SOL     OW10297   3.156   1.407   3.172
 3133SOL    HW110298   3.211   1.374   3.249
 3133SOL    HW210299   3.068   1.360   3.172
 3134SOL     OW10300   4.677   4.199   1.722
 3134SOL    HW110301   4.593   4.225   1.770
 3134SOL    HW210302   4.672   4.103   1.696
 3135SOL     OW10303   4.456   1.094   4.853
 3135SOL    HW110304   4.414   1.182   4.875
 3135SOL    HW210305   4.421   1.024   4.916
 3136SOL     OW10306   5.488   0.657   1.988
 3136SOL    HW110307   5.427   0.736   1.977
 3136SOL    HW210308   5.452   0.598   2.060
 3137SOL     OW10309   6.751   0.805   2.217
 3137SOL    HW110310   6.734   0.814   2.119
 3137SOL    HW210311   6.773   0.710   2.239
 3138SOL     OW10312   6.285   4.636   3.496
 3138SOL    HW110313   6.363   4.619   3.436
 3138SOL    HW210314   6.296   4.724   3.541
 3139SOL     OW10315   4.511   6.081   0.675
 3139SOL    HW110316   4.460   6.073   0.761
 3139SOL    HW210317   4.605   6.050   0.688
 3140SOL     OW10318   6.426   7.010   0.431
 3140SOL    HW110319   6.333   7.013   0.394
 3140SOL    HW210320   6.476   6.935   0.389
 3141SOL     OW10321   0.647   6.790   6.719
 3141SOL    HW110322   0.583   6.860   6.686
 3141SOL    HW210323   0.725   6.836   6.762
 3142SOL     OW10324   3.595   0.187   2.236
 3142SOL    HW110325   3.671   0.213   2.177
 3142SOL    HW210326   3.593   0.088   2.247
 3143SOL     OW10327   6.405   2.285   0.194
 3143SOL    HW110328   6.375   2.266   0.288
 3143SOL    HW210329   6.366   2.216   0.133
 3144SOL     OW10330   3.701   4.005   1.644
 3144SOL    HW110331   3.750   4.042   1.565
 3144SOL    HW210332   3.709   3.905   1.645
 3145SOL     OW10333   2.196   5.831   1.406
 3145SOL    HW110334   2.256   5.827   1.326
 3145SOL    HW210335   2.199   5.922   1.446
 3146SOL     OW10336   1.311   1.049   4.090
 3146SOL    HW110337   1.224   1.092   4.068
 3146SOL    HW210338   1.379   1.119   4.110
 3147SOL     OW10339   3.380   5.410   1.214
 3147SOL    HW110340   3.479   5.421   1.202
 3147SOL    HW210341   3.347   5.338   1.153
 3148SOL     OW10342   6.323   6.180   3.690
 3148SOL    HW110343   6.364   6.170   3.781
 3148SOL    HW210344   6.247   6.244   3.695
 3149SOL     OW10345   2.691   1.069   5.165
 3149SOL    HW110346   2.698   0.976   5.129
 3149SOL    HW210347   2.724   1.133   5.097
 3150SOL     OW10348   6.109   5.459   4.483
 3150SOL    HW110349   6.018   5.498   4.500
 3150SOL    HW210350   6.169   5.531   4.447
 3151SOL     OW10351   6.983   1.193   5.413
 3151SOL    HW110352   6.923   1.273   5.409
 3151SOL    HW210353   7.000   1.159   5.321
 3152SOL     OW10354   1.342   5.348   0.867
 3152SOL    HW110355   1.378   5.311   0.781
 3152SOL    HW210356   1.396   5.314   0.943
 3153SOL     OW10357   6.058   5.029   0.703
 3153SOL    HW110358   5.995   5.029   0.626
 3153SOL    HW210359   6.085   4.935   0.724
 3154SOL     OW10360   6.407   1.596   6.511
 3154SOL    HW110361   6.505   1.573   6.511
 3154SOL    HW210362   6.353   1.515   6.490
 3155SOL     OW10363   6.740   4.431   0.435
 3155SOL    HW110364   6.803   4.353   0.427
 3155SOL    HW210365   6.689   4.423   0.521
 3156SOL     OW10366   3.437   3.121   3.351
 3156SOL    HW110367   3.498   3.062   3.404
 3156SOL    HW210368   3.343   3.088   3.359
 3157SOL     OW10369   2.754   2.085   5.142
 3157SOL    HW110370   2.730   2.179   5.167
 3157SOL    HW210371   2.851   2.080   5.118
 3158SOL     OW10372   3.441   1.550   3.384
 3158SOL    HW110373   3.436   1.484   3.309
 3158SOL    HW210374   3.411   1.639   3.352
 3159SOL     OW10375   6.181   1.472   0.191
 3159SOL    HW110376   6.264   1.526   0.187
 3159SOL    HW210377   6.199   1.386   0.240
 3160SOL     OW10378   0.242   5.844   5.659
 3160SOL    HW110379   0.220   5.823   5.564
 3160SOL    HW210380   0.193   5.781   5.719
 3161SOL     OW10381   2.421   2.407   3.131
 3161SOL    HW110382   2.350   2.430   3.198
 3161SOL    HW210383   2.406   2.460   3.047
 3162SOL     OW10384   1.493   6.223   2.037
 3162SOL    HW110385   1.563   6.154   2.022
 3162SOL    HW210386   1.413   6.202   1.982
 3163SOL     OW10387   4.825   3.035   6.112
 3163SOL    HW110388   4.913   3.011   6.070
 3163SOL    HW210389   4.751   2.994   6.059
 3164SOL     OW10390   4.579   5.280   1.218
 3164SOL    HW110391   4.635   5.303   1.298
 3164SOL    HW210392   4.517   5.356   1.198
 3165SOL     OW10393   0.846   6.313   0.893
 3165SOL    HW110394   0.752   6.341   0.876
 3165SOL    HW210395   0.864   6.226   0.847
 3166SOL     OW10396   4.067   1.648   4.205
 3166SOL    HW110397   4.115   1.667   4.291
 3166SOL    HW210398   4.054   1.733   4.155
 3167SOL     OW10399   6.429   4.798   1.094
 3167SOL    HW110400   6.494   4.736   1.050
 3167SOL    HW210401   6.442   4.891   1.059
 3168SOL     OW10402   4.802   2.670   6.683
 3168SOL    HW110403   4.885   2.650   6.735
 3168SOL    HW210404   4.755   2.748   6.725
 3169SOL     OW10405   2.097   3.567   4.301
 3169SOL    HW110406   2.097   3.525   4.210
 3169SOL    HW210407   2.114   3.496   4.370
 3170SOL     OW10408   4.230   6.800   1.375
 3170SOL    HW110409   4.263   6.710   1.346
 3170SOL    HW210410   4.205   6.854   1.295
 3171SOL     OW10411   0.353   0.454   1.857
 3171SOL    HW110412   0.339   0.479   1.952
 3171SOL    HW210413   0.266   0.461   1.807
 3172SOL     OW10414   6.537   5.167   0.393
 3172SOL    HW110415   6.454   5.182   0.448
 3172SOL    HW210416   6.605   5.237   0.414
 3173SOL     OW10417   2.371   1.513   0.484
 3173SOL    HW110418   2.324   1.580   0.542
 3173SOL    HW210419   2.370   1.544   0.389
 3174SOL     OW10420   2.577   2.221   0.546
 3174SOL    HW110421   2.526   2.227   0.460
 3174SOL    HW210422   2.522   2.174   0.615
 3175SOL     OW10423   6.588   0.882   1.527
 3175SOL    HW110424   6.534   0.800   1.508
 3175SOL    HW210425   6.685   0.860   1.523
 3176SOL     OW10426   1.655   4.072   5.369
 3176SOL    HW110427   1.644   4.046   5.465
 3176SOL    HW210428   1.702   4.160   5.363
 3177SOL     OW10429   4.913   3.578   4.084
 3177SOL    HW110430   4.923   3.561   4.182
 3177SOL    HW210431   4.854   3.657   4.070
 3178SOL     OW10432   6.261   2.062   1.013
 3178SOL    HW110433   6.219   2.121   1.083
 3178SOL    HW210434   6.197   1.990   0.987
 3179SOL     OW10435   0.819   3.014   2.161
 3179SOL    HW110436   0.808   2.922   2.198
 3179SOL    HW210437   0.874   3.069   2.223
 3180SOL     OW10438   4.442   1.113   6.995
 3180SOL    HW110439   4.480   1.075   6.911
 3180SOL    HW210440   4.499   1.088   0.048
 3181SOL     OW10441   6.997   1.744   3.498
 3181SOL    HW110442   0.065   1.783   3.503
 3181SOL    HW210443   6.935   1.812   3.459
 3182SOL     OW10444   3.436   0.366   5.906
 3182SOL    HW110445   3.424   0.338   6.001
 3182SOL    HW210446   3.485   0.453   5.903
 3183SOL     OW10447   4.081   3.913   1.667
 3183SOL    HW110448   4.040   3.921   1.758
 3183SOL    HW210449   4.178   3.938   1.673
 3184SOL     OW10450   0.867   3.279   2.888
 3184SOL    HW110451   0.905   3.368   2.914
 3184SOL    HW210452   0.784   3.293   2.834
 3185SOL     OW10453   5.840   5.901   0.003
 3185SOL    HW110454   5.765   5.913   6.961
 3185SOL    HW210455   5.916   5.960   7.003
 3186SOL     OW10456   3.565   1.739   1.513
 3186SOL    HW110457   3.621   1.794   1.451
 3186SOL    HW210458   3.587   1.761   1.608
 3187SOL     OW10459   4.497   4.700   0.062
 3187SOL    HW110460   4.476   4.792   0.096
 3187SOL    HW210461   4.572   4.661   0.116
 3188SOL     OW10462   2.171   0.519   4.088
 3188SOL    HW110463   2.145   0.504   4.184
 3188SOL    HW210464   2.228   0.601   4.082
 3189SOL     OW10465   1.521   0.973   1.396
 3189SOL    HW110466   1.589   1.039   1.362
 3189SOL    HW210467   1.487   0.918   1.319
 3190SOL     OW10468   6.948   6.014   0.421
 3190SOL    HW110469   7.016   6.083   0.398
 3190SOL    HW210470   6.981   5.958   0.497
 3191SOL     OW10471   5.039   6.205   0.828
 3191SOL    HW110472   4.949   6.238   0.802
 3191SOL    HW210473   5.104   6.222   0.754
 3192SOL     OW10474   6.996   2.284   1.452
 3192SOL    HW110475   6.996   2.383   1.463
 3192SOL    HW210476   6.904   2.249   1.471
 3193SOL     OW10477   3.236   1.720   6.523
 3193SOL    HW110478   3.179   1.639   6.538
 3193SOL    HW210479   3.312   1.720   6.588
 3194SOL     OW10480   1.658   2.331   6.281
 3194SOL    HW110481   1.589   2.285   6.337
 3194SOL    HW210482   1.682   2.419   6.323
 3195SOL     OW10483   2.902   2.224   3.363
 3195SOL    HW110484   2.888   2.267   3.274
 3195SOL    HW210485   2.994   2.185   3.367
 3196SOL     OW10486   0.258   1.249   6.326
 3196SOL    HW110487   0.324   1.314   6.288
 3196SOL    HW210488   0.290   1.218   6.416
 3197SOL     OW10489   2.498   6.272   3.575
 3197SOL    HW110490   2.583   6.239   3.617
 3197SOL    HW210491   2.497   6.246   3.478
 3198SOL     OW10492   5.606   2.696   4.940
 3198SOL    HW110493   5.523   2.644   4.920
 3198SOL    HW210494   5.659   2.649   5.011
 3199SOL     OW10495   5.472   3.279   2.206
 3199SOL    HW110496   5.396   3.297   2.269
 3199SOL    HW210497   5.436   3.253   2.117
 3200SOL     OW10498   6.226   3.043   1.646
 3200SOL    HW110499   6.132   3.078   1.640
 3200SOL    HW210500   6.281   3.083   1.573
 3201SOL     OW10501   5.573   4.750   4.368
 3201SOL    HW110502   5.627   4.680   4.413
 3201SOL    HW210503   5.527   4.807   4.437
 3202SOL     OW10504   6.976   4.752   1.860
 3202SOL    HW110505   7.016   4.719   1.775
 3202SOL    HW210506   6.948   4.674   1.917
 3203SOL     OW10507   6.372   2.576   0.539
 3203SOL    HW110508   6.449   2.514   0.528
 3203SOL    HW210509   6.342   2.608   0.449
 3204SOL     OW10510   4.626   6.678   2.213
 3204SOL    HW110511   4.561   6.646   2.282
 3204SOL    HW210512   4.629   6.778   2.214
 3205SOL     OW10513   6.756   3.090   6.095
 3205SOL    HW110514   6.795   3.122   6.181
 3205SOL    HW210515   6.828   3.048   6.039
 3206SOL     OW10516   1.111   5.949   6.095
 3206SOL    HW110517   1.020   5.907   6.094
 3206SOL    HW210518   1.180   5.879   6.077
 3207SOL     OW10519   0.890   0.723   5.656
 3207SOL    HW110520   0.923   0.799   5.713
 3207SOL    HW210521   0.804   0.689   5.693
 3208SOL     OW10522   5.162   6.096   5.636
 3208SOL    HW110523   5.106   6.052   5.706
 3208SOL    HW210524   5.252   6.051   5.632
 3209SOL     OW10525   4.213   6.096   2.995
 3209SOL    HW110526   4.204   6.067   3.090
 3209SOL    HW210527   4.232   6.194   2.991
 3210SOL     OW10528   0.837   4.591   1.529
 3210SOL    HW110529   0.794   4.646   1.457
 3210SOL    HW210530   0.908   4.533   1.489
 3211SOL     OW10531   1.474   4.179   0.775
 3211SOL    HW110532   1.456   4.194   0.678
 3211SOL    HW210533   1.565   4.215   0.798
 3212SOL     OW10534   3.477   0.550   1.064
 3212SOL    HW110535   3.440   0.466   1.022
 3212SOL    HW210536   3.545   0.590   1.003
 3213SOL     OW10537   0.502   5.821   1.874
 3213SOL    HW110538   0.446   5.739   1.870
 3213SOL    HW210539   0.481   5.880   1.796
 3214SOL     OW10540   4.999   5.385   0.364
 3214SOL    HW110541   5.006   5.484   0.370
 3214SOL    HW210542   5.055   5.343   0.436
 3215SOL     OW10543   6.619   3.337   0.959
 3215SOL    HW110544   6.685   3.281   1.009
 3215SOL    HW210545   6.542   3.360   1.019
 3216SOL     OW10546   5.891   5.194   0.838
 3216SOL    HW110547   5.963   5.165   0.775
 3216SOL    HW210548   5.807   5.213   0.787
 3217SOL     OW10549   0.324   5.334   2.289
 3217SOL    HW110550   0.310   5.251   2.343
 3217SOL    HW210551   0.371   5.402   2.345
 3218SOL     OW10552   4.263   1.139   3.471
 3218SOL    HW110553   4.301   1.160   3.381
 3218SOL    HW210554   4.194   1.208   3.494
 3219SOL     OW10555   6.912   1.524   3.625
 3219SOL    HW110556   6.904   1.518   3.725
 3219SOL    HW210557   6.946   1.614   3.600
 3220SOL     OW10558   6.344   5.867   6.531
 3220SOL    HW110559   6.346   5.827   6.622
 3220SOL    HW210560   6.284   5.814   6.472
 3221SOL     OW10561   3.886   0.656   1.467
 3221SOL    HW110562   3.839   0.594   1.404
 3221SOL    HW210563   3.980   0.626   1.480
 3222SOL     OW10564   3.982   1.390   2.379
 3222SOL    HW110565   3.959   1.377   2.476
 3222SOL    HW210566   3.912   1.446   2.336
 3223SOL     OW10567   1.727   5.696   6.493
 3223SOL    HW110568   1.787   5.653   6.559
 3223SOL    HW210569   1.710   5.633   6.417
 3224SOL     OW10570   4.549   3.743   6.708
 3224SOL    HW110571   4.460   3.718   6.670
 3224SOL    HW210572   4.543   3.832   6.752
 3225SOL     OW10573   4.709   3.608   6.520
 3225SOL    HW110574   4.664   3.671   6.584
 3225SOL    HW210575   4.800   3.585   6.555
 3226SOL     OW10576   2.017   1.459   3.937
 3226SOL    HW110577   2.016   1.526   3.863
 3226SOL    HW210578   2.104   1.412   3.938
 3227SOL     OW10579   3.897   2.436   0.123
 3227SOL    HW110580   3.914   2.358   0.184
 3227SOL    HW210581   3.924   2.521   0.168
 3228SOL     OW10582   6.565   4.434   2.929
 3228SOL    HW110583   6.646   4.400   2.976
 3228SOL    HW210584   6.560   4.394   2.838
 3229SOL     OW10585   4.060   0.597   5.624
 3229SOL    HW110586   3.969   0.593   5.583
 3229SOL    HW210587   4.073   0.519   5.685
 3230SOL     OW10588   1.918   3.241   4.750
 3230SOL    HW110589   1.953   3.328   4.715
 3230SOL    HW210590   1.821   3.251   4.772
 3231SOL     OW10591   2.212   0.582   1.352
 3231SOL    HW110592   2.195   0.584   1.451
 3231SOL    HW210593   2.145   0.640   1.306
 3232SOL     OW10594   4.675   5.279   5.214
 3232SOL    HW110595   4.649   5.191   5.252
 3232SOL    HW210596   4.593   5.330   5.189
 3233SOL     OW10597   1.251   2.835   1.460
 3233SOL    HW110598   1.269   2.752   1.407
 3233SOL    HW210599   1.260   2.814   1.558
 3234SOL     OW10600   6.911   1.798   6.790
 3234SOL    HW110601   6.855   1.874   6.758
 3234SOL    HW210602   6.949   1.749   6.711
 3235SOL     OW10603   5.684   1.000   1.762
 3235SOL    HW110604   5.720   0.928   1.822
 3235SOL    HW210605   5.712   1.089   1.798
 3236SOL     OW10606   1.231   3.592   1.020
 3236SOL    HW110607   1.316   3.584   0.968
 3236SOL    HW210608   1.197   3.501   1.044
 3237SOL     OW10609   4.752   1.725   4.111
 3237SOL    HW110610   4.781   1.703   4.018
 3237SOL    HW210611   4.831   1.723   4.172
 3238SOL     OW10612   0.139   4.870   0.636
 3238SOL    HW110613   0.108   4.889   0.729
 3238SOL    HW210614   0.198   4.945   0.605
 3239SOL     OW10615   6.596   1.594   1.916
 3239SOL    HW110616   6.628   1.611   2.009
 3239SOL    HW210617   6.530   1.664   1.890
 3240SOL     OW10618   1.163   0.031   6.411
 3240SOL    HW110619   1.114   0.099   6.465
 3240SOL    HW210620   1.253   0.013   6.453
 3241SOL     OW10621   4.349   1.870   5.368
 3241SOL    HW110622   4.329   1.956   5.414
 3241SOL    HW210623   4.292   1.862   5.286
 3242SOL     OW10624   3.385   4.323   6.810
 3242SOL    HW110625   3.332   4.269   6.744
 3242SOL    HW210626   3.377   4.420   6.788
 3243SOL     OW10627   4.404   4.712   0.393
 3243SOL    HW110628   4.402   4.623   0.347
 3243SOL    HW210629   4.493   4.725   0.438
 3244SOL     OW10630   5.028   5.698   0.365
 3244SOL    HW110631   4.967   5.754   0.420
 3244SOL    HW210632   5.108   5.752   0.337
 3245SOL     OW10633   4.949   3.068   4.950
 3245SOL    HW110634   4.929   3.070   4.852
 3245SOL    HW210635   4.913   3.151   4.993
 3246SOL     OW10636   5.809   0.782   2.363
 3246SOL    HW110637   5.815   0.839   2.281
 3246SOL    HW210638   5.787   0.839   2.442
 3247SOL     OW10639   6.025   4.192   2.458
 3247SOL    HW110640   6.073   4.129   2.397
 3247SOL    HW210641   6.089   4.233   2.522
 3248SOL     OW10642   6.731   3.572   0.846
 3248SOL    HW110643   6.828   3.559   0.826
 3248SOL    HW210644   6.694   3.491   0.891
 3249SOL     OW10645   3.946   3.006   4.050
 3249SOL    HW110646   3.899   3.003   3.962
 3249SOL    HW210647   4.008   3.084   4.053
 3250SOL     OW10648   6.220   6.587   2.056
 3250SOL    HW110649   6.308   6.577   2.102
 3250SOL    HW210650   6.222   6.538   1.969
 3251SOL     OW10651   2.901   0.955   2.802
 3251SOL    HW110652   2.963   0.973   2.726
 3251SOL    HW210653   2.872   1.041   2.844
 3252SOL     OW10654   2.527   2.083   2.900
 3252SOL    HW110655   2.554   1.991   2.926
 3252SOL    HW210656   2.489   2.082   2.807
 3253SOL     OW10657   5.369   3.264   1.958
 3253SOL    HW110658   5.370   3.362   1.940
 3253SOL    HW210659   5.276   3.229   1.948
 3254SOL     OW10660   5.107   5.310   5.271
 3254SOL    HW110661   5.154   5.398   5.272
 3254SOL    HW210662   5.030   5.315   5.207
 3255SOL     OW10663   5.258   5.833   0.273
 3255SOL    HW110664   5.235   5.876   0.360
 3255SOL    HW210665   5.334   5.882   0.230
 3256SOL     OW10666   3.495   0.705   0.028
 3256SOL    HW110667   3.566   0.765   7.015
 3256SOL    HW210668   3.531   0.658   0.109
 3257SOL     OW10669   2.061   1.315   1.419
 3257SOL    HW110670   2.060   1.234   1.479
 3257SOL    HW210671   1.997   1.383   1.453
 3258SOL     OW10672   4.219   4.742   1.852
 3258SOL    HW110673   4.301   4.787   1.888
 3258SOL    HW210674   4.234   4.718   1.756
 3259SOL     OW10675   4.545   5.215   3.471
 3259SOL    HW110676   4.482   5.199   3.396
 3259SOL    HW210677   4.628   5.259   3.437
 3260SOL     OW10678   1.735   2.091   0.860
 3260SOL    HW110679   1.778   2.057   0.777
 3260SOL    HW210680   1.696   2.181   0.844
 3261SOL     OW10681   4.948   0.010   1.096
 3261SOL    HW110682   4.853   0.000   1.124
 3261SOL    HW210683   4.995   0.073   1.158
 3262SOL     OW10684   3.350   2.086   2.131
 3262SOL    HW110685   3.349   2.131   2.042
 3262SOL    HW210686   3.263   2.038   2.145
 3263SOL     OW10687   2.496   0.912   3.387
 3263SOL    HW110688   2.576   0.857   3.365
 3263SOL    HW210689   2.424   0.894   3.320
 3264SOL     OW10690   1.678   4.367   0.790
 3264SOL    HW110691   1.694   4.421   0.708
 3264SOL    HW210692   1.749   4.297   0.798
 3265SOL     OW10693   4.806   0.989   6.524
 3265SOL    HW110694   4.819   0.980   6.623
 3265SOL    HW210695   4.894   1.006   6.481
 3266SOL     OW10696   1.284   3.425   0.635
 3266SOL    HW110697   1.215   3.432   0.563
 3266SOL    HW210698   1.351   3.354   0.611
 3267SOL     OW10699   3.855   1.032   0.648
 3267SOL    HW110700   3.793   1.052   0.573
 3267SOL    HW210701   3.949   1.036   0.616
 3268SOL     OW10702   1.566   4.021   0.231
 3268SOL    HW110703   1.487   3.989   0.282
 3268SOL    HW210704   1.559   4.120   0.216
 3269SOL     OW10705   4.087   5.028   2.410
 3269SOL    HW110706   4.050   4.937   2.390
 3269SOL    HW210707   4.187   5.025   2.401
 3270SOL     OW10708   0.728   4.209   5.369
 3270SOL    HW110709   0.807   4.253   5.412
 3270SOL    HW210710   0.679   4.276   5.313
 3271SOL     OW10711   6.237   3.277   2.432
 3271SOL    HW110712   6.311   3.278   2.364
 3271SOL    HW210713   6.178   3.198   2.415
 3272SOL     OW10714   3.346   3.949   6.180
 3272SOL    HW110715   3.440   3.952   6.146
 3272SOL    HW210716   3.290   3.892   6.120
 3273SOL     OW10717   0.547   6.279   1.294
 3273SOL    HW110718   0.528   6.368   1.334
 3273SOL    HW210719   0.631   6.284   1.240
 3274SOL     OW10720   4.552   1.363   1.430
 3274SOL    HW110721   4.586   1.436   1.370
 3274SOL    HW210722   4.455   1.380   1.450
 3275SOL     OW10723   6.647   1.459   6.530
 3275SOL    HW110724   6.580   1.394   6.496
 3275SOL    HW210725   6.708   1.485   6.455
 3276SOL     OW10726   1.902   5.930   0.288
 3276SOL    HW110727   1.833   5.903   0.221
 3276SOL    HW210728   1.993   5.919   0.250
 3277SOL     OW10729   4.402   6.857   0.414
 3277SOL    HW110730   4.305   6.879   0.404
 3277SOL    HW210731   4.457   6.938   0.398
 3278SOL     OW10732   0.835   1.093   6.512
 3278SOL    HW110733   0.818   1.192   6.508
 3278SOL    HW210734   0.787   1.048   6.437
 3279SOL     OW10735   5.741   0.862   6.891
 3279SOL    HW110736   5.744   0.957   6.859
 3279SOL    HW210737   5.684   0.856   6.973
 3280SOL     OW10738   3.755   5.396   4.706
 3280SOL    HW110739   3.838   5.413   4.652
 3280SOL    HW210740   3.744   5.298   4.721
 3281SOL     OW10741   2.337   5.847   1.872
 3281SOL    HW110742   2.340   5.946   1.856
 3281SOL    HW210743   2.420   5.805   1.837
 3282SOL     OW10744   0.467   4.965   5.578
 3282SOL    HW110745   0.479   4.987   5.674
 3282SOL    HW210746   0.471   4.866   5.565
 3283SOL     OW10747   4.676   1.119   1.376
 3283SOL    HW110748   4.641   1.207   1.405
 3283SOL    HW210749   4.714   1.127   1.284
 3284SOL     OW10750   6.720   5.399   0.010
 3284SOL    HW110751   6.674   5.326   0.060
 3284SOL    HW210752   6.787   5.443   0.070
 3285SOL     OW10753   5.177   2.700   3.798
 3285SOL    HW110754   5.209   2.794   3.785
 3285SOL    HW210755   5.090   2.701   3.847
 3286SOL     OW10756   4.142   3.644   2.591
 3286SOL    HW110757   4.045   3.671   2.592
 3286SOL    HW210758   4.176   3.649   2.498
 3287SOL     OW10759   1.218   6.444   0.127
 3287SOL    HW110760   1.119   6.455   0.121
 3287SOL    HW210761   1.262   6.499   0.056
 3288SOL     OW10762   0.215   5.413   6.453
 3288SOL    HW110763   0.205   5.512   6.463
 3288SOL    HW210764   0.153   5.367   6.516
 3289SOL     OW10765   2.311   6.396   5.482
 3289SOL    HW110766   2.301   6.495   5.485
 3289SOL    HW210767   2.399   6.369   5.522
 3290SOL     OW10768   0.687   6.981   1.768
 3290SOL    HW110769   0.671   0.025   1.697
 3290SOL    HW210770   0.601   6.960   1.814
 3291SOL     OW10771   1.914   6.409   1.194
 3291SOL    HW110772   2.000   6.406   1.143
 3291SOL    HW210773   1.839   6.429   1.131
 3292SOL     OW10774   0.824   0.907   1.035
 3292SOL    HW110775   0.916   0.940   1.013
 3292SOL    HW210776   0.765   0.918   0.955
 3293SOL     OW10777   0.579   3.780   3.395
 3293SOL    HW110778   0.526   3.865   3.399
 3293SOL    HW210779   0.520   3.706   3.362
 3294SOL     OW10780   6.635   1.540   5.757
 3294SOL    HW110781   6.698   1.533   5.834
 3294SOL    HW210782   6.563   1.606   5.779
 3295SOL     OW10783   1.469   3.004   1.751
 3295SOL    HW110784   1.430   3.082   1.702
 3295SOL    HW210785   1.397   2.940   1.775
 3296SOL     OW10786   1.640   6.370   2.248
 3296SOL    HW110787   1.635   6.344   2.152
 3296SOL    HW210788   1.569   6.323   2.300
 3297SOL     OW10789   3.081   0.629   4.649
 3297SOL    HW110790   3.076   0.600   4.744
 3297SOL    HW210791   2.998   0.679   4.625
 3298SOL     OW10792   5.717   1.629   4.608
 3298SOL    HW110793   5.626   1.651   4.642
 3298SOL    HW210794   5.782   1.698   4.641
 3299SOL     OW10795   2.571   5.194   3.931
 3299SOL    HW110796   2.509   5.165   3.858
 3299SOL    HW210797   2.518   5.229   4.008
 3300SOL     OW10798   0.139   0.920   5.565
 3300SOL    HW110799   0.227   0.874   5.566
 3300SOL    HW210800   0.145   1.003   5.510
 3301SOL     OW10801   2.065   3.219   3.571
 3301SOL    HW110802   2.099   3.205   3.478
 3301SOL    HW210803   2.106   3.302   3.609
 3302SOL     OW10804   0.384   5.180   4.976
 3302SOL    HW110805   0.372   5.270   4.934
 3302SOL    HW210806   0.303   5.158   5.031
 3303SOL     OW10807   3.535   3.167   1.752
 3303SOL    HW110808   3.514   3.071   1.732
 3303SOL    HW210809   3.632   3.183   1.739
 3304SOL     OW10810   1.212   5.665   4.289
 3304SOL    HW110811   1.209   5.609   4.372
 3304SOL    HW210812   1.164   5.751   4.304
 3305SOL     OW10813   2.004   1.626   3.280
 3305SOL    HW110814   2.051   1.545   3.315
 3305SOL    HW210815   1.969   1.607   3.188
 3306SOL     OW10816   2.012   5.588   4.861
 3306SOL    HW110817   1.969   5.522   4.922
 3306SOL    HW210818   2.104   5.557   4.838
 3307SOL     OW10819   6.976   5.800   0.183
 3307SOL    HW110820   6.980   5.833   0.089
 3307SOL    HW210821   6.941   5.874   0.242
 3308SOL     OW10822   3.869   6.361   6.940
 3308SOL    HW110823   3.789   6.377   6.998
 3308SOL    HW210824   3.843   6.304   6.862
 3309SOL     OW10825   6.838   5.331   2.627
 3309SOL    HW110826   6.811   5.408   2.569
 3309SOL    HW210827   6.792   5.339   2.716
 3310SOL     OW10828   0.179   3.941   5.763
 3310SOL    HW110829   0.150   3.862   5.708
 3310SOL    HW210830   0.207   4.015   5.702
 3311SOL     OW10831   2.704   3.563   1.585
 3311SOL    HW110832   2.667   3.637   1.528
 3311SOL    HW210833   2.770   3.600   1.650
 3312SOL     OW10834   4.270   4.566   5.949
 3312SOL    HW110835   4.227   4.571   6.039
 3312SOL    HW210836   4.369   4.558   5.960
 3313SOL     OW10837   0.403   5.045   3.568
 3313SOL    HW110838   0.450   5.044   3.479
 3313SOL    HW210839   0.317   4.995   3.561
 3314SOL     OW10840   2.545   1.490   3.410
 3314SOL    HW110841   2.476   1.562   3.415
 3314SOL    HW210842   2.617   1.518   3.347
 3315SOL     OW10843   6.531   2.930   4.903
 3315SOL    HW110844   6.598   2.958   4.972
 3315SOL    HW210845   6.502   3.009   4.851
 3316SOL     OW10846   4.462   2.161   5.903
 3316SOL    HW110847   4.538   2.219   5.873
 3316SOL    HW210848   4.422   2.199   5.987
 3317SOL     OW10849   4.490   3.185   1.694
 3317SOL    HW110850   4.399   3.207   1.730
 3317SOL    HW210851   4.543   3.137   1.764
 3318SOL     OW10852   3.154   0.787   0.161
 3318SOL    HW110853   3.089   0.820   0.230
 3318SOL    HW210854   3.188   0.697   0.188
 3319SOL     OW10855   6.192   0.703   4.137
 3319SOL    HW110856   6.291   0.687   4.134
 3319SOL    HW210857   6.173   0.799   4.117
 3320SOL     OW10858   5.860   0.435   4.916
 3320SOL    HW110859   5.879   0.360   4.980
 3320SOL    HW210860   5.830   0.516   4.967
 3321SOL     OW10861   4.033   2.518   0.779
 3321SOL    HW110862   4.060   2.516   0.683
 3321SOL    HW210863   3.961   2.585   0.793
 3322SOL     OW10864   5.696   3.602   0.695
 3322SOL    HW110865   5.718   3.670   0.765
 3322SOL    HW210866   5.643   3.528   0.736
 3323SOL     OW10867   3.085   2.637   0.368
 3323SOL    HW110868   3.164   2.618   0.426
 3323SOL    HW210869   3.107   2.713   0.306
 3324SOL     OW10870   2.213   4.544   6.067
 3324SOL    HW110871   2.131   4.495   6.097
 3324SOL    HW210872   2.276   4.554   6.145
 3325SOL     OW10873   1.958   3.367   6.651
 3325SOL    HW110874   1.910   3.339   6.568
 3325SOL    HW210875   1.898   3.422   6.708
 3326SOL     OW10876   5.307   2.257   2.496
 3326SOL    HW110877   5.352   2.172   2.467
 3326SOL    HW210878   5.212   2.256   2.466
 3327SOL     OW10879   2.726   5.882   1.793
 3327SOL    HW110880   2.644   5.825   1.785
 3327SOL    HW210881   2.807   5.828   1.770
 3328SOL     OW10882   4.306   1.829   0.881
 3328SOL    HW110883   4.335   1.737   0.853
 3328SOL    HW210884   4.340   1.848   0.973
 3329SOL     OW10885   5.254   0.298   4.976
 3329SOL    HW110886   5.167   0.347   4.985
 3329SOL    HW210887   5.288   0.308   4.883
 3330SOL     OW10888   6.333   5.367   1.332
 3330SOL    HW110889   6.329   5.457   1.376
 3330SOL    HW210890   6.423   5.355   1.289
 3331SOL     OW10891   1.257   3.760   1.307
 3331SOL    HW110892   1.293   3.769   1.400
 3331SOL    HW210893   1.333   3.747   1.244
 3332SOL     OW10894   6.851   4.768   0.174
 3332SOL    HW110895   6.762   4.733   0.206
 3332SOL    HW210896   6.894   4.699   0.116
 3333SOL     OW10897   3.172   3.934   6.709
 3333SOL    HW110898   3.205   4.008   6.767
 3333SOL    HW210899   3.072   3.939   6.703
 3334SOL     OW10900   2.401   4.011   1.394
 3334SOL    HW110901   2.431   4.050   1.307
 3334SOL    HW210902   2.389   4.085   1.461
 3335SOL     OW10903   4.753   0.429   5.829
 3335SOL    HW110904   4.842   0.475   5.828
 3335SOL    HW210905   4.691   0.477   5.891
 3336SOL     OW10906   1.916   6.645   4.507
 3336SOL    HW110907   1.858   6.564   4.515
 3336SOL    HW210908   1.996   6.623   4.452
 3337SOL     OW10909   2.970   4.063   1.556
 3337SOL    HW110910   2.874   4.036   1.559
 3337SOL    HW210911   3.022   3.996   1.502
 3338SOL     OW10912   6.021   3.207   1.898
 3338SOL    HW110913   6.096   3.152   1.936
 3338SOL    HW210914   5.950   3.147   1.862
 3339SOL     OW10915   1.010   6.785   6.513
 3339SOL    HW110916   1.057   6.872   6.494
 3339SOL    HW210917   0.953   6.760   6.435
 3340SOL     OW10918   3.509   2.125   3.128
 3340SOL    HW110919   3.474   2.032   3.137
 3340SOL    HW210920   3.511   2.169   3.218
 3341SOL     OW10921   0.685   4.567   3.768
 3341SOL    HW110922   0.645   4.503   3.833
 3341SOL    HW210923   0.779   4.539   3.746
 3342SOL     OW10924   1.498   5.969   3.742
 3342SOL    HW110925   1.417   5.968   3.684
 3342SOL    HW210926   1.575   6.006   3.691
 3343SOL     OW10927   4.824   3.946   6.934
 3343SOL    HW110928   4.806   4.001   6.853
 3343SOL    HW210929   4.920   3.917   6.935
 3344SOL     OW10930   6.131   3.253   3.402
 3344SOL    HW110931   6.143   3.154   3.405
 3344SOL    HW210932   6.154   3.287   3.311
 3345SOL     OW10933   1.504   3.065   6.174
 3345SOL    HW110934   1.449   2.982   6.188
 3345SOL    HW210935   1.548   3.061   6.084
 3346SOL     OW10936   0.910   1.058   0.049
 3346SOL    HW110937   0.966   1.121   0.104
 3346SOL    HW210938   0.824   1.041   0.097
 3347SOL     OW10939   1.245   2.931   5.126
 3347SOL    HW110940   1.248   2.880   5.213
 3347SOL    HW210941   1.331   2.979   5.112
 3348SOL     OW10942   4.058   3.825   4.516
 3348SOL    HW110943   3.979   3.765   4.531
 3348SOL    HW210944   4.136   3.770   4.485
 3349SOL     OW10945   1.533   4.936   3.053
 3349SOL    HW110946   1.455   4.957   3.112
 3349SOL    HW210947   1.510   4.857   2.995
 3350SOL     OW10948   0.045   2.377   5.766
 3350SOL    HW110949   0.039   2.286   5.725
 3350SOL    HW210950   7.007   2.439   5.720
 3351SOL     OW10951   5.298   0.563   2.607
 3351SOL    HW110952   5.389   0.596   2.579
 3351SOL    HW210953   5.308   0.503   2.687
 3352SOL     OW10954   6.511   3.197   0.737
 3352SOL    HW110955   6.474   3.109   0.767
 3352SOL    HW210956   6.538   3.251   0.816
 3353SOL     OW10957   3.196   5.947   2.132
 3353SOL    HW110958   3.291   5.925   2.108
 3353SOL    HW210959   3.195   6.024   2.196
 3354SOL     OW10960   4.708   2.333   5.827
 3354SOL    HW110961   4.697   2.421   5.781
 3354SOL    HW210962   4.780   2.280   5.782
 3355SOL     OW10963   2.223   2.082   6.100
 3355SOL    HW110964   2.304   2.137   6.123
 3355SOL    HW210965   2.251   2.004   6.045
 3356SOL     OW10966   0.271   5.297   5.707
 3356SOL    HW110967   0.353   5.261   5.752
 3356SOL    HW210968   0.198   5.228   5.710
 3357SOL     OW10969   2.135   3.771   2.089
 3357SOL    HW110970   2.199   3.759   2.013
 3357SOL    HW210971   2.063   3.702   2.082
 3358SOL     OW10972   4.688   2.420   1.352
 3358SOL    HW110973   4.754   2.345   1.364
 3358SOL    HW210974   4.626   2.399   1.277
 3359SOL     OW10975   0.758   6.332   2.694
 3359SOL    HW110976   0.701   6.389   2.753
 3359SOL    HW210977   0.711   6.246   2.675
 3360SOL     OW10978   1.586   1.105   7.016
 3360SOL    HW110979   1.632   1.097   6.928
 3360SOL    HW210980   1.643   1.158   0.055
 3361SOL     OW10981   0.292   5.375   4.621
 3361SOL    HW110982   0.340   5.399   4.537
 3361SOL    HW210983   0.194   5.363   4.601
 3362SOL     OW10984   3.534   1.660   2.434
 3362SOL    HW110985   3.536   1.759   2.418
 3362SOL    HW210986   3.570   1.640   2.525
 3363SOL     OW10987   0.044   0.868   2.238
 3363SOL    HW110988   6.971   0.846   2.229
 3363SOL    HW210989   0.095   0.826   2.163
 3364SOL     OW10990   1.487   4.764   3.561
 3364SOL    HW110991   1.490   4.849   3.614
 3364SOL    HW210992   1.401   4.717   3.578
 3365SOL     OW10993   0.197   1.927   4.702
 3365SOL    HW110994   0.199   1.852   4.636
 3365SOL    HW210995   0.285   1.973   4.703
 3366SOL     OW10996   5.837   5.292   4.613
 3366SOL    HW110997   5.825   5.371   4.552
 3366SOL    HW210998   5.747   5.252   4.632
 3367SOL     OW10999   3.861   2.940   2.461
 3367SOL    HW111000   3.785   2.982   2.512
 3367SOL    HW211001   3.933   2.914   2.525
 3368SOL     OW11002   0.102   6.030   6.795
 3368SOL    HW111003   0.049   6.028   6.879
 3368SOL    HW211004   0.146   5.941   6.781
 3369SOL     OW11005   3.659   1.803   0.896
 3369SOL    HW111006   3.564   1.806   0.927
 3369SOL    HW211007   3.680   1.886   0.845
 3370SOL     OW11008   6.824   6.195   0.731
 3370SOL    HW111009   6.859   6.109   0.769
 3370SOL    HW211010   6.771   6.176   0.649
 3371SOL     OW11011   2.132   2.303   1.640
 3371SOL    HW111012   2.196   2.342   1.707
 3371SOL    HW211013   2.054   2.364   1.629
 3372SOL     OW11014   6.770   1.978   0.183
 3372SOL    HW111015   6.702   2.023   0.242
 3372SOL    HW211016   6.724   1.910   0.125
 3373SOL     OW11017   0.698   1.759   3.769
 3373SOL    HW111018   0.694   1.692   3.844
 3373SOL    HW211019   0.790   1.758   3.729
 3374SOL     OW11020   1.141   6.653   4.643
 3374SOL    HW111021   1.155   6.621   4.550
 3374SOL    HW211022   1.156   6.752   4.648
 3375SOL     OW11023   0.354   4.946   0.040
 3375SOL    HW111024   0.289   4.960   0.115
 3375SOL    HW211025   0.426   5.015   0.045
 3376SOL     OW11026   4.106   3.337   4.046
 3376SOL    HW111027   4.198   3.365   4.022
 3376SOL    HW211028   4.053   3.416   4.076
 3377SOL     OW11029   6.247   5.698   6.157
 3377SOL    HW111030   6.180   5.698   6.231
 3377SOL    HW211031   6.337   5.673   6.194
 3378SOL     OW11032   1.063   0.968   0.910
 3378SOL    HW111033   1.108   0.882   0.885
 3378SOL    HW211034   1.053   1.026   0.829
 3379SOL     OW11035   0.813   1.262   5.735
 3379SOL    HW111036   0.770   1.349   5.761
 3379SOL    HW211037   0.906   1.258   5.771
 3380SOL     OW11038   5.757   6.291   4.650
 3380SOL    HW111039   5.811   6.375   4.649
 3380SOL    HW211040   5.707   6.281   4.564
 3381SOL     OW11041   0.694   2.633   1.201
 3381SOL    HW111042   0.730   2.722   1.231
 3381SOL    HW211043   0.622   2.604   1.264
 3382SOL     OW11044   0.615   2.812   0.350
 3382SOL    HW111045   0.567   2.899   0.341
 3382SOL    HW211046   0.611   2.763   0.263
 3383SOL     OW11047   4.111   6.071   1.448
 3383SOL    HW111048   4.099   6.113   1.358
 3383SOL    HW211049   4.196   6.018   1.450
 3384SOL     OW11050   3.016   2.942   0.207
 3384SOL    HW111051   2.969   2.854   0.200
 3384SOL    HW211052   3.015   2.972   0.303
 3385SOL     OW11053   7.013   3.411   4.879
 3385SOL    HW111054   0.055   3.389   4.950
 3385SOL    HW211055   6.921   3.415   4.919
 3386SOL     OW11056   5.633   4.944   0.510
 3386SOL    HW111057   5.583   4.859   0.492
 3386SOL    HW211058   5.603   5.014   0.446
 3387SOL     OW11059   2.944   0.621   2.745
 3387SOL    HW111060   3.010   0.657   2.811
 3387SOL    HW211061   2.851   0.627   2.782
 3388SOL     OW11062   5.360   2.973   2.304
 3388SOL    HW111063   5.407   3.027   2.234
 3388SOL    HW211064   5.341   3.030   2.383
 3389SOL     OW11065   6.076   5.715   6.663
 3389SOL    HW111066   6.128   5.747   6.742
 3389SOL    HW211067   6.027   5.632   6.686
 3390SOL     OW11068   5.657   7.020   6.328
 3390SOL    HW111069   5.635   7.015   6.230
 3390SOL    HW211070   5.587   6.970   6.380
 3391SOL     OW11071   4.730   2.462   4.611
 3391SOL    HW111072   4.633   2.469   4.631
 3391SOL    HW211073   4.744   2.465   4.512
 3392SOL     OW11074   2.554   0.310   3.369
 3392SOL    HW111075   2.557   0.410   3.372
 3392SOL    HW211076   2.519   0.275   3.456
 3393SOL     OW11077   6.722   6.070   1.117
 3393SOL    HW111078   6.709   6.169   1.126
 3393SOL    HW211079   6.788   6.052   1.044
 3394SOL     OW11080   5.575   3.328   1.504
 3394SOL    HW111081   5.479   3.302   1.493
 3394SOL    HW211082   5.632   3.247   1.491
 3395SOL     OW11083   5.613   3.422   3.241
 3395SOL    HW111084   5.702   3.439   3.282
 3395SOL    HW211085   5.577   3.334   3.273
 3396SOL     OW11086   5.228   1.785   3.343
 3396SOL    HW111087   5.203   1.832   3.258
 3396SOL    HW211088   5.216   1.686   3.331
 3397SOL     OW11089   3.079   5.917   5.773
 3397SOL    HW111090   3.168   5.901   5.817
 3397SOL    HW211091   3.021   5.837   5.788
 3398SOL     OW11092   0.760   6.928   5.076
 3398SOL    HW111093   0.839   6.903   5.019
 3398SOL    HW211094   0.697   6.983   5.021
 3399SOL     OW11095   5.624   4.511   3.379
 3399SOL    HW111096   5.673   4.423   3.378
 3399SOL    HW211097   5.531   4.497   3.413
 3400SOL     OW11098   4.868   3.269   6.717
 3400SOL    HW111099   4.937   3.314   6.660
 3400SOL    HW211100   4.893   3.173   6.728
 3401SOL     OW11101   0.203   3.160   0.384
 3401SOL    HW111102   0.118   3.108   0.390
 3401SOL    HW211103   0.225   3.199   0.474
 3402SOL     OW11104   4.489   5.677   6.406
 3402SOL    HW111105   4.553   5.714   6.339
 3402SOL    HW211106   4.447   5.752   6.457
 3403SOL     OW11107   3.392   5.435   5.939
 3403SOL    HW111108   3.328   5.429   5.862
 3403SOL    HW211109   3.484   5.451   5.903
 3404SOL     OW11110   5.124   2.095   0.764
 3404SOL    HW111111   5.036   2.069   0.803
 3404SOL    HW211112   5.110   2.138   0.674
 3405SOL     OW11113   6.607   4.166   5.980
 3405SOL    HW111114   6.652   4.224   5.912
 3405SOL    HW211115   6.518   4.136   5.944
 3406SOL     OW11116   0.975   3.257   1.912
 3406SOL    HW111117   1.003   3.199   1.836
 3406SOL    HW211118   1.014   3.221   1.997
 3407SOL     OW11119   1.255   4.469   6.485
 3407SOL    HW111120   1.300   4.383   6.507
 3407SOL    HW211121   1.317   4.527   6.432
 3408SOL     OW11122   5.207   3.872   4.544
 3408SOL    HW111123   5.196   3.967   4.576
 3408SOL    HW211124   5.125   3.820   4.569
 3409SOL     OW11125   3.405   6.344   6.568
 3409SOL    HW111126   3.472   6.296   6.511
 3409SOL    HW211127   3.403   6.440   6.543
 3410SOL     OW11128   6.903   6.855   1.326
 3410SOL    HW111129   6.972   6.859   1.253
 3410SOL    HW211130   6.883   6.760   1.349
 3411SOL     OW11131   0.443   3.171   1.110
 3411SOL    HW111132   0.539   3.196   1.098
 3411SOL    HW211133   0.434   3.101   1.180
 3412SOL     OW11134   4.626   2.967   0.908
 3412SOL    HW111135   4.584   2.912   0.980
 3412SOL    HW211136   4.717   2.932   0.888
 3413SOL     OW11137   5.863   1.759   0.735
 3413SOL    HW111138   5.792   1.754   0.805
 3413SOL    HW211139   5.846   1.690   0.665
 3414SOL     OW11140   3.630   1.857   5.978
 3414SOL    HW111141   3.539   1.888   6.009
 3414SOL    HW211142   3.693   1.859   6.055
 3415SOL     OW11143   1.653   3.378   3.942
 3415SOL    HW111144   1.726   3.394   3.875
 3415SOL    HW211145   1.672   3.430   4.026
 3416SOL     OW11146   6.127   6.498   0.899
 3416SOL    HW111147   6.042   6.548   0.915
 3416SOL    HW211148   6.204   6.549   0.938
 3417SOL     OW11149   0.155   6.053   3.439
 3417SOL    HW111150   0.154   6.144   3.399
 3417SOL    HW211151   0.107   6.054   3.527
 3418SOL     OW11152   3.357   6.013   3.394
 3418SOL    HW111153   3.362   5.958   3.311
 3418SOL    HW211154   3.272   5.992   3.442
 3419SOL     OW11155   2.905   5.707   5.810
 3419SOL    HW111156   2.877   5.625   5.860
 3419SOL    HW211157   2.825   5.761   5.787
 3420SOL     OW11158   5.994   2.778   4.091
 3420SOL    HW111159   6.069   2.717   4.065
 3420SOL    HW211160   6.014   2.871   4.060
 3421SOL     OW11161   4.745   1.462   4.360
 3421SOL    HW111162   4.680   1.488   4.289
 3421SOL    HW211163   4.697   1.444   4.446
 3422SOL     OW11164   2.195   0.390   0.118
 3422SOL    HW111165   2.236   0.420   0.031
 3422SOL    HW211166   2.112   0.444   0.135
 3423SOL     OW11167   0.270   4.422   6.762
 3423SOL    HW111168   0.302   4.349   6.702
 3423SOL    HW211169   0.170   4.427   6.758
 3424SOL     OW11170   2.176   6.428   0.770
 3424SOL    HW111171   2.204   6.518   0.738
 3424SOL    HW211172   2.211   6.358   0.708
 3425SOL     OW11173   5.054   5.036   2.461
 3425SOL    HW111174   4.992   5.102   2.417
 3425SOL    HW211175   5.037   4.945   2.424
 3426SOL     OW11176   4.403   2.553   0.448
 3426SOL    HW111177   4.467   2.581   0.520
 3426SOL    HW211178   4.411   2.614   0.370
 3427SOL     OW11179   6.994   1.133   0.732
 3427SOL    HW111180   6.939   1.049   0.730
 3427SOL    HW211181   6.935   1.211   0.710
 3428SOL     OW11182   2.441   5.406   0.006
 3428SOL    HW111183   2.391   5.432   6.947
 3428SOL    HW211184   2.410   5.463   0.082
 3429SOL     OW11185   0.510   1.622   0.753
 3429SOL    HW111186   0.473   1.715   0.754
 3429SOL    HW211187   0.552   1.604   0.664
 3430SOL     OW11188   1.485   6.693   5.791
 3430SOL    HW111189   1.460   6.751   5.869
 3430SOL    HW211190   1.402   6.662   5.745
 3431SOL     OW11191   1.547   0.075   1.459
 3431SOL    HW111192   1.642   0.043   1.462
 3431SOL    HW211193   1.488   7.024   1.431
 3432SOL     OW11194   1.227   3.514   6.101
 3432SOL    HW111195   1.127   3.514   6.099
 3432SOL    HW211196   1.259   3.432   6.148
 3433SOL     OW11197   1.202   6.437   5.130
 3433SOL    HW111198   1.182   6.492   5.049
 3433SOL    HW211199   1.203   6.340   5.104
 3434SOL     OW11200   4.416   1.171   2.440
 3434SOL    HW111201   4.329   1.169   2.491
 3434SOL    HW211202   4.422   1.091   2.381
 3435SOL     OW11203   1.758   0.724   0.863
 3435SOL    HW111204   1.787   0.815   0.831
 3435SOL    HW211205   1.837   0.663   0.863
 3436SOL     OW11206   3.845   6.638   6.925
 3436SOL    HW111207   3.838   6.587   6.840
 3436SOL    HW211208   3.906   6.590   6.988
 3437SOL     OW11209   2.357   0.044   5.596
 3437SOL    HW111210   2.448   0.002   5.590
 3437SOL    HW211211   2.318   0.053   5.504
 3438SOL     OW11212   1.111   3.051   0.122
 3438SOL    HW111213   1.075   3.140   0.092
 3438SOL    HW211214   1.211   3.054   0.121
 3439SOL     OW11215   2.582   6.379   4.663
 3439SOL    HW111216   2.648   6.393   4.736
 3439SOL    HW211217   2.565   6.281   4.651
 3440SOL     OW11218   2.979   3.164   1.472
 3440SOL    HW111219   2.973   3.238   1.539
 3440SOL    HW211220   2.999   3.203   1.382
 3441SOL     OW11221   6.189   5.295   5.772
 3441SOL    HW111222   6.198   5.369   5.838
 3441SOL    HW211223   6.179   5.333   5.680
 3442SOL     OW11224   2.321   4.802   1.744
 3442SOL    HW111225   2.407   4.829   1.787
 3442SOL    HW211226   2.275   4.735   1.802
 3443SOL     OW11227   3.618   6.419   1.990
 3443SOL    HW111228   3.535   6.437   2.042
 3443SOL    HW211229   3.596   6.362   1.911
 3444SOL     OW11230   5.063   5.850   6.290
 3444SOL    HW111231   5.153   5.807   6.287
 3444SOL    HW211232   5.066   5.931   6.348
 3445SOL     OW11233   5.905   5.332   2.743
 3445SOL    HW111234   5.867   5.243   2.716
 3445SOL    HW211235   5.855   5.405   2.697
 3446SOL     OW11236   6.562   1.558   1.586
 3446SOL    HW111237   6.512   1.491   1.641
 3446SOL    HW211238   6.513   1.645   1.586
 3447SOL     OW11239   4.994   5.518   0.746
 3447SOL    HW111240   4.902   5.521   0.707
 3447SOL    HW211241   5.009   5.600   0.800
 3448SOL     OW11242   4.176   1.037   6.628
 3448SOL    HW111243   4.241   1.110   6.605
 3448SOL    HW211244   4.151   0.987   6.544
 3449SOL     OW11245   5.585   5.706   4.383
 3449SOL    HW111246   5.616   5.728   4.290
 3449SOL    HW211247   5.600   5.785   4.442
 3450SOL     OW11248   6.983   2.596   6.820
 3450SOL    HW111249   6.908   2.661   6.832
 3450SOL    HW211250   0.019   2.628   6.747
 3451SOL     OW11251   2.104   6.162   7.009
 3451SOL    HW111252   2.141   6.084   0.034
 3451SOL    HW211253   2.159   6.180   6.928
 3452SOL     OW11254   5.691   0.924   6.588
 3452SOL    HW111255   5.720   0.904   6.495
 3452SOL    HW211256   5.686   0.839   6.641
 3453SOL     OW11257   6.474   5.555   6.377
 3453SOL    HW111258   6.495   5.619   6.303
 3453SOL    HW211259   6.507   5.592   6.464
 3454SOL     OW11260   0.900   3.126   4.720
 3454SOL    HW111261   0.802   3.122   4.701
 3454SOL    HW211262   0.917   3.187   4.798
 3455SOL     OW11263   2.528   2.196   4.267
 3455SOL    HW111264   2.571   2.241   4.189
 3455SOL    HW211265   2.470   2.261   4.316
 3456SOL     OW11266   5.293   4.969   1.608
 3456SOL    HW111267   5.240   5.054   1.605
 3456SOL    HW211268   5.351   4.970   1.689
 3457SOL     OW11269   2.686   5.349   3.500
 3457SOL    HW111270   2.655   5.444   3.494
 3457SOL    HW211271   2.611   5.288   3.474
 3458SOL     OW11272   5.122   0.837   2.173
 3458SOL    HW111273   5.099   0.929   2.206
 3458SOL    HW211274   5.076   0.769   2.230
 3459SOL     OW11275   5.396   3.134   2.617
 3459SOL    HW111276   5.331   3.082   2.671
 3459SOL    HW211277   5.347   3.199   2.559
 3460SOL     OW11278   2.375   2.419   6.844
 3460SOL    HW111279   2.340   2.422   6.938
 3460SOL    HW211280   2.474   2.408   6.846
 3461SOL     OW11281   5.465   4.285   6.019
 3461SOL    HW111282   5.555   4.252   5.990
 3461SOL    HW211283   5.446   4.253   6.112
 3462SOL     OW11284   0.429   3.987   4.625
 3462SOL    HW111285   0.507   3.999   4.687
 3462SOL    HW211286   0.460   3.939   4.543
 3463SOL     OW11287   1.014   4.081   2.078
 3463SOL    HW111288   1.100   4.132   2.074
 3463SOL    HW211289   0.972   4.080   1.988
 3464SOL     OW11290   6.791   4.559   4.971
 3464SOL    HW111291   6.706   4.579   4.923
 3464SOL    HW211292   6.781   4.580   5.068
 3465SOL     OW11293   1.369   1.896   2.277
 3465SOL    HW111294   1.355   1.885   2.375
 3465SOL    HW211295   1.407   1.811   2.239
 3466SOL     OW11296   6.530   5.137   6.678
 3466SOL    HW111297   6.574   5.209   6.624
 3466SOL    HW211298   6.558   5.048   6.644
 3467SOL     OW11299   2.187   3.061   0.083
 3467SOL    HW111300   2.140   3.127   0.025
 3467SOL    HW211301   2.239   2.997   0.027
 3468SOL     OW11302   4.568   6.454   3.449
 3468SOL    HW111303   4.615   6.397   3.381
 3468SOL    HW211304   4.558   6.547   3.412
 3469SOL     OW11305   5.219   0.213   3.453
 3469SOL    HW111306   5.212   0.300   3.404
 3469SOL    HW211307   5.130   0.192   3.495
 3470SOL     OW11308   6.385   3.659   1.093
 3470SOL    HW111309   6.316   3.612   1.148
 3470SOL    HW211310   6.341   3.727   1.035
 3471SOL     OW11311   3.976   5.613   3.924
 3471SOL    HW111312   4.074   5.604   3.908
 3471SOL    HW211313   3.932   5.524   3.910
 3472SOL     OW11314   2.245   0.897   2.265
 3472SOL    HW111315   2.260   0.909   2.166
 3472SOL    HW211316   2.257   0.984   2.311
 3473SOL     OW11317   0.158   2.312   0.869
 3473SOL    HW111318   0.123   2.331   0.961
 3473SOL    HW211319   0.249   2.351   0.860
 3474SOL     OW11320   1.922   4.793   2.316
 3474SOL    HW111321   2.008   4.783   2.364
 3474SOL    HW211322   1.938   4.835   2.227
 3475SOL     OW11323   1.004   5.350   4.718
 3475SOL    HW111324   0.976   5.440   4.684
 3475SOL    HW211325   0.935   5.315   4.780
 3476SOL     OW11326   3.365   2.127   2.894
 3476SOL    HW111327   3.270   2.126   2.927
 3476SOL    HW211328   3.425   2.153   2.969
 3477SOL     OW11329   3.092   5.191   1.440
 3477SOL    HW111330   3.057   5.257   1.374
 3477SOL    HW211331   3.107   5.103   1.394
 3478SOL     OW11332   2.403   5.975   4.382
 3478SOL    HW111333   2.407   5.899   4.318
 3478SOL    HW211334   2.363   5.944   4.468
 3479SOL     OW11335   1.342   0.802   2.732
 3479SOL    HW111336   1.359   0.704   2.730
 3479SOL    HW211337   1.405   0.846   2.796
 3480SOL     OW11338   0.408   6.783   5.230
 3480SOL    HW111339   0.434   6.840   5.152
 3480SOL    HW211340   0.316   6.807   5.261
 3481SOL     OW11341   4.860   0.179   0.335
 3481SOL    HW111342   4.893   0.220   0.249
 3481SOL    HW211343   4.930   0.193   0.406
 3482SOL     OW11344   5.684   1.870   1.459
 3482SOL    HW111345   5.593   1.858   1.420
 3482SOL    HW211346   5.676   1.887   1.558
 3483SOL     OW11347   4.710   1.440   1.625
 3483SOL    HW111348   4.745   1.529   1.594
 3483SOL    HW211349   4.630   1.415   1.570
 3484SOL     OW11350   2.574   3.530   1.222
 3484SOL    HW111351   2.627   3.457   1.265
 3484SOL    HW211352   2.551   3.503   1.128
 3485SOL     OW11353   1.514   0.512   3.631
 3485SOL    HW111354   1.456   0.553   3.561
 3485SOL    HW211355   1.564   0.584   3.679
 3486SOL     OW11356   2.963   1.556   2.476
 3486SOL    HW111357   2.915   1.507   2.403
 3486SOL    HW211358   2.980   1.650   2.447
 3487SOL     OW11359   5.741   3.017   5.909
 3487SOL    HW111360   5.747   3.095   5.972
 3487SOL    HW211361   5.766   2.933   5.958
 3488SOL     OW11362   6.184   1.758   5.034
 3488SOL    HW111363   6.248   1.685   5.053
 3488SOL    HW211364   6.230   1.832   4.984
 3489SOL     OW11365   3.359   6.772   0.517
 3489SOL    HW111366   3.407   6.769   0.429
 3489SOL    HW211367   3.336   6.867   0.538
 3490SOL     OW11368   4.284   4.926   7.016
 3490SOL    HW111369   4.285   4.968   6.925
 3490SOL    HW211370   4.191   4.899   0.015
 3491SOL     OW11371   5.722   2.277   5.449
 3491SOL    HW111372   5.769   2.351   5.401
 3491SOL    HW211373   5.767   2.261   5.537
 3492SOL     OW11374   1.384   5.611   1.116
 3492SOL    HW111375   1.438   5.686   1.077
 3492SOL    HW211376   1.410   5.526   1.070
 3493SOL     OW11377   5.833   4.645   6.412
 3493SOL    HW111378   5.910   4.702   6.440
 3493SOL    HW211379   5.860   4.590   6.333
 3494SOL     OW11380   3.922   0.743   1.908
 3494SOL    HW111381   3.868   0.700   1.836
 3494SOL    HW211382   3.861   0.794   1.969
 3495SOL     OW11383   4.593   5.463   1.873
 3495SOL    HW111384   4.636   5.535   1.928
 3495SOL    HW211385   4.495   5.459   1.895
 3496SOL     OW11386   7.020   4.227   0.734
 3496SOL    HW111387   0.079   4.271   0.769
 3496SOL    HW211388   7.015   4.133   0.768
 3497SOL     OW11389   3.249   0.466   3.668
 3497SOL    HW111390   3.171   0.432   3.616
 3497SOL    HW211391   3.280   0.553   3.629
 3498SOL     OW11392   2.044   2.317   0.877
 3498SOL    HW111393   1.962   2.335   0.824
 3498SOL    HW211394   2.037   2.360   0.967
 3499SOL     OW11395   4.869   2.823   4.564
 3499SOL    HW111396   4.901   2.730   4.548
 3499SOL    HW211397   4.798   2.823   4.635
 3500SOL     OW11398   1.305   3.773   5.128
 3500SOL    HW111399   1.331   3.682   5.162
 3500SOL    HW211400   1.385   3.818   5.088
 3501SOL     OW11401   2.108   5.114   4.000
 3501SOL    HW111402   2.136   5.063   3.919
 3501SOL    HW211403   2.162   5.085   4.079
 3502SOL     OW11404   6.219   2.598   2.149
 3502SOL    HW111405   6.120   2.604   2.135
 3502SOL    HW211406   6.245   2.503   2.165
 3503SOL     OW11407   6.484   6.193   5.260
 3503SOL    HW111408   6.444   6.117   5.312
 3503SOL    HW211409   6.510   6.162   5.169
 3504SOL     OW11410   2.290   1.551   0.893
 3504SOL    HW111411   2.267   1.555   0.990
 3504SOL    HW211412   2.259   1.635   0.848
 3505SOL     OW11413   5.240   5.247   4.679
 3505SOL    HW111414   5.168   5.216   4.742
 3505SOL    HW211415   5.296   5.169   4.651
 3506SOL     OW11416   4.588   6.042   5.923
 3506SOL    HW111417   4.606   6.047   5.825
 3506SOL    HW211418   4.624   6.123   5.968
 3507SOL     OW11419   2.353   0.398   6.922
 3507SOL    HW111420   2.358   0.497   6.928
 3507SOL    HW211421   2.431   0.364   6.869
 3508SOL     OW11422   3.124   2.065   5.936
 3508SOL    HW111423   3.073   2.114   5.866
 3508SOL    HW211424   3.222   2.075   5.919
 3509SOL     OW11425   5.690   0.209   6.090
 3509SOL    HW111426   5.634   0.129   6.069
 3509SOL    HW211427   5.667   0.243   6.181
 3510SOL     OW11428   1.660   2.276   1.207
 3510SOL    HW111429   1.574   2.230   1.189
 3510SOL    HW211430   1.724   2.212   1.251
 3511SOL     OW11431   2.383   5.095   0.388
 3511SOL    HW111432   2.291   5.115   0.420
 3511SOL    HW211433   2.424   5.023   0.445
 3512SOL     OW11434   6.991   4.554   0.371
 3512SOL    HW111435   7.002   4.642   0.418
 3512SOL    HW211436   6.894   4.531   0.368
 3513SOL     OW11437   6.132   4.067   0.412
 3513SOL    HW111438   6.077   3.995   0.371
 3513SOL    HW211439   6.203   4.026   0.470
 3514SOL     OW11440   6.811   1.290   1.363
 3514SOL    HW111441   6.795   1.285   1.462
 3514SOL    HW211442   6.884   1.227   1.338
 3515SOL     OW11443   4.923   6.144   3.313
 3515SOL    HW111444   5.010   6.182   3.346
 3515SOL    HW211445   4.851   6.212   3.325
 3516SOL     OW11446   4.375   0.128   0.986
 3516SOL    HW111447   4.462   0.138   0.937
 3516SOL    HW211448   4.300   0.157   0.927
 3517SOL     OW11449   0.983   2.209   0.675
 3517SOL    HW111450   1.002   2.199   0.773
 3517SOL    HW211451   1.031   2.290   0.641
 3518SOL     OW11452   5.757   4.158   4.775
 3518SOL    HW111453   5.831   4.091   4.772
 3518SOL    HW211454   5.681   4.121   4.828
 3519SOL     OW11455   1.836   1.051   6.362
 3519SOL    HW111456   1.923   1.002   6.368
 3519SOL    HW211457   1.837   1.128   6.426
 3520SOL     OW11458   3.016   4.770   6.544
 3520SOL    HW111459   3.050   4.817   6.463
 3520SOL    HW211460   3.035   4.826   6.625
 3521SOL     OW11461   5.515   3.416   0.796
 3521SOL    HW111462   5.482   3.459   0.879
 3521SOL    HW211463   5.551   3.325   0.817
 3522SOL     OW11464   5.726   4.909   2.287
 3522SOL    HW111465   5.800   4.843   2.271
 3522SOL    HW211466   5.679   4.884   2.372
 3523SOL     OW11467   3.090   4.873   5.659
 3523SOL    HW111468   3.038   4.906   5.581
 3523SOL    HW211469   3.079   4.774   5.668
 3524SOL     OW11470   3.145   0.865   0.953
 3524SOL    HW111471   3.192   0.805   1.018
 3524SOL    HW211472   3.047   0.863   0.971
 3525SOL     OW11473   0.538   3.984   1.831
 3525SOL    HW111474   0.505   3.952   1.742
 3525SOL    HW211475   0.632   3.954   1.844
 3526SOL     OW11476   2.750   6.198   3.645
 3526SOL    HW111477   2.716   6.169   3.735
 3526SOL    HW211478   2.751   6.119   3.583
 3527SOL     OW11479   6.163   3.691   5.948
 3527SOL    HW111480   6.113   3.776   5.966
 3527SOL    HW211481   6.257   3.713   5.923
 3528SOL     OW11482   1.120   5.257   4.097
 3528SOL    HW111483   1.168   5.267   4.184
 3528SOL    HW211484   1.021   5.265   4.111
 3529SOL     OW11485   4.940   6.761   5.903
 3529SOL    HW111486   4.871   6.833   5.904
 3529SOL    HW211487   4.907   6.683   5.850
 3530SOL     OW11488   1.844   4.463   3.205
 3530SOL    HW111489   1.775   4.457   3.277
 3530SOL    HW211490   1.798   4.471   3.116
 3531SOL     OW11491   4.972   4.243   0.785
 3531SOL    HW111492   4.975   4.330   0.736
 3531SOL    HW211493   4.917   4.178   0.733
 3532SOL     OW11494   2.279   0.110   0.084
 3532SOL    HW111495   2.257   0.120   0.181
 3532SOL    HW211496   2.271   0.199   0.039
 3533SOL     OW11497   1.088   2.147   2.565
 3533SOL    HW111498   1.043   2.058   2.558
 3533SOL    HW211499   1.020   2.219   2.577
 3534SOL     OW11500   6.194   1.072   5.129
 3534SOL    HW111501   6.205   1.041   5.224
 3534SOL    HW211502   6.100   1.058   5.100
 3535SOL     OW11503   0.066   5.827   0.599
 3535SOL    HW111504   0.166   5.838   0.600
 3535SOL    HW211505   0.044   5.734   0.569
 3536SOL     OW11506   2.007   2.429   3.739
 3536SOL    HW111507   2.050   2.358   3.795
 3536SOL    HW211508   2.075   2.467   3.676
 3537SOL     OW11509   2.471   5.144   0.101
 3537SOL    HW111510   2.404   5.149   0.174
 3537SOL    HW211511   2.477   5.233   0.054
 3538SOL     OW11512   2.453   0.448   4.403
 3538SOL    HW111513   2.547   0.483   4.404
 3538SOL    HW211514   2.455   0.348   4.402
 3539SOL     OW11515   5.645   3.532   6.571
 3539SOL    HW111516   5.623   3.473   6.494
 3539SOL    HW211517   5.582   3.514   6.646
 3540SOL     OW11518   1.907   1.848   4.774
 3540SOL    HW111519   1.912   1.834   4.675
 3540SOL    HW211520   1.989   1.811   4.817
 3541SOL     OW11521   2.676   2.589   6.738
 3541SOL    HW111522   2.695   2.588   6.836
 3541SOL    HW211523   2.604   2.655   6.719
 3542SOL     OW11524   0.744   3.364   1.769
 3542SOL    HW111525   0.802   3.301   1.821
 3542SOL    HW211526   0.765   3.458   1.795
 3543SOL     OW11527   0.921   3.173   5.318
 3543SOL    HW111528   0.985   3.247   5.298
 3543SOL    HW211529   0.860   3.159   5.240
 3544SOL     OW11530   2.373   4.596   6.318
 3544SOL    HW111531   2.461   4.642   6.325
 3544SOL    HW211532   2.371   4.517   6.380
 3545SOL     OW11533   3.591   5.296   6.618
 3545SOL    HW111534   3.657   5.372   6.620
 3545SOL    HW211535   3.570   5.268   6.712
 3546SOL     OW11536   6.810   4.323   3.055
 3546SOL    HW111537   6.758   4.290   3.134
 3546SOL    HW211538   6.870   4.398   3.084
 3547SOL     OW11539   5.986   3.834   3.944
 3547SOL    HW111540   5.901   3.868   3.904
 3547SOL    HW211541   6.061   3.848   3.880
 3548SOL     OW11542   5.152   0.212   5.697
 3548SOL    HW111543   5.135   0.114   5.684
 3548SOL    HW211544   5.231   0.240   5.643
 3549SOL     OW11545   0.805   5.018   6.128
 3549SOL    HW111546   0.834   5.088   6.194
 3549SOL    HW211547   0.709   5.032   6.105
 3550SOL     OW11548   5.718   2.321   4.917
 3550SOL    HW111549   5.759   2.254   4.978
 3550SOL    HW211550   5.783   2.395   4.899
 3551SOL     OW11551   3.640   1.673   4.003
 3551SOL    HW111552   3.634   1.749   3.938
 3551SOL    HW211553   3.573   1.603   3.980
 3552SOL     OW11554   6.003   6.620   2.222
 3552SOL    HW111555   5.917   6.647   2.177
 3552SOL    HW211556   6.071   6.598   2.153
 3553SOL     OW11557   3.679   5.760   6.957
 3553SOL    HW111558   3.750   5.750   6.888
 3553SOL    HW211559   3.606   5.693   6.940
 3554SOL     OW11560   4.042   2.832   0.529
 3554SOL    HW111561   4.034   2.898   0.454
 3554SOL    HW211562   4.042   2.881   0.616
 3555SOL     OW11563   0.789   3.541   4.087
 3555SOL    HW111564   0.784   3.505   3.993
 3555SOL    HW211565   0.712   3.506   4.140
 3556SOL     OW11566   3.591   0.551   4.381
 3556SOL    HW111567   3.657   0.626   4.386
 3556SOL    HW211568   3.546   0.552   4.293
 3557SOL     OW11569   1.123   0.300   3.869
 3557SOL    HW111570   1.091   0.363   3.939
 3557SOL    HW211571   1.058   0.298   3.793
 3558SOL     OW11572   1.654   4.971   2.143
 3558SOL    HW111573   1.644   4.996   2.239
 3558SOL    HW211574   1.568   4.933   2.109
 3559SOL     OW11575   0.834   5.993   4.970
 3559SOL    HW111576   0.912   6.047   5.001
 3559SOL    HW211577   0.822   6.005   4.872
 3560SOL     OW11578   2.101   5.235   2.878
 3560SOL    HW111579   2.028   5.275   2.823
 3560SOL    HW211580   2.154   5.308   2.922
 3561SOL     OW11581   5.098   4.450   5.469
 3561SOL    HW111582   5.104   4.456   5.569
 3561SOL    HW211583   5.129   4.360   5.439
 3562SOL     OW11584   3.065   1.646   3.083
 3562SOL    HW111585   2.984   1.618   3.032
 3562SOL    HW211586   3.113   1.565   3.116
 3563SOL     OW11587   6.662   2.314   6.840
 3563SOL    HW111588   6.682   2.411   6.832
 3563SOL    HW211589   6.568   2.302   6.873
 3564SOL     OW11590   0.913   4.712   2.584
 3564SOL    HW111591   0.947   4.619   2.590
 3564SOL    HW211592   0.814   4.713   2.600
 3565SOL     OW11593   3.122   6.125   4.252
 3565SOL    HW111594   3.084   6.120   4.345
 3565SOL    HW211595   3.166   6.214   4.238
 3566SOL     OW11596   6.112   2.860   6.887
 3566SOL    HW111597   6.128   2.793   6.815
 3566SOL    HW211598   6.190   2.924   6.890
 3567SOL     OW11599   0.768   2.334   7.009
 3567SOL    HW111600   0.858   2.308   0.020
 3567SOL    HW211601   0.741   2.423   0.022
 3568SOL     OW11602   5.515   4.449   4.561
 3568SOL    HW111603   5.588   4.488   4.506
 3568SOL    HW211604   5.479   4.367   4.516
 3569SOL     OW11605   2.762   2.539   6.339
 3569SOL    HW111606   2.829   2.592   6.391
 3569SOL    HW211607   2.810   2.482   6.272
 3570SOL     OW11608   5.056   0.373   5.884
 3570SOL    HW111609   5.147   0.384   5.924
 3570SOL    HW211610   5.058   0.300   5.817
 3571SOL     OW11611   0.165   5.261   6.192
 3571SOL    HW111612   0.137   5.322   6.266
 3571SOL    HW211613   0.254   5.290   6.157
 3572SOL     OW11614   5.805   4.089   3.136
 3572SOL    HW111615   5.779   4.023   3.066
 3572SOL    HW211616   5.767   4.060   3.224
 3573SOL     OW11617   0.411   4.947   4.036
 3573SOL    HW111618   0.418   4.870   3.971
 3573SOL    HW211619   0.436   5.032   3.989
 3574SOL     OW11620   0.381   4.155   0.937
 3574SOL    HW111621   0.469   4.203   0.939
 3574SOL    HW211622   0.353   4.132   1.030
 3575SOL     OW11623   5.389   4.710   2.950
 3575SOL    HW111624   5.339   4.782   2.998
 3575SOL    HW211625   5.364   4.621   2.988
 3576SOL     OW11626   0.486   1.763   6.076
 3576SOL    HW111627   0.423   1.835   6.107
 3576SOL    HW211628   0.445   1.716   5.997
 3577SOL     OW11629   1.696   2.589   6.340
 3577SOL    HW111630   1.605   2.623   6.317
 3577SOL    HW211631   1.734   2.645   6.414
 3578SOL     OW11632   2.662   2.300   0.888
 3578SOL    HW111633   2.714   2.344   0.961
 3578SOL    HW211634   2.657   2.201   0.905
 3579SOL     OW11635   5.895   3.499   5.012
 3579SOL    HW111636   5.824   3.515   5.080
 3579SOL    HW211637   5.854   3.460   4.930
 3580SOL     OW11638   5.738   3.066   1.462
 3580SOL    HW111639   5.645   3.074   1.424
 3580SOL    HW211640   5.758   2.970   1.480
 3581SOL     OW11641   0.840   5.991   3.908
 3581SOL    HW111642   0.806   6.085   3.906
 3581SOL    HW211643   0.929   5.988   3.953
 3582SOL     OW11644   0.761   2.280   5.663
 3582SOL    HW111645   0.784   2.224   5.583
 3582SOL    HW211646   0.788   2.375   5.647
 3583SOL     OW11647   1.458   3.561   6.955
 3583SOL    HW111648   1.414   3.648   6.980
 3583SOL    HW211649   1.509   3.573   6.870
 3584SOL     OW11650   5.887   5.015   6.778
 3584SOL    HW111651   5.930   4.936   6.822
 3584SOL    HW211652   5.788   5.010   6.790
 3585SOL     OW11653   4.331   6.873   4.659
 3585SOL    HW111654   4.367   6.783   4.683
 3585SOL    HW211655   4.276   6.866   4.576
 3586SOL     OW11656   0.144   1.885   4.966
 3586SOL    HW111657   0.223   1.858   5.021
 3586SOL    HW211658   0.165   1.871   4.869
 3587SOL     OW11659   3.205   5.253   6.229
 3587SOL    HW111660   3.167   5.326   6.173
 3587SOL    HW211661   3.305   5.260   6.229
 3588SOL     OW11662   1.325   2.922   5.687
 3588SOL    HW111663   1.424   2.933   5.687
 3588SOL    HW211664   1.282   3.011   5.671
 3589SOL     OW11665   3.681   1.672   4.835
 3589SOL    HW111666   3.711   1.631   4.749
 3589SOL    HW211667   3.676   1.603   4.906
 3590SOL     OW11668   1.333   2.377   0.071
 3590SOL    HW111669   1.329   2.476   0.058
 3590SOL    HW211670   1.342   2.357   0.169
 3591SOL     OW11671   4.968   3.587   6.616
 3591SOL    HW111672   4.982   3.601   6.714
 3591SOL    HW211673   5.020   3.507   6.586
 3592SOL     OW11674   6.840   4.445   1.652
 3592SOL    HW111675   6.823   4.486   1.563
 3592SOL    HW211676   6.935   4.413   1.656
 3593SOL     OW11677   1.216   5.791   5.403
 3593SOL    HW111678   1.169   5.791   5.492
 3593SOL    HW211679   1.226   5.697   5.370
 3594SOL     OW11680   4.836   0.486   3.186
 3594SOL    HW111681   4.877   0.523   3.269
 3594SOL    HW211682   4.801   0.561   3.130
 3595SOL     OW11683   2.518   6.189   0.043
 3595SOL    HW111684   2.615   6.175   0.065
 3595SOL    HW211685   2.491   6.126   6.995
 3596SOL     OW11686   6.779   2.765   3.564
 3596SOL    HW111687   6.772   2.851   3.614
 3596SOL    HW211688   6.794   2.690   3.628
 3597SOL     OW11689   1.920   1.924   4.188
 3597SOL    HW111690   1.884   1.831   4.203
 3597SOL    HW211691   1.927   1.941   4.090
 3598SOL     OW11692   0.678   5.345   6.075
 3598SOL    HW111693   0.732   5.324   5.994
 3598SOL    HW211694   0.738   5.374   6.149
 3599SOL     OW11695   0.286   1.504   6.100
 3599SOL    HW111696   0.281   1.576   6.030
 3599SOL    HW211697   0.301   1.547   6.189
 3600SOL     OW11698   1.261   3.732   0.599
 3600SOL    HW111699   1.168   3.730   0.561
 3600SOL    HW211700   1.291   3.639   0.620
 3601SOL     OW11701   5.357   4.782   6.313
 3601SOL    HW111702   5.293   4.713   6.281
 3601SOL    HW211703   5.323   4.823   6.398
 3602SOL     OW11704   1.513   1.976   0.926
 3602SOL    HW111705   1.594   2.028   0.898
 3602SOL    HW211706   1.541   1.884   0.955
 3603SOL     OW11707   3.301   0.227   3.320
 3603SOL    HW111708   3.347   0.141   3.296
 3603SOL    HW211709   3.370   0.297   3.338
 3604SOL     OW11710   6.976   4.506   3.190
 3604SOL    HW111711   6.939   4.495   3.282
 3604SOL    HW211712   0.051   4.499   3.192
 3605SOL     OW11713   6.361   4.002   5.506
 3605SOL    HW111714   6.309   3.970   5.427
 3605SOL    HW211715   6.452   3.961   5.506
 3606SOL     OW11716   6.552   6.838   5.493
 3606SOL    HW111717   6.526   6.860   5.399
 3606SOL    HW211718   6.531   6.916   5.552
 3607SOL     OW11719   5.344   5.957   2.079
 3607SOL    HW111720   5.262   6.011   2.100
 3607SOL    HW211721   5.318   5.875   2.028
 3608SOL     OW11722   5.758   1.888   3.489
 3608SOL    HW111723   5.713   1.964   3.443
 3608SOL    HW211724   5.851   1.879   3.455
 3609SOL     OW11725   1.058   6.979   4.192
 3609SOL    HW111726   1.055   6.991   4.092
 3609SOL    HW211727   1.152   6.993   4.224
 3610SOL     OW11728   1.393   6.988   5.853
 3610SOL    HW111729   1.488   6.989   5.820
 3610SOL    HW211730   1.356   0.057   5.850
 3611SOL     OW11731   4.615   6.031   5.631
 3611SOL    HW111732   4.537   5.970   5.616
 3611SOL    HW211733   4.687   6.010   5.565
 3612SOL     OW11734   6.468   0.101   0.032
 3612SOL    HW111735   6.442   0.006   0.047
 3612SOL    HW211736   6.389   0.153   0.001
 3613SOL     OW11737   4.797   5.164   1.950
 3613SOL    HW111738   4.796   5.100   1.873
 3613SOL    HW211739   4.883   5.157   1.999
 3614SOL     OW11740   3.893   3.271   1.454
 3614SOL    HW111741   3.973   3.221   1.487
 3614SOL    HW211742   3.923   3.357   1.411
 3615SOL     OW11743   5.011   5.484   6.941
 3615SOL    HW111744   5.053   5.396   6.962
 3615SOL    HW211745   5.007   5.497   6.842
 3616SOL     OW11746   0.707   2.524   6.802
 3616SOL    HW111747   0.776   2.591   6.774
 3616SOL    HW211748   0.753   2.443   6.840
 3617SOL     OW11749   3.927   1.826   7.013
 3617SOL    HW111750   3.919   1.780   6.925
 3617SOL    HW211751   3.860   1.900   7.019
 3618SOL     OW11752   2.399   1.888   5.513
 3618SOL    HW111753   2.480   1.899   5.572
 3618SOL    HW211754   2.425   1.838   5.431
 3619SOL     OW11755   5.694   2.542   4.611
 3619SOL    HW111756   5.750   2.463   4.588
 3619SOL    HW211757   5.693   2.554   4.710
 3620SOL     OW11758   6.055   6.273   6.310
 3620SOL    HW111759   6.039   6.229   6.221
 3620SOL    HW211760   6.065   6.371   6.298
 3621SOL     OW11761   3.294   2.855   5.436
 3621SOL    HW111762   3.259   2.903   5.516
 3621SOL    HW211763   3.390   2.831   5.450
 3622SOL     OW11764   2.126   1.603   5.081
 3622SOL    HW111765   2.153   1.628   4.987
 3622SOL    HW211766   2.041   1.650   5.105
 3623SOL     OW11767   6.123   5.902   3.856
 3623SOL    HW111768   6.146   5.930   3.763
 3623SOL    HW211769   6.037   5.849   3.855
 3624SOL     OW11770   1.698   6.274   1.814
 3624SOL    HW111771   1.690   6.205   1.886
 3624SOL    HW211772   1.776   6.251   1.755
 3625SOL     OW11773   6.095   2.859   0.285
 3625SOL    HW111774   6.071   2.785   0.222
 3625SOL    HW211775   6.129   2.821   0.371
 3626SOL     OW11776   1.389   2.743   6.324
 3626SOL    HW111777   1.328   2.808   6.371
 3626SOL    HW211778   1.404   2.774   6.231
 3627SOL     OW11779   3.456   2.961   3.092
 3627SOL    HW111780   3.367   3.007   3.082
 3627SOL    HW211781   3.494   2.980   3.182
 3628SOL     OW11782   1.669   1.300   1.568
 3628SOL    HW111783   1.585   1.330   1.614
 3628SOL    HW211784   1.653   1.297   1.469
 3629SOL     OW11785   6.974   1.390   5.150
 3629SOL    HW111786   6.927   1.428   5.071
 3629SOL    HW211787   0.048   1.388   5.134
 3630SOL     OW11788   5.558   2.731   3.868
 3630SOL    HW111789   5.495   2.683   3.928
 3630SOL    HW211790   5.610   2.665   3.814
 3631SOL     OW11791   1.931   0.094   3.781
 3631SOL    HW111792   1.869   0.136   3.848
 3631SOL    HW211793   1.930   7.019   3.793
 3632SOL     OW11794   5.099   5.753   1.426
 3632SOL    HW111795   5.018   5.768   1.483
 3632SOL    HW211796   5.119   5.837   1.374
 3633SOL     OW11797   4.019   1.607   5.959
 3633SOL    HW111798   3.931   1.653   5.948
 3633SOL    HW211799   4.036   1.548   5.880
 3634SOL     OW11800   1.107   4.780   4.534
 3634SOL    HW111801   1.121   4.834   4.450
 3634SOL    HW211802   1.119   4.839   4.613
 3635SOL     OW11803   3.467   0.284   6.183
 3635SOL    HW111804   3.437   0.361   6.239
 3635SOL    HW211805   3.396   0.213   6.183
 3636SOL     OW11806   0.443   5.611   0.450
 3636SOL    HW111807   0.394   5.689   0.411
 3636SOL    HW211808   0.379   5.550   0.495
 3637SOL     OW11809   6.816   1.281   2.042
 3637SOL    HW111810   6.895   1.252   2.096
 3637SOL    HW211811   6.823   1.379   2.022
 3638SOL     OW11812   0.277   3.926   3.882
 3638SOL    HW111813   0.370   3.895   3.898
 3638SOL    HW211814   0.218   3.898   3.958
 3639SOL     OW11815   3.297   4.433   1.029
 3639SOL    HW111816   3.385   4.416   1.072
 3639SOL    HW211817   3.279   4.532   1.027
 3640SOL     OW11818   3.657   1.531   0.961
 3640SOL    HW111819   3.662   1.623   0.924
 3640SOL    HW211820   3.706   1.468   0.901
 3641SOL     OW11821   5.346   3.491   2.979
 3641SOL    HW111822   5.318   3.437   3.058
 3641SOL    HW211823   5.445   3.482   2.966
 3642SOL     OW11824   5.442   1.031   6.989
 3642SOL    HW111825   5.523   0.995   0.012
 3642SOL    HW211826   5.457   1.127   6.967
 3643SOL     OW11827   2.923   5.482   4.720
 3643SOL    HW111828   2.909   5.578   4.694
 3643SOL    HW211829   2.852   5.454   4.784
 3644SOL     OW11830   6.741   1.551   1.378
 3644SOL    HW111831   6.777   1.458   1.379
 3644SOL    HW211832   6.687   1.566   1.461
 3645SOL     OW11833   0.581   2.847   3.562
 3645SOL    HW111834   0.565   2.929   3.507
 3645SOL    HW211835   0.499   2.789   3.560
 3646SOL     OW11836   0.853   3.822   6.389
 3646SOL    HW111837   0.851   3.810   6.289
 3646SOL    HW211838   0.842   3.918   6.411
 3647SOL     OW11839   2.464   5.233   5.998
 3647SOL    HW111840   2.514   5.154   6.032
 3647SOL    HW211841   2.510   5.269   5.917
 3648SOL     OW11842   3.870   4.877   1.931
 3648SOL    HW111843   3.784   4.826   1.933
 3648SOL    HW211844   3.897   4.900   2.025
 3649SOL     OW11845   5.184   2.863   1.769
 3649SOL    HW111846   5.098   2.842   1.816
 3649SOL    HW211847   5.201   2.796   1.697
 3650SOL     OW11848   0.109   5.614   1.232
 3650SOL    HW111849   0.055   5.532   1.213
 3650SOL    HW211850   0.179   5.593   1.300
 3651SOL     OW11851   0.755   6.487   4.726
 3651SOL    HW111852   0.720   6.486   4.632
 3651SOL    HW211853   0.844   6.441   4.729
 3652SOL     OW11854   5.510   6.486   3.453
 3652SOL    HW111855   5.530   6.388   3.463
 3652SOL    HW211856   5.433   6.498   3.392
 3653SOL     OW11857   0.511   1.068   3.890
 3653SOL    HW111858   0.417   1.089   3.918
 3653SOL    HW211859   0.519   0.970   3.873
 3654SOL     OW11860   3.060   4.352   0.936
 3654SOL    HW111861   3.142   4.386   0.982
 3654SOL    HW211862   2.982   4.358   0.998
 3655SOL     OW11863   1.958   5.554   4.294
 3655SOL    HW111864   1.997   5.499   4.221
 3655SOL    HW211865   2.004   5.532   4.381
 3656SOL     OW11866   0.548   4.075   1.360
 3656SOL    HW111867   0.460   4.081   1.407
 3656SOL    HW211868   0.560   4.154   1.301
 3657SOL     OW11869   4.988   5.388   5.592
 3657SOL    HW111870   4.946   5.385   5.501
 3657SOL    HW211871   4.927   5.435   5.655
 3658SOL     OW11872   1.654   5.088   5.756
 3658SOL    HW111873   1.718   5.165   5.760
 3658SOL    HW211874   1.705   5.002   5.762
 3659SOL     OW11875   1.829   3.550   5.597
 3659SOL    HW111876   1.802   3.465   5.643
 3659SOL    HW211877   1.790   3.628   5.646
 3660SOL     OW11878   6.105   6.649   3.895
 3660SOL    HW111879   6.053   6.633   3.979
 3660SOL    HW211880   6.074   6.733   3.851
 3661SOL     OW11881   5.505   0.858   5.250
 3661SOL    HW111882   5.604   0.842   5.250
 3661SOL    HW211883   5.487   0.956   5.251
 3662SOL     OW11884   3.463   0.301   3.789
 3662SOL    HW111885   3.391   0.369   3.777
 3662SOL    HW211886   3.431   0.211   3.758
 3663SOL     OW11887   2.098   1.386   0.254
 3663SOL    HW111888   2.097   1.308   0.317
 3663SOL    HW211889   2.173   1.373   0.188
 3664SOL     OW11890   4.663   2.836   1.502
 3664SOL    HW111891   4.750   2.883   1.513
 3664SOL    HW211892   4.590   2.903   1.491
 3665SOL     OW11893   1.660   6.607   5.342
 3665SOL    HW111894   1.608   6.623   5.259
 3665SOL    HW211895   1.627   6.667   5.415
 3666SOL     OW11896   1.088   3.988   3.058
 3666SOL    HW111897   1.119   4.011   3.150
 3666SOL    HW211898   1.145   3.916   3.020
 3667SOL     OW11899   1.025   1.078   2.694
 3667SOL    HW111900   1.002   1.143   2.766
 3667SOL    HW211901   1.116   1.100   2.658
 3668SOL     OW11902   1.483   0.797   1.186
 3668SOL    HW111903   1.512   0.702   1.171
 3668SOL    HW211904   1.509   0.853   1.107
 3669SOL     OW11905   4.721   0.930   3.617
 3669SOL    HW111906   4.697   1.011   3.670
 3669SOL    HW211907   4.751   0.957   3.526
 3670SOL     OW11908   2.056   5.208   0.171
 3670SOL    HW111909   2.110   5.129   0.139
 3670SOL    HW211910   1.981   5.224   0.107
 3671SOL     OW11911   6.462   1.602   4.108
 3671SOL    HW111912   6.539   1.661   4.082
 3671SOL    HW211913   6.384   1.621   4.049
 3672SOL     OW11914   5.069   1.859   1.056
 3672SOL    HW111915   5.148   1.883   1.000
 3672SOL    HW211916   5.070   1.913   1.140
 3673SOL     OW11917   4.117   6.245   6.738
 3673SOL    HW111918   4.032   6.216   6.782
 3673SOL    HW211919   4.144   6.176   6.670
 3674SOL     OW11920   1.005   5.526   5.889
 3674SOL    HW111921   1.064   5.509   5.968
 3674SOL    HW211922   0.962   5.441   5.860
 3675SOL     OW11923   1.950   3.014   3.779
 3675SOL    HW111924   1.886   3.020   3.703
 3675SOL    HW211925   1.965   2.918   3.802
 3676SOL     OW11926   5.109   4.456   3.034
 3676SOL    HW111927   5.093   4.548   2.998
 3676SOL    HW211928   5.021   4.411   3.050
 3677SOL     OW11929   2.324   5.955   3.384
 3677SOL    HW111930   2.226   5.969   3.390
 3677SOL    HW211931   2.344   5.858   3.373
 3678SOL     OW11932   0.460   2.008   4.772
 3678SOL    HW111933   0.416   2.010   4.862
 3678SOL    HW211934   0.513   2.092   4.759
 3679SOL     OW11935   1.075   0.702   3.538
 3679SOL    HW111936   1.003   0.765   3.510
 3679SOL    HW211937   1.037   0.610   3.550
 3680SOL     OW11938   5.281   3.376   3.922
 3680SOL    HW111939   5.364   3.393   3.976
 3680SOL    HW211940   5.305   3.333   3.835
 3681SOL     OW11941   0.677   0.244   6.742
 3681SOL    HW111942   0.765   0.290   6.746
 3681SOL    HW211943   0.675   0.168   6.807
 3682SOL     OW11944   5.267   1.979   0.364
 3682SOL    HW111945   5.238   2.072   0.388
 3682SOL    HW211946   5.187   1.926   0.334
 3683SOL     OW11947   6.453   0.822   3.175
 3683SOL    HW111948   6.462   0.786   3.082
 3683SOL    HW211949   6.442   0.921   3.172
 3684SOL     OW11950   1.989   4.785   0.682
 3684SOL    HW111951   1.977   4.849   0.758
 3684SOL    HW211952   1.981   4.691   0.715
 3685SOL     OW11953   0.792   5.935   6.845
 3685SOL    HW111954   0.846   5.851   6.854
 3685SOL    HW211955   0.694   5.913   6.849
 3686SOL     OW11956   5.009   5.709   3.410
 3686SOL    HW111957   4.967   5.795   3.441
 3686SOL    HW211958   5.012   5.644   3.486
 3687SOL     OW11959   3.388   6.110   4.950
 3687SOL    HW111960   3.417   6.052   4.873
 3687SOL    HW211961   3.303   6.074   4.988
 3688SOL     OW11962   0.189   4.197   6.577
 3688SOL    HW111963   0.140   4.227   6.495
 3688SOL    HW211964   0.154   4.108   6.606
 3689SOL     OW11965   1.964   6.876   5.539
 3689SOL    HW111966   1.920   6.882   5.628
 3689SOL    HW211967   1.941   6.956   5.484
 3690SOL     OW11968   4.127   5.973   0.686
 3690SOL    HW111969   4.166   6.052   0.639
 3690SOL    HW211970   4.161   5.889   0.644
 3691SOL     OW11971   2.560   1.741   6.864
 3691SOL    HW111972   2.528   1.648   6.843
 3691SOL    HW211973   2.484   1.805   6.852
 3692SOL     OW11974   6.605   5.762   5.177
 3692SOL    HW111975   6.524   5.710   5.154
 3692SOL    HW211976   6.581   5.858   5.191
 3693SOL     OW11977   2.015   3.652   2.962
 3693SOL    HW111978   2.064   3.731   2.924
 3693SOL    HW211979   1.951   3.618   2.893
 3694SOL     OW11980   2.025   6.501   3.022
 3694SOL    HW111981   2.124   6.512   3.030
 3694SOL    HW211982   1.981   6.543   3.101
 3695SOL     OW11983   6.561   3.066   1.568
 3695SOL    HW111984   6.560   3.165   1.555
 3695SOL    HW211985   6.556   3.044   1.665
 3696SOL     OW11986   3.553   6.523   5.040
 3696SOL    HW111987   3.553   6.430   5.077
 3696SOL    HW211988   3.644   6.544   5.004
 3697SOL     OW11989   0.409   6.199   2.659
 3697SOL    HW111990   0.389   6.102   2.670
 3697SOL    HW211991   0.454   6.215   2.571
 3698SOL     OW11992   2.497   0.375   3.818
 3698SOL    HW111993   2.476   0.337   3.909
 3698SOL    HW211994   2.533   0.468   3.828
 3699SOL     OW11995   1.014   2.188   3.717
 3699SOL    HW111996   0.944   2.251   3.751
 3699SOL    HW211997   0.993   2.163   3.622
 3700SOL     OW11998   0.569   5.797   4.770
 3700SOL    HW111999   0.476   5.824   4.745
 3700SOL    HW212000   0.565   5.735   4.849
 3701SOL     OW12001   1.416   0.882   3.893
 3701SOL    HW112002   1.353   0.908   3.966
 3701SOL    HW212003   1.430   0.960   3.832
 3702SOL     OW12004   5.815   6.422   3.207
 3702SOL    HW112005   5.755   6.502   3.219
 3702SOL    HW212006   5.760   6.344   3.177
 3703SOL     OW12007   5.751   1.296   5.778
 3703SOL    HW112008   5.759   1.387   5.737
 3703SOL    HW212009   5.655   1.269   5.781
 3704SOL     OW12010   3.357   1.682   1.324
 3704SOL    HW112011   3.363   1.777   1.294
 3704SOL    HW212012   3.422   1.666   1.399
 3705SOL     OW12013   4.267   4.643   3.898
 3705SOL    HW112014   4.237   4.665   3.991
 3705SOL    HW212015   4.352   4.591   3.902
 3706SOL     OW12016   1.734   3.399   0.228
 3706SOL    HW112017   1.768   3.376   0.319
 3706SOL    HW212018   1.802   3.456   0.181
 3707SOL     OW12019   5.386   4.467   3.754
 3707SOL    HW112020   5.477   4.484   3.792
 3707SOL    HW212021   5.324   4.438   3.827
 3708SOL     OW12022   0.138   0.514   6.795
 3708SOL    HW112023   0.205   0.439   6.793
 3708SOL    HW212024   0.101   0.529   6.703
 3709SOL     OW12025   3.887   0.695   0.678
 3709SOL    HW112026   3.804   0.672   0.626
 3709SOL    HW212027   3.879   0.787   0.715
 3710SOL     OW12028   6.069   5.423   5.197
 3710SOL    HW112029   6.043   5.519   5.203
 3710SOL    HW212030   5.987   5.367   5.188
 3711SOL     OW12031   0.911   6.580   4.081
 3711SOL    HW112032   0.840   6.635   4.037
 3711SOL    HW212033   0.989   6.638   4.103
 3712SOL     OW12034   7.011   4.957   6.599
 3712SOL    HW112035   0.073   5.005   6.613
 3712SOL    HW212036   7.009   4.919   6.506
 3713SOL     OW12037   1.093   6.339   5.999
 3713SOL    HW112038   1.164   6.272   5.974
 3713SOL    HW212039   1.008   6.291   6.017
 3714SOL     OW12040   5.331   6.281   5.971
 3714SOL    HW112041   5.313   6.185   5.991
 3714SOL    HW212042   5.255   6.337   6.006
 3715SOL     OW12043   0.511   4.068   2.644
 3715SOL    HW112044   0.594   4.113   2.613
 3715SOL    HW212045   0.522   4.039   2.739
 3716SOL     OW12046   6.296   6.866   4.795
 3716SOL    HW112047   6.332   6.848   4.886
 3716SOL    HW212048   6.359   6.925   4.745
 3717SOL     OW12049   6.892   6.969   6.988
 3717SOL    HW112050   6.803   6.960   6.943
 3717SOL    HW212051   6.903   0.037   7.024
 3718SOL     OW12052   1.213   0.737   6.999
 3718SOL    HW112053   1.218   0.817   0.035
 3718SOL    HW212054   1.285   0.672   0.001
 3719SOL     OW12055   5.032   3.916   1.766
 3719SOL    HW112056   4.971   3.959   1.832
 3719SOL    HW212057   4.996   3.930   1.674
 3720SOL     OW12058   6.343   2.788   6.496
 3720SOL    HW112059   6.379   2.865   6.549
 3720SOL    HW212060   6.392   2.781   6.409
 3721SOL     OW12061   6.555   4.371   1.639
 3721SOL    HW112062   6.654   4.357   1.641
 3721SOL    HW212063   6.513   4.321   1.715
 3722SOL     OW12064   6.340   6.173   0.859
 3722SOL    HW112065   6.407   6.162   0.933
 3722SOL    HW212066   6.371   6.246   0.798
 3723SOL     OW12067   5.804   5.336   1.672
 3723SOL    HW112068   5.857   5.396   1.731
 3723SOL    HW212069   5.798   5.245   1.714
 3724SOL     OW12070   1.780   4.477   4.598
 3724SOL    HW112071   1.699   4.457   4.652
 3724SOL    HW212072   1.786   4.413   4.521
 3725SOL     OW12073   6.644   5.468   0.603
 3725SOL    HW112074   6.638   5.484   0.505
 3725SOL    HW212075   6.555   5.488   0.646
 3726SOL     OW12076   6.021   3.417   0.547
 3726SOL    HW112077   6.008   3.508   0.508
 3726SOL    HW212078   5.982   3.348   0.486
 3727SOL     OW12079   6.765   1.323   4.791
 3727SOL    HW112080   6.785   1.368   4.877
 3727SOL    HW212081   6.689   1.259   4.803
 3728SOL     OW12082   1.751   3.960   0.045
 3728SOL    HW112083   1.685   3.986   0.116
 3728SOL    HW212084   1.711   3.976   6.979
 3729SOL     OW12085   1.250   2.266   3.833
 3729SOL    HW112086   1.330   2.258   3.774
 3729SOL    HW212087   1.169   2.232   3.785
 3730SOL     OW12088   2.427   5.602   5.903
 3730SOL    HW112089   2.453   5.584   5.998
 3730SOL    HW212090   2.373   5.526   5.867
 3731SOL     OW12091   0.139   1.702   0.621
 3731SOL    HW112092   0.219   1.740   0.667
 3731SOL    HW212093   0.155   1.698   0.523
 3732SOL     OW12094   3.314   1.379   0.411
 3732SOL    HW112095   3.337   1.438   0.488
 3732SOL    HW212096   3.244   1.424   0.355
 3733SOL     OW12097   1.407   3.378   2.796
 3733SOL    HW112098   1.406   3.298   2.735
 3733SOL    HW212099   1.328   3.374   2.857
 3734SOL     OW12100   4.917   0.387   1.746
 3734SOL    HW112101   4.954   0.478   1.766
 3734SOL    HW212102   4.869   0.389   1.659
 3735SOL     OW12103   2.174   1.336   3.603
 3735SOL    HW112104   2.108   1.272   3.644
 3735SOL    HW212105   2.165   1.334   3.504
 3736SOL     OW12106   6.895   1.906   0.859
 3736SOL    HW112107   6.817   1.969   0.852
 3736SOL    HW212108   6.977   1.951   0.823
 3737SOL     OW12109   5.353   1.524   3.470
 3737SOL    HW112110   5.421   1.596   3.459
 3737SOL    HW212111   5.297   1.542   3.550
 3738SOL     OW12112   0.346   0.250   2.603
 3738SOL    HW112113   0.394   0.164   2.587
 3738SOL    HW212114   0.282   0.239   2.679
 3739SOL     OW12115   2.323   4.915   1.215
 3739SOL    HW112116   2.273   4.855   1.153
 3739SOL    HW212117   2.359   4.862   1.292
 3740SOL     OW12118   5.692   1.352   1.617
 3740SOL    HW112119   5.639   1.353   1.532
 3740SOL    HW212120   5.779   1.400   1.603
 3741SOL     OW12121   5.210   3.056   0.008
 3741SOL    HW112122   5.141   3.118   6.993
 3741SOL    HW212123   5.173   2.964   0.013
 3742SOL     OW12124   2.359   1.880   0.189
 3742SOL    HW112125   2.293   1.872   0.263
 3742SOL    HW212126   2.311   1.875   0.101
 3743SOL     OW12127   5.596   4.169   0.517
 3743SOL    HW112128   5.689   4.135   0.529
 3743SOL    HW212129   5.555   4.185   0.607
 3744SOL     OW12130   1.742   6.100   2.380
 3744SOL    HW112131   1.781   6.190   2.394
 3744SOL    HW212132   1.679   6.078   2.455
 3745SOL     OW12133   4.241   5.003   1.649
 3745SOL    HW112134   4.212   5.059   1.572
 3745SOL    HW212135   4.340   5.012   1.661
 3746SOL     OW12136   5.777   0.782   3.188
 3746SOL    HW112137   5.859   0.836   3.205
 3746SOL    HW212138   5.794   0.714   3.117
 3747SOL     OW12139   2.500   6.461   4.977
 3747SOL    HW112140   2.549   6.547   4.982
 3747SOL    HW212141   2.454   6.453   4.889
 3748SOL     OW12142   5.676   1.277   1.863
 3748SOL    HW112143   5.707   1.360   1.909
 3748SOL    HW212144   5.702   1.280   1.766
 3749SOL     OW12145   1.911   5.287   3.771
 3749SOL    HW112146   1.954   5.199   3.790
 3749SOL    HW212147   1.965   5.338   3.704
 3750SOL     OW12148   0.431   4.833   1.311
 3750SOL    HW112149   0.517   4.791   1.340
 3750SOL    HW212150   0.437   4.858   1.214
 3751SOL     OW12151   6.626   3.339   1.553
 3751SOL    HW112152   6.628   3.390   1.467
 3751SOL    HW212153   6.672   3.391   1.624
 3752SOL     OW12154   5.631   0.222   1.059
 3752SOL    HW112155   5.556   0.270   1.103
 3752SOL    HW212156   5.618   0.225   0.959
 3753SOL     OW12157   6.409   6.948   4.443
 3753SOL    HW112158   6.405   7.006   4.361
 3753SOL    HW212159   6.334   6.881   4.440
 3754SOL     OW12160   3.325   0.770   1.194
 3754SOL    HW112161   3.380   0.846   1.226
 3754SOL    HW212162   3.384   0.695   1.164
 3755SOL     OW12163   4.695   5.133   3.998
 3755SOL    HW112164   4.673   5.133   4.095
 3755SOL    HW212165   4.754   5.212   3.977
 3756SOL     OW12166   3.271   4.934   6.587
 3756SOL    HW112167   3.340   4.928   6.659
 3756SOL    HW212168   3.313   4.916   6.498
 3757SOL     OW12169   5.275   6.146   6.898
 3757SOL    HW112170   5.219   6.186   6.971
 3757SOL    HW212171   5.368   6.181   6.904
 3758SOL     OW12172   2.121   1.029   4.864
 3758SOL    HW112173   2.114   1.066   4.771
 3758SOL    HW212174   2.183   1.086   4.918
 3759SOL     OW12175   4.711   6.777   6.763
 3759SOL    HW112176   4.684   6.858   6.712
 3759SOL    HW212177   4.632   6.717   6.775
 3760SOL     OW12178   1.878   1.489   4.578
 3760SOL    HW112179   1.870   1.448   4.487
 3760SOL    HW212180   1.887   1.588   4.569
 3761SOL     OW12181   1.140   1.363   4.872
 3761SOL    HW112182   1.046   1.389   4.852
 3761SOL    HW212183   1.159   1.274   4.831
 3762SOL     OW12184   1.632   4.711   1.141
 3762SOL    HW112185   1.629   4.788   1.077
 3762SOL    HW212186   1.717   4.659   1.127
 3763SOL     OW12187   6.902   4.135   1.044
 3763SOL    HW112188   6.924   4.229   1.072
 3763SOL    HW212189   6.963   4.107   0.971
 3764SOL     OW12190   1.792   0.349   2.673
 3764SOL    HW112191   1.780   0.329   2.771
 3764SOL    HW212192   1.840   0.273   2.629
 3765SOL     OW12193   4.768   1.545   1.301
 3765SOL    HW112194   4.738   1.609   1.230
 3765SOL    HW212195   4.859   1.511   1.279
 3766SOL     OW12196   2.213   1.569   4.338
 3766SOL    HW112197   2.209   1.569   4.238
 3766SOL    HW212198   2.283   1.504   4.368
 3767SOL     OW12199   2.147   4.718   6.854
 3767SOL    HW112200   2.158   4.810   6.890
 3767SOL    HW212201   2.049   4.698   6.842
 3768SOL     OW12202   0.852   6.355   3.870
 3768SOL    HW112203   0.842   6.451   3.844
 3768SOL    HW212204   0.801   6.337   3.954
 3769SOL     OW12205   6.091   6.182   4.323
 3769SOL    HW112206   6.103   6.157   4.227
 3769SOL    HW212207   6.078   6.099   4.378
 3770SOL     OW12208   1.358   1.088   6.241
 3770SOL    HW112209   1.346   1.150   6.164
 3770SOL    HW212210   1.455   1.075   6.260
 3771SOL     OW12211   5.279   2.789   0.203
 3771SOL    HW112212   5.222   2.782   0.285
 3771SOL    HW212213   5.370   2.753   0.223
 3772SOL     OW12214   0.072   1.689   6.987
 3772SOL    HW112215   0.006   1.735   6.927
 3772SOL    HW212216   0.078   1.738   0.050
 3773SOL     OW12217   5.761   3.194   6.148
 3773SOL    HW112218   5.815   3.261   6.097
 3773SOL    HW212219   5.796   3.189   6.242
 3774SOL     OW12220   6.460   5.997   1.056
 3774SOL    HW112221   6.555   6.022   1.078
 3774SOL    HW212222   6.435   5.915   1.107
 3775SOL     OW12223   4.369   5.008   2.377
 3775SOL    HW112224   4.344   4.915   2.350
 3775SOL    HW212225   4.440   5.004   2.448
 3776SOL     OW12226   4.494   2.054   6.654
 3776SOL    HW112227   4.480   1.999   6.736
 3776SOL    HW212228   4.419   2.119   6.644
 3777SOL     OW12229   3.534   6.039   3.828
 3777SOL    HW112230   3.630   6.042   3.858
 3777SOL    HW212231   3.522   6.102   3.750
 3778SOL     OW12232   3.373   4.940   2.524
 3778SOL    HW112233   3.348   4.935   2.621
 3778SOL    HW212234   3.347   5.030   2.488
 3779SOL     OW12235   1.356   4.589   0.368
 3779SOL    HW112236   1.286   4.656   0.341
 3779SOL    HW212237   1.445   4.621   0.337
 3780SOL     OW12238   5.860   4.945   4.888
 3780SOL    HW112239   5.829   4.956   4.793
 3780SOL    HW212240   5.922   5.019   4.911
 3781SOL     OW12241   0.627   6.525   4.481
 3781SOL    HW112242   0.560   6.470   4.431
 3781SOL    HW212243   0.580   6.599   4.528
 3782SOL     OW12244   2.508   0.068   3.222
 3782SOL    HW112245   2.559   0.070   3.136
 3782SOL    HW212246   2.549   0.133   3.287
 3783SOL     OW12247   5.490   5.227   3.706
 3783SOL    HW112248   5.567   5.287   3.729
 3783SOL    HW212249   5.502   5.139   3.752
 3784SOL     OW12250   4.658   2.719   3.176
 3784SOL    HW112251   4.646   2.763   3.087
 3784SOL    HW212252   4.736   2.657   3.172
 3785SOL     OW12253   1.581   3.394   5.978
 3785SOL    HW112254   1.528   3.373   6.060
 3785SOL    HW212255   1.659   3.452   6.001
 3786SOL     OW12256   2.273   5.016   3.152
 3786SOL    HW112257   2.199   4.969   3.105
 3786SOL    HW212258   2.282   4.980   3.245
 3787SOL     OW12259   5.686   1.718   3.024
 3787SOL    HW112260   5.621   1.677   2.960
 3787SOL    HW212261   5.754   1.771   2.974
 3788SOL     OW12262   0.369   5.063   4.620
 3788SOL    HW112263   0.356   5.159   4.646
 3788SOL    HW212264   0.296   5.007   4.660
 3789SOL     OW12265   0.030   2.893   4.791
 3789SOL    HW112266   7.010   2.832   4.858
 3789SOL    HW212267   0.061   2.976   4.837
 3790SOL     OW12268   1.386   4.362   5.831
 3790SOL    HW112269   1.411   4.268   5.809
 3790SOL    HW212270   1.353   4.367   5.925
 3791SOL     OW12271   5.551   1.387   6.593
 3791SOL    HW112272   5.535   1.446   6.672
 3791SOL    HW212273   5.523   1.293   6.615
 3792SOL     OW12274   1.134   2.689   4.246
 3792SOL    HW112275   1.214   2.685   4.306
 3792SOL    HW212276   1.068   2.754   4.284
 3793SOL     OW12277   4.801   6.192   1.866
 3793SOL    HW112278   4.803   6.257   1.942
 3793SOL    HW212279   4.852   6.230   1.789
 3794SOL     OW12280   2.142   3.019   1.135
 3794SOL    HW112281   2.222   3.066   1.098
 3794SOL    HW212282   2.144   3.023   1.235
 3795SOL     OW12283   4.036   6.303   0.681
 3795SOL    HW112284   4.013   6.354   0.764
 3795SOL    HW212285   3.978   6.334   0.606
 3796SOL     OW12286   3.251   2.175   1.875
 3796SOL    HW112287   3.257   2.081   1.840
 3796SOL    HW212288   3.156   2.199   1.889
 3797SOL     OW12289   0.334   3.008   1.773
 3797SOL    HW112290   0.410   3.004   1.839
 3797SOL    HW212291   0.265   2.940   1.797
 3798SOL     OW12292   2.665   5.304   3.210
 3798SOL    HW112293   2.703   5.215   3.234
 3798SOL    HW212294   2.589   5.292   3.146
 3799SOL     OW12295   6.792   2.425   4.002
 3799SOL    HW112296   6.823   2.331   3.988
 3799SOL    HW212297   6.871   2.485   4.014
 3800SOL     OW12298   5.959   3.056   4.280
 3800SOL    HW112299   5.973   3.118   4.202
 3800SOL    HW212300   5.882   3.089   4.334
 3801SOL     OW12301   6.009   7.018   2.051
 3801SOL    HW112302   5.985   6.936   1.999
 3801SOL    HW212303   5.946   0.004   2.128
 3802SOL     OW12304   1.431   2.202   1.807
 3802SOL    HW112305   1.527   2.231   1.798
 3802SOL    HW212306   1.377   2.246   1.735
 3803SOL     OW12307   3.915   3.146   2.273
 3803SOL    HW112308   3.963   3.058   2.280
 3803SOL    HW212309   3.882   3.158   2.180
 3804SOL     OW12310   4.750   1.772   3.670
 3804SOL    HW112311   4.722   1.848   3.730
 3804SOL    HW212312   4.848   1.755   3.683
 3805SOL     OW12313   2.737   2.571   1.541
 3805SOL    HW112314   2.675   2.649   1.543
 3805SOL    HW212315   2.719   2.512   1.620
 3806SOL     OW12316   3.405   3.364   6.443
 3806SOL    HW112317   3.435   3.449   6.400
 3806SOL    HW212318   3.483   3.301   6.450
 3807SOL     OW12319   1.255   6.249   2.612
 3807SOL    HW112320   1.200   6.332   2.610
 3807SOL    HW212321   1.298   6.239   2.702
 3808SOL     OW12322   4.740   1.170   1.092
 3808SOL    HW112323   4.711   1.086   1.047
 3808SOL    HW212324   4.713   1.249   1.037
 3809SOL     OW12325   5.751   2.835   1.670
 3809SOL    HW112326   5.817   2.786   1.613
 3809SOL    HW212327   5.668   2.852   1.618
 3810SOL     OW12328   4.592   2.576   3.687
 3810SOL    HW112329   4.603   2.662   3.737
 3810SOL    HW212330   4.593   2.594   3.589
 3811SOL     OW12331   1.263   5.276   4.747
 3811SOL    HW112332   1.332   5.344   4.722
 3811SOL    HW212333   1.172   5.311   4.723
 3812SOL     OW12334   4.938   5.363   5.059
 3812SOL    HW112335   4.958   5.444   5.003
 3812SOL    HW212336   4.844   5.367   5.092
 3813SOL     OW12337   4.429   3.449   0.675
 3813SOL    HW112338   4.508   3.455   0.614
 3813SOL    HW212339   4.411   3.353   0.697
 3814SOL     OW12340   0.512   0.003   6.654
 3814SOL    HW112341   0.419   6.994   6.670
 3814SOL    HW212342   0.515   0.102   6.670
 3815SOL     OW12343   4.139   2.578   0.522
 3815SOL    HW112344   4.227   2.577   0.477
 3815SOL    HW212345   4.111   2.672   0.541
 3816SOL     OW12346   1.347   5.481   7.011
 3816SOL    HW112347   1.428   5.425   6.998
 3816SOL    HW212348   1.342   5.549   6.937
 3817SOL     OW12349   4.949   3.523   2.608
 3817SOL    HW112350   4.936   3.462   2.530
 3817SOL    HW212351   5.035   3.573   2.597
 3818SOL     OW12352   6.253   0.929   6.752
 3818SOL    HW112353   6.202   0.846   6.774
 3818SOL    HW212354   6.228   0.960   6.660
 3819SOL     OW12355   5.353   5.405   2.021
 3819SOL    HW112356   5.311   5.469   2.086
 3819SOL    HW212357   5.332   5.312   2.049
 3820SOL     OW12358   4.839   0.028   4.188
 3820SOL    HW112359   4.883   0.089   4.255
 3820SOL    HW212360   4.908   7.019   4.124
 3821SOL     OW12361   2.577   1.429   0.771
 3821SOL    HW112362   2.496   1.469   0.813
 3821SOL    HW212363   2.590   1.468   0.680
 3822SOL     OW12364   2.171   0.142   1.088
 3822SOL    HW112365   2.163   0.059   1.144
 3822SOL    HW212366   2.111   0.212   1.126
 3823SOL     OW12367   3.600   2.985   5.947
 3823SOL    HW112368   3.601   3.008   5.849
 3823SOL    HW212369   3.507   2.996   5.982
 3824SOL     OW12370   6.613   2.422   0.499
 3824SOL    HW112371   6.674   2.343   0.510
 3824SOL    HW212372   6.641   2.495   0.563
 3825SOL     OW12373   0.580   5.452   0.755
 3825SOL    HW112374   0.662   5.502   0.785
 3825SOL    HW212375   0.524   5.429   0.835
 3826SOL     OW12376   1.164   2.998   6.778
 3826SOL    HW112377   1.264   2.999   6.781
 3826SOL    HW212378   1.129   2.943   6.853
 3827SOL     OW12379   1.398   1.456   2.007
 3827SOL    HW112380   1.493   1.423   2.007
 3827SOL    HW212381   1.340   1.389   2.055
 3828SOL     OW12382   3.907   3.313   2.564
 3828SOL    HW112383   3.870   3.223   2.589
 3828SOL    HW212384   3.854   3.350   2.487
 3829SOL     OW12385   1.395   5.118   3.291
 3829SOL    HW112386   1.359   5.202   3.331
 3829SOL    HW212387   1.431   5.059   3.363
 3830SOL     OW12388   0.404   1.539   4.662
 3830SOL    HW112389   0.478   1.479   4.633
 3830SOL    HW212390   0.351   1.567   4.582
 3831SOL     OW12391   4.571   2.606   2.364
 3831SOL    HW112392   4.600   2.689   2.316
 3831SOL    HW212393   4.483   2.576   2.329
 3832SOL     OW12394   5.739   0.909   2.582
 3832SOL    HW112395   5.676   0.956   2.645
 3832SOL    HW212396   5.792   0.841   2.633
 3833SOL     OW12397   0.516   6.463   6.434
 3833SOL    HW112398   0.498   6.550   6.388
 3833SOL    HW212399   0.456   6.454   6.513
 3834SOL     OW12400   4.598   4.652   1.684
 3834SOL    HW112401   4.615   4.581   1.752
 3834SOL    HW212402   4.502   4.649   1.655
 3835SOL     OW12403   3.578   5.453   4.370
 3835SOL    HW112404   3.613   5.365   4.404
 3835SOL    HW212405   3.494   5.476   4.420
 3836SOL     OW12406   1.573   4.049   5.989
 3836SOL    HW112407   1.592   4.147   5.977
 3836SOL    HW212408   1.521   4.035   6.073
 3837SOL     OW12409   4.678   5.351   6.521
 3837SOL    HW112410   4.622   5.405   6.584
 3837SOL    HW212411   4.634   5.262   6.505
 3838SOL     OW12412   0.618   3.645   4.703
 3838SOL    HW112413   0.610   3.549   4.728
 3838SOL    HW212414   0.714   3.670   4.692
 3839SOL     OW12415   4.912   0.809   3.783
 3839SOL    HW112416   5.004   0.822   3.746
 3839SOL    HW212417   4.846   0.858   3.726
 3840SOL     OW12418   2.281   0.418   6.020
 3840SOL    HW112419   2.303   0.513   5.997
 3840SOL    HW212420   2.194   0.392   5.977
 3841SOL     OW12421   0.223   3.139   4.580
 3841SOL    HW112422   0.278   3.218   4.608
 3841SOL    HW212423   0.277   3.056   4.592
 3842SOL     OW12424   2.041   3.312   0.620
 3842SOL    HW112425   2.098   3.394   0.624
 3842SOL    HW212426   2.100   3.231   0.614
 3843SOL     OW12427   6.176   4.041   2.269
 3843SOL    HW112428   6.268   4.067   2.299
 3843SOL    HW212429   6.167   3.941   2.273
 3844SOL     OW12430   0.672   2.630   6.205
 3844SOL    HW112431   0.687   2.642   6.107
 3844SOL    HW212432   0.641   2.717   6.244
 3845SOL     OW12433   3.501   3.075   5.266
 3845SOL    HW112434   3.569   3.145   5.243
 3845SOL    HW212435   3.472   3.087   5.361
 3846SOL     OW12436   0.567   5.463   3.890
 3846SOL    HW112437   0.518   5.399   3.830
 3846SOL    HW212438   0.661   5.473   3.859
 3847SOL     OW12439   5.541   1.111   5.138
 3847SOL    HW112440   5.470   1.137   5.072
 3847SOL    HW212441   5.616   1.178   5.135
 3848SOL     OW12442   4.116   5.478   2.993
 3848SOL    HW112443   4.201   5.522   3.024
 3848SOL    HW212444   4.056   5.547   2.954
 3849SOL     OW12445   1.388   1.333   5.358
 3849SOL    HW112446   1.305   1.339   5.414
 3849SOL    HW212447   1.374   1.382   5.272
 3850SOL     OW12448   2.142   3.073   0.727
 3850SOL    HW112449   2.211   3.013   0.685
 3850SOL    HW212450   2.181   3.117   0.808
 3851SOL     OW12451   1.064   4.411   2.210
 3851SOL    HW112452   1.094   4.356   2.132
 3851SOL    HW212453   1.139   4.419   2.276
 3852SOL     OW12454   3.939   6.696   3.796
 3852SOL    HW112455   3.942   6.602   3.761
 3852SOL    HW212456   3.847   6.734   3.782
 3853SOL     OW12457   1.167   3.974   3.591
 3853SOL    HW112458   1.102   3.998   3.663
 3853SOL    HW212459   1.261   3.982   3.626
 3854SOL     OW12460   1.690   3.103   2.360
 3854SOL    HW112461   1.697   3.148   2.449
 3854SOL    HW212462   1.676   3.005   2.374
 3855SOL     OW12463   5.113   6.623   6.518
 3855SOL    HW112464   5.015   6.639   6.525
 3855SOL    HW212465   5.159   6.665   6.597
 3856SOL     OW12466   0.245   6.845   5.831
 3856SOL    HW112467   0.216   6.875   5.922
 3856SOL    HW212468   0.165   6.836   5.772
 3857SOL     OW12469   0.517   5.987   6.797
 3857SOL    HW112470   0.495   5.970   6.893
 3857SOL    HW212471   0.516   5.901   6.746
 3858SOL     OW12472   1.251   6.648   5.651
 3858SOL    HW112473   1.211   6.575   5.596
 3858SOL    HW212474   1.178   6.702   5.694
 3859SOL     OW12475   6.626   1.779   3.168
 3859SOL    HW112476   6.657   1.727   3.089
 3859SOL    HW212477   6.572   1.858   3.138
 3860SOL     OW12478   2.269   0.415   5.627
 3860SOL    HW112479   2.252   0.484   5.697
 3860SOL    HW212480   2.271   0.324   5.668
 3861SOL     OW12481   4.740   4.612   3.173
 3861SOL    HW112482   4.772   4.607   3.078
 3861SOL    HW212483   4.806   4.665   3.227
 3862SOL     OW12484   1.258   0.337   5.077
 3862SOL    HW112485   1.348   0.375   5.054
 3862SOL    HW212486   1.262   0.293   5.167
 3863SOL     OW12487   4.457   2.963   6.354
 3863SOL    HW112488   4.449   2.922   6.263
 3863SOL    HW212489   4.516   2.905   6.411
 3864SOL     OW12490   2.231   0.620   5.814
 3864SOL    HW112491   2.281   0.697   5.774
 3864SOL    HW212492   2.137   0.648   5.834
 3865SOL     OW12493   3.632   6.632   6.708
 3865SOL    HW112494   3.717   6.673   6.674
 3865SOL    HW212495   3.582   6.699   6.762
 3866SOL     OW12496   3.788   0.938   2.043
 3866SOL    HW112497   3.784   0.982   2.133
 3866SOL    HW212498   3.811   1.005   1.973
 3867SOL     OW12499   1.520   4.451   4.290
 3867SOL    HW112500   1.587   4.521   4.318
 3867SOL    HW212501   1.559   4.360   4.306
 3868SOL     OW12502   3.574   6.632   0.004
 3868SOL    HW112503   3.670   6.624   7.001
 3868SOL    HW212504   3.547   6.729   0.003
 3869SOL     OW12505   6.006   3.833   5.447
 3869SOL    HW112506   6.098   3.827   5.408
 3869SOL    HW212507   5.953   3.901   5.396
 3870SOL     OW12508   4.227   5.764   6.852
 3870SOL    HW112509   4.312   5.711   6.845
 3870SOL    HW212510   4.229   5.819   6.935
 3871SOL     OW12511   3.809   0.437   2.973
 3871SOL    HW112512   3.909   0.439   2.975
 3871SOL    HW212513   3.774   0.392   3.055
 3872SOL     OW12514   3.609   3.219   3.024
 3872SOL    HW112515   3.691   3.239   3.076
 3872SOL    HW212516   3.600   3.120   3.012
 3873SOL     OW12517   5.660   3.220   1.967
 3873SOL    HW112518   5.566   3.250   1.955
 3873SOL    HW212519   5.712   3.291   2.014
 3874SOL     OW12520   3.847   5.813   6.482
 3874SOL    HW112521   3.908   5.740   6.450
 3874SOL    HW212522   3.788   5.777   6.555
 3875SOL     OW12523   1.947   2.521   1.676
 3875SOL    HW112524   2.015   2.590   1.700
 3875SOL    HW212525   1.940   2.455   1.751
 3876SOL     OW12526   5.001   5.138   0.566
 3876SOL    HW112527   5.008   5.038   0.576
 3876SOL    HW212528   5.081   5.181   0.607
 3877SOL     OW12529   6.839   2.902   0.174
 3877SOL    HW112530   6.787   2.883   0.257
 3877SOL    HW212531   6.841   2.821   0.116
 3878SOL     OW12532   2.662   6.471   4.433
 3878SOL    HW112533   2.758   6.498   4.432
 3878SOL    HW212534   2.633   6.454   4.527
 3879SOL     OW12535   4.953   6.162   1.464
 3879SOL    HW112536   4.872   6.107   1.484
 3879SOL    HW212537   4.957   6.240   1.526
 3880SOL     OW12538   6.321   5.015   3.656
 3880SOL    HW112539   6.257   5.082   3.618
 3880SOL    HW212540   6.270   4.940   3.699
 3881SOL     OW12541   1.228   4.406   1.022
 3881SOL    HW112542   1.301   4.470   0.996
 3881SOL    HW212543   1.144   4.457   1.041
 3882SOL     OW12544   0.548   1.763   4.760
 3882SOL    HW112545   0.520   1.859   4.765
 3882SOL    HW212546   0.472   1.708   4.725
 3883SOL     OW12547   4.138   0.894   3.616
 3883SOL    HW112548   4.187   0.911   3.702
 3883SOL    HW212549   4.156   0.968   3.552
 3884SOL     OW12550   1.105   5.416   3.381
 3884SOL    HW112551   1.177   5.403   3.313
 3884SOL    HW212552   1.028   5.464   3.339
 3885SOL     OW12553   6.467   0.473   2.889
 3885SOL    HW112554   6.493   0.464   2.793
 3885SOL    HW212555   6.373   0.441   2.900
 3886SOL     OW12556   6.573   6.098   5.015
 3886SOL    HW112557   6.489   6.127   4.969
 3886SOL    HW212558   6.636   6.059   4.948
 3887SOL     OW12559   6.800   0.946   5.971
 3887SOL    HW112560   6.817   0.888   5.892
 3887SOL    HW212561   6.745   1.025   5.944
 3888SOL     OW12562   1.150   0.347   6.800
 3888SOL    HW112563   1.181   0.441   6.789
 3888SOL    HW212564   1.227   0.290   6.829
 3889SOL     OW12565   6.502   3.142   6.377
 3889SOL    HW112566   6.572   3.213   6.378
 3889SOL    HW212567   6.411   3.185   6.385
 3890SOL     OW12568   5.997   5.837   2.464
 3890SOL    HW112569   5.959   5.917   2.510
 3890SOL    HW212570   6.093   5.824   2.492
 3891SOL     OW12571   5.515   4.656   4.107
 3891SOL    HW112572   5.506   4.745   4.064
 3891SOL    HW212573   5.570   4.665   4.190
 3892SOL     OW12574   0.332   2.278   1.456
 3892SOL    HW112575   0.383   2.251   1.537
 3892SOL    HW212576   0.259   2.211   1.438
 3893SOL     OW12577   3.176   5.588   1.274
 3893SOL    HW112578   3.183   5.687   1.269
 3893SOL    HW212579   3.266   5.547   1.264
 3894SOL     OW12580   2.606   1.628   1.051
 3894SOL    HW112581   2.702   1.655   1.046
 3894SOL    HW212582   2.600   1.530   1.069
 3895SOL     OW12583   1.470   0.307   5.429
 3895SOL    HW112584   1.492   0.210   5.444
 3895SOL    HW212585   1.442   0.348   5.516
 3896SOL     OW12586   0.243   2.073   6.418
 3896SOL    HW112587   0.162   2.036   6.372
 3896SOL    HW212588   0.314   2.002   6.422
 3897SOL     OW12589   3.453   6.740   2.028
 3897SOL    HW112590   3.384   6.714   2.095
 3897SOL    HW212591   3.516   6.663   2.015
 3898SOL     OW12592   3.478   3.825   4.155
 3898SOL    HW112593   3.459   3.856   4.248
 3898SOL    HW212594   3.409   3.757   4.128
 3899SOL     OW12595   4.860   0.879   4.329
 3899SOL    HW112596   4.856   0.979   4.324
 3899SOL    HW212597   4.837   0.841   4.239
 3900SOL     OW12598   5.351   2.622   3.551
 3900SOL    HW112599   5.294   2.564   3.493
 3900SOL    HW212600   5.334   2.600   3.647
 3901SOL     OW12601   3.292   6.204   5.710
 3901SOL    HW112602   3.221   6.184   5.643
 3901SOL    HW212603   3.306   6.124   5.768
 3902SOL     OW12604   6.035   3.730   1.554
 3902SOL    HW112605   6.072   3.763   1.641
 3902SOL    HW212606   6.074   3.784   1.479
 3903SOL     OW12607   4.735   4.525   6.764
 3903SOL    HW112608   4.766   4.617   6.789
 3903SOL    HW212609   4.814   4.470   6.736
 3904SOL     OW12610   2.238   6.620   5.783
 3904SOL    HW112611   2.253   6.707   5.735
 3904SOL    HW212612   2.143   6.591   5.771
 3905SOL     OW12613   5.709   6.804   5.934
 3905SOL    HW112614   5.669   6.769   5.849
 3905SOL    HW212615   5.641   6.860   5.981
 3906SOL     OW12616   1.766   5.604   5.704
 3906SOL    HW112617   1.827   5.637   5.632
 3906SOL    HW212618   1.677   5.648   5.695
 3907SOL     OW12619   6.107   0.047   4.029
 3907SOL    HW112620   6.195   0.027   4.072
 3907SOL    HW212621   6.043   0.082   4.097
 3908SOL     OW12622   1.721   1.017   6.767
 3908SOL    HW112623   1.797   1.081   6.764
 3908SOL    HW212624   1.659   1.036   6.691
 3909SOL     OW12625   7.014   4.436   6.743
 3909SOL    HW112626   6.939   4.476   6.796
 3909SOL    HW212627   6.979   4.358   6.691
 3910SOL     OW12628   3.679   3.911   1.932
 3910SOL    HW112629   3.720   3.936   1.844
 3910SOL    HW212630   3.637   3.992   1.973
 3911SOL     OW12631   4.970   1.571   0.180
 3911SOL    HW112632   4.978   1.506   0.256
 3911SOL    HW212633   4.883   1.556   0.133
 3912SOL     OW12634   3.674   1.651   6.371
 3912SOL    HW112635   3.604   1.678   6.305
 3912SOL    HW212636   3.754   1.710   6.362
 3913SOL     OW12637   2.951   6.674   6.762
 3913SOL    HW112638   2.921   6.735   6.688
 3913SOL    HW212639   2.878   6.666   6.830
 3914SOL     OW12640   5.148   0.673   1.314
 3914SOL    HW112641   5.159   0.753   1.374
 3914SOL    HW212642   5.065   0.685   1.259
 3915SOL     OW12643   4.270   6.418   0.634
 3915SOL    HW112644   4.199   6.351   0.654
 3915SOL    HW212645   4.233   6.490   0.576
 3916SOL     OW12646   2.065   6.654   2.520
 3916SOL    HW112647   2.043   6.603   2.436
 3916SOL    HW212648   2.028   6.605   2.599
 3917SOL     OW12649   1.305   4.326   1.387
 3917SOL    HW112650   1.354   4.412   1.373
 3917SOL    HW212651   1.342   4.278   1.466
 3918SOL     OW12652   4.369   6.301   2.148
 3918SOL    HW112653   4.280   6.265   2.119
 3918SOL    HW212654   4.412   6.237   2.211
 3919SOL     OW12655   3.534   0.466   6.551
 3919SOL    HW112656   3.456   0.481   6.489
 3919SOL    HW212657   3.506   0.404   6.624
 3920SOL     OW12658   2.615   2.032   6.161
 3920SOL    HW112659   2.621   1.937   6.129
 3920SOL    HW212660   2.690   2.051   6.224
 3921SOL     OW12661   6.741   2.721   0.356
 3921SOL    HW112662   6.821   2.668   0.382
 3921SOL    HW212663   6.680   2.666   0.300
 3922SOL     OW12664   4.228   5.458   0.923
 3922SOL    HW112665   4.276   5.527   0.869
 3922SOL    HW212666   4.175   5.399   0.861
 3923SOL     OW12667   6.002   2.180   0.294
 3923SOL    HW112668   6.084   2.203   0.347
 3923SOL    HW212669   6.007   2.085   0.266
 3924SOL     OW12670   0.479   4.634   2.921
 3924SOL    HW112671   0.484   4.542   2.962
 3924SOL    HW212672   0.437   4.628   2.831
 3925SOL     OW12673   4.044   4.423   0.744
 3925SOL    HW112674   4.086   4.334   0.724
 3925SOL    HW212675   3.954   4.428   0.701
 3926SOL     OW12676   0.178   0.397   4.660
 3926SOL    HW112677   0.221   0.338   4.729
 3926SOL    HW212678   0.241   0.470   4.635
 3927SOL     OW12679   6.958   2.429   4.763
 3927SOL    HW112680   0.008   2.490   4.790
 3927SOL    HW212681   6.990   2.365   4.694
 3928SOL     OW12682   3.756   5.831   4.231
 3928SOL    HW112683   3.841   5.794   4.193
 3928SOL    HW212684   3.750   5.928   4.211
 3929SOL     OW12685   6.582   1.471   6.775
 3929SOL    HW112686   6.654   1.511   6.831
 3929SOL    HW212687   6.603   1.485   6.678
 3930SOL     OW12688   0.972   2.184   3.456
 3930SOL    HW112689   0.906   2.259   3.444
 3930SOL    HW212690   0.931   2.098   3.425
 3931SOL     OW12691   1.676   1.402   2.016
 3931SOL    HW112692   1.688   1.449   2.104
 3931SOL    HW212693   1.756   1.419   1.959
 3932SOL     OW12694   1.860   4.297   3.922
 3932SOL    HW112695   1.920   4.218   3.931
 3932SOL    HW212696   1.821   4.320   4.012
 3933SOL     OW12697   1.572   6.730   0.271
 3933SOL    HW112698   1.658   6.684   0.247
 3933SOL    HW212699   1.505   6.662   0.300
 3934SOL     OW12700   0.215   0.865   2.449
 3934SOL    HW112701   0.151   0.873   2.372
 3934SOL    HW212702   0.165   0.868   2.535
 3935SOL     OW12703   1.292   1.120   5.721
 3935SOL    HW112704   1.229   1.197   5.731
 3935SOL    HW212705   1.338   1.103   5.808
 3936SOL     OW12706   6.644   6.205   5.494
 3936SOL    HW112707   6.583   6.239   5.565
 3936SOL    HW212708   6.596   6.203   5.406
 3937SOL     OW12709   6.873   6.455   2.343
 3937SOL    HW112710   6.873   6.542   2.392
 3937SOL    HW212711   6.942   6.457   2.270
 3938SOL     OW12712   6.188   3.577   4.210
 3938SOL    HW112713   6.274   3.594   4.162
 3938SOL    HW212714   6.195   3.491   4.260
 3939SOL     OW12715   2.357   1.736   3.441
 3939SOL    HW112716   2.379   1.743   3.344
 3939SOL    HW212717   2.259   1.753   3.454
 3940SOL     OW12718   2.982   4.860   1.937
 3940SOL    HW112719   3.076   4.874   1.969
 3940SOL    HW212720   2.959   4.763   1.941
 3941SOL     OW12721   5.852   0.439   4.661
 3941SOL    HW112722   5.847   0.445   4.761
 3941SOL    HW212723   5.885   0.348   4.635
 3942SOL     OW12724   0.869   6.407   5.734
 3942SOL    HW112725   0.871   6.323   5.788
 3942SOL    HW212726   0.920   6.478   5.782
 3943SOL     OW12727   0.252   3.651   2.682
 3943SOL    HW112728   0.244   3.567   2.629
 3943SOL    HW212729   0.255   3.730   2.620
 3944SOL     OW12730   5.816   3.737   5.961
 3944SOL    HW112731   5.743   3.803   5.978
 3944SOL    HW212732   5.782   3.644   5.973
 3945SOL     OW12733   0.902   2.305   2.601
 3945SOL    HW112734   0.841   2.245   2.654
 3945SOL    HW212735   0.952   2.365   2.664
 3946SOL     OW12736   0.062   3.808   6.418
 3946SOL    HW112737   0.017   3.729   6.375
 3946SOL    HW212738   0.139   3.776   6.473
 3947SOL     OW12739   5.740   5.547   0.833
 3947SOL    HW112740   5.714   5.455   0.863
 3947SOL    HW212741   5.675   5.614   0.868
 3948SOL     OW12742   1.236   4.367   0.034
 3948SOL    HW112743   1.192   4.375   6.968
 3948SOL    HW212744   1.178   4.410   0.103
 3949SOL     OW12745   5.821   6.684   2.815
 3949SOL    HW112746   5.793   6.779   2.828
 3949SOL    HW212747   5.903   6.666   2.869
 3950SOL     OW12748   3.806   4.170   1.445
 3950SOL    HW112749   3.870   4.200   1.374
 3950SOL    HW212750   3.789   4.245   1.509
 3951SOL     OW12751   0.689   1.018   0.213
 3951SOL    HW112752   0.709   0.966   0.296
 3951SOL    HW212753   0.634   1.098   0.237
 3952SOL     OW12754   6.161   3.347   4.979
 3952SOL    HW112755   6.168   3.369   5.077
 3952SOL    HW212756   6.068   3.365   4.948
 3953SOL     OW12757   3.893   4.381   6.711
 3953SOL    HW112758   3.937   4.471   6.719
 3953SOL    HW212759   3.823   4.385   6.639
 3954SOL     OW12760   5.666   4.852   5.346
 3954SOL    HW112761   5.745   4.874   5.403
 3954SOL    HW212762   5.688   4.868   5.250
 3955SOL     OW12763   4.831   6.601   6.938
 3955SOL    HW112764   4.819   6.668   6.865
 3955SOL    HW212765   4.754   6.537   6.938
 3956SOL     OW12766   1.220   1.995   4.748
 3956SOL    HW112767   1.126   2.003   4.782
 3956SOL    HW212768   1.221   1.942   4.663
 3957SOL     OW12769   4.593   6.740   3.531
 3957SOL    HW112770   4.520   6.792   3.576
 3957SOL    HW212771   4.606   6.775   3.438
 3958SOL     OW12772   5.873   6.927   6.499
 3958SOL    HW112773   5.818   6.977   6.432
 3958SOL    HW212774   5.968   6.956   6.492
 3959SOL     OW12775   3.216   6.478   1.144
 3959SOL    HW112776   3.312   6.470   1.118
 3959SOL    HW212777   3.195   6.574   1.166
 3960SOL     OW12778   6.004   2.360   6.135
 3960SOL    HW112779   6.016   2.286   6.068
 3960SOL    HW212780   6.004   2.321   6.227
 3961SOL     OW12781   5.548   2.419   2.177
 3961SOL    HW112782   5.455   2.422   2.213
 3961SOL    HW212783   5.557   2.342   2.114
 3962SOL     OW12784   1.240   5.732   0.116
 3962SOL    HW112785   1.278   5.652   0.070
 3962SOL    HW212786   1.191   5.789   0.051
 3963SOL     OW12787   5.379   4.367   3.513
 3963SOL    HW112788   5.297   4.420   3.490
 3963SOL    HW212789   5.407   4.387   3.607
 3964SOL     OW12790   4.354   4.795   4.858
 3964SOL    HW112791   4.365   4.700   4.884
 3964SOL    HW212792   4.257   4.816   4.845
 3965SOL     OW12793   4.060   4.176   6.103
 3965SOL    HW112794   4.000   4.248   6.069
 3965SOL    HW212795   4.038   4.159   6.199
 3966SOL     OW12796   6.849   5.018   0.048
 3966SOL    HW112797   6.851   4.922   0.077
 3966SOL    HW212798   6.772   5.064   0.090
 3967SOL     OW12799   1.447   4.460   2.729
 3967SOL    HW112800   1.434   4.539   2.789
 3967SOL    HW212801   1.363   4.443   2.678
 3968SOL     OW12802   6.380   0.489   1.017
 3968SOL    HW112803   6.440   0.437   1.078
 3968SOL    HW212804   6.296   0.513   1.066
 3969SOL     OW12805   0.291   3.955   2.958
 3969SOL    HW112806   0.384   3.922   2.942
 3969SOL    HW212807   0.289   4.010   3.042
 3970SOL     OW12808   4.693   5.127   3.178
 3970SOL    HW112809   4.633   5.207   3.182
 3970SOL    HW212810   4.637   5.044   3.177
 3971SOL     OW12811   2.489   4.869   2.526
 3971SOL    HW112812   2.450   4.839   2.614
 3971SOL    HW212813   2.587   4.847   2.525
 3972SOL     OW12814   1.304   5.668   1.764
 3972SOL    HW112815   1.403   5.655   1.757
 3972SOL    HW212816   1.277   5.664   1.860
 3973SOL     OW12817   2.466   3.590   5.463
 3973SOL    HW112818   2.535   3.638   5.517
 3973SOL    HW212819   2.511   3.523   5.404
 3974SOL     OW12820   1.783   0.899   5.578
 3974SOL    HW112821   1.779   0.865   5.484
 3974SOL    HW212822   1.776   0.999   5.578
 3975SOL     OW12823   6.136   0.031   6.450
 3975SOL    HW112824   6.072   0.107   6.455
 3975SOL    HW212825   6.199   0.035   6.528
 3976SOL     OW12826   1.943   4.895   0.934
 3976SOL    HW112827   1.854   4.892   0.981
 3976SOL    HW212828   1.957   4.986   0.895
 3977SOL     OW12829   3.371   4.808   5.624
 3977SOL    HW112830   3.295   4.859   5.664
 3977SOL    HW212831   3.447   4.805   5.689
 3978SOL     OW12832   5.693   0.709   4.797
 3978SOL    HW112833   5.788   0.720   4.767
 3978SOL    HW212834   5.678   0.763   4.880
 3979SOL     OW12835   2.745   5.880   1.475
 3979SOL    HW112836   2.698   5.824   1.407
 3979SOL    HW212837   2.679   5.908   1.545
 3980SOL     OW12838   0.173   4.540   5.668
 3980SOL    HW112839   0.080   4.567   5.694
 3980SOL    HW212840   0.204   4.466   5.728
 3981SOL     OW12841   1.650   2.046   6.461
 3981SOL    HW112842   1.609   2.132   6.489
 3981SOL    HW212843   1.579   1.975   6.457
 3982SOL     OW12844   2.801   0.557   3.942
 3982SOL    HW112845   2.718   0.599   3.906
 3982SOL    HW212846   2.814   0.468   3.899
 3983SOL     OW12847   2.989   5.973   4.541
 3983SOL    HW112848   2.957   6.059   4.580
 3983SOL    HW212849   3.086   5.961   4.562
 3984SOL     OW12850   2.161   0.591   2.036
 3984SOL    HW112851   2.256   0.619   2.049
 3984SOL    HW212852   2.155   0.492   2.045
 3985SOL     OW12853   2.643   4.364   0.324
 3985SOL    HW112854   2.713   4.427   0.359
 3985SOL    HW212855   2.575   4.415   0.272
 3986SOL     OW12856   0.006   1.178   3.214
 3986SOL    HW112857   0.053   1.241   3.276
 3986SOL    HW212858   6.973   1.230   3.151
 3987SOL     OW12859   1.405   5.537   4.886
 3987SOL    HW112860   1.402   5.525   4.786
 3987SOL    HW212861   1.312   5.534   4.922
 3988SOL     OW12862   3.549   2.762   5.499
 3988SOL    HW112863   3.498   2.777   5.583
 3988SOL    HW212864   3.568   2.665   5.487
 3989SOL     OW12865   6.446   1.188   0.120
 3989SOL    HW112866   6.463   1.278   0.079
 3989SOL    HW212867   6.398   1.129   0.055
 3990SOL     OW12868   5.961   1.588   3.871
 3990SOL    HW112869   5.977   1.578   3.773
 3990SOL    HW212870   5.926   1.501   3.908
 3991SOL     OW12871   6.537   2.065   2.739
 3991SOL    HW112872   6.452   2.089   2.693
 3991SOL    HW212873   6.611   2.062   2.673
 3992SOL     OW12874   4.220   2.222   6.382
 3992SOL    HW112875   4.247   2.211   6.478
 3992SOL    HW212876   4.275   2.294   6.340
 3993SOL     OW12877   1.320   2.150   3.375
 3993SOL    HW112878   1.258   2.225   3.351
 3993SOL    HW212879   1.289   2.066   3.330
 3994SOL     OW12880   1.500   2.791   5.231
 3994SOL    HW112881   1.552   2.815   5.149
 3994SOL    HW212882   1.548   2.827   5.312
 3995SOL     OW12883   2.142   3.821   4.140
 3995SOL    HW112884   2.152   3.759   4.218
 3995SOL    HW212885   2.133   3.768   4.056
 3996SOL     OW12886   1.456   0.875   5.299
 3996SOL    HW112887   1.487   0.967   5.275
 3996SOL    HW212888   1.396   0.840   5.228
 3997SOL     OW12889   4.942   3.171   3.254
 3997SOL    HW112890   5.030   3.156   3.208
 3997SOL    HW212891   4.953   3.241   3.325
 3998SOL     OW12892   4.999   1.726   2.011
 3998SOL    HW112893   4.917   1.675   2.038
 3998SOL    HW212894   4.981   1.824   2.020
 3999SOL     OW12895   5.578   3.547   3.644
 3999SOL    HW112896   5.618   3.460   3.615
 3999SOL    HW212897   5.628   3.581   3.724
 4000SOL     OW12898   3.500   5.893   2.639
 4000SOL    HW112899   3.508   5.837   2.557
 4000SOL    HW212900   3.583   5.882   2.695
 4001SOL     OW12901   2.217   2.668   4.861
 4001SOL    HW112902   2.253   2.748   4.813
 4001SOL    HW212903   2.217   2.589   4.800
 4002SOL     OW12904   3.220   3.253   6.262
 4002SOL    HW112905   3.274   3.281   6.342
 4002SOL    HW212906   3.125   3.282   6.274
 4003SOL     OW12907   2.599   0.185   5.857
 4003SOL    HW112908   2.637   0.210   5.946
 4003SOL    HW212909   2.596   0.085   5.849
 4004SOL     OW12910   6.031   2.781   4.393
 4004SOL    HW112911   5.990   2.865   4.358
 4004SOL    HW212912   6.090   2.740   4.323
 4005SOL     OW12913   5.450   5.154   1.042
 4005SOL    HW112914   5.455   5.154   1.142
 4005SOL    HW212915   5.518   5.091   1.006
 4006SOL     OW12916   4.628   5.046   2.122
 4006SOL    HW112917   4.581   5.119   2.171
 4006SOL    HW212918   4.687   5.085   2.052
 4007SOL     OW12919   1.105   2.652   1.816
 4007SOL    HW112920   1.026   2.592   1.803
 4007SOL    HW212921   1.078   2.730   1.872
 4008SOL     OW12922   3.976   1.633   5.378
 4008SOL    HW112923   3.889   1.592   5.408
 4008SOL    HW212924   3.965   1.732   5.371
 4009SOL     OW12925   4.594   2.831   0.401
 4009SOL    HW112926   4.561   2.894   0.471
 4009SOL    HW212927   4.654   2.763   0.443
 4010SOL     OW12928   2.120   3.390   1.312
 4010SOL    HW112929   2.209   3.361   1.278
 4010SOL    HW212930   2.088   3.324   1.381
 4011SOL     OW12931   1.276   6.367   1.914
 4011SOL    HW112932   1.243   6.290   1.860
 4011SOL    HW212933   1.214   6.381   1.992
 4012SOL     OW12934   4.750   4.934   1.750
 4012SOL    HW112935   4.749   4.837   1.773
 4012SOL    HW212936   4.830   4.954   1.693
 4013SOL     OW12937   2.993   0.435   0.780
 4013SOL    HW112938   2.960   0.340   0.777
 4013SOL    HW212939   3.089   0.436   0.806
 4014SOL     OW12940   4.168   5.472   3.604
 4014SOL    HW112941   4.100   5.399   3.594
 4014SOL    HW212942   4.123   5.557   3.628
 4015SOL     OW12943   4.525   5.116   6.462
 4015SOL    HW112944   4.556   5.066   6.381
 4015SOL    HW212945   4.429   5.095   6.480
 4016SOL     OW12946   0.893   5.401   6.622
 4016SOL    HW112947   0.976   5.439   6.664
 4016SOL    HW212948   0.818   5.466   6.629
 4017SOL     OW12949   0.781   6.359   0.170
 4017SOL    HW112950   0.853   6.411   0.124
 4017SOL    HW212951   0.745   6.290   0.107
 4018SOL     OW12952   6.022   6.520   1.790
 4018SOL    HW112953   5.943   6.464   1.813
 4018SOL    HW212954   6.106   6.468   1.807
 4019SOL     OW12955   6.403   3.826   2.136
 4019SOL    HW112956   6.432   3.734   2.161
 4019SOL    HW212957   6.445   3.852   2.049
 4020SOL     OW12958   6.600   2.482   5.600
 4020SOL    HW112959   6.602   2.390   5.560
 4020SOL    HW212960   6.610   2.476   5.699
 4021SOL     OW12961   3.292   3.798   5.246
 4021SOL    HW112962   3.391   3.791   5.252
 4021SOL    HW212963   3.256   3.714   5.204
 4022SOL     OW12964   4.668   0.367   6.466
 4022SOL    HW112965   4.693   0.305   6.391
 4022SOL    HW212966   4.668   0.316   6.552
 4023SOL     OW12967   6.953   0.297   4.501
 4023SOL    HW112968   7.018   0.331   4.569
 4023SOL    HW212969   7.002   0.242   4.433
 4024SOL     OW12970   2.963   5.074   4.140
 4024SOL    HW112971   2.919   5.120   4.062
 4024SOL    HW212972   3.057   5.107   4.150
 4025SOL     OW12973   7.001   6.263   4.558
 4025SOL    HW112974   6.989   6.170   4.522
 4025SOL    HW212975   6.941   6.276   4.636
 4026SOL     OW12976   6.091   0.118   3.091
 4026SOL    HW112977   6.070   0.126   2.993
 4026SOL    HW212978   6.033   0.180   3.143
 4027SOL     OW12979   2.409   2.386   1.447
 4027SOL    HW112980   2.500   2.356   1.418
 4027SOL    HW212981   2.343   2.371   1.374
 4028SOL     OW12982   2.712   2.289   2.856
 4028SOL    HW112983   2.654   2.220   2.900
 4028SOL    HW212984   2.656   2.366   2.827
 4029SOL     OW12985   2.976   4.861   6.089
 4029SOL    HW112986   2.916   4.785   6.111
 4029SOL    HW212987   3.005   4.907   6.173
 4030SOL     OW12988   1.062   1.563   1.104
 4030SOL    HW112989   1.031   1.488   1.162
 4030SOL    HW212990   1.072   1.529   1.010
 4031SOL     OW12991   5.235   6.596   3.391
 4031SOL    HW112992   5.168   6.562   3.456
 4031SOL    HW212993   5.201   6.586   3.298
 4032SOL     OW12994   6.538   0.092   2.477
 4032SOL    HW112995   6.586   0.040   2.406
 4032SOL    HW212996   6.597   0.166   2.509
 4033SOL     OW12997   2.889   3.766   1.636
 4033SOL    HW112998   2.914   3.778   1.732
 4033SOL    HW212999   2.972   3.769   1.580
 4034SOL     OW13000   6.876   1.534   4.413
 4034SOL    HW113001   6.905   1.442   4.440
 4034SOL    HW213002   6.791   1.558   4.460
 4035SOL     OW13003   6.224   2.493   0.983
 4035SOL    HW113004   6.248   2.557   0.910
 4035SOL    HW213005   6.243   2.535   1.072
 4036SOL     OW13006   4.909   6.518   2.714
 4036SOL    HW113007   4.975   6.509   2.640
 4036SOL    HW213008   4.841   6.445   2.708
 4037SOL     OW13009   2.433   0.993   0.797
 4037SOL    HW113010   2.449   0.895   0.806
 4037SOL    HW213011   2.480   1.027   0.715
 4038SOL     OW13012   4.331   4.087   1.665
 4038SOL    HW113013   4.322   4.145   1.584
 4038SOL    HW213014   4.370   4.141   1.740
 4039SOL     OW13015   4.663   4.390   1.509
 4039SOL    HW113016   4.599   4.449   1.559
 4039SOL    HW213017   4.665   4.300   1.553
 4040SOL     OW13018   3.754   6.923   5.810
 4040SOL    HW113019   3.797   6.848   5.759
 4040SOL    HW213020   3.718   6.990   5.746
 4041SOL     OW13021   1.810   5.110   1.217
 4041SOL    HW113022   1.755   5.135   1.296
 4041SOL    HW213023   1.895   5.066   1.248
 4042SOL     OW13024   6.446   5.372   2.969
 4042SOL    HW113025   6.356   5.332   2.955
 4042SOL    HW213026   6.439   5.449   3.031
 4043SOL     OW13027   5.128   1.607   4.268
 4043SOL    HW113028   5.190   1.644   4.199
 4043SOL    HW213029   5.056   1.673   4.287
 4044SOL     OW13030   4.811   0.186   3.207
 4044SOL    HW113031   4.738   0.156   3.268
 4044SOL    HW213032   4.802   0.284   3.189
 4045SOL     OW13033   2.838   5.441   5.906
 4045SOL    HW113034   2.761   5.447   5.843
 4045SOL    HW213035   2.879   5.350   5.900
 4046SOL     OW13036   0.941   1.773   3.646
 4046SOL    HW113037   1.006   1.733   3.582
 4046SOL    HW213038   0.989   1.830   3.712
 4047SOL     OW13039   1.301   2.088   0.771
 4047SOL    HW113040   1.201   2.095   0.770
 4047SOL    HW213041   1.328   2.011   0.830
 4048SOL     OW13042   5.201   2.206   2.145
 4048SOL    HW113043   5.258   2.236   2.222
 4048SOL    HW213044   5.118   2.262   2.142
 4049SOL     OW13045   6.221   5.484   5.991
 4049SOL    HW113046   6.131   5.458   6.026
 4049SOL    HW213047   6.250   5.569   6.034
 4050SOL     OW13048   1.497   6.535   0.964
 4050SOL    HW113049   1.586   6.498   0.989
 4050SOL    HW213050   1.449   6.566   1.046
 4051SOL     OW13051   3.806   2.364   6.875
 4051SOL    HW113052   3.840   2.400   6.789
 4051SOL    HW213053   3.831   2.426   6.950
 4052SOL     OW13054   6.781   0.533   2.365
 4052SOL    HW113055   6.857   0.513   2.304
 4052SOL    HW213056   6.814   0.537   2.460
 4053SOL     OW13057   3.381   4.878   4.315
 4053SOL    HW113058   3.300   4.834   4.353
 4053SOL    HW213059   3.367   4.898   4.218
 4054SOL     OW13060   6.869   3.426   2.191
 4054SOL    HW113061   6.841   3.514   2.230
 4054SOL    HW213062   6.837   3.352   2.250
 4055SOL     OW13063   3.607   3.086   6.803
 4055SOL    HW113064   3.526   3.111   6.750
 4055SOL    HW213065   3.689   3.121   6.756
 4056SOL     OW13066   3.674   4.204   0.906
 4056SOL    HW113067   3.631   4.229   0.819
 4056SOL    HW213068   3.627   4.124   0.944
 4057SOL     OW13069   5.493   2.527   1.712
 4057SOL    HW113070   5.438   2.459   1.761
 4057SOL    HW213071   5.544   2.582   1.777
 4058SOL     OW13072   1.777   0.234   3.974
 4058SOL    HW113073   1.681   0.207   3.963
 4058SOL    HW213074   1.796   0.313   3.915
 4059SOL     OW13075   1.179   2.550   3.701
 4059SOL    HW113076   1.256   2.503   3.744
 4059SOL    HW213077   1.194   2.557   3.603
 4060SOL     OW13078   4.671   5.306   4.327
 4060SOL    HW113079   4.592   5.360   4.356
 4060SOL    HW213080   4.673   5.220   4.378
 4061SOL     OW13081   3.025   5.222   1.720
 4061SOL    HW113082   2.926   5.233   1.726
 4061SOL    HW213083   3.051   5.213   1.624
 4062SOL     OW13084   2.335   2.234   2.359
 4062SOL    HW113085   2.257   2.199   2.410
 4062SOL    HW213086   2.323   2.215   2.261
 4063SOL     OW13087   6.060   6.208   5.408
 4063SOL    HW113088   6.123   6.285   5.418
 4063SOL    HW213089   6.104   6.137   5.352
 4064SOL     OW13090   1.611   6.817   3.729
 4064SOL    HW113091   1.523   6.786   3.692
 4064SOL    HW213092   1.662   6.864   3.657
 4065SOL     OW13093   0.045   6.849   0.320
 4065SOL    HW113094   0.105   6.770   0.333
 4065SOL    HW213095   0.091   6.917   0.263
 4066SOL     OW13096   5.357   6.096   2.865
 4066SOL    HW113097   5.456   6.103   2.852
 4066SOL    HW213098   5.315   6.184   2.844
 4067SOL     OW13099   6.499   3.414   3.312
 4067SOL    HW113100   6.574   3.370   3.263
 4067SOL    HW213101   6.504   3.389   3.409
 4068SOL     OW13102   3.109   0.245   4.791
 4068SOL    HW113103   3.093   0.237   4.693
 4068SOL    HW213104   3.146   0.336   4.811
 4069SOL     OW13105   4.013   5.019   6.396
 4069SOL    HW113106   4.038   4.929   6.361
 4069SOL    HW213107   3.917   5.018   6.425
 4070SOL     OW13108   0.333   3.448   2.050
 4070SOL    HW113109   0.386   3.403   1.979
 4070SOL    HW213110   0.276   3.380   2.097
 4071SOL     OW13111   1.223   1.069   5.470
 4071SOL    HW113112   1.280   1.087   5.551
 4071SOL    HW213113   1.178   0.981   5.480
 4072SOL     OW13114   0.749   5.735   3.900
 4072SOL    HW113115   0.654   5.748   3.872
 4072SOL    HW213116   0.800   5.820   3.886
 4073SOL     OW13117   2.600   6.051   6.820
 4073SOL    HW113118   2.683   5.997   6.833
 4073SOL    HW213119   2.622   6.135   6.769
 4074SOL     OW13120   0.096   2.758   2.180
 4074SOL    HW113121   0.016   2.755   2.119
 4074SOL    HW213122   0.168   2.701   2.142
 4075SOL     OW13123   4.247   2.141   2.744
 4075SOL    HW113124   4.188   2.146   2.664
 4075SOL    HW213125   4.233   2.054   2.791
 4076SOL     OW13126   3.428   3.393   5.410
 4076SOL    HW113127   3.433   3.294   5.420
 4076SOL    HW213128   3.466   3.437   5.492
 4077SOL     OW13129   3.536   0.233   0.144
 4077SOL    HW113130   3.631   0.203   0.134
 4077SOL    HW213131   3.496   0.247   0.053
 4078SOL     OW13132   6.414   5.614   1.943
 4078SOL    HW113133   6.406   5.648   2.037
 4078SOL    HW213134   6.424   5.514   1.945
 4079SOL     OW13135   0.480   1.800   3.615
 4079SOL    HW113136   0.564   1.768   3.660
 4079SOL    HW213137   0.409   1.730   3.624
 4080SOL     OW13138   2.878   3.661   6.936
 4080SOL    HW113139   2.936   3.693   6.861
 4080SOL    HW213140   2.794   3.715   6.938
 4081SOL     OW13141   1.912   2.231   4.112
 4081SOL    HW113142   1.888   2.190   4.200
 4081SOL    HW213143   1.842   2.208   4.045
 4082SOL     OW13144   1.251   2.691   0.679
 4082SOL    HW113145   1.211   2.776   0.647
 4082SOL    HW213146   1.193   2.651   0.750
 4083SOL     OW13147   6.541   4.543   1.989
 4083SOL    HW113148   6.618   4.484   2.012
 4083SOL    HW213149   6.525   4.540   1.890
 4084SOL     OW13150   4.419   2.390   3.073
 4084SOL    HW113151   4.401   2.450   3.151
 4084SOL    HW213152   4.510   2.350   3.082
 4085SOL     OW13153   2.659   5.634   0.382
 4085SOL    HW113154   2.652   5.663   0.286
 4085SOL    HW213155   2.657   5.714   0.441
 4086SOL     OW13156   0.320   4.578   1.172
 4086SOL    HW113157   0.377   4.583   1.090
 4086SOL    HW213158   0.373   4.610   1.251
 4087SOL     OW13159   1.523   1.565   3.436
 4087SOL    HW113160   1.590   1.632   3.403
 4087SOL    HW213161   1.507   1.579   3.534
 4088SOL     OW13162   6.471   0.954   6.904
 4088SOL    HW113163   6.392   0.939   6.846
 4088SOL    HW213164   6.513   1.042   6.881
 4089SOL     OW13165   6.159   4.789   3.766
 4089SOL    HW113166   6.144   4.699   3.807
 4089SOL    HW213167   6.103   4.798   3.683
 4090SOL     OW13168   1.476   5.778   5.366
 4090SOL    HW113169   1.460   5.718   5.444
 4090SOL    HW213170   1.408   5.852   5.367
 4091SOL     OW13171   0.757   6.108   0.039
 4091SOL    HW113172   0.748   6.091   6.965
 4091SOL    HW213173   0.834   6.056   0.074
 4092SOL     OW13174   5.672   2.816   4.449
 4092SOL    HW113175   5.709   2.908   4.436
 4092SOL    HW213176   5.713   2.754   4.381
 4093SOL     OW13177   4.954   6.365   1.686
 4093SOL    HW113178   4.877   6.428   1.686
 4093SOL    HW213179   5.035   6.410   1.724
 4094SOL     OW13180   1.585   4.697   6.005
 4094SOL    HW113181   1.575   4.657   5.914
 4094SOL    HW213182   1.678   4.684   6.038
 4095SOL     OW13183   0.453   4.126   0.524
 4095SOL    HW113184   0.374   4.076   0.561
 4095SOL    HW213185   0.502   4.170   0.599
 4096SOL     OW13186   5.096   0.904   6.795
 4096SOL    HW113187   5.075   0.808   6.810
 4096SOL    HW213188   5.183   0.912   6.746
 4097SOL     OW13189   4.425   4.528   4.364
 4097SOL    HW113190   4.496   4.570   4.422
 4097SOL    HW213191   4.378   4.457   4.416
 4098SOL     OW13192   0.846   1.777   1.966
 4098SOL    HW113193   0.897   1.835   1.903
 4098SOL    HW213194   0.910   1.720   2.018
 4099SOL     OW13195   4.205   5.268   1.116
 4099SOL    HW113196   4.106   5.270   1.099
 4099SOL    HW213197   4.249   5.340   1.062
 4100SOL     OW13198   0.229   6.425   4.308
 4100SOL    HW113199   0.240   6.393   4.214
 4100SOL    HW213200   0.178   6.511   4.308
 4101SOL     OW13201   0.503   1.241   0.337
 4101SOL    HW113202   0.594   1.257   0.375
 4101SOL    HW213203   0.492   1.294   0.253
 4102SOL     OW13204   1.230   0.743   0.842
 4102SOL    HW113205   1.325   0.721   0.820
 4102SOL    HW213206   1.171   0.668   0.812
 4103SOL     OW13207   0.622   0.002   0.563
 4103SOL    HW113208   0.635   0.067   0.637
 4103SOL    HW213209   0.666   6.940   0.586
 4104SOL     OW13210   6.937   4.804   3.518
 4104SOL    HW113211   6.985   4.789   3.604
 4104SOL    HW213212   6.890   4.720   3.491
 4105SOL     OW13213   5.654   0.186   2.925
 4105SOL    HW113214   5.658   0.222   3.018
 4105SOL    HW213215   5.745   0.192   2.883
 4106SOL     OW13216   6.850   3.009   3.693
 4106SOL    HW113217   6.943   3.015   3.729
 4106SOL    HW213218   6.842   3.065   3.611
 4107SOL     OW13219   1.577   5.381   1.456
 4107SOL    HW113220   1.489   5.430   1.455
 4107SOL    HW213221   1.621   5.391   1.367
 4108SOL     OW13222   6.671   4.898   4.653
 4108SOL    HW113223   6.632   4.813   4.616
 4108SOL    HW213224   6.597   4.964   4.670
 4109SOL     OW13225   6.408   0.144   4.597
 4109SOL    HW113226   6.494   0.182   4.631
 4109SOL    HW213227   6.426   0.058   4.548
 4110SOL     OW13228   4.369   3.825   5.606
 4110SOL    HW113229   4.364   3.857   5.511
 4110SOL    HW213230   4.278   3.822   5.645
 4111SOL     OW13231   5.673   4.907   6.401
 4111SOL    HW113232   5.589   4.865   6.437
 4111SOL    HW213233   5.736   4.836   6.370
 4112SOL     OW13234   4.895   6.431   4.679
 4112SOL    HW113235   4.918   6.435   4.776
 4112SOL    HW213236   4.797   6.444   4.667
 4113SOL     OW13237   5.835   5.604   5.036
 4113SOL    HW113238   5.758   5.554   5.076
 4113SOL    HW213239   5.856   5.567   4.946
 4114SOL     OW13240   4.025   2.163   4.126
 4114SOL    HW113241   4.007   2.108   4.208
 4114SOL    HW213242   4.087   2.237   4.149
 4115SOL     OW13243   3.097   5.106   2.420
 4115SOL    HW113244   3.119   5.166   2.497
 4115SOL    HW213245   3.136   5.142   2.336
 4116SOL     OW13246   3.911   1.428   2.653
 4116SOL    HW113247   3.815   1.449   2.673
 4116SOL    HW213248   3.932   1.335   2.684
 4117SOL     OW13249   1.114   3.614   2.725
 4117SOL    HW113250   1.043   3.630   2.794
 4117SOL    HW213251   1.104   3.521   2.688
 4118SOL     OW13252   5.138   6.740   0.813
 4118SOL    HW113253   5.122   6.674   0.739
 4118SOL    HW213254   5.152   6.831   0.775
 4119SOL     OW13255   2.843   1.699   3.886
 4119SOL    HW113256   2.758   1.747   3.907
 4119SOL    HW213257   2.838   1.662   3.793
 4120SOL     OW13258   4.077   0.894   5.768
 4120SOL    HW113259   4.086   0.925   5.863
 4120SOL    HW213260   4.095   0.796   5.764
 4121SOL     OW13261   6.451   6.962   3.370
 4121SOL    HW113262   6.409   0.012   3.317
 4121SOL    HW213263   6.398   6.878   3.357
 4122SOL     OW13264   1.486   0.109   4.689
 4122SOL    HW113265   1.456   0.049   4.764
 4122SOL    HW213266   1.576   0.079   4.657
 4123SOL     OW13267   4.304   4.777   5.327
 4123SOL    HW113268   4.324   4.855   5.387
 4123SOL    HW213269   4.268   4.701   5.382
 4124SOL     OW13270   6.554   6.324   0.761
 4124SOL    HW113271   6.563   6.418   0.728
 4124SOL    HW213272   6.640   6.276   0.748
 4125SOL     OW13273   4.575   2.074   2.841
 4125SOL    HW113274   4.562   2.031   2.931
 4125SOL    HW213275   4.500   2.137   2.823
 4126SOL     OW13276   2.149   3.428   3.202
 4126SOL    HW113277   2.171   3.526   3.201
 4126SOL    HW213278   2.155   3.392   3.109
 4127SOL     OW13279   5.727   3.542   5.605
 4127SOL    HW113280   5.671   3.624   5.615
 4127SOL    HW213281   5.674   3.462   5.632
 4128SOL     OW13282   1.083   2.980   1.310
 4128SOL    HW113283   1.086   3.078   1.328
 4128SOL    HW213284   1.158   2.935   1.359
 4129SOL     OW13285   3.418   1.059   6.915
 4129SOL    HW113286   3.335   1.005   6.926
 4129SOL    HW213287   3.407   1.122   6.838
 4130SOL     OW13288   6.452   3.049   1.126
 4130SOL    HW113289   6.406   3.052   1.037
 4130SOL    HW213290   6.541   3.004   1.116
 4131SOL     OW13291   0.046   1.269   3.533
 4131SOL    HW113292   0.092   1.314   3.457
 4131SOL    HW213293   7.023   1.337   3.588
 4132SOL     OW13294   4.888   3.955   3.265
 4132SOL    HW113295   4.940   3.869   3.265
 4132SOL    HW213296   4.846   3.968   3.175
 4133SOL     OW13297   3.406   5.960   1.459
 4133SOL    HW113298   3.470   6.029   1.426
 4133SOL    HW213299   3.349   5.929   1.382
 4134SOL     OW13300   2.600   3.758   1.366
 4134SOL    HW113301   2.519   3.813   1.350
 4134SOL    HW213302   2.583   3.664   1.338
 4135SOL     OW13303   0.577   2.114   1.910
 4135SOL    HW113304   0.533   2.163   1.835
 4135SOL    HW213305   0.673   2.138   1.914
 4136SOL     OW13306   1.194   3.047   2.880
 4136SOL    HW113307   1.225   3.138   2.908
 4136SOL    HW213308   1.116   3.056   2.818
 4137SOL     OW13309   1.580   3.430   1.477
 4137SOL    HW113310   1.673   3.442   1.511
 4137SOL    HW213311   1.572   3.342   1.430
 4138SOL     OW13312   4.231   5.685   2.543
 4138SOL    HW113313   4.300   5.712   2.475
 4138SOL    HW213314   4.245   5.737   2.627
 4139SOL     OW13315   1.701   1.762   5.346
 4139SOL    HW113316   1.707   1.828   5.421
 4139SOL    HW213317   1.617   1.777   5.295
 4140SOL     OW13318   3.363   0.645   5.342
 4140SOL    HW113319   3.412   0.723   5.305
 4140SOL    HW213320   3.360   0.652   5.442
 4141SOL     OW13321   5.007   6.520   1.325
 4141SOL    HW113322   4.987   6.587   1.395
 4141SOL    HW213323   5.051   6.565   1.247
 4142SOL     OW13324   6.450   4.996   0.903
 4142SOL    HW113325   6.403   4.931   0.842
 4142SOL    HW213326   6.545   4.969   0.913
 4143SOL     OW13327   5.244   2.330   0.937
 4143SOL    HW113328   5.239   2.265   0.862
 4143SOL    HW213329   5.226   2.283   1.023
 4144SOL     OW13330   5.267   1.459   0.019
 4144SOL    HW113331   5.191   1.487   0.077
 4144SOL    HW213332   5.315   1.541   7.010
 4145SOL     OW13333   0.520   6.538   1.343
 4145SOL    HW113334   0.460   6.544   1.423
 4145SOL    HW213335   0.615   6.549   1.372
 4146SOL     OW13336   6.204   0.418   2.874
 4146SOL    HW113337   6.168   0.481   2.805
 4146SOL    HW213338   6.178   0.324   2.851
 4147SOL     OW13339   5.037   4.933   6.135
 4147SOL    HW113340   5.095   4.947   6.055
 4147SOL    HW213341   5.069   4.853   6.186
 4148SOL     OW13342   2.173   0.440   4.346
 4148SOL    HW113343   2.265   0.471   4.372
 4148SOL    HW213344   2.138   0.378   4.416
 4149SOL     OW13345   0.010   4.196   1.314
 4149SOL    HW113346   6.995   4.281   1.279
 4149SOL    HW213347   6.964   4.125   1.315
 4150SOL     OW13348   1.307   0.116   6.166
 4150SOL    HW113349   1.227   0.089   6.113
 4150SOL    HW213350   1.277   0.148   6.257
 4151SOL     OW13351   3.362   6.057   5.388
 4151SOL    HW113352   3.326   5.965   5.371
 4151SOL    HW213353   3.288   6.124   5.379
 4152SOL     OW13354   4.472   5.962   1.312
 4152SOL    HW113355   4.546   5.910   1.270
 4152SOL    HW213356   4.389   5.907   1.315
 4153SOL     OW13357   5.740   5.283   0.633
 4153SOL    HW113358   5.825   5.247   0.596
 4153SOL    HW213359   5.702   5.351   0.570
 4154SOL     OW13360   6.799   5.038   3.617
 4154SOL    HW113361   6.829   4.950   3.581
 4154SOL    HW213362   6.777   5.100   3.541
 4155SOL     OW13363   0.236   1.210   2.147
 4155SOL    HW113364   0.272   1.160   2.227
 4155SOL    HW213365   0.264   1.306   2.152
 4156SOL     OW13366   6.032   6.184   5.024
 4156SOL    HW113367   5.948   6.189   4.970
 4156SOL    HW213368   6.057   6.276   5.055
 4157SOL     OW13369   4.874   5.714   3.871
 4157SOL    HW113370   4.958   5.734   3.920
 4157SOL    HW213371   4.894   5.657   3.791
 4158SOL     OW13372   0.449   3.231   1.595
 4158SOL    HW113373   0.445   3.212   1.693
 4158SOL    HW213374   0.411   3.322   1.577
 4159SOL     OW13375   2.223   3.102   2.867
 4159SOL    HW113376   2.265   3.191   2.887
 4159SOL    HW213377   2.142   3.116   2.809
 4160SOL     OW13378   5.726   1.157   0.518
 4160SOL    HW113379   5.808   1.166   0.462
 4160SOL    HW213380   5.734   1.215   0.599
 4161SOL     OW13381   1.001   2.145   0.952
 4161SOL    HW113382   0.905   2.143   0.981
 4161SOL    HW213383   1.054   2.081   1.007
 4162SOL     OW13384   6.588   5.803   0.295
 4162SOL    HW113385   6.677   5.844   0.279
 4162SOL    HW213386   6.533   5.863   0.353
 4163SOL     OW13387   4.863   0.514   2.805
 4163SOL    HW113388   4.840   0.475   2.716
 4163SOL    HW213389   4.784   0.506   2.866
 4164SOL     OW13390   2.083   6.794   6.044
 4164SOL    HW113391   2.171   6.793   5.996
 4164SOL    HW213392   2.070   6.706   6.090
 4165SOL     OW13393   4.268   0.667   5.819
 4165SOL    HW113394   4.243   0.570   5.813
 4165SOL    HW213395   4.325   0.691   5.741
 4166SOL     OW13396   5.359   1.769   0.571
 4166SOL    HW113397   5.379   1.735   0.479
 4166SOL    HW213398   5.290   1.841   0.566
 4167SOL     OW13399   2.392   4.546   0.527
 4167SOL    HW113400   2.341   4.628   0.551
 4167SOL    HW213401   2.356   4.467   0.576
 4168SOL     OW13402   0.073   4.635   1.612
 4168SOL    HW113403   0.116   4.713   1.567
 4168SOL    HW213404   0.142   4.583   1.663
 4169SOL     OW13405   5.672   4.873   5.082
 4169SOL    HW113406   5.580   4.895   5.050
 4169SOL    HW213407   5.736   4.880   5.006
 4170SOL     OW13408   4.357   3.574   6.342
 4170SOL    HW113409   4.309   3.660   6.360
 4170SOL    HW213410   4.392   3.538   6.428
 4171SOL     OW13411   6.712   5.759   0.901
 4171SOL    HW113412   6.660   5.701   0.838
 4171SOL    HW213413   6.729   5.709   0.986
 4172SOL     OW13414   1.203   1.703   6.124
 4172SOL    HW113415   1.282   1.764   6.135
 4172SOL    HW213416   1.120   1.751   6.151
 4173SOL     OW13417   5.093   4.413   4.519
 4173SOL    HW113418   5.114   4.473   4.441
 4173SOL    HW213419   5.005   4.439   4.558
 4174SOL     OW13420   4.925   1.519   2.837
 4174SOL    HW113421   4.903   1.474   2.924
 4174SOL    HW213422   4.959   1.451   2.773
 4175SOL     OW13423   1.907   5.278   4.648
 4175SOL    HW113424   1.858   5.259   4.734
 4175SOL    HW213425   1.917   5.194   4.596
 4176SOL     OW13426   3.648   6.008   1.869
 4176SOL    HW113427   3.746   6.026   1.872
 4176SOL    HW213428   3.633   5.913   1.841
 4177SOL     OW13429   6.066   5.088   4.972
 4177SOL    HW113430   6.071   5.040   5.059
 4177SOL    HW213431   6.155   5.127   4.950
 4178SOL     OW13432   4.300   6.977   4.133
 4178SOL    HW113433   4.361   6.898   4.136
 4178SOL    HW213434   4.286   7.005   4.038
 4179SOL     OW13435   5.839   3.413   3.371
 4179SOL    HW113436   5.890   3.428   3.286
 4179SOL    HW213437   5.901   3.376   3.441
 4180SOL     OW13438   4.841   4.144   0.985
 4180SOL    HW113439   4.897   4.187   0.915
 4180SOL    HW213440   4.883   4.156   1.075
 4181SOL     OW13441   3.673   0.874   0.375
 4181SOL    HW113442   3.678   0.808   0.451
 4181SOL    HW213443   3.583   0.869   0.332
 4182SOL     OW13444   0.811   0.002   3.814
 4182SOL    HW113445   0.803   0.003   3.715
 4182SOL    HW213446   0.897   0.045   3.842
 4183SOL     OW13447   3.141   1.259   6.999
 4183SOL    HW113448   3.129   1.163   6.976
 4183SOL    HW213449   3.071   1.313   6.953
 4184SOL     OW13450   4.085   6.187   2.383
 4184SOL    HW113451   4.063   6.097   2.347
 4184SOL    HW213452   4.046   6.258   2.324
 4185SOL     OW13453   0.508   4.601   2.366
 4185SOL    HW113454   0.575   4.608   2.292
 4185SOL    HW213455   0.513   4.511   2.408
 4186SOL     OW13456   3.040   4.936   0.019
 4186SOL    HW113457   3.045   4.857   0.079
 4186SOL    HW213458   2.981   4.915   6.965
 4187SOL     OW13459   3.709   3.111   5.718
 4187SOL    HW113460   3.737   3.033   5.663
 4187SOL    HW213461   3.747   3.195   5.679
 4188SOL     OW13462   5.052   0.443   5.072
 4188SOL    HW113463   4.956   0.419   5.083
 4188SOL    HW213464   5.094   0.453   5.162
 4189SOL     OW13465   3.276   4.940   5.390
 4189SOL    HW113466   3.308   4.918   5.482
 4189SOL    HW213467   3.204   5.009   5.396
 4190SOL     OW13468   0.696   0.567   0.325
 4190SOL    HW113469   0.786   0.523   0.328
 4190SOL    HW213470   0.644   0.542   0.407
 4191SOL     OW13471   4.851   4.325   3.025
 4191SOL    HW113472   4.767   4.278   3.052
 4191SOL    HW213473   4.835   4.378   2.942
 4192SOL     OW13474   0.913   1.074   3.905
 4192SOL    HW113475   0.927   0.984   3.946
 4192SOL    HW213476   0.921   1.067   3.806
 4193SOL     OW13477   0.566   0.890   1.795
 4193SOL    HW113478   0.624   0.896   1.713
 4193SOL    HW213479   0.513   0.974   1.804
 4194SOL     OW13480   5.846   0.384   4.144
 4194SOL    HW113481   5.847   0.444   4.064
 4194SOL    HW213482   5.840   0.289   4.114
 4195SOL     OW13483   3.771   6.362   2.210
 4195SOL    HW113484   3.715   6.371   2.128
 4195SOL    HW213485   3.868   6.362   2.184
 4196SOL     OW13486   6.520   2.224   3.156
 4196SOL    HW113487   6.499   2.207   3.252
 4196SOL    HW213488   6.498   2.143   3.101
 4197SOL     OW13489   4.816   5.503   5.772
 4197SOL    HW113490   4.841   5.493   5.869
 4197SOL    HW213491   4.725   5.464   5.757
 4198SOL     OW13492   5.497   2.287   0.387
 4198SOL    HW113493   5.486   2.259   0.292
 4198SOL    HW213494   5.590   2.321   0.402
 4199SOL     OW13495   2.211   2.636   6.018
 4199SOL    HW113496   2.275   2.687   5.961
 4199SOL    HW213497   2.262   2.585   6.087
 4200SOL     OW13498   3.875   0.282   5.849
 4200SOL    HW113499   3.918   0.207   5.899
 4200SOL    HW213500   3.833   0.346   5.915
 4201SOL     OW13501   5.974   6.668   3.551
 4201SOL    HW113502   6.031   6.596   3.511
 4201SOL    HW213503   5.878   6.640   3.550
 4202SOL     OW13504   3.885   5.645   5.319
 4202SOL    HW113505   3.801   5.690   5.287
 4202SOL    HW213506   3.861   5.569   5.380
 4203SOL     OW13507   4.413   5.480   0.562
 4203SOL    HW113508   4.457   5.399   0.602
 4203SOL    HW213509   4.373   5.536   0.634
 4204SOL     OW13510   4.000   3.884   2.854
 4204SOL    HW113511   3.934   3.911   2.924
 4204SOL    HW213512   4.047   3.966   2.820
 4205SOL     OW13513   4.094   5.262   3.343
 4205SOL    HW113514   4.146   5.263   3.257
 4205SOL    HW213515   4.155   5.238   3.418
 4206SOL     OW13516   0.064   0.152   5.807
 4206SOL    HW113517   0.162   0.133   5.804
 4206SOL    HW213518   0.042   0.197   5.893
 4207SOL     OW13519   1.644   1.494   1.070
 4207SOL    HW113520   1.679   1.555   1.141
 4207SOL    HW213521   1.675   1.400   1.088
 4208SOL     OW13522   0.186   2.937   6.013
 4208SOL    HW113523   0.214   3.029   5.988
 4208SOL    HW213524   0.095   2.918   5.977
 4209SOL     OW13525   0.186   0.476   4.294
 4209SOL    HW113526   0.254   0.494   4.223
 4209SOL    HW213527   0.136   0.393   4.271
 4210SOL     OW13528   3.295   3.681   2.082
 4210SOL    HW113529   3.296   3.769   2.131
 4210SOL    HW213530   3.217   3.678   2.020
 4211SOL     OW13531   4.360   6.326   5.981
 4211SOL    HW113532   4.351   6.333   6.080
 4211SOL    HW213533   4.457   6.320   5.956
 4212SOL     OW13534   5.985   2.080   2.686
 4212SOL    HW113535   5.931   2.003   2.720
 4212SOL    HW213536   5.927   2.162   2.683
 4213SOL     OW13537   1.750   1.227   1.085
 4213SOL    HW113538   1.731   1.168   1.007
 4213SOL    HW213539   1.842   1.266   1.077
 4214SOL     OW13540   1.372   4.992   5.268
 4214SOL    HW113541   1.280   5.030   5.264
 4214SOL    HW213542   1.417   5.023   5.351
 4215SOL     OW13543   5.607   6.763   5.627
 4215SOL    HW113544   5.649   6.673   5.611
 4215SOL    HW213545   5.510   6.751   5.649
 4216SOL     OW13546   0.989   1.376   3.117
 4216SOL    HW113547   0.953   1.317   3.189
 4216SOL    HW213548   1.087   1.392   3.133
 4217SOL     OW13549   1.004   0.348   2.199
 4217SOL    HW113550   0.935   0.406   2.243
 4217SOL    HW213551   0.958   0.285   2.136
 4218SOL     OW13552   4.402   0.853   1.713
 4218SOL    HW113553   4.302   0.853   1.722
 4218SOL    HW213554   4.436   0.946   1.714
 4219SOL     OW13555   3.214   5.475   4.051
 4219SOL    HW113556   3.145   5.500   3.983
 4219SOL    HW213557   3.277   5.551   4.065
 4220SOL     OW13558   5.374   2.867   4.146
 4220SOL    HW113559   5.354   2.926   4.068
 4220SOL    HW213560   5.350   2.773   4.123
 4221SOL     OW13561   6.036   5.277   6.797
 4221SOL    HW113562   6.104   5.267   6.725
 4221SOL    HW213563   5.966   5.206   6.786
 4222SOL     OW13564   6.591   2.322   2.864
 4222SOL    HW113565   6.549   2.383   2.797
 4222SOL    HW213566   6.573   2.227   2.838
 4223SOL     OW13567   3.568   3.317   6.196
 4223SOL    HW113568   3.649   3.352   6.243
 4223SOL    HW213569   3.567   3.217   6.202
 4224SOL     OW13570   5.176   3.609   3.966
 4224SOL    HW113571   5.086   3.595   4.006
 4224SOL    HW213572   5.216   3.520   3.942
 4225SOL     OW13573   4.075   0.987   6.040
 4225SOL    HW113574   4.051   1.063   5.979
 4225SOL    HW213575   4.018   0.992   6.122
 4226SOL     OW13576   0.721   0.094   2.330
 4226SOL    HW113577   0.641   0.098   2.390
 4226SOL    HW213578   0.716   0.166   2.261
 4227SOL     OW13579   3.797   4.475   1.220
 4227SOL    HW113580   3.760   4.529   1.296
 4227SOL    HW213581   3.876   4.524   1.181
 4228SOL     OW13582   0.515   4.391   4.998
 4228SOL    HW113583   0.422   4.407   4.965
 4228SOL    HW213584   0.580   4.405   4.924
 4229SOL     OW13585   5.275   5.454   5.525
 4229SOL    HW113586   5.269   5.515   5.447
 4229SOL    HW213587   5.213   5.377   5.512
 4230SOL     OW13588   1.234   6.933   2.708
 4230SOL    HW113589   1.301   6.964   2.639
 4230SOL    HW213590   1.272   6.856   2.758
 4231SOL     OW13591   5.463   6.560   5.376
 4231SOL    HW113592   5.520   6.554   5.458
 4231SOL    HW213593   5.439   6.655   5.359
 4232SOL     OW13594   6.945   4.606   2.555
 4232SOL    HW113595   6.862   4.603   2.611
 4232SOL    HW213596   7.000   4.685   2.581
 4233SOL     OW13597   7.003   0.787   6.269
 4233SOL    HW113598   6.940   0.845   6.320
 4233SOL    HW213599   0.062   0.839   6.249
 4234SOL     OW13600   2.321   6.660   5.428
 4234SOL    HW113601   2.318   6.727   5.502
 4234SOL    HW213602   2.373   6.699   5.351
 4235SOL     OW13603   6.145   4.114   5.754
 4235SOL    HW113604   6.218   4.048   5.735
 4235SOL    HW213605   6.095   4.087   5.836
 4236SOL     OW13606   7.001   3.484   3.088
 4236SOL    HW113607   6.944   3.499   3.169
 4236SOL    HW213608   6.979   3.552   3.018
 4237SOL     OW13609   5.591   5.500   2.564
 4237SOL    HW113610   5.542   5.420   2.530
 4237SOL    HW213611   5.557   5.582   2.518
 4238SOL     OW13612   2.956   5.137   3.032
 4238SOL    HW113613   2.891   5.180   3.095
 4238SOL    HW213614   3.049   5.166   3.055
 4239SOL     OW13615   5.496   2.038   3.064
 4239SOL    HW113616   5.565   2.059   2.994
 4239SOL    HW213617   5.454   1.950   3.043
 4240SOL     OW13618   2.416   6.995   6.910
 4240SOL    HW113619   2.452   6.909   6.947
 4240SOL    HW213620   2.367   0.019   6.983
 4241SOL     OW13621   5.918   1.216   0.360
 4241SOL    HW113622   6.016   1.229   0.375
 4241SOL    HW213623   5.896   1.234   0.264
 4242SOL     OW13624   2.213   0.990   3.526
 4242SOL    HW113625   2.301   1.007   3.482
 4242SOL    HW213626   2.196   0.891   3.529
 4243SOL     OW13627   6.510   3.079   3.470
 4243SOL    HW113628   6.525   2.989   3.428
 4243SOL    HW213629   6.412   3.093   3.484
 4244SOL     OW13630   4.623   4.578   1.048
 4244SOL    HW113631   4.670   4.664   1.025
 4244SOL    HW213632   4.666   4.538   1.129
 4245SOL     OW13633   6.747   0.938   6.276
 4245SOL    HW113634   6.791   0.898   6.195
 4245SOL    HW213635   6.799   1.018   6.305
 4246SOL     OW13636   6.771   3.374   2.733
 4246SOL    HW113637   6.710   3.380   2.654
 4246SOL    HW213638   6.764   3.283   2.774
 4247SOL     OW13639   2.770   5.062   3.236
 4247SOL    HW113640   2.742   5.026   3.325
 4247SOL    HW213641   2.801   4.987   3.178
 4248SOL     OW13642   1.955   2.003   3.884
 4248SOL    HW113643   1.995   2.093   3.873
 4248SOL    HW213644   2.026   1.933   3.876
 4249SOL     OW13645   5.803   2.499   4.049
 4249SOL    HW113646   5.871   2.535   3.986
 4249SOL    HW213647   5.804   2.553   4.133
 4250SOL     OW13648   6.890   5.894   3.468
 4250SOL    HW113649   6.858   5.823   3.530
 4250SOL    HW213650   6.952   5.853   3.401
 4251SOL     OW13651   5.371   3.811   1.031
 4251SOL    HW113652   5.344   3.893   0.982
 4251SOL    HW213653   5.345   3.730   0.978
 4252SOL     OW13654   6.187   6.788   6.670
 4252SOL    HW113655   6.201   6.887   6.669
 4252SOL    HW213656   6.181   6.755   6.576
 4253SOL     OW13657   3.178   6.737   1.200
 4253SOL    HW113658   3.246   6.802   1.166
 4253SOL    HW213659   3.089   6.783   1.208
 4254SOL     OW13660   1.373   3.386   1.901
 4254SOL    HW113661   1.372   3.455   1.828
 4254SOL    HW213662   1.305   3.409   1.970
 4255SOL     OW13663   6.931   4.199   4.253
 4255SOL    HW113664   6.939   4.174   4.350
 4255SOL    HW213665   7.013   4.171   4.205
 4256SOL     OW13666   1.634   6.148   0.876
 4256SOL    HW113667   1.661   6.151   0.972
 4256SOL    HW213668   1.538   6.124   0.869
 4257SOL     OW13669   2.925   0.615   4.170
 4257SOL    HW113670   2.889   0.702   4.204
 4257SOL    HW213671   2.892   0.599   4.077
 4258SOL     OW13672   3.424   5.756   1.083
 4258SOL    HW113673   3.390   5.667   1.111
 4258SOL    HW213674   3.352   5.824   1.090
 4259SOL     OW13675   2.206   0.430   0.992
 4259SOL    HW113676   2.281   0.488   1.023
 4259SOL    HW213677   2.234   0.334   0.996
 4260SOL     OW13678   5.952   0.724   1.553
 4260SOL    HW113679   5.971   0.631   1.586
 4260SOL    HW213680   5.982   0.791   1.621
 4261SOL     OW13681   2.363   0.248   2.535
 4261SOL    HW113682   2.409   0.264   2.447
 4261SOL    HW213683   2.428   0.209   2.600
 4262SOL     OW13684   0.532   4.470   6.413
 4262SOL    HW113685   0.553   4.390   6.470
 4262SOL    HW213686   0.607   4.486   6.349
 4263SOL     OW13687   3.058   0.482   2.344
 4263SOL    HW113688   3.087   0.409   2.406
 4263SOL    HW213689   3.004   0.549   2.395
 4264SOL     OW13690   6.088   1.658   3.629
 4264SOL    HW113691   6.047   1.675   3.540
 4264SOL    HW213692   6.095   1.744   3.680
 4265SOL     OW13693   4.002   1.726   0.813
 4265SOL    HW113694   3.990   1.814   0.859
 4265SOL    HW213695   4.099   1.709   0.798
 4266SOL     OW13696   1.559   5.933   6.255
 4266SOL    HW113697   1.468   5.922   6.297
 4266SOL    HW213698   1.551   5.921   6.156
 4267SOL     OW13699   2.168   3.753   3.579
 4267SOL    HW113700   2.099   3.804   3.630
 4267SOL    HW213701   2.211   3.812   3.512
 4268SOL     OW13702   0.871   5.718   6.646
 4268SOL    HW113703   0.873   5.739   6.548
 4268SOL    HW213704   0.782   5.680   6.670
 4269SOL     OW13705   2.622   0.659   2.239
 4269SOL    HW113706   2.632   0.563   2.266
 4269SOL    HW213707   2.703   0.688   2.188
 4270SOL     OW13708   4.142   3.412   3.283
 4270SOL    HW113709   4.106   3.343   3.346
 4270SOL    HW213710   4.125   3.383   3.189
 4271SOL     OW13711   6.524   1.214   6.836
 4271SOL    HW113712   6.426   1.226   6.851
 4271SOL    HW213713   6.565   1.302   6.811
 4272SOL     OW13714   6.446   2.182   4.508
 4272SOL    HW113715   6.484   2.197   4.599
 4272SOL    HW213716   6.379   2.253   4.487
 4273SOL     OW13717   4.316   6.821   5.012
 4273SOL    HW113718   4.334   6.738   4.959
 4273SOL    HW213719   4.296   6.897   4.949
 4274SOL     OW13720   0.975   0.536   1.351
 4274SOL    HW113721   0.891   0.549   1.403
 4274SOL    HW213722   0.956   0.543   1.253
 4275SOL     OW13723   6.044   2.116   4.741
 4275SOL    HW113724   5.961   2.170   4.744
 4275SOL    HW213725   6.060   2.084   4.647
 4276SOL     OW13726   2.412   5.052   3.714
 4276SOL    HW113727   2.494   5.005   3.749
 4276SOL    HW213728   2.433   5.094   3.625
 4277SOL     OW13729   6.213   4.929   3.245
 4277SOL    HW113730   6.298   4.877   3.255
 4277SOL    HW213731   6.144   4.894   3.308
 4278SOL     OW13732   0.111   6.662   4.983
 4278SOL    HW113733   0.060   6.577   4.993
 4278SOL    HW213734   0.054   6.739   5.009
 4279SOL     OW13735   3.414   1.137   3.891
 4279SOL    HW113736   3.506   1.171   3.913
 4279SOL    HW213737   3.349   1.177   3.956
 4280SOL     OW13738   5.000   0.669   6.400
 4280SOL    HW113739   5.089   0.689   6.441
 4280SOL    HW213740   5.009   0.667   6.300
 4281SOL     OW13741   6.843   4.560   3.460
 4281SOL    HW113742   6.762   4.522   3.416
 4281SOL    HW213743   6.875   4.498   3.532
 4282SOL     OW13744   3.850   4.679   6.183
 4282SOL    HW113745   3.860   4.733   6.099
 4282SOL    HW213746   3.768   4.622   6.176
 4283SOL     OW13747   1.608   0.871   2.877
 4283SOL    HW113748   1.641   0.786   2.834
 4283SOL    HW213749   1.641   0.874   2.971
 4284SOL     OW13750   4.025   4.568   1.168
 4284SOL    HW113751   4.054   4.555   1.262
 4284SOL    HW213752   4.083   4.513   1.107
 4285SOL     OW13753   1.602   0.396   6.000
 4285SOL    HW113754   1.624   0.410   5.904
 4285SOL    HW213755   1.649   0.466   6.055
 4286SOL     OW13756   5.181   6.513   5.464
 4286SOL    HW113757   5.128   6.589   5.428
 4286SOL    HW213758   5.278   6.539   5.469
 4287SOL     OW13759   6.069   1.084   6.062
 4287SOL    HW113760   5.986   1.049   6.106
 4287SOL    HW213761   6.050   1.102   5.966
 4288SOL     OW13762   0.705   5.872   3.617
 4288SOL    HW113763   0.680   5.832   3.529
 4288SOL    HW213764   0.792   5.920   3.609
 4289SOL     OW13765   0.276   2.805   6.246
 4289SOL    HW113766   0.230   2.837   6.162
 4289SOL    HW213767   0.232   2.722   6.278
 4290SOL     OW13768   1.508   6.223   3.507
 4290SOL    HW113769   1.581   6.176   3.557
 4290SOL    HW213770   1.522   6.322   3.512
 4291SOL     OW13771   4.891   3.595   0.837
 4291SOL    HW113772   4.936   3.609   0.748
 4291SOL    HW213773   4.804   3.546   0.822
 4292SOL     OW13774   5.344   3.049   0.452
 4292SOL    HW113775   5.356   2.949   0.447
 4292SOL    HW213776   5.358   3.079   0.547
 4293SOL     OW13777   2.459   2.542   0.140
 4293SOL    HW113778   2.457   2.582   0.048
 4293SOL    HW213779   2.371   2.557   0.185
 4294SOL     OW13780   2.144   2.299   6.736
 4294SOL    HW113781   2.104   2.373   6.683
 4294SOL    HW213782   2.216   2.336   6.795
 4295SOL     OW13783   3.854   5.751   5.011
 4295SOL    HW113784   3.754   5.760   5.010
 4295SOL    HW213785   3.894   5.828   5.059
 4296SOL     OW13786   3.304   6.872   0.836
 4296SOL    HW113787   3.263   6.963   0.823
 4296SOL    HW213788   3.382   6.862   0.774
 4297SOL     OW13789   4.953   0.051   0.825
 4297SOL    HW113790   5.035   0.006   0.789
 4297SOL    HW213791   4.943   0.028   0.922
 4298SOL     OW13792   3.917   5.350   0.494
 4298SOL    HW113793   3.886   5.379   0.585
 4298SOL    HW213794   4.016   5.357   0.489
 4299SOL     OW13795   1.445   2.994   6.506
 4299SOL    HW113796   1.345   2.988   6.505
 4299SOL    HW213797   1.474   3.083   6.472
 4300SOL     OW13798   3.315   6.567   0.001
 4300SOL    HW113799   3.279   6.660   7.016
 4300SOL    HW213800   3.415   6.568   7.014
 4301SOL     OW13801   4.143   0.843   1.735
 4301SOL    HW113802   4.068   0.874   1.792
 4301SOL    HW213803   4.128   0.873   1.640
 4302SOL     OW13804   0.814   0.273   6.025
 4302SOL    HW113805   0.859   0.349   5.976
 4302SOL    HW213806   0.806   0.296   6.122
 4303SOL     OW13807   6.699   4.980   3.872
 4303SOL    HW113808   6.728   4.979   3.776
 4303SOL    HW213809   6.717   5.070   3.911
 4304SOL     OW13810   3.220   3.688   2.689
 4304SOL    HW113811   3.247   3.603   2.735
 4304SOL    HW213812   3.188   3.666   2.596
 4305SOL     OW13813   0.468   6.950   5.662
 4305SOL    HW113814   0.494   6.891   5.585
 4305SOL    HW213815   0.397   6.904   5.716
 4306SOL     OW13816   4.895   4.919   5.462
 4306SOL    HW113817   4.982   4.939   5.416
 4306SOL    HW213818   4.912   4.888   5.555
 4307SOL     OW13819   5.550   3.600   6.095
 4307SOL    HW113820   5.569   3.693   6.062
 4307SOL    HW213821   5.479   3.604   6.166
 4308SOL     OW13822   5.907   4.437   0.874
 4308SOL    HW113823   5.822   4.383   0.867
 4308SOL    HW213824   5.886   4.525   0.916
 4309SOL     OW13825   1.003   1.221   0.377
 4309SOL    HW113826   1.027   1.216   0.280
 4309SOL    HW213827   1.075   1.177   0.431
 4310SOL     OW13828   2.071   2.756   2.275
 4310SOL    HW113829   2.068   2.849   2.312
 4310SOL    HW213830   2.165   2.724   2.273
 4311SOL     OW13831   1.912   6.284   2.500
 4311SOL    HW113832   1.871   6.307   2.588
 4311SOL    HW213833   1.908   6.364   2.440
 4312SOL     OW13834   2.125   5.702   1.812
 4312SOL    HW113835   2.181   5.784   1.825
 4312SOL    HW213836   2.117   5.653   1.899
 4313SOL     OW13837   4.325   1.538   1.201
 4313SOL    HW113838   4.280   1.543   1.112
 4313SOL    HW213839   4.277   1.472   1.258
 4314SOL     OW13840   5.901   1.561   4.398
 4314SOL    HW113841   5.863   1.592   4.486
 4314SOL    HW213842   5.979   1.501   4.415
 4315SOL     OW13843   2.669   6.257   2.375
 4315SOL    HW113844   2.723   6.325   2.425
 4315SOL    HW213845   2.728   6.206   2.313
 4316SOL     OW13846   5.172   1.076   1.838
 4316SOL    HW113847   5.239   1.137   1.880
 4316SOL    HW213848   5.080   1.101   1.870
 4317SOL     OW13849   5.050   2.510   5.020
 4317SOL    HW113850   5.034   2.561   4.936
 4317SOL    HW213851   5.145   2.478   5.022
 4318SOL     OW13852   0.158   2.505   4.892
 4318SOL    HW113853   0.212   2.566   4.950
 4318SOL    HW213854   0.112   2.437   4.948
 4319SOL     OW13855   1.876   1.293   0.474
 4319SOL    HW113856   1.971   1.281   0.443
 4319SOL    HW213857   1.817   1.303   0.394
 4320SOL     OW13858   4.843   4.735   0.701
 4320SOL    HW113859   4.904   4.802   0.659
 4320SOL    HW213860   4.892   4.686   0.773
 4321SOL     OW13861   6.816   6.022   5.427
 4321SOL    HW113862   6.882   6.053   5.495
 4321SOL    HW213863   6.737   6.083   5.426
 4322SOL     OW13864   5.755   2.830   0.209
 4322SOL    HW113865   5.763   2.930   0.217
 4322SOL    HW213866   5.766   2.804   0.113
 4323SOL     OW13867   4.452   4.228   0.101
 4323SOL    HW113868   4.539   4.209   0.055
 4323SOL    HW213869   4.377   4.189   0.048
 4324SOL     OW13870   5.665   4.069   6.793
 4324SOL    HW113871   5.714   4.152   6.769
 4324SOL    HW213872   5.729   3.993   6.803
 4325SOL     OW13873   2.336   1.132   1.726
 4325SOL    HW113874   2.282   1.155   1.807
 4325SOL    HW213875   2.413   1.195   1.718
 4326SOL     OW13876   4.627   4.804   3.441
 4326SOL    HW113877   4.602   4.868   3.514
 4326SOL    HW213878   4.575   4.719   3.452
 4327SOL     OW13879   5.668   6.029   1.814
 4327SOL    HW113880   5.620   6.052   1.730
 4327SOL    HW213881   5.626   6.079   1.891
 4328SOL     OW13882   4.412   4.100   5.742
 4328SOL    HW113883   4.489   4.120   5.802
 4328SOL    HW213884   4.429   4.013   5.694
 4329SOL     OW13885   4.680   2.180   5.528
 4329SOL    HW113886   4.678   2.194   5.429
 4329SOL    HW213887   4.636   2.093   5.550
 4330SOL     OW13888   2.071   6.506   4.264
 4330SOL    HW113889   2.051   6.410   4.287
 4330SOL    HW213890   2.170   6.519   4.258
 4331SOL     OW13891   6.276   1.550   2.161
 4331SOL    HW113892   6.229   1.587   2.081
 4331SOL    HW213893   6.262   1.451   2.166
 4332SOL     OW13894   5.172   3.202   2.221
 4332SOL    HW113895   5.105   3.128   2.227
 4332SOL    HW213896   5.131   3.280   2.174
 4333SOL     OW13897   4.406   1.317   6.067
 4333SOL    HW113898   4.427   1.351   6.158
 4333SOL    HW213899   4.431   1.386   5.999
 4334SOL     OW13900   1.758   2.197   2.748
 4334SOL    HW113901   1.839   2.253   2.728
 4334SOL    HW213902   1.697   2.198   2.669
 4335SOL     OW13903   3.655   4.122   2.792
 4335SOL    HW113904   3.645   4.221   2.782
 4335SOL    HW213905   3.642   4.078   2.704
 4336SOL     OW13906   3.498   6.555   5.800
 4336SOL    HW113907   3.490   6.560   5.700
 4336SOL    HW213908   3.418   6.507   5.837
 4337SOL     OW13909   1.051   4.426   0.249
 4337SOL    HW113910   1.031   4.516   0.287
 4337SOL    HW213911   1.074   4.363   0.324
 4338SOL     OW13912   6.039   6.910   6.144
 4338SOL    HW113913   6.019   6.818   6.177
 4338SOL    HW213914   6.017   6.916   6.047
 4339SOL     OW13915   4.710   3.222   5.743
 4339SOL    HW113916   4.651   3.252   5.817
 4339SOL    HW213917   4.711   3.291   5.670
 4340SOL     OW13918   5.947   3.536   1.394
 4340SOL    HW113919   5.995   3.587   1.466
 4340SOL    HW213920   5.851   3.563   1.392
 4341SOL     OW13921   0.733   4.697   1.913
 4341SOL    HW113922   0.828   4.680   1.887
 4341SOL    HW213923   0.674   4.632   1.865
 4342SOL     OW13924   5.301   3.711   3.196
 4342SOL    HW113925   5.353   3.685   3.277
 4342SOL    HW213926   5.333   3.658   3.117
 4343SOL     OW13927   2.843   5.844   5.008
 4343SOL    HW113928   2.797   5.829   4.921
 4343SOL    HW213929   2.778   5.834   5.083
 4344SOL     OW13930   0.062   3.586   2.030
 4344SOL    HW113931   0.100   3.499   2.063
 4344SOL    HW213932   0.132   3.657   2.033
 4345SOL     OW13933   3.558   4.127   5.562
 4345SOL    HW113934   3.492   4.059   5.593
 4345SOL    HW213935   3.521   4.175   5.483
 4346SOL     OW13936   1.846   3.227   3.102
 4346SOL    HW113937   1.917   3.216   3.032
 4346SOL    HW213938   1.760   3.250   3.058
 4347SOL     OW13939   6.185   6.844   2.270
 4347SOL    HW113940   6.113   6.778   2.246
 4347SOL    HW213941   6.251   6.849   2.195
 4348SOL     OW13942   0.125   5.413   3.593
 4348SOL    HW113943   0.051   5.461   3.546
 4348SOL    HW213944   0.088   5.331   3.637
 4349SOL     OW13945   5.628   2.079   2.753
 4349SOL    HW113946   5.627   2.031   2.665
 4349SOL    HW213947   5.698   2.150   2.750
 4350SOL     OW13948   3.651   1.578   3.555
 4350SOL    HW113949   3.672   1.510   3.625
 4350SOL    HW213950   3.569   1.551   3.506
 4351SOL     OW13951   1.757   5.750   0.983
 4351SOL    HW113952   1.747   5.715   1.076
 4351SOL    HW213953   1.676   5.804   0.958
 4352SOL     OW13954   6.747   3.743   2.359
 4352SOL    HW113955   6.786   3.682   2.428
 4352SOL    HW213956   6.753   3.838   2.391
 4353SOL     OW13957   4.034   2.814   6.721
 4353SOL    HW113958   4.093   2.832   6.800
 4353SOL    HW213959   3.943   2.850   6.739
 4354SOL     OW13960   1.947   0.621   5.830
 4354SOL    HW113961   1.948   0.533   5.783
 4354SOL    HW213962   1.871   0.677   5.795
 4355SOL     OW13963   2.677   6.963   2.696
 4355SOL    HW113964   2.762   6.921   2.663
 4355SOL    HW213965   2.675   0.035   2.667
 4356SOL     OW13966   5.287   3.642   6.983
 4356SOL    HW113967   5.366   3.680   0.008
 4356SOL    HW213968   5.319   3.578   6.914
 4357SOL     OW13969   6.145   1.114   1.499
 4357SOL    HW113970   6.214   1.182   1.476
 4357SOL    HW213971   6.174   1.024   1.466
 4358SOL     OW13972   0.216   0.652   0.499
 4358SOL    HW113973   0.208   0.683   0.594
 4358SOL    HW213974   0.285   0.708   0.452
 4359SOL     OW13975   1.822   1.031   5.920
 4359SOL    HW113976   1.748   1.027   5.852
 4359SOL    HW213977   1.795   1.092   5.995
 4360SOL     OW13978   1.291   3.135   3.742
 4360SOL    HW113979   1.344   3.185   3.673
 4360SOL    HW213980   1.326   3.158   3.834
 4361SOL     OW13981   2.330   3.404   1.514
 4361SOL    HW113982   2.238   3.383   1.546
 4361SOL    HW213983   2.363   3.488   1.558
 4362SOL     OW13984   6.481   5.256   3.431
 4362SOL    HW113985   6.390   5.260   3.474
 4362SOL    HW213986   6.473   5.210   3.342
 4363SOL     OW13987   5.409   2.012   1.174
 4363SOL    HW113988   5.352   2.090   1.202
 4363SOL    HW213989   5.385   1.986   1.081
 4364SOL     OW13990   3.028   3.959   4.558
 4364SOL    HW113991   2.936   3.950   4.522
 4364SOL    HW213992   3.027   3.941   4.656
 4365SOL     OW13993   2.664   0.752   1.681
 4365SOL    HW113994   2.669   0.672   1.621
 4365SOL    HW213995   2.729   0.821   1.649
 4366SOL     OW13996   6.249   0.090   6.712
 4366SOL    HW113997   6.195   0.082   6.796
 4366SOL    HW213998   6.262   0.186   6.689
 4367SOL     OW13999   2.311   4.408   4.537
 4367SOL    HW114000   2.235   4.386   4.475
 4367SOL    HW214001   2.298   4.359   4.623
 4368SOL     OW14002   3.618   5.396   0.473
 4368SOL    HW114003   3.627   5.446   0.387
 4368SOL    HW214004   3.685   5.322   0.477
 4369SOL     OW14005   4.659   5.737   2.922
 4369SOL    HW114006   4.732   5.770   2.863
 4369SOL    HW214007   4.577   5.721   2.868
 4370SOL     OW14008   3.638   4.874   1.646
 4370SOL    HW114009   3.637   4.957   1.701
 4370SOL    HW214010   3.644   4.794   1.706
 4371SOL     OW14011   0.782   1.931   2.210
 4371SOL    HW114012   0.788   1.882   2.124
 4371SOL    HW214013   0.845   1.890   2.276
 4372SOL     OW14014   2.450   2.313   3.493
 4372SOL    HW114015   2.424   2.313   3.590
 4372SOL    HW214016   2.476   2.221   3.466
 4373SOL     OW14017   5.538   1.360   0.052
 4373SOL    HW114018   5.444   1.392   0.069
 4373SOL    HW214019   5.587   1.428   7.022
 4374SOL     OW14020   0.443   1.260   0.859
 4374SOL    HW114021   0.365   1.275   0.798
 4374SOL    HW214022   0.478   1.347   0.892
 4375SOL     OW14023   4.275   6.693   3.176
 4375SOL    HW114024   4.291   6.779   3.225
 4375SOL    HW214025   4.233   6.627   3.238
 4376SOL     OW14026   6.178   6.556   2.897
 4376SOL    HW114027   6.121   6.598   2.968
 4376SOL    HW214028   6.175   6.612   2.814
 4377SOL     OW14029   5.516   5.474   0.013
 4377SOL    HW114030   5.576   5.552   0.029
 4377SOL    HW214031   5.459   5.458   0.094
 4378SOL     OW14032   1.942   2.807   2.598
 4378SOL    HW114033   1.848   2.828   2.622
 4378SOL    HW214034   1.997   2.802   2.682
 4379SOL     OW14035   2.248   2.188   2.798
 4379SOL    HW114036   2.328   2.194   2.738
 4379SOL    HW214037   2.237   2.094   2.829
 4380SOL     OW14038   0.754   6.752   2.965
 4380SOL    HW114039   0.665   6.782   2.999
 4380SOL    HW214040   0.810   6.832   2.945
 4381SOL     OW14041   1.918   4.040   5.663
 4381SOL    HW114042   1.997   3.990   5.699
 4381SOL    HW214043   1.937   4.072   5.571
 4382SOL     OW14044   6.051   3.258   6.265
 4382SOL    HW114045   6.064   3.348   6.223
 4382SOL    HW214046   5.975   3.262   6.329
 4383SOL     OW14047   0.687   2.083   5.841
 4383SOL    HW114048   0.691   2.176   5.803
 4383SOL    HW214049   0.625   2.082   5.919
 4384SOL     OW14050   6.166   2.236   5.926
 4384SOL    HW114051   6.094   2.187   5.877
 4384SOL    HW214052   6.178   2.326   5.886
 4385SOL     OW14053   6.048   2.680   5.269
 4385SOL    HW114054   6.062   2.737   5.350
 4385SOL    HW214055   6.071   2.733   5.187
 4386SOL     OW14056   2.152   3.446   0.237
 4386SOL    HW114057   2.208   3.363   0.233
 4386SOL    HW214058   2.097   3.446   0.321
 4387SOL     OW14059   6.617   1.527   1.120
 4387SOL    HW114060   6.660   1.534   1.210
 4387SOL    HW214061   6.665   1.459   1.065
 4388SOL     OW14062   5.227   1.707   6.670
 4388SOL    HW114063   5.267   1.681   6.583
 4388SOL    HW214064   5.130   1.684   6.671
 4389SOL     OW14065   0.646   3.721   0.537
 4389SOL    HW114066   0.675   3.728   0.633
 4389SOL    HW214067   0.583   3.645   0.526
 4390SOL     OW14068   3.731   0.980   0.878
 4390SOL    HW114069   3.778   1.006   0.794
 4390SOL    HW214070   3.795   0.982   0.954
 4391SOL     OW14071   1.729   5.828   0.114
 4391SOL    HW114072   1.733   5.739   0.069
 4391SOL    HW214073   1.636   5.865   0.107
 4392SOL     OW14074   6.832   3.369   6.118
 4392SOL    HW114075   6.923   3.334   6.099
 4392SOL    HW214076   6.764   3.309   6.075
 4393SOL     OW14077   5.996   0.728   2.069
 4393SOL    HW114078   6.085   0.771   2.056
 4393SOL    HW214079   5.940   0.785   2.129
 4394SOL     OW14080   5.850   5.668   2.310
 4394SOL    HW114081   5.760   5.636   2.341
 4394SOL    HW214082   5.891   5.725   2.381
 4395SOL     OW14083   3.270   6.857   1.797
 4395SOL    HW114084   3.317   6.939   1.830
 4395SOL    HW214085   3.329   6.777   1.814
 4396SOL     OW14086   2.100   2.230   3.912
 4396SOL    HW114087   2.045   2.227   3.996
 4396SOL    HW214088   2.188   2.275   3.932
 4397SOL     OW14089   0.423   1.128   4.517
 4397SOL    HW114090   0.330   1.127   4.553
 4397SOL    HW214091   0.457   1.034   4.509
 4398SOL     OW14092   0.895   4.177   5.622
 4398SOL    HW114093   0.950   4.127   5.555
 4398SOL    HW214094   0.813   4.124   5.643
 4399SOL     OW14095   1.920   0.458   1.705
 4399SOL    HW114096   1.973   0.542   1.693
 4399SOL    HW214097   1.914   0.436   1.802
 4400SOL     OW14098   3.582   6.724   5.545
 4400SOL    HW114099   3.496   6.770   5.523
 4400SOL    HW214100   3.604   6.658   5.474
 4401SOL     OW14101   4.441   6.790   6.465
 4401SOL    HW114102   4.437   6.871   6.524
 4401SOL    HW214103   4.530   6.787   6.419
 4402SOL     OW14104   2.709   0.068   1.452
 4402SOL    HW114105   2.632   0.043   1.511
 4402SOL    HW214106   2.778   0.116   1.506
 4403SOL     OW14107   0.699   0.197   3.200
 4403SOL    HW114108   0.759   0.118   3.189
 4403SOL    HW214109   0.735   0.256   3.272
 4404SOL     OW14110   0.199   4.688   5.971
 4404SOL    HW114111   0.259   4.612   5.947
 4404SOL    HW214112   0.232   4.771   5.926
 4405SOL     OW14113   1.813   4.574   1.366
 4405SOL    HW114114   1.833   4.641   1.437
 4405SOL    HW214115   1.889   4.570   1.302
 4406SOL     OW14116   0.019   3.984   0.852
 4406SOL    HW114117   0.103   3.950   0.810
 4406SOL    HW214118   6.965   3.931   0.819
 4407SOL     OW14119   6.593   4.641   0.625
 4407SOL    HW114120   6.587   4.542   0.611
 4407SOL    HW214121   6.672   4.661   0.683
 4408SOL     OW14122   3.547   0.857   1.933
 4408SOL    HW114123   3.629   0.871   1.989
 4408SOL    HW214124   3.503   0.946   1.916
 4409SOL     OW14125   5.009   0.638   2.381
 4409SOL    HW114126   4.947   0.582   2.437
 4409SOL    HW214127   4.979   0.634   2.285
 4410SOL     OW14128   1.104   5.554   6.730
 4410SOL    HW114129   1.162   5.606   6.792
 4410SOL    HW214130   1.057   5.618   6.668
 4411SOL     OW14131   3.523   3.932   4.407
 4411SOL    HW114132   3.543   3.997   4.480
 4411SOL    HW214133   3.574   3.847   4.423
 4412SOL     OW14134   4.317   6.481   4.661
 4412SOL    HW114135   4.394   6.515   4.714
 4412SOL    HW214136   4.244   6.452   4.723
 4413SOL     OW14137   6.406   5.190   4.385
 4413SOL    HW114138   6.377   5.118   4.322
 4413SOL    HW214139   6.499   5.220   4.361
 4414SOL     OW14140   3.616   4.596   1.415
 4414SOL    HW114141   3.571   4.508   1.431
 4414SOL    HW214142   3.652   4.630   1.502
 4415SOL     OW14143   3.771   3.442   0.546
 4415SOL    HW114144   3.700   3.372   0.541
 4415SOL    HW214145   3.791   3.477   0.454
 4416SOL     OW14146   2.691   0.694   3.547
 4416SOL    HW114147   2.692   0.596   3.571
 4416SOL    HW214148   2.784   0.729   3.548
 4417SOL     OW14149   5.931   4.316   3.197
 4417SOL    HW114150   5.889   4.226   3.184
 4417SOL    HW214151   5.949   4.331   3.294
 4418SOL     OW14152   5.738   2.066   2.102
 4418SOL    HW114153   5.671   2.097   2.035
 4418SOL    HW214154   5.713   1.974   2.133
 4419SOL     OW14155   5.779   6.435   6.870
 4419SOL    HW114156   5.757   6.338   6.882
 4419SOL    HW214157   5.836   6.447   6.789
 4420SOL     OW14158   5.463   1.802   1.992
 4420SOL    HW114159   5.373   1.769   2.020
 4420SOL    HW214160   5.516   1.726   1.954
 4421SOL     OW14161   1.768   0.794   5.260
 4421SOL    HW114162   1.775   0.892   5.278
 4421SOL    HW214163   1.674   0.772   5.231
 4422SOL     OW14164   2.619   3.773   6.942
 4422SOL    HW114165   2.543   3.725   6.986
 4422SOL    HW214166   2.596   3.790   6.846
 4423SOL     OW14167   0.737   2.808   5.754
 4423SOL    HW114168   0.674   2.853   5.690
 4423SOL    HW214169   0.823   2.857   5.757
 4424SOL     OW14170   5.879   0.876   4.371
 4424SOL    HW114171   5.889   0.799   4.435
 4424SOL    HW214172   5.876   0.962   4.423
 4425SOL     OW14173   3.022   4.753   0.248
 4425SOL    HW114174   2.970   4.756   0.333
 4425SOL    HW214175   2.982   4.686   0.186
 4426SOL     OW14176   0.228   0.812   4.746
 4426SOL    HW114177   0.327   0.830   4.745
 4426SOL    HW214178   0.208   0.735   4.686
 4427SOL     OW14179   0.791   6.221   2.351
 4427SOL    HW114180   0.802   6.130   2.391
 4427SOL    HW214181   0.832   6.222   2.259
 4428SOL     OW14182   3.375   0.131   2.607
 4428SOL    HW114183   3.387   0.171   2.516
 4428SOL    HW214184   3.300   0.178   2.654
 4429SOL     OW14185   2.622   6.651   2.702
 4429SOL    HW114186   2.522   6.649   2.697
 4429SOL    HW214187   2.651   6.661   2.798
 4430SOL     OW14188   4.784   3.985   4.686
 4430SOL    HW114189   4.742   3.900   4.716
 4430SOL    HW214190   4.764   4.057   4.751
 4431SOL     OW14191   2.021   1.239   1.859
 4431SOL    HW114192   1.962   1.177   1.912
 4431SOL    HW214193   2.114   1.236   1.896
 4432SOL     OW14194   3.298   3.505   5.198
 4432SOL    HW114195   3.316   3.467   5.289
 4432SOL    HW214196   3.378   3.493   5.140
 4433SOL     OW14197   4.472   1.494   4.586
 4433SOL    HW114198   4.523   1.408   4.578
 4433SOL    HW214199   4.374   1.475   4.577
 4434SOL     OW14200   5.265   1.758   4.098
 4434SOL    HW114201   5.310   1.792   4.016
 4434SOL    HW214202   5.316   1.789   4.179
 4435SOL     OW14203   4.811   3.424   1.371
 4435SOL    HW114204   4.881   3.415   1.300
 4435SOL    HW214205   4.807   3.341   1.425
 4436SOL     OW14206   4.659   0.916   1.034
 4436SOL    HW114207   4.715   0.850   1.084
 4436SOL    HW214208   4.598   0.867   0.971
 4437SOL     OW14209   6.202   2.074   2.929
 4437SOL    HW114210   6.189   2.170   2.953
 4437SOL    HW214211   6.136   2.047   2.859
 4438SOL     OW14212   5.575   0.046   0.066
 4438SOL    HW114213   5.606   0.001   7.007
 4438SOL    HW214214   5.564   0.144   0.049
 4439SOL     OW14215   0.433   4.998   2.084
 4439SOL    HW114216   0.366   5.067   2.057
 4439SOL    HW214217   0.509   4.998   2.020
 4440SOL     OW14218   2.703   5.198   0.593
 4440SOL    HW114219   2.725   5.254   0.514
 4440SOL    HW214220   2.680   5.105   0.562
 4441SOL     OW14221   6.928   1.446   2.770
 4441SOL    HW114222   6.912   1.433   2.867
 4441SOL    HW214223   6.954   1.359   2.728
 4442SOL     OW14224   2.694   5.671   4.276
 4442SOL    HW114225   2.694   5.572   4.286
 4442SOL    HW214226   2.783   5.707   4.305
 4443SOL     OW14227   0.260   3.301   0.615
 4443SOL    HW114228   0.287   3.273   0.707
 4443SOL    HW214229   0.161   3.313   0.611
 4444SOL     OW14230   3.032   4.591   5.670
 4444SOL    HW114231   2.933   4.573   5.668
 4444SOL    HW214232   3.077   4.539   5.598
 4445SOL     OW14233   0.850   7.014   0.919
 4445SOL    HW114234   0.929   0.027   0.870
 4445SOL    HW214235   0.838   0.039   1.005
 4446SOL     OW14236   5.656   1.108   2.077
 4446SOL    HW114237   5.570   1.077   2.118
 4446SOL    HW214238   5.636   1.166   1.998
 4447SOL     OW14239   5.363   3.523   6.316
 4447SOL    HW114240   5.454   3.486   6.333
 4447SOL    HW214241   5.316   3.468   6.248
 4448SOL     OW14242   2.692   3.976   1.544
 4448SOL    HW114243   2.720   3.884   1.570
 4448SOL    HW214244   2.666   3.977   1.447
 4449SOL     OW14245   5.270   0.311   6.047
 4449SOL    HW114246   5.307   0.403   6.060
 4449SOL    HW214247   5.270   0.263   6.135
 4450SOL     OW14248   3.733   3.466   4.685
 4450SOL    HW114249   3.668   3.407   4.732
 4450SOL    HW214250   3.766   3.419   4.602
 4451SOL     OW14251   6.050   4.755   3.057
 4451SOL    HW114252   6.081   4.661   3.044
 4451SOL    HW214253   6.127   4.813   3.085
 4452SOL     OW14254   5.134   6.533   4.525
 4452SOL    HW114255   5.178   6.446   4.548
 4452SOL    HW214256   5.047   6.541   4.574
 4453SOL     OW14257   0.801   2.589   1.522
 4453SOL    HW114258   0.712   2.558   1.487
 4453SOL    HW214259   0.874   2.557   1.461
 4454SOL     OW14260   1.427   2.254   0.326
 4454SOL    HW114261   1.514   2.249   0.278
 4454SOL    HW214262   1.425   2.185   0.399
 4455SOL     OW14263   4.284   6.469   5.752
 4455SOL    HW114264   4.352   6.542   5.763
 4455SOL    HW214265   4.307   6.393   5.812
 4456SOL     OW14266   3.646   6.015   2.152
 4456SOL    HW114267   3.692   6.088   2.203
 4456SOL    HW214268   3.635   6.042   2.057
 4457SOL     OW14269   4.480   1.561   2.259
 4457SOL    HW114270   4.382   1.544   2.273
 4457SOL    HW214271   4.523   1.581   2.347
 4458SOL     OW14272   1.643   3.031   6.747
 4458SOL    HW114273   1.599   2.970   6.682
 4458SOL    HW214274   1.583   3.047   6.826
 4459SOL     OW14275   3.644   0.658   4.875
 4459SOL    HW114276   3.629   0.578   4.816
 4459SOL    HW214277   3.736   0.653   4.914
 4460SOL     OW14278   2.564   2.641   5.840
 4460SOL    HW114279   2.516   2.570   5.788
 4460SOL    HW214280   2.539   2.731   5.804
 4461SOL     OW14281   1.203   0.438   1.437
 4461SOL    HW114282   1.106   0.455   1.419
 4461SOL    HW214283   1.253   0.525   1.433
 4462SOL     OW14284   6.055   4.776   1.905
 4462SOL    HW114285   6.086   4.694   1.954
 4462SOL    HW214286   6.122   4.850   1.919
 4463SOL     OW14287   5.221   2.047   0.032
 4463SOL    HW114288   5.249   1.970   0.090
 4463SOL    HW214289   5.209   2.016   6.962
 4464SOL     OW14290   6.430   5.200   0.769
 4464SOL    HW114291   6.440   5.114   0.819
 4464SOL    HW214292   6.520   5.242   0.755
 4465SOL     OW14293   2.705   5.628   1.240
 4465SOL    HW114294   2.617   5.613   1.285
 4465SOL    HW214295   2.730   5.546   1.188
 4466SOL     OW14296   1.407   1.729   3.142
 4466SOL    HW114297   1.451   1.696   3.225
 4466SOL    HW214298   1.463   1.800   3.100
 4467SOL     OW14299   1.944   6.533   2.768
 4467SOL    HW114300   1.897   6.445   2.775
 4467SOL    HW214301   1.991   6.552   2.855
 4468SOL     OW14302   2.008   3.042   0.430
 4468SOL    HW114303   1.933   3.003   0.376
 4468SOL    HW214304   1.992   3.023   0.527
 4469SOL     OW14305   3.800   0.946   1.454
 4469SOL    HW114306   3.767   1.003   1.530
 4469SOL    HW214307   3.836   0.860   1.489
 4470SOL     OW14308   5.970   2.407   2.486
 4470SOL    HW114309   6.055   2.357   2.472
 4470SOL    HW214310   5.897   2.365   2.430
 4471SOL     OW14311   0.805   1.902   6.491
 4471SOL    HW114312   0.775   1.866   6.579
 4471SOL    HW214313   0.733   1.958   6.451
 4472SOL     OW14314   1.413   3.131   2.662
 4472SOL    HW114315   1.418   3.057   2.729
 4472SOL    HW214316   1.333   3.118   2.604
 4473SOL     OW14317   6.349   2.852   4.704
 4473SOL    HW114318   6.249   2.861   4.710
 4473SOL    HW214319   6.385   2.823   4.792
 4474SOL     OW14320   2.410   0.800   1.776
 4474SOL    HW114321   2.496   0.804   1.726
 4474SOL    HW214322   2.422   0.746   1.859
 4475SOL     OW14323   1.653   3.833   2.828
 4475SOL    HW114324   1.648   3.737   2.857
 4475SOL    HW214325   1.721   3.841   2.755
 4476SOL     OW14326   4.125   0.079   3.412
 4476SOL    HW114327   4.183   0.145   3.460
 4476SOL    HW214328   4.049   0.052   3.472
 4477SOL     OW14329   2.095   6.940   5.155
 4477SOL    HW114330   2.098   6.916   5.058
 4477SOL    HW214331   2.003   6.926   5.190
 4478SOL     OW14332   3.861   6.999   3.050
 4478SOL    HW114333   3.953   0.004   3.077
 4478SOL    HW214334   3.852   6.901   3.066
 4479SOL     OW14335   0.944   1.063   1.960
 4479SOL    HW114336   0.953   1.152   1.914
 4479SOL    HW214337   1.032   1.037   2.000
 4480SOL     OW14338   1.555   3.984   5.121
 4480SOL    HW114339   1.579   3.982   5.218
 4480SOL    HW214340   1.564   4.078   5.087
 4481SOL     OW14341   3.038   6.191   4.861
 4481SOL    HW114342   3.099   6.207   4.784
 4481SOL    HW214343   3.081   6.127   4.926
 4482SOL     OW14344   0.890   3.325   4.447
 4482SOL    HW114345   0.970   3.345   4.503
 4482SOL    HW214346   0.811   3.312   4.507
 4483SOL     OW14347   5.685   2.756   2.179
 4483SOL    HW114348   5.620   2.828   2.154
 4483SOL    HW214349   5.668   2.727   2.273
 4484SOL     OW14350   2.922   2.737   6.110
 4484SOL    HW114351   2.895   2.705   6.019
 4484SOL    HW214352   2.976   2.666   6.155
 4485SOL     OW14353   5.720   1.774   5.317
 4485SOL    HW114354   5.812   1.736   5.306
 4485SOL    HW214355   5.725   1.855   5.375
 4486SOL     OW14356   5.230   4.530   5.128
 4486SOL    HW114357   5.290   4.463   5.173
 4486SOL    HW214358   5.276   4.566   5.047
 4487SOL     OW14359   2.243   3.025   6.072
 4487SOL    HW114360   2.231   3.051   6.168
 4487SOL    HW214361   2.330   2.978   6.060
 4488SOL     OW14362   0.182   3.203   6.479
 4488SOL    HW114363   0.085   3.204   6.502
 4488SOL    HW214364   0.215   3.109   6.479
 4489SOL     OW14365   5.415   5.459   4.346
 4489SOL    HW114366   5.474   5.383   4.318
 4489SOL    HW214367   5.465   5.519   4.408
 4490SOL     OW14368   6.235   2.883   2.806
 4490SOL    HW114369   6.320   2.833   2.822
 4490SOL    HW214370   6.173   2.870   2.884
 4491SOL     OW14371   6.747   2.511   4.617
 4491SOL    HW114372   6.770   2.466   4.531
 4491SOL    HW214373   6.821   2.498   4.683
 4492SOL     OW14374   5.651   4.047   1.282
 4492SOL    HW114375   5.721   3.977   1.272
 4492SOL    HW214376   5.582   4.017   1.348
 4493SOL     OW14377   4.506   5.575   4.960
 4493SOL    HW114378   4.454   5.501   4.917
 4493SOL    HW214379   4.559   5.623   4.889
 4494SOL     OW14380   0.175   1.322   6.734
 4494SOL    HW114381   0.178   1.271   6.820
 4494SOL    HW214382   0.079   1.344   6.712
 4495SOL     OW14383   3.608   6.720   4.206
 4495SOL    HW114384   3.687   6.775   4.233
 4495SOL    HW214385   3.617   6.628   4.245
 4496SOL     OW14386   5.439   6.303   1.117
 4496SOL    HW114387   5.414   6.217   1.071
 4496SOL    HW214388   5.379   6.318   1.195
 4497SOL     OW14389   5.179   1.025   0.004
 4497SOL    HW114390   5.278   1.015   7.019
 4497SOL    HW214391   5.135   1.003   6.941
 4498SOL     OW14392   0.065   3.991   0.465
 4498SOL    HW114393   0.145   3.978   0.406
 4498SOL    HW214394   7.006   3.980   0.412
 4499SOL     OW14395   6.462   3.789   5.143
 4499SOL    HW114396   6.489   3.885   5.134
 4499SOL    HW214397   6.452   3.749   5.051
 4500SOL     OW14398   3.024   3.376   4.309
 4500SOL    HW114399   2.982   3.428   4.383
 4500SOL    HW214400   3.123   3.381   4.317
 4501SOL     OW14401   0.133   3.325   3.554
 4501SOL    HW114402   0.115   3.372   3.468
 4501SOL    HW214403   0.173   3.389   3.620
 4502SOL     OW14404   0.745   2.969   6.801
 4502SOL    HW114405   0.790   2.898   6.746
 4502SOL    HW214406   0.813   3.035   6.833
 4503SOL     OW14407   3.668   0.093   1.694
 4503SOL    HW114408   3.681   0.164   1.625
 4503SOL    HW214409   3.574   0.097   1.729
 4504SOL     OW14410   6.803   0.935   5.459
 4504SOL    HW114411   6.750   1.018   5.442
 4504SOL    HW214412   6.864   0.918   5.382
 4505SOL     OW14413   5.451   4.878   1.835
 4505SOL    HW114414   5.501   4.792   1.823
 4505SOL    HW214415   5.475   4.918   1.923
 4506SOL     OW14416   4.433   2.188   3.535
 4506SOL    HW114417   4.442   2.089   3.527
 4506SOL    HW214418   4.396   2.212   3.625
 4507SOL     OW14419   4.982   4.446   2.443
 4507SOL    HW114420   5.016   4.503   2.517
 4507SOL    HW214421   4.985   4.350   2.470
 4508SOL     OW14422   1.288   5.359   6.596
 4508SOL    HW114423   1.285   5.448   6.641
 4508SOL    HW214424   1.281   5.287   6.665
 4509SOL     OW14425   4.440   2.312   2.793
 4509SOL    HW114426   4.357   2.259   2.774
 4509SOL    HW214427   4.440   2.341   2.888
 4510SOL     OW14428   3.591   1.286   4.021
 4510SOL    HW114429   3.690   1.283   4.010
 4510SOL    HW214430   3.569   1.296   4.118
 4511SOL     OW14431   6.525   3.278   0.489
 4511SOL    HW114432   6.507   3.235   0.578
 4511SOL    HW214433   6.620   3.311   0.486
 4512SOL     OW14434   2.932   1.509   5.538
 4512SOL    HW114435   2.833   1.496   5.543
 4512SOL    HW214436   2.964   1.486   5.446
 4513SOL     OW14437   6.210   5.551   0.438
 4513SOL    HW114438   6.166   5.560   0.348
 4513SOL    HW214439   6.293   5.495   0.429
 4514SOL     OW14440   4.307   1.793   6.575
 4514SOL    HW114441   4.385   1.764   6.630
 4514SOL    HW214442   4.248   1.852   6.629
 4515SOL     OW14443   6.717   1.212   5.880
 4515SOL    HW114444   6.633   1.249   5.840
 4515SOL    HW214445   6.781   1.191   5.806
 4516SOL     OW14446   1.892   0.268   6.689
 4516SOL    HW114447   1.850   0.235   6.774
 4516SOL    HW214448   1.982   0.226   6.679
 4517SOL     OW14449   3.938   0.996   6.773
 4517SOL    HW114450   4.016   1.037   6.725
 4517SOL    HW214451   3.893   1.066   6.829
 4518SOL     OW14452   6.669   0.539   3.101
 4518SOL    HW114453   6.589   0.535   3.041
 4518SOL    HW214454   6.646   0.497   3.189
 4519SOL     OW14455   6.447   0.359   1.505
 4519SOL    HW114456   6.524   0.315   1.459
 4519SOL    HW214457   6.474   0.388   1.597
 4520SOL     OW14458   4.638   6.396   4.606
 4520SOL    HW114459   4.597   6.486   4.615
 4520SOL    HW214460   4.589   6.343   4.537
 4521SOL     OW14461   6.214   1.682   3.983
 4521SOL    HW114462   6.130   1.672   3.929
 4521SOL    HW214463   6.213   1.771   4.028
 4522SOL     OW14464   6.108   5.913   3.198
 4522SOL    HW114465   6.094   5.815   3.215
 4522SOL    HW214466   6.068   5.937   3.109
 4523SOL     OW14467   0.871   4.450   0.044
 4523SOL    HW114468   0.886   4.359   0.004
 4523SOL    HW214469   0.944   4.470   0.109
 4524SOL     OW14470   6.539   2.789   3.416
 4524SOL    HW114471   6.625   2.758   3.456
 4524SOL    HW214472   6.504   2.718   3.355
 4525SOL     OW14473   4.928   1.473   5.524
 4525SOL    HW114474   4.864   1.414   5.573
 4525SOL    HW214475   4.893   1.490   5.432
 4526SOL     OW14476   6.603   0.320   1.088
 4526SOL    HW114477   6.627   0.414   1.115
 4526SOL    HW214478   6.623   0.258   1.163
 4527SOL     OW14479   5.058   0.959   3.547
 4527SOL    HW114480   5.033   1.045   3.592
 4527SOL    HW214481   5.132   0.915   3.598
 4528SOL     OW14482   5.203   0.367   0.600
 4528SOL    HW114483   5.207   0.457   0.557
 4528SOL    HW214484   5.267   0.364   0.677
 4529SOL     OW14485   2.609   0.557   5.296
 4529SOL    HW114486   2.631   0.479   5.237
 4529SOL    HW214487   2.689   0.582   5.350
 4530SOL     OW14488   2.023   5.012   5.214
 4530SOL    HW114489   2.069   4.929   5.247
 4530SOL    HW214490   2.071   5.092   5.250
 4531SOL     OW14491   0.256   2.714   5.051
 4531SOL    HW114492   0.186   2.681   5.114
 4531SOL    HW214493   0.256   2.814   5.050
 4532SOL     OW14494   6.648   1.639   2.929
 4532SOL    HW114495   6.698   1.616   2.846
 4532SOL    HW214496   6.553   1.658   2.907
 4533SOL     OW14497   1.229   1.690   1.952
 4533SOL    HW114498   1.252   1.762   1.887
 4533SOL    HW214499   1.301   1.620   1.952
 4534SOL     OW14500   4.786   4.075   3.921
 4534SOL    HW114501   4.806   4.013   3.997
 4534SOL    HW214502   4.756   4.163   3.958
 4535SOL     OW14503   3.524   0.834   2.776
 4535SOL    HW114504   3.582   0.763   2.738
 4535SOL    HW214505   3.565   0.870   2.860
 4536SOL     OW14506   3.416   1.704   4.250
 4536SOL    HW114507   3.502   1.730   4.206
 4536SOL    HW214508   3.387   1.615   4.216
 4537SOL     OW14509   4.381   3.350   6.887
 4537SOL    HW114510   4.350   3.283   6.954
 4537SOL    HW214511   4.462   3.315   6.839
 4538SOL     OW14512   1.355   0.535   3.217
 4538SOL    HW114513   1.342   0.509   3.121
 4538SOL    HW214514   1.335   0.457   3.276
 4539SOL     OW14515   2.661   0.202   4.866
 4539SOL    HW114516   2.714   0.241   4.941
 4539SOL    HW214517   2.647   0.105   4.882
 4540SOL     OW14518   2.931   2.480   5.602
 4540SOL    HW114519   2.985   2.524   5.530
 4540SOL    HW214520   2.861   2.422   5.560
 4541SOL     OW14521   6.084   1.843   0.901
 4541SOL    HW114522   6.091   1.799   0.991
 4541SOL    HW214523   6.007   1.804   0.850
 4542SOL     OW14524   6.971   1.142   2.222
 4542SOL    HW114525   6.997   1.063   2.277
 4542SOL    HW214526   0.024   1.205   2.217
 4543SOL     OW14527   4.320   2.112   1.778
 4543SOL    HW114528   4.264   2.050   1.723
 4543SOL    HW214529   4.280   2.203   1.777
 4544SOL     OW14530   3.257   6.407   5.891
 4544SOL    HW114531   3.279   6.363   5.978
 4544SOL    HW214532   3.254   6.339   5.818
 4545SOL     OW14533   5.444   3.795   4.433
 4545SOL    HW114534   5.435   3.723   4.365
 4545SOL    HW214535   5.356   3.808   4.480
 4546SOL     OW14536   1.545   1.135   5.223
 4546SOL    HW114537   1.502   1.159   5.136
 4546SOL    HW214538   1.498   1.183   5.298
 4547SOL     OW14539   5.657   2.581   2.692
 4547SOL    HW114540   5.614   2.556   2.605
 4547SOL    HW214541   5.707   2.667   2.681
 4548SOL     OW14542   1.171   3.438   3.695
 4548SOL    HW114543   1.245   3.465   3.757
 4548SOL    HW214544   1.104   3.383   3.746
 4549SOL     OW14545   6.815   4.009   1.457
 4549SOL    HW114546   6.722   4.019   1.422
 4549SOL    HW214547   6.822   3.926   1.512
 4550SOL     OW14548   0.913   4.821   3.119
 4550SOL    HW114549   0.872   4.730   3.108
 4550SOL    HW214550   0.885   4.858   3.208
 4551SOL     OW14551   0.491   2.492   5.361
 4551SOL    HW114552   0.526   2.528   5.274
 4551SOL    HW214553   0.508   2.557   5.434
 4552SOL     OW14554   6.367   3.461   1.616
 4552SOL    HW114555   6.380   3.560   1.617
 4552SOL    HW214556   6.441   3.418   1.564
 4553SOL     OW14557   3.169   4.487   6.585
 4553SOL    HW114558   3.092   4.541   6.620
 4553SOL    HW214559   3.252   4.542   6.588
 4554SOL     OW14560   5.923   0.180   1.614
 4554SOL    HW114561   5.897   0.216   1.524
 4554SOL    HW214562   6.009   0.221   1.644
 4555SOL     OW14563   2.646   2.274   5.681
 4555SOL    HW114564   2.556   2.308   5.709
 4555SOL    HW214565   2.715   2.307   5.746
 4556SOL     OW14566   5.605   3.123   4.133
 4556SOL    HW114567   5.622   3.063   4.054
 4556SOL    HW214568   5.542   3.078   4.196
 4557SOL     OW14569   4.846   6.280   5.725
 4557SOL    HW114570   4.888   6.304   5.637
 4557SOL    HW214571   4.819   6.183   5.723
 4558SOL     OW14572   0.535   4.117   5.041
 4558SOL    HW114573   0.477   4.053   5.092
 4558SOL    HW214574   0.495   4.209   5.044
 4559SOL     OW14575   0.300   4.066   1.463
 4559SOL    HW114576   0.223   4.004   1.457
 4559SOL    HW214577   0.316   4.091   1.559
 4560SOL     OW14578   5.223   4.271   1.638
 4560SOL    HW114579   5.264   4.293   1.549
 4560SOL    HW214580   5.277   4.312   1.711
 4561SOL     OW14581   1.894   1.897   2.779
 4561SOL    HW114582   1.870   1.895   2.681
 4561SOL    HW214583   1.846   1.973   2.823
 4562SOL     OW14584   2.554   6.138   5.409
 4562SOL    HW114585   2.634   6.078   5.414
 4562SOL    HW214586   2.566   6.214   5.472
 4563SOL     OW14587   0.437   2.955   1.259
 4563SOL    HW114588   0.422   2.858   1.241
 4563SOL    HW214589   0.478   2.966   1.350
 4564SOL     OW14590   6.616   6.151   1.484
 4564SOL    HW114591   6.651   6.080   1.423
 4564SOL    HW214592   6.687   6.177   1.550
 4565SOL     OW14593   0.741   1.255   4.749
 4565SOL    HW114594   0.688   1.216   4.825
 4565SOL    HW214595   0.789   1.337   4.781
 4566SOL     OW14596   6.509   2.862   0.436
 4566SOL    HW114597   6.462   2.824   0.356
 4566SOL    HW214598   6.601   2.825   0.440
 4567SOL     OW14599   6.251   0.311   0.008
 4567SOL    HW114600   6.283   0.398   0.047
 4567SOL    HW214601   6.182   0.271   0.069
 4568SOL     OW14602   2.738   3.975   5.550
 4568SOL    HW114603   2.831   3.940   5.547
 4568SOL    HW214604   2.713   4.011   5.460
 4569SOL     OW14605   1.988   1.829   3.025
 4569SOL    HW114606   1.968   1.862   2.933
 4569SOL    HW214607   2.086   1.830   3.041
 4570SOL     OW14608   0.815   6.653   3.200
 4570SOL    HW114609   0.807   6.698   3.112
 4570SOL    HW214610   0.906   6.670   3.238
 4571SOL     OW14611   3.968   4.125   6.358
 4571SOL    HW114612   4.021   4.137   6.442
 4571SOL    HW214613   3.942   4.029   6.347
 4572SOL     OW14614   1.603   0.545   6.794
 4572SOL    HW114615   1.518   0.561   6.845
 4572SOL    HW214616   1.657   0.475   6.841
 4573SOL     OW14617   6.325   0.950   0.322
 4573SOL    HW114618   6.305   0.902   0.408
 4573SOL    HW214619   6.328   0.884   0.247
 4574SOL     OW14620   5.916   4.096   0.914
 4574SOL    HW114621   5.965   4.158   0.974
 4574SOL    HW214622   5.974   4.018   0.892
 4575SOL     OW14623   5.943   0.852   6.324
 4575SOL    HW114624   5.896   0.764   6.319
 4575SOL    HW214625   6.038   0.841   6.295
 4576SOL     OW14626   2.743   6.311   5.811
 4576SOL    HW114627   2.766   6.216   5.833
 4576SOL    HW214628   2.826   6.360   5.784
 4577SOL     OW14629   1.415   2.785   4.722
 4577SOL    HW114630   1.338   2.739   4.678
 4577SOL    HW214631   1.460   2.722   4.784
 4578SOL     OW14632   0.966   2.878   5.222
 4578SOL    HW114633   1.051   2.893   5.172
 4578SOL    HW214634   0.893   2.931   5.179
 4579SOL     OW14635   3.951   0.663   3.389
 4579SOL    HW114636   3.867   0.614   3.367
 4579SOL    HW214637   3.995   0.621   3.469
 4580SOL     OW14638   5.612   5.410   0.330
 4580SOL    HW114639   5.568   5.499   0.324
 4580SOL    HW214640   5.710   5.419   0.311
 4581SOL     OW14641   2.120   4.980   2.802
 4581SOL    HW114642   2.021   4.977   2.819
 4581SOL    HW214643   2.159   5.059   2.848
 4582SOL     OW14644   5.327   0.282   5.234
 4582SOL    HW114645   5.306   0.277   5.136
 4582SOL    HW214646   5.256   0.334   5.281
 4583SOL     OW14647   2.493   2.691   6.426
 4583SOL    HW114648   2.503   2.668   6.329
 4583SOL    HW214649   2.473   2.608   6.478
 4584SOL     OW14650   0.549   4.789   5.962
 4584SOL    HW114651   0.642   4.759   5.942
 4584SOL    HW214652   0.525   4.867   5.904
 4585SOL     OW14653   3.548   5.890   2.974
 4585SOL    HW114654   3.573   5.800   2.939
 4585SOL    HW214655   3.450   5.892   2.993
 4586SOL     OW14656   3.398   5.226   0.365
 4586SOL    HW114657   3.322   5.204   0.428
 4586SOL    HW214658   3.465   5.281   0.414
 4587SOL     OW14659   3.765   3.584   3.166
 4587SOL    HW114660   3.697   3.645   3.126
 4587SOL    HW214661   3.856   3.626   3.161
 4588SOL     OW14662   3.063   3.408   5.119
 4588SOL    HW114663   3.144   3.462   5.144
 4588SOL    HW214664   3.088   3.312   5.112
 4589SOL     OW14665   6.164   1.268   2.505
 4589SOL    HW114666   6.101   1.336   2.540
 4589SOL    HW214667   6.170   1.191   2.568
 4590SOL     OW14668   5.133   6.006   1.318
 4590SOL    HW114669   5.134   6.029   1.221
 4590SOL    HW214670   5.058   6.056   1.363
 4591SOL     OW14671   1.129   6.549   4.897
 4591SOL    HW114672   1.165   6.575   4.807
 4591SOL    HW214673   1.069   6.470   4.887
 4592SOL     OW14674   2.891   1.396   2.275
 4592SOL    HW114675   2.825   1.340   2.224
 4592SOL    HW214676   2.950   1.444   2.211
 4593SOL     OW14677   4.796   5.686   2.681
 4593SOL    HW114678   4.736   5.737   2.619
 4593SOL    HW214679   4.891   5.716   2.667
 4594SOL     OW14680   2.793   1.642   2.983
 4594SOL    HW114681   2.826   1.635   2.889
 4594SOL    HW214682   2.738   1.725   2.993
 4595SOL     OW14683   3.605   3.165   6.485
 4595SOL    HW114684   3.702   3.164   6.459
 4595SOL    HW214685   3.580   3.076   6.522
 4596SOL     OW14686   5.764   0.045   2.182
 4596SOL    HW114687   5.734   6.989   2.132
 4596SOL    HW214688   5.685   0.092   2.222
 4597SOL     OW14689   3.971   5.479   5.709
 4597SOL    HW114690   3.936   5.385   5.703
 4597SOL    HW214691   4.066   5.478   5.738
 4598SOL     OW14692   2.668   6.416   6.638
 4598SOL    HW114693   2.741   6.439   6.573
 4598SOL    HW214694   2.697   6.340   6.695
 4599SOL     OW14695   1.288   4.698   0.746
 4599SOL    HW114696   1.353   4.657   0.809
 4599SOL    HW214697   1.315   4.677   0.652
 4600SOL     OW14698   0.897   5.279   5.846
 4600SOL    HW114699   0.851   5.299   5.759
 4600SOL    HW214700   0.908   5.180   5.856
 4601SOL     OW14701   1.936   1.260   5.426
 4601SOL    HW114702   1.889   1.346   5.405
 4601SOL    HW214703   1.976   1.266   5.517
 4602SOL     OW14704   2.177   6.411   1.486
 4602SOL    HW114705   2.205   6.325   1.529
 4602SOL    HW214706   2.173   6.400   1.387
 4603SOL     OW14707   2.919   6.324   0.579
 4603SOL    HW114708   2.911   6.238   0.629
 4603SOL    HW214709   2.902   6.307   0.482
 4604SOL     OW14710   4.474   0.763   0.876
 4604SOL    HW114711   4.418   0.698   0.927
 4604SOL    HW214712   4.513   0.717   0.796
 4605SOL     OW14713   2.898   0.167   2.852
 4605SOL    HW114714   2.907   0.076   2.811
 4605SOL    HW214715   2.989   0.206   2.867
 4606SOL     OW14716   1.110   6.031   2.174
 4606SOL    HW114717   1.199   6.003   2.138
 4606SOL    HW214718   1.112   6.029   2.274
 4607SOL     OW14719   1.645   3.178   1.389
 4607SOL    HW114720   1.642   3.171   1.289
 4607SOL    HW214721   1.556   3.157   1.427
 4608SOL     OW14722   0.645   6.432   3.550
 4608SOL    HW114723   0.716   6.498   3.526
 4608SOL    HW214724   0.687   6.351   3.591
 4609SOL     OW14725   4.240   5.587   6.580
 4609SOL    HW114726   4.243   5.586   6.680
 4609SOL    HW214727   4.263   5.496   6.545
 4610SOL     OW14728   4.823   2.869   0.638
 4610SOL    HW114729   4.854   2.858   0.732
 4610SOL    HW214730   4.793   2.964   0.624
 4611SOL     OW14731   0.650   5.738   6.355
 4611SOL    HW114732   0.596   5.808   6.402
 4611SOL    HW214733   0.747   5.763   6.360
 4612SOL     OW14734   1.594   6.004   6.905
 4612SOL    HW114735   1.536   6.082   6.926
 4612SOL    HW214736   1.690   6.029   6.917
 4613SOL     OW14737   2.678   6.087   1.966
 4613SOL    HW114738   2.696   6.010   1.904
 4613SOL    HW214739   2.722   6.170   1.930
 4614SOL     OW14740   6.984   3.109   4.592
 4614SOL    HW114741   6.963   3.030   4.649
 4614SOL    HW214742   0.056   3.106   4.565
 4615SOL     OW14743   1.757   0.321   6.951
 4615SOL    HW114744   1.672   0.304   7.000
 4615SOL    HW214745   1.828   0.259   6.985
 4616SOL     OW14746   6.413   0.371   5.096
 4616SOL    HW114747   6.350   0.370   5.174
 4616SOL    HW214748   6.361   0.372   5.011
 4617SOL     OW14749   0.606   2.207   2.425
 4617SOL    HW114750   0.567   2.192   2.334
 4617SOL    HW214751   0.700   2.174   2.427
 4618SOL     OW14752   2.394   2.744   4.579
 4618SOL    HW114753   2.362   2.828   4.623
 4618SOL    HW214754   2.373   2.666   4.637
 4619SOL     OW14755   3.174   6.408   3.302
 4619SOL    HW114756   3.123   6.364   3.375
 4619SOL    HW214757   3.272   6.396   3.318
 4620SOL     OW14758   2.613   4.653   0.786
 4620SOL    HW114759   2.687   4.710   0.750
 4620SOL    HW214760   2.568   4.701   0.861
 4621SOL     OW14761   5.416   0.993   2.137
 4621SOL    HW114762   5.370   0.938   2.067
 4621SOL    HW214763   5.402   0.951   2.227
 4622SOL     OW14764   2.514   4.792   1.019
 4622SOL    HW114765   2.606   4.764   1.046
 4622SOL    HW214766   2.469   4.837   1.096
 4623SOL     OW14767   4.961   6.540   0.616
 4623SOL    HW114768   4.896   6.468   0.641
 4623SOL    HW214769   4.919   6.629   0.630
 4624SOL     OW14770   4.470   7.021   3.178
 4624SOL    HW114771   4.459   0.023   3.083
 4624SOL    HW214772   4.544   0.049   3.220
 4625SOL     OW14773   2.486   4.435   1.089
 4625SOL    HW114774   2.442   4.495   1.157
 4625SOL    HW214775   2.487   4.341   1.123
 4626SOL     OW14776   5.101   4.609   1.748
 4626SOL    HW114777   5.145   4.544   1.810
 4626SOL    HW214778   5.020   4.567   1.709
 4627SOL     OW14779   2.591   4.540   4.753
 4627SOL    HW114780   2.680   4.496   4.766
 4627SOL    HW214781   2.563   4.584   4.838
 4628SOL     OW14782   6.490   4.167   3.674
 4628SOL    HW114783   6.438   4.103   3.728
 4628SOL    HW214784   6.456   4.260   3.689
 4629SOL     OW14785   2.369   5.357   5.727
 4629SOL    HW114786   2.326   5.266   5.733
 4629SOL    HW214787   2.300   5.424   5.700
 4630SOL     OW14788   3.164   5.295   2.619
 4630SOL    HW114789   3.149   5.310   2.716
 4630SOL    HW214790   3.261   5.300   2.598
 4631SOL     OW14791   1.786   5.869   3.425
 4631SOL    HW114792   1.871   5.883   3.375
 4631SOL    HW214793   1.758   5.773   3.418
 4632SOL     OW14794   3.658   4.930   2.511
 4632SOL    HW114795   3.699   4.946   2.602
 4632SOL    HW214796   3.559   4.926   2.520
 4633SOL     OW14797   5.477   0.294   4.491
 4633SOL    HW114798   5.484   0.195   4.501
 4633SOL    HW214799   5.555   0.329   4.439
 4634SOL     OW14800   3.462   4.533   5.808
 4634SOL    HW114801   3.558   4.554   5.792
 4634SOL    HW214802   3.426   4.592   5.881
 4635SOL     OW14803   4.536   4.010   1.326
 4635SOL    HW114804   4.475   4.037   1.251
 4635SOL    HW214805   4.526   3.912   1.343
 4636SOL     OW14806   1.764   4.446   0.026
 4636SOL    HW114807   1.683   4.485   0.070
 4636SOL    HW214808   1.770   4.480   6.956
 4637SOL     OW14809   0.806   6.254   1.206
 4637SOL    HW114810   0.805   6.302   1.118
 4637SOL    HW214811   0.900   6.240   1.236
 4638SOL     OW14812   4.594   4.681   6.440
 4638SOL    HW114813   4.684   4.707   6.475
 4638SOL    HW214814   4.523   4.735   6.485
 4639SOL     OW14815   3.314   4.284   5.750
 4639SOL    HW114816   3.368   4.365   5.771
 4639SOL    HW214817   3.247   4.306   5.680
 4640SOL     OW14818   4.995   3.967   3.793
 4640SOL    HW114819   4.953   3.883   3.761
 4640SOL    HW214820   4.931   4.017   3.852
 4641SOL     OW14821   2.599   6.963   4.842
 4641SOL    HW114822   2.518   6.908   4.820
 4641SOL    HW214823   2.670   6.945   4.775
 4642SOL     OW14824   0.936   5.689   4.641
 4642SOL    HW114825   1.033   5.710   4.654
 4642SOL    HW214826   0.908   5.717   4.549
 4643SOL     OW14827   6.234   2.577   1.226
 4643SOL    HW114828   6.137   2.561   1.245
 4643SOL    HW214829   6.251   2.675   1.217
 4644SOL     OW14830   6.470   5.107   5.162
 4644SOL    HW114831   6.403   5.181   5.157
 4644SOL    HW214832   6.560   5.142   5.137
 4645SOL     OW14833   0.254   0.472   4.023
 4645SOL    HW114834   0.264   0.488   3.925
 4645SOL    HW214835   0.308   0.392   4.049
 4646SOL     OW14836   1.988   6.072   4.105
 4646SOL    HW114837   2.023   5.989   4.148
 4646SOL    HW214838   1.945   6.049   4.018
 4647SOL     OW14839   1.644   0.586   3.215
 4647SOL    HW114840   1.689   0.497   3.221
 4647SOL    HW214841   1.545   0.573   3.215
 4648SOL     OW14842   3.591   1.211   2.483
 4648SOL    HW114843   3.536   1.128   2.488
 4648SOL    HW214844   3.543   1.285   2.530
 4649SOL     OW14845   5.466   0.301   0.016
 4649SOL    HW114846   5.387   0.249   7.006
 4649SOL    HW214847   5.454   0.319   0.113
 4650SOL     OW14848   4.649   5.415   2.650
 4650SOL    HW114849   4.702   5.498   2.662
 4650SOL    HW214850   4.615   5.384   2.739
 4651SOL     OW14851   6.897   3.103   0.957
 4651SOL    HW114852   6.900   3.084   0.859
 4651SOL    HW214853   6.858   3.025   1.005
 4652SOL     OW14854   6.694   6.966   3.958
 4652SOL    HW114855   6.673   6.923   3.870
 4652SOL    HW214856   6.790   6.994   3.959
 4653SOL     OW14857   5.535   5.129   0.712
 4653SOL    HW114858   5.558   5.050   0.655
 4653SOL    HW214859   5.616   5.187   0.724
 4654SOL     OW14860   1.058   0.147   0.337
 4654SOL    HW114861   1.001   0.084   0.389
 4654SOL    HW214862   1.123   0.191   0.397
 4655SOL     OW14863   4.627   3.985   1.055
 4655SOL    HW114864   4.711   4.034   1.033
 4655SOL    HW214865   4.615   3.984   1.155
 4656SOL     OW14866   1.630   0.457   2.478
 4656SOL    HW114867   1.683   0.422   2.556
 4656SOL    HW214868   1.673   0.539   2.442
 4657SOL     OW14869   4.545   6.686   1.557
 4657SOL    HW114870   4.562   6.701   1.459
 4657SOL    HW214871   4.475   6.750   1.588
 4658SOL     OW14872   3.499   1.316   2.917
 4658SOL    HW114873   3.402   1.301   2.904
 4658SOL    HW214874   3.526   1.289   3.010
 4659SOL     OW14875   3.583   4.922   5.070
 4659SOL    HW114876   3.498   4.869   5.079
 4659SOL    HW214877   3.565   5.005   5.019
 4660SOL     OW14878   1.256   3.884   5.727
 4660SOL    HW114879   1.160   3.868   5.751
 4660SOL    HW214880   1.312   3.808   5.761
 4661SOL     OW14881   2.770   4.533   5.629
 4661SOL    HW114882   2.798   4.438   5.619
 4661SOL    HW214883   2.698   4.540   5.697
 4662SOL     OW14884   3.119   0.021   5.629
 4662SOL    HW114885   3.166   0.077   5.698
 4662SOL    HW214886   3.030   0.061   5.610
 4663SOL     OW14887   0.429   1.776   1.688
 4663SOL    HW114888   0.466   1.760   1.780
 4663SOL    HW214889   0.375   1.697   1.659
 4664SOL     OW14890   1.507   0.958   0.941
 4664SOL    HW114891   1.454   1.011   1.006
 4664SOL    HW214892   1.456   0.948   0.856
 4665SOL     OW14893   3.681   0.275   6.390
 4665SOL    HW114894   3.607   0.215   6.360
 4665SOL    HW214895   3.646   0.339   6.458
 4666SOL     OW14896   1.632   2.430   0.496
 4666SOL    HW114897   1.694   2.459   0.423
 4666SOL    HW214898   1.586   2.510   0.535
 4667SOL     OW14899   6.474   3.332   2.278
 4667SOL    HW114900   6.419   3.305   2.199
 4667SOL    HW214901   6.537   3.258   2.302
 4668SOL     OW14902   4.480   2.211   2.511
 4668SOL    HW114903   4.469   2.261   2.597
 4668SOL    HW214904   4.548   2.139   2.523
 4669SOL     OW14905   4.630   6.709   6.209
 4669SOL    HW114906   4.657   6.624   6.254
 4669SOL    HW214907   4.597   6.689   6.117
 4670SOL     OW14908   2.183   2.593   5.647
 4670SOL    HW114909   2.228   2.631   5.567
 4670SOL    HW214910   2.084   2.596   5.634
 4671SOL     OW14911   6.774   2.456   0.891
 4671SOL    HW114912   6.765   2.389   0.965
 4671SOL    HW214913   6.868   2.487   0.887
 4672SOL     OW14914   2.219   4.780   5.711
 4672SOL    HW114915   2.252   4.827   5.793
 4672SOL    HW214916   2.200   4.685   5.733
 4673SOL     OW14917   5.272   0.371   1.916
 4673SOL    HW114918   5.250   0.449   1.857
 4673SOL    HW214919   5.371   0.354   1.913
 4674SOL     OW14920   5.322   0.291   6.553
 4674SOL    HW114921   5.421   0.281   6.546
 4674SOL    HW214922   5.295   0.381   6.520
 4675SOL     OW14923   1.845   1.317   6.479
 4675SOL    HW114924   1.747   1.334   6.493
 4675SOL    HW214925   1.875   1.362   6.395
 4676SOL     OW14926   6.901   6.318   3.717
 4676SOL    HW114927   6.900   6.314   3.617
 4676SOL    HW214928   6.974   6.259   3.752
 4677SOL     OW14929   2.475   1.706   6.438
 4677SOL    HW114930   2.414   1.744   6.369
 4677SOL    HW214931   2.528   1.779   6.480
 4678SOL     OW14932   2.060   4.331   3.100
 4678SOL    HW114933   2.087   4.367   3.011
 4678SOL    HW214934   1.991   4.391   3.141
 4679SOL     OW14935   4.133   1.032   0.570
 4679SOL    HW114936   4.128   1.111   0.509
 4679SOL    HW214937   4.175   0.955   0.522
 4680SOL     OW14938   3.458   1.487   0.665
 4680SOL    HW114939   3.387   1.493   0.735
 4680SOL    HW214940   3.515   1.406   0.683
 4681SOL     OW14941   5.267   6.025   6.009
 4681SOL    HW114942   5.195   5.979   5.957
 4681SOL    HW214943   5.310   5.960   6.072
 4682SOL     OW14944   4.521   4.557   5.833
 4682SOL    HW114945   4.476   4.643   5.806
 4682SOL    HW214946   4.517   4.492   5.757
 4683SOL     OW14947   4.361   5.180   2.733
 4683SOL    HW114948   4.446   5.165   2.682
 4683SOL    HW214949   4.324   5.092   2.762
 4684SOL     OW14950   6.515   1.229   4.843
 4684SOL    HW114951   6.485   1.136   4.865
 4684SOL    HW214952   6.445   1.274   4.789
 4685SOL     OW14953   0.500   5.988   5.678
 4685SOL    HW114954   0.405   5.958   5.681
 4685SOL    HW214955   0.515   6.060   5.746
 4686SOL     OW14956   4.094   5.443   0.159
 4686SOL    HW114957   4.019   5.379   0.141
 4686SOL    HW214958   4.179   5.392   0.171
 4687SOL     OW14959   6.549   3.999   4.805
 4687SOL    HW114960   6.605   3.993   4.888
 4687SOL    HW214961   6.500   4.086   4.805
 4688SOL     OW14962   5.966   4.386   4.616
 4688SOL    HW114963   5.988   4.426   4.705
 4688SOL    HW214964   5.883   4.330   4.624
 4689SOL     OW14965   5.552   1.133   0.314
 4689SOL    HW114966   5.553   1.038   0.282
 4689SOL    HW214967   5.623   1.146   0.383
 4690SOL     OW14968   1.048   6.754   0.180
 4690SOL    HW114969   1.140   6.777   0.149
 4690SOL    HW214970   0.991   6.837   0.178
 4691SOL     OW14971   3.188   5.255   1.952
 4691SOL    HW114972   3.142   5.328   2.002
 4691SOL    HW214973   3.127   5.217   1.883
 4692SOL     OW14974   5.952   5.440   1.911
 4692SOL    HW114975   5.995   5.530   1.918
 4692SOL    HW214976   5.964   5.390   1.997
 4693SOL     OW14977   0.716   1.813   2.935
 4693SOL    HW114978   0.782   1.764   2.991
 4693SOL    HW214979   0.623   1.794   2.968
 4694SOL     OW14980   1.869   0.553   6.898
 4694SOL    HW114981   1.837   0.459   6.908
 4694SOL    HW214982   1.898   0.569   6.804
 4695SOL     OW14983   1.751   3.684   1.794
 4695SOL    HW114984   1.809   3.647   1.866
 4695SOL    HW214985   1.686   3.614   1.764
 4696SOL     OW14986   0.303   4.190   0.284
 4696SOL    HW114987   0.334   4.109   0.333
 4696SOL    HW214988   0.380   4.230   0.234
 4697SOL     OW14989   1.910   3.122   1.089
 4697SOL    HW114990   1.842   3.054   1.116
 4697SOL    HW214991   2.002   3.085   1.106
 4698SOL     OW14992   4.591   5.085   2.584
 4698SOL    HW114993   4.632   4.995   2.571
 4698SOL    HW214994   4.655   5.144   2.634
 4699SOL     OW14995   1.798   6.643   2.051
 4699SOL    HW114996   1.861   6.693   2.111
 4699SOL    HW214997   1.705   6.676   2.065
 4700SOL     OW14998   6.896   1.364   3.049
 4700SOL    HW114999   6.815   1.306   3.040
 4700SOL    HW215000   6.870   1.449   3.096
 4701SOL     OW15001   2.633   2.298   6.907
 4701SOL    HW115002   2.654   2.237   6.831
 4701SOL    HW215003   2.685   2.270   6.988
 4702SOL     OW15004   4.198   5.346   0.430
 4702SOL    HW115005   4.275   5.392   0.472
 4702SOL    HW215006   4.227   5.304   0.344
 4703SOL     OW15007   0.670   1.171   1.592
 4703SOL    HW115008   0.625   1.260   1.589
 4703SOL    HW215009   0.768   1.183   1.609
 4704SOL     OW15010   0.593   6.366   0.594
 4704SOL    HW115011   0.577   6.393   0.499
 4704SOL    HW215012   0.631   6.274   0.597
 4705SOL     OW15013   3.437   3.257   1.997
 4705SOL    HW115014   3.495   3.338   2.000
 4705SOL    HW215015   3.464   3.200   1.919
 4706SOL     OW15016   3.427   0.306   6.896
 4706SOL    HW115017   3.524   0.330   6.893
 4706SOL    HW215018   3.372   0.387   6.879
 4707SOL     OW15019   1.945   6.532   1.425
 4707SOL    HW115020   1.947   6.496   1.331
 4707SOL    HW215021   2.021   6.494   1.477
 4708SOL     OW15022   1.254   1.525   6.573
 4708SOL    HW115023   1.297   1.607   6.612
 4708SOL    HW215024   1.203   1.550   6.491
 4709SOL     OW15025   4.318   6.165   5.557
 4709SOL    HW115026   4.275   6.231   5.495
 4709SOL    HW215027   4.417   6.177   5.554
 4710SOL     OW15028   4.255   0.772   5.461
 4710SOL    HW115029   4.176   0.771   5.523
 4710SOL    HW215030   4.300   0.861   5.466
 4711SOL     OW15031   5.962   1.451   1.580
 4711SOL    HW115032   6.000   1.540   1.557
 4711SOL    HW215033   6.022   1.379   1.546
 4712SOL     OW15034   3.100   4.497   0.354
 4712SOL    HW115035   3.058   4.549   0.280
 4712SOL    HW215036   3.193   4.530   0.370
 4713SOL     OW15037   3.713   4.115   0.260
 4713SOL    HW115038   3.770   4.137   0.340
 4713SOL    HW215039   3.626   4.078   0.290
 4714SOL     OW15040   0.656   2.138   6.845
 4714SOL    HW115041   0.710   2.162   6.764
 4714SOL    HW215042   0.661   2.213   6.911
 4715SOL     OW15043   5.494   2.461   2.498
 4715SOL    HW115044   5.469   2.549   2.458
 4715SOL    HW215045   5.411   2.410   2.521
 4716SOL     OW15046   4.740   6.026   6.313
 4716SOL    HW115047   4.649   6.066   6.327
 4716SOL    HW215048   4.776   5.994   6.400
 4717SOL     OW15049   0.033   0.287   3.949
 4717SOL    HW115050   6.984   0.325   3.893
 4717SOL    HW215051   0.099   0.359   3.971
 4718SOL     OW15052   5.509   2.891   1.571
 4718SOL    HW115053   5.478   2.962   1.634
 4718SOL    HW215054   5.446   2.813   1.576
 4719SOL     OW15055   4.794   3.174   1.542
 4719SOL    HW115056   4.696   3.155   1.552
 4719SOL    HW215057   4.833   3.194   1.632
 4720SOL     OW15058   2.050   5.778   5.837
 4720SOL    HW115059   2.048   5.737   5.929
 4720SOL    HW215060   2.136   5.753   5.791
 4721SOL     OW15061   6.617   2.285   2.172
 4721SOL    HW115062   6.660   2.375   2.183
 4721SOL    HW215063   6.524   2.288   2.209
 4722SOL     OW15064   0.890   5.802   6.394
 4722SOL    HW115065   0.881   5.897   6.362
 4722SOL    HW215066   0.983   5.771   6.379
 4723SOL     OW15067   2.277   3.865   6.004
 4723SOL    HW115068   2.226   3.949   5.984
 4723SOL    HW215069   2.298   3.861   6.102
 4724SOL     OW15070   6.320   6.279   2.290
 4724SOL    HW115071   6.346   6.375   2.302
 4724SOL    HW215072   6.351   6.247   2.201
 4725SOL     OW15073   6.451   5.375   2.046
 4725SOL    HW115074   6.469   5.320   2.127
 4725SOL    HW215075   6.364   5.346   2.005
 4726SOL     OW15076   1.694   2.446   5.894
 4726SOL    HW115077   1.753   2.517   5.934
 4726SOL    HW215078   1.742   2.358   5.897
 4727SOL     OW15079   1.647   5.713   1.242
 4727SOL    HW115080   1.720   5.686   1.305
 4727SOL    HW215081   1.568   5.744   1.295
 4728SOL     OW15082   6.655   1.066   1.938
 4728SOL    HW115083   6.709   1.138   1.984
 4728SOL    HW215084   6.695   0.977   1.960
 4729SOL     OW15085   3.080   1.403   0.766
 4729SOL    HW115086   3.141   1.324   0.756
 4729SOL    HW215087   2.986   1.371   0.779
 4730SOL     OW15088   3.150   6.039   5.050
 4730SOL    HW115089   3.203   5.957   5.072
 4730SOL    HW215090   3.067   6.041   5.106
 4731SOL     OW15091   4.324   0.209   6.982
 4731SOL    HW115092   4.300   0.112   6.986
 4731SOL    HW215093   4.277   0.252   6.905
 4732SOL     OW15094   1.158   3.085   6.065
 4732SOL    HW115095   1.206   3.147   6.003
 4732SOL    HW215096   1.171   3.116   6.160
 4733SOL     OW15097   1.440   4.002   3.648
 4733SOL    HW115098   1.459   3.933   3.719
 4733SOL    HW215099   1.509   3.995   3.576
 4734SOL     OW15100   4.136   2.678   0.162
 4734SOL    HW115101   4.204   2.727   0.216
 4734SOL    HW215102   4.059   2.652   0.220
 4735SOL     OW15103   6.785   5.517   4.636
 4735SOL    HW115104   6.794   5.442   4.701
 4735SOL    HW215105   6.780   5.604   4.685
 4736SOL     OW15106   0.015   1.582   5.799
 4736SOL    HW115107   0.093   1.554   5.742
 4736SOL    HW215108   6.998   1.501   5.839
 4737SOL     OW15109   2.660   4.660   2.042
 4737SOL    HW115110   2.745   4.625   2.004
 4737SOL    HW215111   2.676   4.751   2.080
 4738SOL     OW15112   0.315   6.388   2.854
 4738SOL    HW115113   0.353   6.324   2.788
 4738SOL    HW215114   0.216   6.378   2.858
 4739SOL     OW15115   3.942   0.362   3.446
 4739SOL    HW115116   3.890   0.351   3.531
 4739SOL    HW215117   4.038   0.339   3.463
 4740SOL     OW15118   0.924   1.236   1.670
 4740SOL    HW115119   1.015   1.229   1.630
 4740SOL    HW215120   0.930   1.280   1.760
 4741SOL     OW15121   3.765   3.680   1.040
 4741SOL    HW115122   3.759   3.620   0.960
 4741SOL    HW215123   3.849   3.734   1.035
 4742SOL     OW15124   3.520   6.870   6.250
 4742SOL    HW115125   3.442   6.827   6.205
 4742SOL    HW215126   3.577   6.916   6.182
 4743SOL     OW15127   1.522   3.141   3.581
 4743SOL    HW115128   1.517   3.085   3.663
 4743SOL    HW215129   1.602   3.200   3.586
 4744SOL     OW15130   2.237   4.296   0.651
 4744SOL    HW115131   2.147   4.317   0.613
 4744SOL    HW215132   2.226   4.247   0.737
 4745SOL     OW15133   2.912   4.559   6.066
 4745SOL    HW115134   2.962   4.535   6.150
 4745SOL    HW215135   2.974   4.551   5.988
 4746SOL     OW15136   5.529   5.570   2.288
 4746SOL    HW115137   5.443   5.541   2.331
 4746SOL    HW215138   5.565   5.495   2.233
 4747SOL     OW15139   2.011   3.937   0.414
 4747SOL    HW115140   1.941   3.944   0.486
 4747SOL    HW215141   2.088   3.997   0.437
 4748SOL     OW15142   2.032   5.424   0.792
 4748SOL    HW115143   2.076   5.359   0.730
 4748SOL    HW215144   2.012   5.509   0.743
 4749SOL     OW15145   1.949   6.576   5.750
 4749SOL    HW115146   1.913   6.647   5.690
 4749SOL    HW215147   1.879   6.547   5.815
 4750SOL     OW15148   0.622   4.064   4.288
 4750SOL    HW115149   0.671   4.061   4.375
 4750SOL    HW215150   0.616   3.972   4.250
 4751SOL     OW15151   4.020   1.989   2.238
 4751SOL    HW115152   4.083   1.914   2.216
 4751SOL    HW215153   3.983   2.026   2.153
 4752SOL     OW15154   4.478   1.367   6.640
 4752SOL    HW115155   4.443   1.285   6.594
 4752SOL    HW215156   4.564   1.394   6.598
 4753SOL     OW15157   5.669   0.024   3.837
 4753SOL    HW115158   5.691   6.972   3.776
 4753SOL    HW215159   5.574   0.053   3.821
 4754SOL     OW15160   6.012   5.967   4.505
 4754SOL    HW115161   5.919   5.937   4.524
 4754SOL    HW215162   6.065   5.892   4.466
 4755SOL     OW15163   3.282   0.543   0.241
 4755SOL    HW115164   3.288   0.474   0.168
 4755SOL    HW215165   3.251   0.499   0.326
 4756SOL     OW15166   5.477   2.562   0.304
 4756SOL    HW115167   5.543   2.489   0.324
 4756SOL    HW215168   5.458   2.613   0.388
 4757SOL     OW15169   2.829   1.342   0.865
 4757SOL    HW115170   2.741   1.383   0.840
 4757SOL    HW215171   2.823   1.243   0.856
 4758SOL     OW15172   1.819   6.493   3.460
 4758SOL    HW115173   1.864   6.413   3.420
 4758SOL    HW215174   1.722   6.492   3.437
 4759SOL     OW15175   6.332   4.626   5.044
 4759SOL    HW115176   6.269   4.626   4.966
 4759SOL    HW215177   6.396   4.550   5.035
 4760SOL     OW15178   2.529   1.838   0.794
 4760SOL    HW115179   2.485   1.835   0.884
 4760SOL    HW215180   2.615   1.788   0.797
 4761SOL     OW15181   0.714   5.572   0.393
 4761SOL    HW115182   0.619   5.588   0.420
 4761SOL    HW215183   0.741   5.639   0.324
 4762SOL     OW15184   1.365   5.815   2.326
 4762SOL    HW115185   1.336   5.867   2.246
 4762SOL    HW215186   1.302   5.832   2.402
 4763SOL     OW15187   5.977   6.659   3.052
 4763SOL    HW115188   5.883   6.627   3.063
 4763SOL    HW215189   5.986   6.751   3.091
 4764SOL     OW15190   4.892   3.818   4.925
 4764SOL    HW115191   4.859   3.751   4.992
 4764SOL    HW215192   4.908   3.772   4.837
 4765SOL     OW15193   4.761   1.411   4.659
 4765SOL    HW115194   4.845   1.449   4.619
 4765SOL    HW215195   4.760   1.430   4.757
 4766SOL     OW15196   5.220   5.769   4.198
 4766SOL    HW115197   5.203   5.755   4.296
 4766SOL    HW215198   5.307   5.728   4.173
 4767SOL     OW15199   3.014   5.555   5.176
 4767SOL    HW115200   3.102   5.509   5.189
 4767SOL    HW215201   3.023   5.623   5.103
 4768SOL     OW15202   4.397   2.494   6.265
 4768SOL    HW115203   4.314   2.536   6.301
 4768SOL    HW215204   4.400   2.504   6.166
 4769SOL     OW15205   4.784   5.168   6.857
 4769SOL    HW115206   4.731   5.084   6.871
 4769SOL    HW215207   4.870   5.162   6.909
 4770SOL     OW15208   0.534   1.153   4.217
 4770SOL    HW115209   0.509   1.126   4.309
 4770SOL    HW215210   0.572   1.074   4.168
 4771SOL     OW15211   2.854   5.797   5.366
 4771SOL    HW115212   2.839   5.699   5.378
 4771SOL    HW215213   2.947   5.813   5.331
 4772SOL     OW15214   4.188   5.035   0.932
 4772SOL    HW115215   4.239   5.107   0.885
 4772SOL    HW215216   4.251   4.977   0.984
 4773SOL     OW15217   6.632   5.410   4.419
 4773SOL    HW115218   6.704   5.421   4.488
 4773SOL    HW215219   6.606   5.500   4.383
 4774SOL     OW15220   1.679   2.801   1.682
 4774SOL    HW115221   1.615   2.876   1.700
 4774SOL    HW215222   1.772   2.832   1.697
 4775SOL     OW15223   5.369   6.577   2.826
 4775SOL    HW115224   5.402   6.551   2.735
 4775SOL    HW215225   5.280   6.534   2.842
 4776SOL     OW15226   1.240   6.107   5.940
 4776SOL    HW115227   1.291   6.027   5.908
 4776SOL    HW215228   1.157   6.076   5.988
 4777SOL     OW15229   2.197   5.230   1.027
 4777SOL    HW115230   2.178   5.160   1.096
 4777SOL    HW215231   2.141   5.311   1.045
 4778SOL     OW15232   6.558   2.572   4.068
 4778SOL    HW115233   6.637   2.523   4.032
 4778SOL    HW215234   6.584   2.623   4.150
 4779SOL     OW15235   6.090   5.414   2.498
 4779SOL    HW115236   6.029   5.450   2.568
 4779SOL    HW215237   6.146   5.487   2.460
 4780SOL     OW15238   5.894   1.730   0.098
 4780SOL    HW115239   5.832   1.686   0.033
 4780SOL    HW215240   5.912   1.667   0.174
 4781SOL     OW15241   2.578   6.066   2.536
 4781SOL    HW115242   2.594   6.144   2.475
 4781SOL    HW215243   2.640   6.072   2.615
 4782SOL     OW15244   6.251   5.935   0.171
 4782SOL    HW115245   6.219   5.944   0.265
 4782SOL    HW215246   6.179   5.895   0.115
 4783SOL     OW15247   4.918   4.368   0.020
 4783SOL    HW115248   4.850   4.315   6.994
 4783SOL    HW215249   5.010   4.344   7.013
 4784SOL     OW15250   6.070   3.756   6.584
 4784SOL    HW115251   6.130   3.685   6.547
 4784SOL    HW215252   6.122   3.841   6.597
 4785SOL     OW15253   1.465   6.553   3.095
 4785SOL    HW115254   1.396   6.625   3.103
 4785SOL    HW215255   1.445   6.481   3.161
 4786SOL     OW15256   2.666   0.606   7.014
 4786SOL    HW115257   2.714   0.599   6.926
 4786SOL    HW215258   2.575   0.646   6.999
 4787SOL     OW15259   4.004   1.477   2.911
 4787SOL    HW115260   4.001   1.464   2.812
 4787SOL    HW215261   3.963   1.566   2.934
 4788SOL     OW15262   6.613   6.443   6.621
 4788SOL    HW115263   6.580   6.501   6.696
 4788SOL    HW215264   6.644   6.500   6.546
 4789SOL     OW15265   4.511   2.451   1.581
 4789SOL    HW115266   4.581   2.411   1.521
 4789SOL    HW215267   4.421   2.431   1.543
 4790SOL     OW15268   6.312   2.031   5.350
 4790SOL    HW115269   6.283   1.990   5.436
 4790SOL    HW215270   6.336   1.959   5.285
 4791SOL     OW15271   0.103   2.815   1.328
 4791SOL    HW115272   0.083   2.814   1.230
 4791SOL    HW215273   0.114   2.910   1.359
 4792SOL     OW15274   2.862   4.823   3.119
 4792SOL    HW115275   2.799   4.746   3.116
 4792SOL    HW215276   2.903   4.836   3.029
 4793SOL     OW15277   2.445   2.239   5.191
 4793SOL    HW115278   2.386   2.296   5.248
 4793SOL    HW215279   2.449   2.147   5.228
 4794SOL     OW15280   5.338   0.378   4.702
 4794SOL    HW115281   5.409   0.344   4.640
 4794SOL    HW215282   5.269   0.428   4.650
 4795SOL     OW15283   6.297   2.127   4.262
 4795SOL    HW115284   6.370   2.104   4.325
 4795SOL    HW215285   6.308   2.221   4.229
 4796SOL     OW15286   4.662   1.766   4.813
 4796SOL    HW115287   4.741   1.812   4.773
 4796SOL    HW215288   4.587   1.764   4.747
 4797SOL     OW15289   0.672   6.251   5.289
 4797SOL    HW115290   0.608   6.181   5.321
 4797SOL    HW215291   0.692   6.315   5.364
 4798SOL     OW15292   0.223   4.084   5.559
 4798SOL    HW115293   0.172   4.142   5.495
 4798SOL    HW215294   0.318   4.116   5.564
 4799SOL     OW15295   4.632   1.765   0.616
 4799SOL    HW115296   4.574   1.690   0.585
 4799SOL    HW215297   4.696   1.791   0.544
 4800SOL     OW15298   2.935   2.381   6.674
 4800SOL    HW115299   2.964   2.310   6.610
 4800SOL    HW215300   2.841   2.408   6.652
 4801SOL     OW15301   3.399   2.292   6.304
 4801SOL    HW115302   3.327   2.360   6.291
 4801SOL    HW215303   3.410   2.273   6.402
 4802SOL     OW15304   0.955   6.403   1.908
 4802SOL    HW115305   0.942   6.329   1.975
 4802SOL    HW215306   0.995   6.365   1.824
 4803SOL     OW15307   6.997   4.940   0.374
 4803SOL    HW115308   6.953   4.998   0.442
 4803SOL    HW215309   6.929   4.909   0.307
 4804SOL     OW15310   6.836   6.565   1.563
 4804SOL    HW115311   6.794   6.644   1.608
 4804SOL    HW215312   6.805   6.560   1.468
 4805SOL     OW15313   6.612   1.809   2.403
 4805SOL    HW115314   6.566   1.731   2.444
 4805SOL    HW215315   6.710   1.805   2.423
 4806SOL     OW15316   0.912   4.271   2.783
 4806SOL    HW115317   0.835   4.207   2.788
 4806SOL    HW215318   0.962   4.271   2.870
 4807SOL     OW15319   0.830   4.908   0.222
 4807SOL    HW115320   0.797   4.928   0.314
 4807SOL    HW215321   0.927   4.931   0.216
 4808SOL     OW15322   4.796   5.217   0.747
 4808SOL    HW115323   4.811   5.202   0.844
 4808SOL    HW215324   4.873   5.181   0.695
 4809SOL     OW15325   3.325   4.769   0.230
 4809SOL    HW115326   3.231   4.783   0.260
 4809SOL    HW215327   3.374   4.856   0.234
 4810SOL     OW15328   1.730   4.580   2.709
 4810SOL    HW115329   1.715   4.516   2.633
 4810SOL    HW215330   1.666   4.657   2.700
 4811SOL     OW15331   2.513   4.298   1.806
 4811SOL    HW115332   2.467   4.241   1.739
 4811SOL    HW215333   2.598   4.334   1.767
 4812SOL     OW15334   0.498   5.536   2.377
 4812SOL    HW115335   0.569   5.507   2.312
 4812SOL    HW215336   0.464   5.626   2.352
 4813SOL     OW15337   6.141   2.046   6.633
 4813SOL    HW115338   6.157   1.954   6.598
 4813SOL    HW215339   6.221   2.104   6.614
 4814SOL     OW15340   0.153   3.049   1.456
 4814SOL    HW115341   0.230   2.997   1.491
 4814SOL    HW215342   0.149   3.138   1.501
 4815SOL     OW15343   5.068   3.913   2.450
 4815SOL    HW115344   5.079   3.919   2.350
 4815SOL    HW215345   4.983   3.960   2.476
 4816SOL     OW15346   2.421   4.824   1.465
 4816SOL    HW115347   2.518   4.840   1.487
 4816SOL    HW215348   2.365   4.846   1.545
 4817SOL     OW15349   2.006   1.539   6.676
 4817SOL    HW115350   2.042   1.495   6.593
 4817SOL    HW215351   1.942   1.477   6.722
 4818SOL     OW15352   0.869   6.686   4.558
 4818SOL    HW115353   0.938   6.669   4.628
 4818SOL    HW215354   0.893   6.637   4.475
 4819SOL     OW15355   1.706   1.769   0.602
 4819SOL    HW115356   1.684   1.786   0.698
 4819SOL    HW215357   1.753   1.680   0.594
 4820SOL     OW15358   6.230   2.766   2.527
 4820SOL    HW115359   6.259   2.795   2.618
 4820SOL    HW215360   6.143   2.717   2.533
 4821SOL     OW15361   0.495   6.503   2.260
 4821SOL    HW115362   0.564   6.563   2.221
 4821SOL    HW215363   0.480   6.425   2.199
 4822SOL     OW15364   2.028   3.601   4.835
 4822SOL    HW115365   2.002   3.522   4.890
 4822SOL    HW215366   2.006   3.584   4.739
 4823SOL     OW15367   1.772   0.617   4.313
 4823SOL    HW115368   1.706   0.627   4.238
 4823SOL    HW215369   1.777   0.521   4.339
 4824SOL     OW15370   5.391   2.166   4.461
 4824SOL    HW115371   5.370   2.134   4.553
 4824SOL    HW215372   5.469   2.115   4.425
 4825SOL     OW15373   1.508   2.322   4.049
 4825SOL    HW115374   1.546   2.415   4.045
 4825SOL    HW215375   1.422   2.320   3.998
 4826SOL     OW15376   6.716   1.381   6.106
 4826SOL    HW115377   6.750   1.343   6.021
 4826SOL    HW215378   6.618   1.399   6.098
 4827SOL     OW15379   6.272   1.474   1.118
 4827SOL    HW115380   6.301   1.568   1.096
 4827SOL    HW215381   6.205   1.444   1.051
 4828SOL     OW15382   5.376   3.081   0.716
 4828SOL    HW115383   5.452   3.115   0.772
 4828SOL    HW215384   5.338   2.999   0.759
 4829SOL     OW15385   4.305   6.960   6.861
 4829SOL    HW115386   4.347   6.964   6.770
 4829SOL    HW215387   4.231   6.894   6.860
 4830SOL     OW15388   4.365   6.858   3.618
 4830SOL    HW115389   4.334   6.862   3.523
 4830SOL    HW215390   4.313   6.788   3.667
 4831SOL     OW15391   0.062   4.519   6.180
 4831SOL    HW115392   0.110   4.585   6.122
 4831SOL    HW215393   7.021   4.467   6.126
 4832SOL     OW15394   3.471   3.341   4.736
 4832SOL    HW115395   3.407   3.367   4.663
 4832SOL    HW215396   3.422   3.292   4.808
 4833SOL     OW15397   4.644   2.325   3.204
 4833SOL    HW115398   4.717   2.388   3.229
 4833SOL    HW215399   4.632   2.257   3.277
 4834SOL     OW15400   3.755   6.423   0.757
 4834SOL    HW115401   3.706   6.336   0.762
 4834SOL    HW215402   3.826   6.426   0.827
 4835SOL     OW15403   6.423   1.320   6.460
 4835SOL    HW115404   6.472   1.264   6.394
 4835SOL    HW215405   6.351   1.266   6.503
 4836SOL     OW15406   5.545   3.152   4.713
 4836SOL    HW115407   5.515   3.185   4.802
 4836SOL    HW215408   5.521   3.055   4.704
 4837SOL     OW15409   6.483   3.611   2.694
 4837SOL    HW115410   6.481   3.690   2.633
 4837SOL    HW215411   6.561   3.618   2.755
 4838SOL     OW15412   1.063   5.219   0.004
 4838SOL    HW115413   1.032   5.213   6.934
 4838SOL    HW215414   1.079   5.126   0.040
 4839SOL     OW15415   1.857   3.612   6.857
 4839SOL    HW115416   1.891   3.578   6.944
 4839SOL    HW215417   1.931   3.658   6.807
 4840SOL     OW15418   6.954   4.577   6.418
 4840SOL    HW115419   0.006   4.595   6.481
 4840SOL    HW215420   6.989   4.572   6.324
 4841SOL     OW15421   2.893   5.678   1.776
 4841SOL    HW115422   2.816   5.634   1.823
 4841SOL    HW215423   2.955   5.607   1.741
 4842SOL     OW15424   3.699   5.092   2.774
 4842SOL    HW115425   3.623   5.030   2.798
 4842SOL    HW215426   3.761   5.099   2.853
 4843SOL     OW15427   0.076   3.298   1.004
 4843SOL    HW115428   0.096   3.307   1.102
 4843SOL    HW215429   0.028   3.212   0.987
 4844SOL     OW15430   0.685   2.908   6.074
 4844SOL    HW115431   0.784   2.903   6.057
 4844SOL    HW215432   0.642   2.965   6.004
 4845SOL     OW15433   5.246   5.626   6.233
 4845SOL    HW115434   5.237   5.584   6.142
 4845SOL    HW215435   5.183   5.583   6.296
 4846SOL     OW15436   6.918   2.967   4.279
 4846SOL    HW115437   6.982   3.040   4.303
 4846SOL    HW215438   6.923   2.894   4.348
 4847SOL     OW15439   2.898   0.821   6.065
 4847SOL    HW115440   2.883   0.763   5.985
 4847SOL    HW215441   2.864   0.913   6.046
 4848SOL     OW15442   1.640   0.730   3.767
 4848SOL    HW115443   1.736   0.755   3.774
 4848SOL    HW215444   1.583   0.811   3.777
 4849SOL     OW15445   1.338   5.690   6.839
 4849SOL    HW115446   1.405   5.711   6.768
 4849SOL    HW215447   1.322   5.772   6.895
 4850SOL     OW15448   3.875   1.239   2.062
 4850SOL    HW115449   3.905   1.310   1.998
 4850SOL    HW215450   3.949   1.219   2.127
 4851SOL     OW15451   4.182   0.122   5.867
 4851SOL    HW115452   4.265   0.166   5.901
 4851SOL    HW215453   4.136   0.074   5.942
 4852SOL     OW15454   1.679   5.892   4.802
 4852SOL    HW115455   1.638   5.907   4.712
 4852SOL    HW215456   1.607   5.879   4.870
 4853SOL     OW15457   3.188   1.282   2.899
 4853SOL    HW115458   3.108   1.305   2.844
 4853SOL    HW215459   3.191   1.341   2.980
 4854SOL     OW15460   4.224   6.952   1.118
 4854SOL    HW115461   4.269   7.024   1.065
 4854SOL    HW215462   4.192   6.880   1.056
 4855SOL     OW15463   6.227   2.748   3.376
 4855SOL    HW115464   6.176   2.834   3.373
 4855SOL    HW215465   6.325   2.766   3.378
 4856SOL     OW15466   1.190   3.371   2.957
 4856SOL    HW115467   1.224   3.389   3.049
 4856SOL    HW215468   1.117   3.436   2.935
 4857SOL     OW15469   2.676   1.738   4.849
 4857SOL    HW115470   2.662   1.768   4.754
 4857SOL    HW215471   2.653   1.813   4.911
 4858SOL     OW15472   0.972   0.447   4.312
 4858SOL    HW115473   0.937   0.519   4.372
 4858SOL    HW215474   1.064   0.472   4.280
 4859SOL     OW15475   1.142   0.102   4.495
 4859SOL    HW115476   1.202   0.044   4.439
 4859SOL    HW215477   1.051   0.107   4.452
 4860SOL     OW15478   4.410   4.426   1.659
 4860SOL    HW115479   4.435   4.368   1.737
 4860SOL    HW215480   4.404   4.370   1.576
 4861SOL     OW15481   6.147   5.465   0.061
 4861SOL    HW115482   6.207   5.399   0.016
 4861SOL    HW215483   6.053   5.431   0.059
 4862SOL     OW15484   2.395   4.611   5.284
 4862SOL    HW115485   2.359   4.537   5.342
 4862SOL    HW215486   2.417   4.690   5.342
 4863SOL     OW15487   5.255   3.604   0.897
 4863SOL    HW115488   5.239   3.549   0.815
 4863SOL    HW215489   5.205   3.565   0.974
 4864SOL     OW15490   3.988   1.171   2.755
 4864SOL    HW115491   3.899   1.131   2.779
 4864SOL    HW215492   4.053   1.155   2.829
 4865SOL     OW15493   1.919   6.435   4.033
 4865SOL    HW115494   2.007   6.402   3.999
 4865SOL    HW215495   1.932   6.475   4.124
 4866SOL     OW15496   6.188   3.739   1.823
 4866SOL    HW115497   6.178   3.644   1.855
 4866SOL    HW215498   6.250   3.788   1.884
 4867SOL     OW15499   3.825   5.388   1.655
 4867SOL    HW115500   3.909   5.402   1.707
 4867SOL    HW215501   3.842   5.326   1.578
 4868SOL     OW15502   6.595   5.002   2.935
 4868SOL    HW115503   6.582   5.042   2.844
 4868SOL    HW215504   6.622   4.906   2.925
 4869SOL     OW15505   1.177   1.188   1.583
 4869SOL    HW115506   1.153   1.126   1.508
 4869SOL    HW215507   1.227   1.267   1.547
 4870SOL     OW15508   0.582   6.069   2.203
 4870SOL    HW115509   0.530   5.984   2.209
 4870SOL    HW215510   0.616   6.094   2.294
 4871SOL     OW15511   1.322   0.787   4.484
 4871SOL    HW115512   1.287   0.818   4.396
 4871SOL    HW215513   1.407   0.736   4.470
 4872SOL     OW15514   6.666   6.287   3.946
 4872SOL    HW115515   6.616   6.370   3.969
 4872SOL    HW215516   6.734   6.307   3.875
 4873SOL     OW15517   6.585   4.694   3.811
 4873SOL    HW115518   6.640   4.753   3.870
 4873SOL    HW215519   6.560   4.744   3.728
 4874SOL     OW15520   6.249   3.398   3.182
 4874SOL    HW115521   6.251   3.379   3.084
 4874SOL    HW215522   6.331   3.449   3.207
 4875SOL     OW15523   5.478   2.453   1.262
 4875SOL    HW115524   5.399   2.514   1.248
 4875SOL    HW215525   5.526   2.480   1.345
 4876SOL     OW15526   5.701   1.604   4.187
 4876SOL    HW115527   5.612   1.569   4.218
 4876SOL    HW215528   5.771   1.576   4.252
 4877SOL     OW15529   1.205   2.141   6.618
 4877SOL    HW115530   1.210   2.043   6.599
 4877SOL    HW215531   1.211   2.156   6.717
 4878SOL     OW15532   6.221   0.827   2.889
 4878SOL    HW115533   6.214   0.893   2.964
 4878SOL    HW215534   6.315   0.793   2.884
 4879SOL     OW15535   4.463   6.063   2.872
 4879SOL    HW115536   4.387   6.050   2.935
 4879SOL    HW215537   4.521   6.137   2.905
 4880SOL     OW15538   5.533   3.656   0.139
 4880SOL    HW115539   5.609   3.669   0.202
 4880SOL    HW215540   5.533   3.562   0.104
 4881SOL     OW15541   1.773   1.238   6.174
 4881SOL    HW115542   1.814   1.151   6.202
 4881SOL    HW215543   1.689   1.253   6.226
 4882SOL     OW15544   5.344   1.508   5.099
 4882SOL    HW115545   5.279   1.432   5.099
 4882SOL    HW215546   5.422   1.486   5.157
 4883SOL     OW15547   5.459   4.387   1.746
 4883SOL    HW115548   5.474   4.369   1.649
 4883SOL    HW215549   5.544   4.370   1.796
 4884SOL     OW15550   3.438   6.996   1.442
 4884SOL    HW115551   3.441   0.024   1.527
 4884SOL    HW215552   3.350   7.011   1.396
 4885SOL     OW15553   1.654   5.104   2.385
 4885SOL    HW115554   1.702   5.169   2.325
 4885SOL    HW215555   1.719   5.060   2.446
 4886SOL     OW15556   1.048   5.038   0.899
 4886SOL    HW115557   1.098   5.124   0.908
 4886SOL    HW215558   0.957   5.055   0.862
 4887SOL     OW15559   0.696   0.318   2.530
 4887SOL    HW115560   0.784   0.365   2.540
 4887SOL    HW215561   0.624   0.373   2.570
 4888SOL     OW15562   2.255   6.935   4.599
 4888SOL    HW115563   2.195   6.944   4.519
 4888SOL    HW215564   2.330   6.872   4.577
 4889SOL     OW15565   6.261   1.136   6.270
 4889SOL    HW115566   6.193   1.120   6.199
 4889SOL    HW215567   6.352   1.138   6.228
 4890SOL     OW15568   1.121   1.936   6.908
 4890SOL    HW115569   1.057   2.013   6.901
 4890SOL    HW215570   1.143   1.920   7.005
 4891SOL     OW15571   1.451   5.010   6.638
 4891SOL    HW115572   1.384   5.046   6.703
 4891SOL    HW215573   1.451   5.066   6.555
 4892SOL     OW15574   3.373   6.404   2.108
 4892SOL    HW115575   3.302   6.360   2.053
 4892SOL    HW215576   3.337   6.422   2.200
 4893SOL     OW15577   6.814   3.754   1.615
 4893SOL    HW115578   6.863   3.706   1.541
 4893SOL    HW215579   6.764   3.687   1.669
 4894SOL     OW15580   2.536   1.526   3.011
 4894SOL    HW115581   2.497   1.488   2.927
 4894SOL    HW215582   2.632   1.549   2.995
 4895SOL     OW15583   0.525   5.049   3.295
 4895SOL    HW115584   0.468   5.124   3.264
 4895SOL    HW215585   0.532   4.980   3.222
 4896SOL     OW15586   2.198   5.865   2.400
 4896SOL    HW115587   2.107   5.902   2.422
 4896SOL    HW215588   2.235   5.819   2.481
 4897SOL     OW15589   2.947   4.171   6.350
 4897SOL    HW115590   2.873   4.195   6.412
 4897SOL    HW215591   3.023   4.131   6.402
 4898SOL     OW15592   3.455   0.994   4.154
 4898SOL    HW115593   3.489   0.982   4.248
 4898SOL    HW215594   3.384   0.926   4.136
 4899SOL     OW15595   6.218   5.261   3.143
 4899SOL    HW115596   6.186   5.299   3.230
 4899SOL    HW215597   6.141   5.225   3.091
 4900SOL     OW15598   2.019   5.833   4.227
 4900SOL    HW115599   2.063   5.866   4.311
 4900SOL    HW215600   2.007   5.734   4.233
 4901SOL     OW15601   3.125   6.637   5.852
 4901SOL    HW115602   3.173   6.554   5.882
 4901SOL    HW215603   3.076   6.676   5.929
 4902SOL     OW15604   2.443   1.754   4.258
 4902SOL    HW115605   2.391   1.831   4.221
 4902SOL    HW215606   2.437   1.755   4.358
 4903SOL     OW15607   3.967   6.413   6.521
 4903SOL    HW115608   4.015   6.379   6.440
 4903SOL    HW215609   3.906   6.341   6.555
 4904SOL     OW15610   1.958   6.830   3.845
 4904SOL    HW115611   2.011   6.803   3.925
 4904SOL    HW215612   1.960   6.757   3.777
 4905SOL     OW15613   4.391   0.402   2.332
 4905SOL    HW115614   4.403   0.496   2.302
 4905SOL    HW215615   4.294   0.379   2.334
 4906SOL     OW15616   4.533   1.882   5.919
 4906SOL    HW115617   4.505   1.975   5.898
 4906SOL    HW215618   4.600   1.883   5.994
 4907SOL     OW15619   4.234   6.405   1.053
 4907SOL    HW115620   4.270   6.470   1.119
 4907SOL    HW215621   4.299   6.394   0.978
 4908SOL     OW15622   5.071   4.881   6.764
 4908SOL    HW115623   5.089   4.980   6.763
 4908SOL    HW215624   5.115   4.841   6.844
 4909SOL     OW15625   6.403   0.121   4.280
 4909SOL    HW115626   6.391   0.113   4.181
 4909SOL    HW215627   6.340   0.190   4.316
 4910SOL     OW15628   5.304   6.795   4.440
 4910SOL    HW115629   5.234   6.866   4.428
 4910SOL    HW215630   5.268   6.722   4.498
 4911SOL     OW15631   0.982   3.415   4.226
 4911SOL    HW115632   0.930   3.369   4.298
 4911SOL    HW215633   0.923   3.434   4.148
 4912SOL     OW15634   5.488   1.099   6.558
 4912SOL    HW115635   5.476   1.142   6.468
 4912SOL    HW215636   5.556   1.026   6.550
 4913SOL     OW15637   3.976   3.081   5.203
 4913SOL    HW115638   3.954   2.987   5.228
 4913SOL    HW215639   3.950   3.098   5.108
 4914SOL     OW15640   3.431   0.103   5.043
 4914SOL    HW115641   3.445   0.193   5.000
 4914SOL    HW215642   3.356   0.055   4.997
 4915SOL     OW15643   4.322   0.331   4.731
 4915SOL    HW115644   4.257   0.405   4.713
 4915SOL    HW215645   4.312   0.260   4.661
 4916SOL     OW15646   1.521   0.660   4.066
 4916SOL    HW115647   1.508   0.733   4.133
 4916SOL    HW215648   1.534   0.700   3.975
 4917SOL     OW15649   2.041   4.886   1.670
 4917SOL    HW115650   2.127   4.872   1.719
 4917SOL    HW215651   2.043   4.974   1.624
 4918SOL     OW15652   4.385   5.574   2.049
 4918SOL    HW115653   4.302   5.522   2.068
 4918SOL    HW215654   4.444   5.573   2.129
 4919SOL     OW15655   3.009   2.217   6.925
 4919SOL    HW115656   2.994   2.259   6.836
 4919SOL    HW215657   2.940   2.145   6.940
 4920SOL     OW15658   6.058   0.826   4.734
 4920SOL    HW115659   6.082   0.783   4.822
 4920SOL    HW215660   6.041   0.756   4.666
 4921SOL     OW15661   1.705   4.484   0.536
 4921SOL    HW115662   1.798   4.508   0.506
 4921SOL    HW215663   1.681   4.394   0.500
 4922SOL     OW15664   1.964   2.381   4.993
 4922SOL    HW115665   1.902   2.402   4.917
 4922SOL    HW215666   2.044   2.333   4.958
 4923SOL     OW15667   4.045   1.807   1.565
 4923SOL    HW115668   4.141   1.833   1.555
 4923SOL    HW215669   4.019   1.746   1.490
 4924SOL     OW15670   2.652   1.597   5.467
 4924SOL    HW115671   2.607   1.591   5.378
 4924SOL    HW215672   2.702   1.683   5.474
 4925SOL     OW15673   6.245   6.371   1.813
 4925SOL    HW115674   6.319   6.438   1.805
 4925SOL    HW215675   6.283   6.281   1.832
 4926SOL     OW15676   5.402   1.637   0.328
 4926SOL    HW115677   5.391   1.540   0.352
 4926SOL    HW215678   5.500   1.660   0.328
 4927SOL     OW15679   4.146   3.492   4.376
 4927SOL    HW115680   4.142   3.396   4.350
 4927SOL    HW215681   4.158   3.500   4.475
 4928SOL     OW15682   1.351   0.156   6.847
 4928SOL    HW115683   1.289   0.097   6.899
 4928SOL    HW215684   1.351   0.128   6.751
 4929SOL     OW15685   0.839   5.287   4.930
 4929SOL    HW115686   0.831   5.202   4.878
 4929SOL    HW215687   0.751   5.336   4.927
 4930SOL     OW15688   4.921   0.948   3.307
 4930SOL    HW115689   4.956   0.930   3.399
 4930SOL    HW215690   4.966   0.888   3.241
 4931SOL     OW15691   6.853   6.971   0.687
 4931SOL    HW115692   6.802   7.019   0.615
 4931SOL    HW215693   6.850   0.000   0.771
 4932SOL     OW15694   2.420   3.243   1.722
 4932SOL    HW115695   2.415   3.297   1.805
 4932SOL    HW215696   2.403   3.302   1.643
 4933SOL     OW15697   2.294   6.905   3.247
 4933SOL    HW115698   2.319   6.868   3.158
 4933SOL    HW215699   2.351   6.984   3.268
 4934SOL     OW15700   2.744   5.888   2.816
 4934SOL    HW115701   2.726   5.916   2.911
 4934SOL    HW215702   2.800   5.959   2.771
 4935SOL     OW15703   1.399   1.300   6.057
 4935SOL    HW115704   1.388   1.362   6.134
 4935SOL    HW215705   1.429   1.351   5.976
 4936SOL     OW15706   2.479   4.906   1.942
 4936SOL    HW115707   2.576   4.929   1.952
 4936SOL    HW215708   2.435   4.905   2.032
 4937SOL     OW15709   6.889   3.083   6.355
 4937SOL    HW115710   6.911   3.120   6.446
 4937SOL    HW215711   6.900   2.983   6.357
 4938SOL     OW15712   2.206   6.202   5.867
 4938SOL    HW115713   2.276   6.266   5.899
 4938SOL    HW215714   2.155   6.243   5.791
 4939SOL     OW15715   6.238   1.946   4.056
 4939SOL    HW115716   6.246   2.008   4.135
 4939SOL    HW215717   6.326   1.942   4.008
 4940SOL     OW15718   0.276   0.965   5.032
 4940SOL    HW115719   0.306   0.920   4.948
 4940SOL    HW215720   0.297   0.907   5.110
 4941SOL     OW15721   4.646   2.234   5.227
 4941SOL    HW115722   4.710   2.309   5.211
 4941SOL    HW215723   4.616   2.196   5.139
 4942SOL     OW15724   5.540   3.336   6.409
 4942SOL    HW115725   5.539   3.274   6.331
 4942SOL    HW215726   5.480   3.300   6.481
 4943SOL     OW15727   4.344   3.629   5.896
 4943SOL    HW115728   4.319   3.556   5.960
 4943SOL    HW215729   4.264   3.653   5.841
 4944SOL     OW15730   2.429   4.561   1.649
 4944SOL    HW115731   2.358   4.630   1.667
 4944SOL    HW215732   2.389   4.484   1.599
 4945SOL     OW15733   1.279   0.281   4.659
 4945SOL    HW115734   1.367   0.233   4.663
 4945SOL    HW215735   1.216   0.230   4.600
 4946SOL     OW15736   1.554   5.306   0.001
 4946SOL    HW115737   1.593   5.253   0.077
 4946SOL    HW215738   1.585   5.267   6.938
 4947SOL     OW15739   2.287   0.196   0.671
 4947SOL    HW115740   2.239   0.217   0.586
 4947SOL    HW215741   2.220   0.175   0.742
 4948SOL     OW15742   1.360   2.836   2.503
 4948SOL    HW115743   1.380   2.745   2.539
 4948SOL    HW215744   1.264   2.841   2.476
 4949SOL     OW15745   5.818   5.249   6.015
 4949SOL    HW115746   5.828   5.177   5.947
 4949SOL    HW215747   5.823   5.208   6.107
 4950SOL     OW15748   2.127   5.413   4.504
 4950SOL    HW115749   2.047   5.370   4.544
 4950SOL    HW215750   2.191   5.440   4.577
 4951SOL     OW15751   5.921   1.052   5.051
 4951SOL    HW115752   5.862   0.984   5.008
 4951SOL    HW215753   5.879   1.142   5.045
 4952SOL     OW15754   0.297   0.735   5.924
 4952SOL    HW115755   0.221   0.799   5.923
 4952SOL    HW215756   0.263   0.641   5.922
 4953SOL     OW15757   1.870   6.274   3.032
 4953SOL    HW115758   1.891   6.204   2.963
 4953SOL    HW215759   1.941   6.344   3.032
 4954SOL     OW15760   3.568   3.304   0.395
 4954SOL    HW115761   3.474   3.280   0.371
 4954SOL    HW215762   3.590   3.395   0.359
 4955SOL     OW15763   3.164   6.757   6.913
 4955SOL    HW115764   3.089   6.733   6.852
 4955SOL    HW215765   3.190   6.852   6.899
 4956SOL     OW15766   2.220   0.252   5.032
 4956SOL    HW115767   2.176   0.182   5.088
 4956SOL    HW215768   2.308   0.276   5.071
 4957SOL     OW15769   5.558   2.227   1.947
 4957SOL    HW115770   5.464   2.193   1.945
 4957SOL    HW215771   5.591   2.242   1.854
 4958SOL     OW15772   0.132   5.076   5.608
 4958SOL    HW115773   0.045   5.027   5.604
 4958SOL    HW215774   0.178   5.069   5.519
 4959SOL     OW15775   6.307   2.026   7.013
 4959SOL    HW115776   6.212   2.012   6.985
 4959SOL    HW215777   6.315   2.010   0.087
 4960SOL     OW15778   3.393   4.907   3.359
 4960SOL    HW115779   3.359   4.944   3.445
 4960SOL    HW215780   3.322   4.851   3.317
 4961SOL     OW15781   4.490   1.201   5.831
 4961SOL    HW115782   4.514   1.104   5.827
 4961SOL    HW215783   4.468   1.226   5.925
 4962SOL     OW15784   5.966   2.355   0.577
 4962SOL    HW115785   6.057   2.373   0.614
 4962SOL    HW215786   5.973   2.294   0.498
 4963SOL     OW15787   6.265   5.950   0.702
 4963SOL    HW115788   6.300   6.024   0.760
 4963SOL    HW215789   6.215   5.885   0.759
 4964SOL     OW15790   2.854   0.470   3.599
 4964SOL    HW115791   2.833   0.387   3.649
 4964SOL    HW215792   2.895   0.447   3.511
 4965SOL     OW15793   0.604   1.120   2.449
 4965SOL    HW115794   0.591   1.213   2.414
 4965SOL    HW215795   0.701   1.106   2.470
 4966SOL     OW15796   2.016   6.656   5.339
 4966SOL    HW115797   2.112   6.675   5.320
 4966SOL    HW215798   1.976   6.733   5.388
 4967SOL     OW15799   4.047   5.357   5.283
 4967SOL    HW115800   3.970   5.419   5.301
 4967SOL    HW215801   4.027   5.302   5.202
 4968SOL     OW15802   6.624   1.724   3.899
 4968SOL    HW115803   6.708   1.778   3.909
 4968SOL    HW215804   6.639   1.654   3.829
 4969SOL     OW15805   2.790   6.207   2.994
 4969SOL    HW115806   2.756   6.232   2.903
 4969SOL    HW215807   2.833   6.287   3.037
 4970SOL     OW15808   2.351   2.575   2.920
 4970SOL    HW115809   2.287   2.550   2.847
 4970SOL    HW215810   2.338   2.671   2.944
 4971SOL     OW15811   6.014   5.475   3.445
 4971SOL    HW115812   6.032   5.567   3.481
 4971SOL    HW215813   6.042   5.471   3.349
 4972SOL     OW15814   1.481   3.577   0.878
 4972SOL    HW115815   1.551   3.576   0.950
 4972SOL    HW215816   1.510   3.519   0.802
 4973SOL     OW15817   1.890   6.491   2.322
 4973SOL    HW115818   1.801   6.459   2.289
 4973SOL    HW215819   1.956   6.488   2.247
 4974SOL     OW15820   6.418   4.455   1.069
 4974SOL    HW115821   6.377   4.364   1.060
 4974SOL    HW215822   6.391   4.495   1.157
 4975SOL     OW15823   5.832   4.081   5.438
 4975SOL    HW115824   5.767   4.112   5.369
 4975SOL    HW215825   5.784   4.029   5.508
 4976SOL     OW15826   1.753   1.113   3.660
 4976SOL    HW115827   1.738   1.189   3.597
 4976SOL    HW215828   1.666   1.085   3.701
 4977SOL     OW15829   4.048   5.034   0.235
 4977SOL    HW115830   4.053   5.026   0.334
 4977SOL    HW215831   4.112   5.105   0.204
 4978SOL     OW15832   6.799   3.964   4.681
 4978SOL    HW115833   6.706   3.988   4.711
 4978SOL    HW215834   6.808   3.865   4.679
 4979SOL     OW15835   0.225   0.232   6.720
 4979SOL    HW115836   0.195   0.138   6.701
 4979SOL    HW215837   0.183   0.294   6.653
 4980SOL     OW15838   5.171   6.267   3.379
 4980SOL    HW115839   5.225   6.290   3.298
 4980SOL    HW215840   5.159   6.348   3.436
 4981SOL     OW15841   4.595   6.011   0.280
 4981SOL    HW115842   4.673   5.996   0.220
 4981SOL    HW215843   4.577   6.109   0.289
 4982SOL     OW15844   2.912   1.166   5.894
 4982SOL    HW115845   2.825   1.188   5.939
 4982SOL    HW215846   2.901   1.170   5.795
 4983SOL     OW15847   5.834   3.403   4.768
 4983SOL    HW115848   5.822   3.303   4.761
 4983SOL    HW215849   5.860   3.439   4.678
 4984SOL     OW15850   5.636   3.777   3.308
 4984SOL    HW115851   5.590   3.865   3.297
 4984SOL    HW215852   5.572   3.710   3.345
 4985SOL     OW15853   6.300   6.733   3.347
 4985SOL    HW115854   6.329   6.666   3.279
 4985SOL    HW215855   6.291   6.688   3.436
 4986SOL     OW15856   6.473   4.220   1.854
 4986SOL    HW115857   6.399   4.251   1.913
 4986SOL    HW215858   6.551   4.191   1.910
 4987SOL     OW15859   1.288   0.649   1.966
 4987SOL    HW115860   1.381   0.685   1.974
 4987SOL    HW215861   1.282   0.590   1.885
 4988SOL     OW15862   5.569   1.000   2.772
 4988SOL    HW115863   5.584   1.093   2.804
 4988SOL    HW215864   5.510   0.951   2.838
 4989SOL     OW15865   5.079   0.141   1.308
 4989SOL    HW115866   5.013   0.213   1.286
 4989SOL    HW215867   5.151   0.178   1.367
 4990SOL     OW15868   2.291   1.931   5.758
 4990SOL    HW115869   2.351   1.888   5.826
 4990SOL    HW215870   2.325   1.910   5.666
 4991SOL     OW15871   6.099   5.235   4.293
 4991SOL    HW115872   6.187   5.208   4.332
 4991SOL    HW215873   6.068   5.320   4.335
 4992SOL     OW15874   5.335   0.810   3.655
 4992SOL    HW115875   5.321   0.897   3.702
 4992SOL    HW215876   5.429   0.780   3.666
 4993SOL     OW15877   2.522   6.076   4.048
 4993SOL    HW115878   2.451   6.113   3.988
 4993SOL    HW215879   2.492   5.988   4.085
 4994SOL     OW15880   2.017   0.280   3.259
 4994SOL    HW115881   2.059   0.214   3.196
 4994SOL    HW215882   2.070   0.365   3.259
 4995SOL     OW15883   0.222   2.126   5.968
 4995SOL    HW115884   0.247   2.222   5.971
 4995SOL    HW215885   0.229   2.092   5.874
 4996SOL     OW15886   0.944   1.258   2.877
 4996SOL    HW115887   0.973   1.304   2.960
 4996SOL    HW215888   0.887   1.319   2.822
 4997SOL     OW15889   5.608   2.918   2.604
 4997SOL    HW115890   5.572   2.913   2.697
 4997SOL    HW215891   5.564   2.995   2.557
 4998SOL     OW15892   2.230   4.274   5.084
 4998SOL    HW115893   2.268   4.275   5.176
 4998SOL    HW215894   2.230   4.180   5.049
 4999SOL     OW15895   6.582   3.602   0.330
 4999SOL    HW115896   6.671   3.611   0.375
 4999SOL    HW215897   6.596   3.594   0.231
 5000SOL     OW15898   2.807   6.629   3.500
 5000SOL    HW115899   2.882   6.623   3.433
 5000SOL    HW215900   2.818   6.557   3.569
 5001SOL     OW15901   0.713   3.958   0.889
 5001SOL    HW115902   0.702   3.865   0.854
 5001SOL    HW215903   0.692   4.023   0.816
 5002SOL     OW15904   0.630   3.386   3.461
 5002SOL    HW115905   0.566   3.446   3.412
 5002SOL    HW215906   0.724   3.415   3.441
 5003SOL     OW15907   2.854   6.141   2.625
 5003SOL    HW115908   2.951   6.129   2.644
 5003SOL    HW215909   2.824   6.231   2.658
 5004SOL     OW15910   3.672   4.922   6.184
 5004SOL    HW115911   3.615   4.901   6.105
 5004SOL    HW215912   3.726   4.841   6.208
 5005SOL     OW15913   3.031   2.412   0.683
 5005SOL    HW115914   3.098   2.371   0.621
 5005SOL    HW215915   2.940   2.406   0.642
 5006SOL     OW15916   5.359   0.831   0.590
 5006SOL    HW115917   5.409   0.897   0.647
 5006SOL    HW215918   5.405   0.823   0.501
 5007SOL     OW15919   1.237   6.930   0.444
 5007SOL    HW115920   1.172   6.853   0.448
 5007SOL    HW215921   1.245   6.962   0.350
 5008SOL     OW15922   6.480   6.449   2.637
 5008SOL    HW115923   6.427   6.370   2.667
 5008SOL    HW215924   6.578   6.428   2.640
 5009SOL     OW15925   0.808   6.751   0.919
 5009SOL    HW115926   0.729   6.715   0.969
 5009SOL    HW215927   0.807   6.851   0.922
 5010SOL     OW15928   3.671   3.458   2.861
 5010SOL    HW115929   3.738   3.505   2.920
 5010SOL    HW215930   3.670   3.361   2.884
 5011SOL     OW15931   1.747   3.876   2.530
 5011SOL    HW115932   1.787   3.796   2.485
 5011SOL    HW215933   1.678   3.917   2.470
 5012SOL     OW15934   5.715   4.178   5.991
 5012SOL    HW115935   5.759   4.143   6.073
 5012SOL    HW215936   5.783   4.186   5.918
 5013SOL     OW15937   4.986   1.570   6.714
 5013SOL    HW115938   4.907   1.595   6.658
 5013SOL    HW215939   4.979   1.474   6.740
 5014SOL     OW15940   5.436   4.459   0.430
 5014SOL    HW115941   5.488   4.404   0.365
 5014SOL    HW215942   5.338   4.438   0.421
 5015SOL     OW15943   4.535   1.773   4.269
 5015SOL    HW115944   4.621   1.745   4.226
 5015SOL    HW215945   4.459   1.751   4.208
 5016SOL     OW15946   1.979   2.066   0.658
 5016SOL    HW115947   1.924   2.079   0.576
 5016SOL    HW215948   2.073   2.045   0.631
 5017SOL     OW15949   1.997   2.178   6.946
 5017SOL    HW115950   2.072   2.203   6.885
 5017SOL    HW215951   1.947   2.261   6.974
 5018SOL     OW15952   0.101   4.190   2.053
 5018SOL    HW115953   0.122   4.278   2.095
 5018SOL    HW215954   0.166   4.121   2.084
 5019SOL     OW15955   1.141   4.872   6.419
 5019SOL    HW115956   1.197   4.802   6.462
 5019SOL    HW215957   1.200   4.946   6.386
 5020SOL     OW15958   5.031   0.413   6.497
 5020SOL    HW115959   5.127   0.411   6.526
 5020SOL    HW215960   5.009   0.504   6.461
 5021SOL     OW15961   1.154   1.550   5.916
 5021SOL    HW115962   1.158   1.604   6.000
 5021SOL    HW215963   1.222   1.583   5.851
 5022SOL     OW15964   1.370   1.647   0.045
 5022SOL    HW115965   1.391   1.709   0.121
 5022SOL    HW215966   1.279   1.608   0.059
 5023SOL     OW15967   6.492   2.828   1.442
 5023SOL    HW115968   6.512   2.919   1.478
 5023SOL    HW215969   6.415   2.833   1.379
 5024SOL     OW15970   5.461   5.731   1.764
 5024SOL    HW115971   5.389   5.712   1.830
 5024SOL    HW215972   5.539   5.671   1.781
 5025SOL     OW15973   3.331   1.898   1.760
 5025SOL    HW115974   3.309   1.802   1.777
 5025SOL    HW215975   3.427   1.907   1.736
 5026SOL     OW15976   6.343   5.937   6.000
 5026SOL    HW115977   6.402   5.897   5.931
 5026SOL    HW215978   6.294   5.864   6.048
 5027SOL     OW15979   0.672   5.788   2.398
 5027SOL    HW115980   0.724   5.872   2.413
 5027SOL    HW215981   0.620   5.795   2.313
 5028SOL     OW15982   0.478   1.051   3.056
 5028SOL    HW115983   0.572   1.038   3.022
 5028SOL    HW215984   0.478   1.121   3.127
 5029SOL     OW15985   6.868   2.547   2.997
 5029SOL    HW115986   6.867   2.559   2.898
 5029SOL    HW215987   6.856   2.450   3.019
 5030SOL     OW15988   0.211   6.578   0.078
 5030SOL    HW115989   0.155   6.648   0.033
 5030SOL    HW215990   0.222   6.500   0.017
 5031SOL     OW15991   5.867   0.221   5.115
 5031SOL    HW115992   5.796   0.223   5.185
 5031SOL    HW215993   5.955   0.198   5.156
 5032SOL     OW15994   1.362   3.252   1.271
 5032SOL    HW115995   1.319   3.326   1.322
 5032SOL    HW215996   1.390   3.180   1.335
 5033SOL     OW15997   2.945   6.148   5.665
 5033SOL    HW115998   2.996   6.077   5.713
 5033SOL    HW215999   2.971   6.237   5.701
 5034SOL     OW16000   4.731   1.027   2.882
 5034SOL    HW116001   4.674   1.045   2.802
 5034SOL    HW216002   4.722   1.102   2.946
 5035SOL     OW16003   0.591   4.518   0.110
 5035SOL    HW116004   0.592   4.481   0.203
 5035SOL    HW216005   0.676   4.492   0.063
 5036SOL     OW16006   0.207   4.998   0.262
 5036SOL    HW116007   0.183   5.073   0.201
 5036SOL    HW216008   0.129   4.977   0.322
 5037SOL     OW16009   5.501   2.770   3.384
 5037SOL    HW116010   5.437   2.713   3.436
 5037SOL    HW216011   5.589   2.723   3.378
 5038SOL     OW16012   1.872   4.122   6.489
 5038SOL    HW116013   1.782   4.079   6.478
 5038SOL    HW216014   1.917   4.128   6.400
 5039SOL     OW16015   3.074   4.309   5.296
 5039SOL    HW116016   3.014   4.370   5.243
 5039SOL    HW216017   3.051   4.214   5.275
 5040SOL     OW16018   2.211   5.231   6.044
 5040SOL    HW116019   2.173   5.144   6.077
 5040SOL    HW216020   2.304   5.216   6.010
 5041SOL     OW16021   1.914   1.744   1.825
 5041SOL    HW116022   1.908   1.750   1.925
 5041SOL    HW216023   2.003   1.777   1.795
 5042SOL     OW16024   6.315   3.015   0.893
 5042SOL    HW116025   6.232   3.054   0.931
 5042SOL    HW216026   6.298   2.987   0.798
 5043SOL     OW16027   3.507   0.626   5.862
 5043SOL    HW116028   3.602   0.655   5.877
 5043SOL    HW216029   3.451   0.653   5.941
 5044SOL     OW16030   0.401   6.276   1.057
 5044SOL    HW116031   0.421   6.256   1.153
 5044SOL    HW216032   0.481   6.320   1.015
 5045SOL     OW16033   5.724   1.950   0.042
 5045SOL    HW116034   5.805   1.896   0.065
 5045SOL    HW216035   5.653   1.934   0.112
 5046SOL     OW16036   3.613   4.115   3.494
 5046SOL    HW116037   3.677   4.173   3.545
 5046SOL    HW216038   3.644   4.020   3.497
 5047SOL     OW16039   6.801   3.117   2.797
 5047SOL    HW116040   6.708   3.080   2.805
 5047SOL    HW216041   6.837   3.138   2.888
 5048SOL     OW16042   0.495   0.812   2.058
 5048SOL    HW116043   0.503   0.871   1.978
 5048SOL    HW216044   0.543   0.855   2.135
 5049SOL     OW16045   6.459   1.797   5.323
 5049SOL    HW116046   6.510   1.837   5.399
 5049SOL    HW216047   6.392   1.731   5.359
 5050SOL     OW16048   1.692   0.540   1.536
 5050SOL    HW116049   1.775   0.510   1.583
 5050SOL    HW216050   1.644   0.460   1.500
 5051SOL     OW16051   5.015   4.604   1.055
 5051SOL    HW116052   4.922   4.640   1.049
 5051SOL    HW216053   5.043   4.601   1.151
 5052SOL     OW16054   2.459   6.535   6.135
 5052SOL    HW116055   2.488   6.554   6.229
 5052SOL    HW216056   2.382   6.470   6.137
 5053SOL     OW16057   2.260   4.008   3.195
 5053SOL    HW116058   2.197   3.932   3.213
 5053SOL    HW216059   2.283   4.053   3.282
 5054SOL     OW16060   3.621   6.424   4.611
 5054SOL    HW116061   3.659   6.336   4.582
 5054SOL    HW216062   3.561   6.409   4.689
 5055SOL     OW16063   1.978   0.419   5.641
 5055SOL    HW116064   2.068   0.391   5.608
 5055SOL    HW216065   1.918   0.436   5.563
 5056SOL     OW16066   6.579   4.383   0.675
 5056SOL    HW116067   6.561   4.298   0.626
 5056SOL    HW216068   6.673   4.382   0.709
 5057SOL     OW16069   6.370   6.074   5.633
 5057SOL    HW116070   6.371   6.168   5.667
 5057SOL    HW216071   6.289   6.027   5.668
 5058SOL     OW16072   2.630   3.194   5.381
 5058SOL    HW116073   2.573   3.144   5.314
 5058SOL    HW216074   2.586   3.191   5.470
 5059SOL     OW16075   5.717   2.616   3.332
 5059SOL    HW116076   5.721   2.592   3.235
 5059SOL    HW216077   5.793   2.573   3.380
 5060SOL     OW16078   0.441   2.010   5.666
 5060SOL    HW116079   0.431   2.044   5.760
 5060SOL    HW216080   0.466   1.913   5.668
 5061SOL     OW16081   3.860   3.322   3.159
 5061SOL    HW116082   3.945   3.345   3.111
 5061SOL    HW216083   3.814   3.407   3.187
 5062SOL     OW16084   5.465   0.478   3.169
 5062SOL    HW116085   5.508   0.550   3.224
 5062SOL    HW216086   5.390   0.437   3.220
 5063SOL     OW16087   1.187   0.067   2.161
 5063SOL    HW116088   1.141   0.151   2.134
 5063SOL    HW216089   1.124   0.010   2.213
 5064SOL     OW16090   4.418   3.821   1.698
 5064SOL    HW116091   4.394   3.918   1.694
 5064SOL    HW216092   4.515   3.811   1.723
 5065SOL     OW16093   1.346   1.932   3.920
 5065SOL    HW116094   1.383   1.841   3.902
 5065SOL    HW216095   1.344   1.949   4.018
 5066SOL     OW16096   3.856   4.752   1.042
 5066SOL    HW116097   3.924   4.685   1.072
 5066SOL    HW216098   3.796   4.711   0.974
 5067SOL     OW16099   3.008   1.036   2.554
 5067SOL    HW116100   3.077   1.108   2.541
 5067SOL    HW216101   3.019   0.967   2.483
 5068SOL     OW16102   3.113   4.862   6.777
 5068SOL    HW116103   3.185   4.894   6.715
 5068SOL    HW216104   3.152   4.798   6.843
 5069SOL     OW16105   2.212   3.153   5.837
 5069SOL    HW116106   2.196   3.089   5.762
 5069SOL    HW216107   2.208   3.104   5.924
 5070SOL     OW16108   4.720   4.304   4.047
 5070SOL    HW116109   4.697   4.254   4.130
 5070SOL    HW216110   4.717   4.403   4.066
 5071SOL     OW16111   3.715   1.058   3.267
 5071SOL    HW116112   3.683   1.000   3.342
 5071SOL    HW216113   3.808   1.088   3.284
 5072SOL     OW16114   1.027   0.844   1.723
 5072SOL    HW116115   0.956   0.910   1.699
 5072SOL    HW216116   1.079   0.878   1.802
 5073SOL     OW16117   1.310   4.613   1.745
 5073SOL    HW116118   1.391   4.604   1.687
 5073SOL    HW216119   1.330   4.578   1.836
 5074SOL     OW16120   3.168   2.129   1.284
 5074SOL    HW116121   3.071   2.154   1.283
 5074SOL    HW216122   3.218   2.194   1.341
 5075SOL     OW16123   1.046   2.202   6.365
 5075SOL    HW116124   1.069   2.161   6.453
 5075SOL    HW216125   0.947   2.194   6.350
 5076SOL     OW16126   4.946   0.541   0.739
 5076SOL    HW116127   4.973   0.503   0.828
 5076SOL    HW216128   5.025   0.540   0.677
 5077SOL     OW16129   2.277   4.420   5.444
 5077SOL    HW116130   2.182   4.450   5.447
 5077SOL    HW216131   2.282   4.326   5.411
 5078SOL     OW16132   0.462   0.794   3.821
 5078SOL    HW116133   0.374   0.766   3.782
 5078SOL    HW216134   0.532   0.727   3.798
 5079SOL     OW16135   2.070   3.331   4.964
 5079SOL    HW116136   2.131   3.271   5.016
 5079SOL    HW216137   1.979   3.289   4.958
 5080SOL     OW16138   5.964   6.617   6.094
 5080SOL    HW116139   5.995   6.584   6.005
 5080SOL    HW216140   5.865   6.600   6.102
 5081SOL     OW16141   3.820   3.767   5.064
 5081SOL    HW116142   3.806   3.676   5.024
 5081SOL    HW216143   3.758   3.832   5.020
 5082SOL     OW16144   5.197   5.498   1.443
 5082SOL    HW116145   5.227   5.474   1.535
 5082SOL    HW216146   5.165   5.593   1.442
 5083SOL     OW16147   2.539   0.238   2.740
 5083SOL    HW116148   2.633   0.270   2.726
 5083SOL    HW216149   2.502   0.280   2.823
 5084SOL     OW16150   0.416   4.223   4.204
 5084SOL    HW116151   0.374   4.269   4.282
 5084SOL    HW216152   0.483   4.156   4.237
 5085SOL     OW16153   6.618   2.573   6.258
 5085SOL    HW116154   6.625   2.529   6.348
 5085SOL    HW216155   6.523   2.598   6.240
 5086SOL     OW16156   1.169   5.303   3.060
 5086SOL    HW116157   1.108   5.235   3.101
 5086SOL    HW216158   1.252   5.310   3.115
 5087SOL     OW16159   1.552   5.578   3.040
 5087SOL    HW116160   1.477   5.615   3.094
 5087SOL    HW216161   1.569   5.483   3.067
 5088SOL     OW16162   5.839   0.149   3.989
 5088SOL    HW116163   5.764   0.100   3.944
 5088SOL    HW216164   5.914   0.161   3.924
 5089SOL     OW16165   5.684   3.579   4.213
 5089SOL    HW116166   5.777   3.589   4.177
 5089SOL    HW216167   5.686   3.577   4.313
 5090SOL     OW16168   2.213   4.009   2.563
 5090SOL    HW116169   2.282   4.078   2.587
 5090SOL    HW216170   2.212   3.996   2.464
 5091SOL     OW16171   6.846   1.350   1.082
 5091SOL    HW116172   6.915   1.294   1.035
 5091SOL    HW216173   6.823   1.308   1.169
 5092SOL     OW16174   3.578   3.780   3.255
 5092SOL    HW116175   3.617   3.750   3.342
 5092SOL    HW216176   3.495   3.728   3.235
 5093SOL     OW16177   3.010   0.768   0.531
 5093SOL    HW116178   3.086   0.795   0.590
 5093SOL    HW216179   2.985   0.845   0.471
 5094SOL     OW16180   2.424   5.852   5.750
 5094SOL    HW116181   2.407   5.923   5.818
 5094SOL    HW216182   2.416   5.762   5.793
 5095SOL     OW16183   6.300   2.113   3.658
 5095SOL    HW116184   6.310   2.079   3.751
 5095SOL    HW216185   6.277   2.211   3.660
 5096SOL     OW16186   4.051   4.901   6.760
 5096SOL    HW116187   3.967   4.910   6.706
 5096SOL    HW216188   4.030   4.859   6.848
 5097SOL     OW16189   1.115   0.260   6.550
 5097SOL    HW116190   1.120   0.311   6.636
 5097SOL    HW216191   1.180   0.299   6.484
 5098SOL     OW16192   2.956   0.483   1.897
 5098SOL    HW116193   2.992   0.406   1.950
 5098SOL    HW216194   2.948   0.563   1.956
 5099SOL     OW16195   0.680   0.144   0.788
 5099SOL    HW116196   0.747   0.218   0.779
 5099SOL    HW216197   0.727   0.061   0.818
 5100SOL     OW16198   3.353   5.536   4.510
 5100SOL    HW116199   3.353   5.634   4.530
 5100SOL    HW216200   3.275   5.513   4.452
 5101SOL     OW16201   4.772   0.429   6.995
 5101SOL    HW116202   4.798   0.454   6.902
 5101SOL    HW216203   4.853   0.399   0.021
 5102SOL     OW16204   5.450   6.963   4.154
 5102SOL    HW116205   5.453   6.900   4.076
 5102SOL    HW216206   5.543   6.990   4.179
 5103SOL     OW16207   0.377   0.250   4.096
 5103SOL    HW116208   0.326   0.183   4.150
 5103SOL    HW216209   0.439   0.202   4.034
 5104SOL     OW16210   1.757   6.104   2.001
 5104SOL    HW116211   1.836   6.089   1.943
 5104SOL    HW216212   1.787   6.119   2.095
 5105SOL     OW16213   2.564   2.501   0.553
 5105SOL    HW116214   2.543   2.479   0.649
 5105SOL    HW216215   2.555   2.418   0.498
 5106SOL     OW16216   4.124   2.358   0.355
 5106SOL    HW116217   4.127   2.401   0.445
 5106SOL    HW216218   4.217   2.341   0.323
 5107SOL     OW16219   3.569   1.519   1.209
 5107SOL    HW116220   3.477   1.556   1.225
 5107SOL    HW216221   3.591   1.526   1.112
 5108SOL     OW16222   4.048   4.047   5.228
 5108SOL    HW116223   3.968   4.100   5.199
 5108SOL    HW216224   4.122   4.110   5.251
 5109SOL     OW16225   0.901   1.682   0.143
 5109SOL    HW116226   0.833   1.610   0.156
 5109SOL    HW216227   0.866   1.750   0.078
 5110SOL     OW16228   0.983   0.832   5.435
 5110SOL    HW116229   0.982   0.765   5.510
 5110SOL    HW216230   0.942   0.918   5.467
 5111SOL     OW16231   1.160   0.770   4.858
 5111SOL    HW116232   1.187   0.687   4.809
 5111SOL    HW216233   1.116   0.745   4.944
 5112SOL     OW16234   1.331   1.173   3.511
 5112SOL    HW116235   1.382   1.242   3.459
 5112SOL    HW216236   1.261   1.132   3.453
 5113SOL     OW16237   1.877   6.970   1.017
 5113SOL    HW116238   1.928   6.932   1.095
 5113SOL    HW216239   1.827   0.027   1.047
 5114SOL     OW16240   3.516   1.087   6.463
 5114SOL    HW116241   3.484   1.051   6.551
 5114SOL    HW216242   3.616   1.084   6.460
 5115SOL     OW16243   1.893   4.989   4.186
 5115SOL    HW116244   1.882   4.937   4.101
 5115SOL    HW216245   1.955   5.066   4.169
 5116SOL     OW16246   0.553   0.257   5.964
 5116SOL    HW116247   0.568   0.313   5.883
 5116SOL    HW216248   0.640   0.235   6.007
 5117SOL     OW16249   2.307   4.281   4.804
 5117SOL    HW116250   2.392   4.228   4.811
 5117SOL    HW216251   2.279   4.312   4.894
 5118SOL     OW16252   4.988   0.303   0.137
 5118SOL    HW116253   5.060   0.251   0.090
 5118SOL    HW216254   5.030   0.377   0.190
 5119SOL     OW16255   5.257   0.819   1.948
 5119SOL    HW116256   5.206   0.814   2.034
 5119SOL    HW216257   5.214   0.885   1.887
 5120SOL     OW16258   3.897   0.419   4.060
 5120SOL    HW116259   3.816   0.365   4.037
 5120SOL    HW216260   3.945   0.376   4.137
 5121SOL     OW16261   2.678   2.399   6.561
 5121SOL    HW116262   2.660   2.432   6.469
 5121SOL    HW216263   2.642   2.465   6.627
 5122SOL     OW16264   3.232   6.609   3.662
 5122SOL    HW116265   3.242   6.704   3.634
 5122SOL    HW216266   3.313   6.557   3.636
 5123SOL     OW16267   4.151   2.199   4.435
 5123SOL    HW116268   4.197   2.268   4.379
 5123SOL    HW216269   4.137   2.116   4.381
 5124SOL     OW16270   2.261   5.448   4.742
 5124SOL    HW116271   2.312   5.522   4.786
 5124SOL    HW216272   2.288   5.360   4.782
 5125SOL     OW16273   5.949   3.716   4.196
 5125SOL    HW116274   6.031   3.658   4.206
 5125SOL    HW216275   5.952   3.762   4.107
 5126SOL     OW16276   5.933   4.950   5.222
 5126SOL    HW116277   5.937   4.977   5.318
 5126SOL    HW216278   5.981   4.863   5.210
 5127SOL     OW16279   1.496   4.368   6.692
 5127SOL    HW116280   1.508   4.326   6.601
 5127SOL    HW216281   1.552   4.320   6.759
 5128SOL     OW16282   6.845   0.692   6.672
 5128SOL    HW116283   6.877   0.657   6.584
 5128SOL    HW216284   6.916   0.749   6.713
 5129SOL     OW16285   5.911   6.970   2.444
 5129SOL    HW116286   6.010   6.980   2.444
 5129SOL    HW216287   5.878   6.960   2.350
 5130SOL     OW16288   0.461   5.807   3.756
 5130SOL    HW116289   0.552   5.818   3.716
 5130SOL    HW216290   0.410   5.738   3.705
 5131SOL     OW16291   2.631   4.919   3.807
 5131SOL    HW116292   2.671   4.921   3.898
 5131SOL    HW216293   2.676   4.988   3.749
 5132SOL     OW16294   3.194   2.701   6.304
 5132SOL    HW116295   3.140   2.785   6.308
 5132SOL    HW216296   3.239   2.695   6.215
 5133SOL     OW16297   1.565   5.780   6.709
 5133SOL    HW116298   1.584   5.866   6.756
 5133SOL    HW216299   1.637   5.761   6.643
 5134SOL     OW16300   6.996   2.465   2.067
 5134SOL    HW116301   0.063   2.444   2.102
 5134SOL    HW216302   6.966   2.393   2.005
 5135SOL     OW16303   5.751   3.116   4.445
 5135SOL    HW116304   5.710   3.112   4.536
 5135SOL    HW216305   5.683   3.151   4.380
 5136SOL     OW16306   4.919   0.429   6.757
 5136SOL    HW116307   4.963   0.509   6.799
 5136SOL    HW216308   4.947   0.422   6.661
 5137SOL     OW16309   5.363   3.869   5.750
 5137SOL    HW116310   5.310   3.859   5.834
 5137SOL    HW216311   5.453   3.906   5.771
 5138SOL     OW16312   4.072   2.891   5.542
 5138SOL    HW116313   4.004   2.961   5.566
 5138SOL    HW216314   4.049   2.851   5.453
 5139SOL     OW16315   0.862   1.208   3.312
 5139SOL    HW116316   0.861   1.118   3.270
 5139SOL    HW216317   0.836   1.201   3.408
 5140SOL     OW16318   3.847   2.734   6.289
 5140SOL    HW116319   3.781   2.809   6.288
 5140SOL    HW216320   3.922   2.754   6.225
 5141SOL     OW16321   6.221   3.792   0.882
 5141SOL    HW116322   6.193   3.778   0.787
 5141SOL    HW216323   6.262   3.883   0.892
 5142SOL     OW16324   6.168   6.714   2.680
 5142SOL    HW116325   6.259   6.734   2.643
 5142SOL    HW216326   6.108   6.684   2.606
 5143SOL     OW16327   6.463   4.550   4.303
 5143SOL    HW116328   6.540   4.544   4.240
 5143SOL    HW216329   6.401   4.623   4.273
 5144SOL     OW16330   0.833   4.383   5.823
 5144SOL    HW116331   0.862   4.354   5.732
 5144SOL    HW216332   0.838   4.483   5.830
 5145SOL     OW16333   3.349   5.648   5.343
 5145SOL    HW116334   3.290   5.705   5.401
 5145SOL    HW216335   3.342   5.680   5.248
 5146SOL     OW16336   3.315   3.994   5.774
 5146SOL    HW116337   3.344   4.089   5.764
 5146SOL    HW216338   3.218   3.986   5.748
 5147SOL     OW16339   6.685   5.374   2.854
 5147SOL    HW116340   6.758   5.417   2.908
 5147SOL    HW216341   6.603   5.366   2.911
 5148SOL     OW16342   6.487   0.005   1.551
 5148SOL    HW116343   6.428   6.987   1.483
 5148SOL    HW216344   6.447   7.017   1.642
 5149SOL     OW16345   6.590   5.700   3.002
 5149SOL    HW116346   6.605   5.681   2.905
 5149SOL    HW216347   6.561   5.795   3.013
 5150SOL     OW16348   2.102   5.687   3.272
 5150SOL    HW116349   2.189   5.681   3.321
 5150SOL    HW216350   2.084   5.782   3.247
 5151SOL     OW16351   6.755   3.136   1.922
 5151SOL    HW116352   6.713   3.047   1.905
 5151SOL    HW216353   6.777   3.179   1.834
 5152SOL     OW16354   1.873   4.733   6.937
 5152SOL    HW116355   1.834   4.825   6.941
 5152SOL    HW216356   1.809   4.672   6.891
 5153SOL     OW16357   1.342   1.264   0.009
 5153SOL    HW116358   1.349   1.332   6.961
 5153SOL    HW216359   1.411   1.194   7.020
 5154SOL     OW16360   1.088   2.464   6.269
 5154SOL    HW116361   1.043   2.375   6.278
 5154SOL    HW216362   1.136   2.468   6.181
 5155SOL     OW16363   4.254   0.753   2.284
 5155SOL    HW116364   4.346   0.718   2.269
 5155SOL    HW216365   4.193   0.722   2.211
 5156SOL     OW16366   5.601   4.059   6.373
 5156SOL    HW116367   5.536   4.013   6.313
 5156SOL    HW216368   5.552   4.111   6.443
 5157SOL     OW16369   3.799   2.165   3.106
 5157SOL    HW116370   3.860   2.180   3.029
 5157SOL    HW216371   3.709   2.204   3.086
 5158SOL     OW16372   3.374   1.479   1.540
 5158SOL    HW116373   3.365   1.423   1.458
 5158SOL    HW216374   3.467   1.471   1.576
 5159SOL     OW16375   5.976   4.008   5.162
 5159SOL    HW116376   5.885   4.049   5.147
 5159SOL    HW216377   5.980   3.918   5.119
 5160SOL     OW16378   0.217   4.810   3.186
 5160SOL    HW116379   0.315   4.802   3.168
 5160SOL    HW216380   0.202   4.825   3.284
 5161SOL     OW16381   1.872   3.665   5.883
 5161SOL    HW116382   1.972   3.671   5.875
 5161SOL    HW216383   1.846   3.570   5.902
 5162SOL     OW16384   0.647   4.704   2.615
 5162SOL    HW116385   0.559   4.657   2.609
 5162SOL    HW216386   0.632   4.803   2.617
 5163SOL     OW16387   3.064   5.995   6.959
 5163SOL    HW116388   2.995   5.991   0.007
 5163SOL    HW216389   3.132   6.064   6.981
 5164SOL     OW16390   4.251   2.534   6.596
 5164SOL    HW116391   4.196   2.613   6.571
 5164SOL    HW216392   4.348   2.557   6.588
 5165SOL     OW16393   6.609   4.131   5.636
 5165SOL    HW116394   6.684   4.083   5.682
 5165SOL    HW216395   6.635   4.150   5.541
 5166SOL     OW16396   0.581   5.349   1.856
 5166SOL    HW116397   0.508   5.320   1.795
 5166SOL    HW216398   0.574   5.299   1.943
 5167SOL     OW16399   6.710   6.129   6.061
 5167SOL    HW116400   6.802   6.107   6.096
 5167SOL    HW216401   6.708   6.119   5.962
 5168SOL     OW16402   4.959   3.355   2.113
 5168SOL    HW116403   4.914   3.416   2.177
 5168SOL    HW216404   4.908   3.270   2.106
 5169SOL     OW16405   3.999   1.968   4.348
 5169SOL    HW116406   4.056   1.917   4.413
 5169SOL    HW216407   3.903   1.952   4.369
 5170SOL     OW16408   0.538   4.428   5.270
 5170SOL    HW116409   0.552   4.425   5.171
 5170SOL    HW216410   0.460   4.371   5.295
 5171SOL     OW16411   0.640   5.041   5.253
 5171SOL    HW116412   0.576   5.102   5.301
 5171SOL    HW216413   0.612   4.946   5.265
 5172SOL     OW16414   1.086   2.476   2.359
 5172SOL    HW116415   1.160   2.530   2.320
 5172SOL    HW216416   1.080   2.492   2.457
 5173SOL     OW16417   5.033   5.037   5.257
 5173SOL    HW116418   5.048   5.132   5.286
 5173SOL    HW216419   5.104   5.011   5.191
 5174SOL     OW16420   1.932   4.989   3.196
 5174SOL    HW116421   1.937   4.909   3.256
 5174SOL    HW216422   1.910   5.070   3.251
 5175SOL     OW16423   2.921   3.699   6.644
 5175SOL    HW116424   3.005   3.665   6.604
 5175SOL    HW216425   2.856   3.722   6.571
 5176SOL     OW16426   4.966   3.560   6.910
 5176SOL    HW116427   4.870   3.557   6.938
 5176SOL    HW216428   5.002   3.652   6.926
 5177SOL     OW16429   5.524   0.506   0.468
 5177SOL    HW116430   5.485   0.531   0.556
 5177SOL    HW216431   5.614   0.465   0.482
 5178SOL     OW16432   1.288   3.834   1.973
 5178SOL    HW116433   1.387   3.833   1.961
 5178SOL    HW216434   1.245   3.793   1.892
 5179SOL     OW16435   4.016   5.153   3.633
 5179SOL    HW116436   3.940   5.093   3.606
 5179SOL    HW216437   4.088   5.148   3.564
 5180SOL     OW16438   2.209   2.110   0.903
 5180SOL    HW116439   2.151   2.180   0.861
 5180SOL    HW216440   2.173   2.087   0.994
 5181SOL     OW16441   5.622   1.299   2.710
 5181SOL    HW116442   5.561   1.340   2.778
 5181SOL    HW216443   5.715   1.294   2.747
 5182SOL     OW16444   4.043   4.288   1.669
 5182SOL    HW116445   4.071   4.216   1.732
 5182SOL    HW216446   3.943   4.287   1.659
 5183SOL     OW16447   3.966   1.694   2.580
 5183SOL    HW116448   3.925   1.772   2.628
 5183SOL    HW216449   3.918   1.610   2.606
 5184SOL     OW16450   0.101   1.562   4.643
 5184SOL    HW116451   0.108   1.588   4.547
 5184SOL    HW216452   0.191   1.565   4.686
 5185SOL     OW16453   5.979   0.571   2.471
 5185SOL    HW116454   5.929   0.653   2.443
 5185SOL    HW216455   6.063   0.563   2.416
 5186SOL     OW16456   6.494   2.309   0.874
 5186SOL    HW116457   6.558   2.310   0.951
 5186SOL    HW216458   6.418   2.372   0.893
 5187SOL     OW16459   1.123   6.700   4.166
 5187SOL    HW116460   1.157   6.646   4.243
 5187SOL    HW216461   1.150   6.795   4.178
 5188SOL     OW16462   0.752   5.460   0.995
 5188SOL    HW116463   0.803   5.382   1.029
 5188SOL    HW216464   0.654   5.446   1.012
 5189SOL     OW16465   3.787   4.493   0.937
 5189SOL    HW116466   3.740   4.404   0.940
 5189SOL    HW216467   3.763   4.540   0.852
 5190SOL     OW16468   0.732   1.982   4.498
 5190SOL    HW116469   0.674   2.030   4.564
 5190SOL    HW216470   0.676   1.919   4.444
 5191SOL     OW16471   4.046   0.197   1.955
 5191SOL    HW116472   4.043   0.174   1.858
 5191SOL    HW216473   4.125   0.256   1.973
 5192SOL     OW16474   2.575   5.879   2.248
 5192SOL    HW116475   2.650   5.891   2.312
 5192SOL    HW216476   2.517   5.960   2.247
 5193SOL     OW16477   4.874   4.444   4.698
 5193SOL    HW116478   4.846   4.540   4.700
 5193SOL    HW216479   4.937   4.426   4.774
 5194SOL     OW16480   4.734   1.933   7.005
 5194SOL    HW116481   4.675   1.876   0.038
 5194SOL    HW216482   4.800   1.875   6.957
 5195SOL     OW16483   6.868   6.598   4.129
 5195SOL    HW116484   6.882   6.536   4.206
 5195SOL    HW216485   6.921   6.568   4.050
 5196SOL     OW16486   3.483   5.415   0.726
 5196SOL    HW116487   3.488   5.450   0.632
 5196SOL    HW216488   3.414   5.466   0.777
 5197SOL     OW16489   2.044   5.162   5.607
 5197SOL    HW116490   2.070   5.176   5.512
 5197SOL    HW216491   1.993   5.241   5.640
 5198SOL     OW16492   4.636   6.824   3.274
 5198SOL    HW116493   4.551   6.862   3.238
 5198SOL    HW216494   4.689   6.783   3.199
 5199SOL     OW16495   1.891   5.944   0.585
 5199SOL    HW116496   1.793   5.956   0.603
 5199SOL    HW216497   1.910   5.968   0.490
 5200SOL     OW16498   0.853   2.676   5.364
 5200SOL    HW116499   0.925   2.740   5.337
 5200SOL    HW216500   0.859   2.594   5.308
 5201SOL     OW16501   0.301   6.711   3.417
 5201SOL    HW116502   0.276   6.639   3.353
 5201SOL    HW216503   0.303   6.675   3.510
 5202SOL     OW16504   6.406   3.968   5.766
 5202SOL    HW116505   6.470   4.024   5.713
 5202SOL    HW216506   6.345   3.920   5.704
 5203SOL     OW16507   2.297   1.537   6.577
 5203SOL    HW116508   2.362   1.594   6.528
 5203SOL    HW216509   2.263   1.465   6.516
 5204SOL     OW16510   4.118   5.881   6.631
 5204SOL    HW116511   4.161   5.850   6.716
 5204SOL    HW216512   4.041   5.822   6.609
 5205SOL     OW16513   0.941   5.689   0.967
 5205SOL    HW116514   0.899   5.780   0.974
 5205SOL    HW216515   0.874   5.619   0.992
 5206SOL     OW16516   0.717   4.751   6.239
 5206SOL    HW116517   0.656   4.698   6.180
 5206SOL    HW216518   0.724   4.845   6.204
 5207SOL     OW16519   1.001   6.190   4.126
 5207SOL    HW116520   1.022   6.092   4.118
 5207SOL    HW216521   0.927   6.213   4.063
 5208SOL     OW16522   4.905   2.868   6.326
 5208SOL    HW116523   4.860   2.938   6.272
 5208SOL    HW216524   4.899   2.780   6.278
 5209SOL     OW16525   5.593   6.537   2.256
 5209SOL    HW116526   5.615   6.616   2.200
 5209SOL    HW216527   5.674   6.509   2.308
 5210SOL     OW16528   4.656   3.053   6.951
 5210SOL    HW116529   4.591   3.004   6.893
 5210SOL    HW216530   4.673   3.000   0.010
 5211SOL     OW16531   3.623   2.510   5.488
 5211SOL    HW116532   3.662   2.471   5.571
 5211SOL    HW216533   3.689   2.502   5.413
 5212SOL     OW16534   0.301   2.815   0.671
 5212SOL    HW116535   0.388   2.857   0.696
 5212SOL    HW216536   0.282   2.739   0.733
 5213SOL     OW16537   4.507   3.853   6.281
 5213SOL    HW116538   4.443   3.895   6.217
 5213SOL    HW216539   4.488   3.755   6.289
 5214SOL     OW16540   5.488   1.851   6.163
 5214SOL    HW116541   5.438   1.894   6.088
 5214SOL    HW216542   5.586   1.874   6.155
 5215SOL     OW16543   0.201   4.550   4.234
 5215SOL    HW116544   0.295   4.550   4.201
 5215SOL    HW216545   0.194   4.492   4.315
 5216SOL     OW16546   5.018   4.779   2.165
 5216SOL    HW116547   5.097   4.830   2.130
 5216SOL    HW216548   4.970   4.735   2.089
 5217SOL     OW16549   4.167   5.067   3.851
 5217SOL    HW116550   4.131   4.981   3.888
 5217SOL    HW216551   4.104   5.103   3.783
 5218SOL     OW16552   1.163   0.598   2.451
 5218SOL    HW116553   1.177   0.557   2.361
 5218SOL    HW216554   1.205   0.689   2.454
 5219SOL     OW16555   4.413   1.515   4.843
 5219SOL    HW116556   4.419   1.615   4.844
 5219SOL    HW216557   4.452   1.480   4.758
 5220SOL     OW16558   0.834   6.000   2.513
 5220SOL    HW116559   0.932   5.990   2.533
 5220SOL    HW216560   0.781   5.981   2.595
 5221SOL     OW16561   5.784   1.914   3.761
 5221SOL    HW116562   5.775   1.900   3.663
 5221SOL    HW216563   5.755   1.831   3.809
 5222SOL     OW16564   4.039   6.475   3.134
 5222SOL    HW116565   3.948   6.435   3.146
 5222SOL    HW216566   4.099   6.409   3.089
 5223SOL     OW16567   6.287   2.653   0.790
 5223SOL    HW116568   6.319   2.644   0.695
 5223SOL    HW216569   6.208   2.714   0.793
 5224SOL     OW16570   6.658   2.761   4.729
 5224SOL    HW116571   6.575   2.809   4.701
 5224SOL    HW216572   6.655   2.667   4.696
 5225SOL     OW16573   0.346   0.354   3.354
 5225SOL    HW116574   0.254   0.320   3.371
 5225SOL    HW216575   0.363   0.435   3.410
 5226SOL     OW16576   6.902   6.503   5.023
 5226SOL    HW116577   6.851   6.509   5.109
 5226SOL    HW216578   6.844   6.536   4.948
 5227SOL     OW16579   0.193   3.655   5.312
 5227SOL    HW116580   0.173   3.557   5.314
 5227SOL    HW216581   0.270   3.675   5.371
 5228SOL     OW16582   6.146   2.291   1.184
 5228SOL    HW116583   6.051   2.300   1.216
 5228SOL    HW216584   6.165   2.363   1.118
 5229SOL     OW16585   1.835   6.147   6.934
 5229SOL    HW116586   1.787   6.234   6.948
 5229SOL    HW216587   1.910   6.139   7.000
 5230SOL     OW16588   0.743   5.526   1.670
 5230SOL    HW116589   0.704   5.476   1.747
 5230SOL    HW216590   0.841   5.542   1.686
 5231SOL     OW16591   4.663   2.808   4.754
 5231SOL    HW116592   4.702   2.775   4.840
 5231SOL    HW216593   4.582   2.863   4.774
 5232SOL     OW16594   2.485   3.471   6.143
 5232SOL    HW116595   2.553   3.409   6.184
 5232SOL    HW216596   2.508   3.486   6.047
 5233SOL     OW16597   5.040   1.069   2.311
 5233SOL    HW116598   5.027   1.153   2.259
 5233SOL    HW216599   4.979   1.069   2.391
 5234SOL     OW16600   2.940   1.466   5.822
 5234SOL    HW116601   3.009   1.395   5.833
 5234SOL    HW216602   2.965   1.525   5.746
 5235SOL     OW16603   1.755   2.435   1.000
 5235SOL    HW116604   1.704   2.361   1.045
 5235SOL    HW216605   1.777   2.407   0.906
 5236SOL     OW16606   5.228   4.939   2.068
 5236SOL    HW116607   5.264   4.860   2.018
 5236SOL    HW216608   5.230   5.019   2.009
 5237SOL     OW16609   1.763   1.074   4.844
 5237SOL    HW116610   1.862   1.076   4.841
 5237SOL    HW216611   1.729   1.154   4.894
 5238SOL     OW16612   0.463   4.641   6.821
 5238SOL    HW116613   0.387   4.577   6.813
 5238SOL    HW216614   0.544   4.604   6.776
 5239SOL     OW16615   3.327   3.066   4.503
 5239SOL    HW116616   3.420   3.040   4.532
 5239SOL    HW216617   3.303   3.015   4.420
 5240SOL     OW16618   2.996   1.761   5.704
 5240SOL    HW116619   3.067   1.826   5.677
 5240SOL    HW216620   2.976   1.700   5.627
 5241SOL     OW16621   0.369   5.440   4.850
 5241SOL    HW116622   0.295   5.488   4.896
 5241SOL    HW216623   0.343   5.420   4.756
 5242SOL     OW16624   6.881   6.408   6.238
 5242SOL    HW116625   6.877   6.351   6.155
 5242SOL    HW216626   6.906   6.351   6.316
 5243SOL     OW16627   1.118   5.281   1.157
 5243SOL    HW116628   1.173   5.198   1.168
 5243SOL    HW216629   1.178   5.360   1.145
 5244SOL     OW16630   3.609   5.258   6.877
 5244SOL    HW116631   3.657   5.196   6.940
 5244SOL    HW216632   3.542   5.312   6.927
 5245SOL     OW16633   3.991   4.885   0.005
 5245SOL    HW116634   4.000   4.950   0.080
 5245SOL    HW216635   3.902   4.897   6.985
 5246SOL     OW16636   5.540   4.041   2.019
 5246SOL    HW116637   5.460   4.093   1.992
 5246SOL    HW216638   5.545   3.956   1.966
 5247SOL     OW16639   1.713   0.768   6.981
 5247SOL    HW116640   1.702   0.860   6.942
 5247SOL    HW216641   1.761   0.710   6.916
 5248SOL     OW16642   5.818   1.495   3.320
 5248SOL    HW116643   5.724   1.513   3.293
 5248SOL    HW216644   5.820   1.455   3.411
 5249SOL     OW16645   6.890   4.928   5.685
 5249SOL    HW116646   6.862   5.018   5.650
 5249SOL    HW216647   6.872   4.924   5.783
 5250SOL     OW16648   1.926   6.141   5.904
 5250SOL    HW116649   2.020   6.161   5.880
 5250SOL    HW216650   1.922   6.105   5.998
 5251SOL     OW16651   0.424   3.614   0.111
 5251SOL    HW116652   0.379   3.646   0.027
 5251SOL    HW216653   0.357   3.569   0.170
 5252SOL     OW16654   1.551   6.363   0.493
 5252SOL    HW116655   1.494   6.282   0.479
 5252SOL    HW216656   1.503   6.443   0.458
 5253SOL     OW16657   5.701   4.693   4.803
 5253SOL    HW116658   5.673   4.603   4.772
 5253SOL    HW216659   5.770   4.684   4.875
 5254SOL     OW16660   4.303   1.187   3.140
 5254SOL    HW116661   4.252   1.170   3.056
 5254SOL    HW216662   4.333   1.283   3.142
 5255SOL     OW16663   5.870   1.090   5.629
 5255SOL    HW116664   5.829   1.165   5.680
 5255SOL    HW216665   5.914   1.026   5.692
 5256SOL     OW16666   4.223   1.488   3.820
 5256SOL    HW116667   4.285   1.546   3.768
 5256SOL    HW216668   4.142   1.467   3.765
 5257SOL     OW16669   5.774   6.674   2.067
 5257SOL    HW116670   5.824   6.728   2.000
 5257SOL    HW216671   5.710   6.614   2.020
 5258SOL     OW16672   5.845   3.560   1.713
 5258SOL    HW116673   5.873   3.569   1.809
 5258SOL    HW216674   5.917   3.515   1.661
 5259SOL     OW16675   5.840   6.306   1.817
 5259SOL    HW116676   5.910   6.258   1.765
 5259SOL    HW216677   5.821   6.256   1.902
 5260SOL     OW16678   5.086   3.596   1.106
 5260SOL    HW116679   5.157   3.651   1.151
 5260SOL    HW216680   5.010   3.656   1.081
 5261SOL     OW16681   0.932   4.208   6.911
 5261SOL    HW116682   0.991   4.133   6.941
 5261SOL    HW216683   0.865   4.174   6.845
 5262SOL     OW16684   2.700   0.791   2.846
 5262SOL    HW116685   2.775   0.854   2.824
 5262SOL    HW216686   2.625   0.843   2.887
 5263SOL     OW16687   1.513   1.902   4.442
 5263SOL    HW116688   1.414   1.889   4.436
 5263SOL    HW216689   1.532   1.988   4.489
 5264SOL     OW16690   6.288   2.617   2.907
 5264SOL    HW116691   6.188   2.605   2.906
 5264SOL    HW216692   6.325   2.595   2.816
 5265SOL     OW16693   6.384   3.994   3.856
 5265SOL    HW116694   6.417   3.920   3.914
 5265SOL    HW216695   6.350   4.069   3.913
 5266SOL     OW16696   2.739   5.379   0.369
 5266SOL    HW116697   2.705   5.473   0.371
 5266SOL    HW216698   2.825   5.376   0.318
 5267SOL     OW16699   4.982   4.073   4.984
 5267SOL    HW116700   4.908   4.138   4.964
 5267SOL    HW216701   4.947   3.979   4.978
 5268SOL     OW16702   5.589   0.474   6.829
 5268SOL    HW116703   5.547   0.443   6.915
 5268SOL    HW216704   5.668   0.417   6.808
 5269SOL     OW16705   1.117   6.742   3.555
 5269SOL    HW116706   1.108   6.788   3.643
 5269SOL    HW216707   1.038   6.681   3.541
 5270SOL     OW16708   5.816   1.353   1.249
 5270SOL    HW116709   5.841   1.435   1.301
 5270SOL    HW216710   5.872   1.276   1.279
 5271SOL     OW16711   5.952   5.494   4.773
 5271SOL    HW116712   6.045   5.469   4.801
 5271SOL    HW216713   5.910   5.416   4.727
 5272SOL     OW16714   3.056   5.432   2.109
 5272SOL    HW116715   3.036   5.403   2.203
 5272SOL    HW216716   3.071   5.530   2.107
 5273SOL     OW16717   6.941   2.904   4.001
 5273SOL    HW116718   6.846   2.905   3.968
 5273SOL    HW216719   6.944   2.940   4.094
 5274SOL     OW16720   6.765   6.985   2.768
 5274SOL    HW116721   6.764   6.886   2.754
 5274SOL    HW216722   6.676   7.024   2.745
 5275SOL     OW16723   3.428   2.166   0.871
 5275SOL    HW116724   3.408   2.262   0.851
 5275SOL    HW216725   3.365   2.108   0.820
 5276SOL     OW16726   1.821   0.274   0.791
 5276SOL    HW116727   1.822   0.288   0.890
 5276SOL    HW216728   1.730   0.295   0.755
 5277SOL     OW16729   1.262   1.713   2.743
 5277SOL    HW116730   1.210   1.656   2.679
 5277SOL    HW216731   1.199   1.760   2.805
 5278SOL     OW16732   5.654   0.268   3.188
 5278SOL    HW116733   5.589   0.341   3.207
 5278SOL    HW216734   5.627   0.185   3.237
 5279SOL     OW16735   2.076   4.871   6.199
 5279SOL    HW116736   2.118   4.897   6.112
 5279SOL    HW216737   2.075   4.949   6.261
 5280SOL     OW16738   2.658   5.800   4.789
 5280SOL    HW116739   2.571   5.751   4.796
 5280SOL    HW216740   2.642   5.892   4.752
 5281SOL     OW16741   0.561   1.410   2.388
 5281SOL    HW116742   0.645   1.462   2.372
 5281SOL    HW216743   0.507   1.408   2.304
 5282SOL     OW16744   2.458   2.138   3.166
 5282SOL    HW116745   2.469   2.134   3.067
 5282SOL    HW216746   2.445   2.233   3.194
 5283SOL     OW16747   4.145   6.640   1.594
 5283SOL    HW116748   4.207   6.613   1.668
 5283SOL    HW216749   4.196   6.694   1.526
 5284SOL     OW16750   5.031   3.726   3.216
 5284SOL    HW116751   4.974   3.650   3.247
 5284SOL    HW216752   5.126   3.698   3.212
 5285SOL     OW16753   2.525   4.915   3.432
 5285SOL    HW116754   2.573   4.963   3.505
 5285SOL    HW216755   2.426   4.931   3.440
 5286SOL     OW16756   1.615   4.239   0.472
 5286SOL    HW116757   1.631   4.158   0.529
 5286SOL    HW216758   1.600   4.210   0.377
 5287SOL     OW16759   2.804   6.433   1.234
 5287SOL    HW116760   2.813   6.532   1.228
 5287SOL    HW216761   2.823   6.392   1.144
 5288SOL     OW16762   3.879   0.202   1.415
 5288SOL    HW116763   3.830   0.258   1.482
 5288SOL    HW216764   3.938   0.138   1.464
 5289SOL     OW16765   1.754   4.325   5.979
 5289SOL    HW116766   1.792   4.368   5.897
 5289SOL    HW216767   1.779   4.228   5.981
 5290SOL     OW16768   1.684   5.313   5.292
 5290SOL    HW116769   1.706   5.216   5.296
 5290SOL    HW216770   1.672   5.341   5.197
 5291SOL     OW16771   2.640   5.314   5.746
 5291SOL    HW116772   2.686   5.254   5.680
 5291SOL    HW216773   2.544   5.324   5.720
 5292SOL     OW16774   6.435   3.204   0.018
 5292SOL    HW116775   6.370   3.167   0.084
 5292SOL    HW216776   6.528   3.193   0.052
 5293SOL     OW16777   0.768   0.180   4.622
 5293SOL    HW116778   0.767   0.086   4.658
 5293SOL    HW216779   0.816   0.182   4.535
 5294SOL     OW16780   4.548   3.476   5.854
 5294SOL    HW116781   4.492   3.395   5.873
 5294SOL    HW216782   4.487   3.554   5.838
 5295SOL     OW16783   5.366   0.249   2.500
 5295SOL    HW116784   5.371   0.280   2.595
 5295SOL    HW216785   5.291   0.296   2.454
 5296SOL     OW16786   2.126   5.169   0.424
 5296SOL    HW116787   2.127   5.251   0.481
 5296SOL    HW216788   2.095   5.192   0.332
 5297SOL     OW16789   3.280   2.454   1.122
 5297SOL    HW116790   3.304   2.391   1.196
 5297SOL    HW216791   3.257   2.543   1.162
 5298SOL     OW16792   0.917   5.465   0.030
 5298SOL    HW116793   0.977   5.386   0.015
 5298SOL    HW216794   0.893   5.471   0.127
 5299SOL     OW16795   2.312   2.408   1.034
 5299SOL    HW116796   2.285   2.315   1.006
 5299SOL    HW216797   2.232   2.456   1.069
 5300SOL     OW16798   0.079   6.123   1.915
 5300SOL    HW116799   0.095   6.104   2.012
 5300SOL    HW216800   0.071   6.037   1.865
 5301SOL     OW16801   4.474   2.916   0.674
 5301SOL    HW116802   4.378   2.916   0.702
 5301SOL    HW216803   4.528   2.966   0.742
 5302SOL     OW16804   6.086   4.006   2.817
 5302SOL    HW116805   6.032   3.941   2.764
 5302SOL    HW216806   6.169   3.961   2.851
 5303SOL     OW16807   6.801   5.987   3.028
 5303SOL    HW116808   6.742   6.045   2.973
 5303SOL    HW216809   6.765   5.981   3.121
 5304SOL     OW16810   6.727   1.979   6.054
 5304SOL    HW116811   6.718   1.897   6.110
 5304SOL    HW216812   6.824   2.004   6.047
 5305SOL     OW16813   1.361   6.105   4.362
 5305SOL    HW116814   1.351   6.050   4.279
 5305SOL    HW216815   1.458   6.122   4.379
 5306SOL     OW16816   0.359   6.099   5.004
 5306SOL    HW116817   0.438   6.159   5.018
 5306SOL    HW216818   0.352   6.076   4.907
 5307SOL     OW16819   4.448   0.300   6.705
 5307SOL    HW116820   4.537   0.256   6.722
 5307SOL    HW216821   4.460   0.400   6.709
 5308SOL     OW16822   1.153   6.286   4.348
 5308SOL    HW116823   1.086   6.269   4.276
 5308SOL    HW216824   1.224   6.216   4.346
 5309SOL     OW16825   3.194   3.973   2.299
 5309SOL    HW116826   3.163   3.994   2.206
 5309SOL    HW216827   3.117   3.942   2.354
 5310SOL     OW16828   5.313   2.772   2.011
 5310SOL    HW116829   5.294   2.800   1.917
 5310SOL    HW216830   5.402   2.807   2.039
 5311SOL     OW16831   0.170   5.663   0.967
 5311SOL    HW116832   0.140   5.644   1.060
 5311SOL    HW216833   0.204   5.580   0.924
 5312SOL     OW16834   0.390   4.206   2.204
 5312SOL    HW116835   0.365   4.203   2.301
 5312SOL    HW216836   0.401   4.301   2.176
 5313SOL     OW16837   1.164   4.681   6.828
 5313SOL    HW116838   1.125   4.762   6.873
 5313SOL    HW216839   1.094   4.609   6.824
 5314SOL     OW16840   3.451   5.007   0.173
 5314SOL    HW116841   3.386   5.026   0.099
 5314SOL    HW216842   3.427   5.062   0.253
 5315SOL     OW16843   3.861   3.796   1.543
 5315SOL    HW116844   3.945   3.819   1.591
 5315SOL    HW216845   3.873   3.809   1.445
 5316SOL     OW16846   6.897   4.841   5.054
 5316SOL    HW116847   6.951   4.861   5.136
 5316SOL    HW216848   6.959   4.824   4.977
 5317SOL     OW16849   0.005   0.677   5.045
 5317SOL    HW116850   6.973   0.627   4.978
 5317SOL    HW216851   0.064   0.741   4.996
 5318SOL     OW16852   0.260   1.454   5.675
 5318SOL    HW116853   0.324   1.378   5.678
 5318SOL    HW216854   0.213   1.455   5.587
 5319SOL     OW16855   4.641   6.364   6.560
 5319SOL    HW116856   4.566   6.301   6.544
 5319SOL    HW216857   4.718   6.315   6.602
 5320SOL     OW16858   5.584   5.278   6.860
 5320SOL    HW116859   5.560   5.332   6.940
 5320SOL    HW216860   5.567   5.181   6.878
 5321SOL     OW16861   0.801   3.895   2.807
 5321SOL    HW116862   0.805   3.958   2.884
 5321SOL    HW216863   0.893   3.882   2.769
 5322SOL     OW16864   3.729   6.223   6.131
 5322SOL    HW116865   3.722   6.307   6.078
 5322SOL    HW216866   3.825   6.201   6.147
 5323SOL     OW16867   4.153   3.530   0.661
 5323SOL    HW116868   4.139   3.432   0.650
 5323SOL    HW216869   4.250   3.549   0.678
 5324SOL     OW16870   3.688   2.635   1.735
 5324SOL    HW116871   3.769   2.628   1.678
 5324SOL    HW216872   3.674   2.550   1.785
 5325SOL     OW16873   5.768   6.584   3.809
 5325SOL    HW116874   5.715   6.560   3.890
 5325SOL    HW216875   5.854   6.629   3.836
 5326SOL     OW16876   6.922   4.918   3.262
 5326SOL    HW116877   6.986   4.994   3.252
 5326SOL    HW216878   6.934   4.875   3.352
 5327SOL     OW16879   6.219   5.164   5.523
 5327SOL    HW116880   6.299   5.208   5.481
 5327SOL    HW216881   6.141   5.227   5.519
 5328SOL     OW16882   4.715   2.612   5.401
 5328SOL    HW116883   4.718   2.580   5.306
 5328SOL    HW216884   4.628   2.658   5.417
 5329SOL     OW16885   0.791   3.865   0.105
 5329SOL    HW116886   0.703   3.864   0.152
 5329SOL    HW216887   0.856   3.923   0.155
 5330SOL     OW16888   3.574   4.704   6.902
 5330SOL    HW116889   3.557   4.673   6.996
 5330SOL    HW216890   3.523   4.646   6.838
 5331SOL     OW16891   5.399   1.272   1.888
 5331SOL    HW116892   5.496   1.288   1.867
 5331SOL    HW216893   5.342   1.311   1.815
 5332SOL     OW16894   6.526   4.199   0.467
 5332SOL    HW116895   6.626   4.199   0.472
 5332SOL    HW216896   6.497   4.155   0.382
 5333SOL     OW16897   1.177   0.817   3.779
 5333SOL    HW116898   1.273   0.840   3.797
 5333SOL    HW216899   1.173   0.758   3.698
 5334SOL     OW16900   3.711   5.118   5.424
 5334SOL    HW116901   3.709   5.022   5.450
 5334SOL    HW216902   3.741   5.173   5.501
 5335SOL     OW16903   0.281   4.732   2.445
 5335SOL    HW116904   0.253   4.814   2.394
 5335SOL    HW216905   0.367   4.698   2.408
 5336SOL     OW16906   1.970   2.086   3.578
 5336SOL    HW116907   1.873   2.062   3.589
 5336SOL    HW216908   1.985   2.123   3.487
 5337SOL     OW16909   5.255   4.479   1.930
 5337SOL    HW116910   5.333   4.443   1.878
 5337SOL    HW216911   5.219   4.408   1.990
 5338SOL     OW16912   6.182   1.407   6.272
 5338SOL    HW116913   6.082   1.398   6.271
 5338SOL    HW216914   6.223   1.318   6.292
 5339SOL     OW16915   5.398   1.775   3.017
 5339SOL    HW116916   5.458   1.727   2.953
 5339SOL    HW216917   5.406   1.734   3.108
 5340SOL     OW16918   6.040   4.480   1.226
 5340SOL    HW116919   6.106   4.529   1.284
 5340SOL    HW216920   5.949   4.517   1.240
 5341SOL     OW16921   3.036   4.871   5.165
 5341SOL    HW116922   2.951   4.876   5.113
 5341SOL    HW216923   3.031   4.794   5.229
 5342SOL     OW16924   5.322   6.285   4.854
 5342SOL    HW116925   5.282   6.210   4.800
 5342SOL    HW216926   5.417   6.263   4.876
 5343SOL     OW16927   4.013   3.280   4.787
 5343SOL    HW116928   4.105   3.242   4.779
 5343SOL    HW216929   3.951   3.232   4.725
 5344SOL     OW16930   0.809   1.856   0.753
 5344SOL    HW116931   0.814   1.952   0.778
 5344SOL    HW216932   0.821   1.799   0.834
 5345SOL     OW16933   5.056   6.878   0.136
 5345SOL    HW116934   5.016   6.818   0.205
 5345SOL    HW216935   5.140   6.920   0.173
 5346SOL     OW16936   3.202   5.954   3.947
 5346SOL    HW116937   3.232   5.929   4.039
 5346SOL    HW216938   3.269   6.017   3.907
 5347SOL     OW16939   7.016   3.890   3.089
 5347SOL    HW116940   7.006   3.990   3.095
 5347SOL    HW216941   0.051   3.867   3.011
 5348SOL     OW16942   0.207   1.594   6.700
 5348SOL    HW116943   0.199   1.498   6.730
 5348SOL    HW216944   0.247   1.648   6.774
 5349SOL     OW16945   2.678   3.472   0.730
 5349SOL    HW116946   2.635   3.548   0.682
 5349SOL    HW216947   2.746   3.429   0.670
 5350SOL     OW16948   2.209   0.096   5.336
 5350SOL    HW116949   2.304   0.125   5.323
 5350SOL    HW216950   2.186   0.025   5.269
 5351SOL     OW16951   0.221   5.802   2.081
 5351SOL    HW116952   0.156   5.754   2.141
 5351SOL    HW216953   0.218   5.761   1.990
 5352SOL     OW16954   1.827   4.937   2.947
 5352SOL    HW116955   1.727   4.935   2.948
 5352SOL    HW216956   1.860   4.971   3.035
 5353SOL     OW16957   3.738   6.460   4.006
 5353SOL    HW116958   3.734   6.373   4.056
 5353SOL    HW216959   3.827   6.503   4.022
 5354SOL     OW16960   1.985   4.525   0.784
 5354SOL    HW116961   2.080   4.515   0.812
 5354SOL    HW216962   1.969   4.473   0.701
 5355SOL     OW16963   6.026   5.136   4.045
 5355SOL    HW116964   6.053   5.156   4.139
 5355SOL    HW216965   5.980   5.048   4.041
 5356SOL     OW16966   6.915   3.719   2.615
 5356SOL    HW116967   6.938   3.664   2.695
 5356SOL    HW216968   6.992   3.717   2.551
 5357SOL     OW16969   3.682   4.724   0.787
 5357SOL    HW116970   3.653   4.814   0.753
 5357SOL    HW216971   3.610   4.657   0.767
 5358SOL     OW16972   4.394   2.570   1.003
 5358SOL    HW116973   4.315   2.511   0.987
 5358SOL    HW216974   4.445   2.580   0.918
 5359SOL     OW16975   2.409   1.416   6.254
 5359SOL    HW116976   2.363   1.375   6.333
 5359SOL    HW216977   2.488   1.468   6.285
 5360SOL     OW16978   4.860   5.903   3.487
 5360SOL    HW116979   4.808   5.944   3.562
 5360SOL    HW216980   4.877   5.972   3.417
 5361SOL     OW16981   2.084   6.739   4.074
 5361SOL    HW116982   2.178   6.772   4.077
 5361SOL    HW216983   2.077   6.654   4.127
 5362SOL     OW16984   6.754   5.749   2.536
 5362SOL    HW116985   6.712   5.720   2.622
 5362SOL    HW216986   6.842   5.703   2.525
 5363SOL     OW16987   5.877   6.025   6.048
 5363SOL    HW116988   5.923   5.938   6.035
 5363SOL    HW216989   5.781   6.018   6.019
 5364SOL     OW16990   6.133   6.712   1.584
 5364SOL    HW116991   6.181   6.680   1.502
 5364SOL    HW216992   6.090   6.635   1.630
 5365SOL     OW16993   3.032   3.175   2.392
 5365SOL    HW116994   3.123   3.161   2.352
 5365SOL    HW216995   2.964   3.125   2.338
 5366SOL     OW16996   6.829   6.472   1.806
 5366SOL    HW116997   6.915   6.523   1.810
 5366SOL    HW216998   6.786   6.485   1.717
 5367SOL     OW16999   0.407   0.205   1.493
 5367SOL    HW117000   0.385   0.177   1.586
 5367SOL    HW217001   0.416   0.305   1.489
 5368SOL     OW17002   6.438   6.976   2.695
 5368SOL    HW117003   6.442   6.885   2.655
 5368SOL    HW217004   6.464   0.020   2.626
 5369SOL     OW17005   2.553   6.579   0.867
 5369SOL    HW117006   2.640   6.598   0.914
 5369SOL    HW217007   2.544   6.640   0.789
 5370SOL     OW17008   4.250   3.797   0.868
 5370SOL    HW117009   4.257   3.847   0.782
 5370SOL    HW217010   4.336   3.748   0.885
 5371SOL     OW17011   0.273   4.995   5.372
 5371SOL    HW117012   0.339   4.947   5.430
 5371SOL    HW217013   0.310   5.083   5.345
 5372SOL     OW17014   0.975   6.279   2.871
 5372SOL    HW117015   0.921   6.341   2.813
 5372SOL    HW217016   1.052   6.243   2.820
 5373SOL     OW17017   4.138   6.573   5.335
 5373SOL    HW117018   4.137   6.594   5.433
 5373SOL    HW217019   4.197   6.495   5.318
 5374SOL     OW17020   2.415   4.935   0.783
 5374SOL    HW117021   2.430   4.880   0.865
 5374SOL    HW217022   2.341   4.999   0.799
 5375SOL     OW17023   0.171   5.630   5.919
 5375SOL    HW117024   0.107   5.672   5.984
 5375SOL    HW217025   0.263   5.665   5.936
 5376SOL     OW17026   1.270   2.338   1.647
 5376SOL    HW117027   1.285   2.432   1.617
 5376SOL    HW217028   1.192   2.299   1.596
 5377SOL     OW17029   0.855   0.043   2.571
 5377SOL    HW117030   0.811   6.978   2.574
 5377SOL    HW217031   0.824   0.093   2.490
 5378SOL     OW17032   0.118   7.013   2.606
 5378SOL    HW117033   0.099   0.010   2.702
 5378SOL    HW217034   0.079   6.924   2.583
 5379SOL     OW17035   0.919   3.319   4.904
 5379SOL    HW117036   0.854   3.337   4.831
 5379SOL    HW217037   1.002   3.372   4.889
 5380SOL     OW17038   2.947   6.949   1.354
 5380SOL    HW117039   2.922   6.860   1.316
 5380SOL    HW217040   2.865   7.007   1.356
 5381SOL     OW17041   0.167   6.075   2.160
 5381SOL    HW117042   0.228   6.001   2.131
 5381SOL    HW217043   0.092   6.037   2.215
 5382SOL     OW17044   2.968   2.114   1.883
 5382SOL    HW117045   2.930   2.196   1.925
 5382SOL    HW217046   2.942   2.033   1.935
 5383SOL     OW17047   1.630   3.167   4.840
 5383SOL    HW117048   1.534   3.153   4.817
 5383SOL    HW217049   1.679   3.080   4.830
 5384SOL     OW17050   4.949   6.173   4.596
 5384SOL    HW117051   4.924   6.267   4.617
 5384SOL    HW217052   4.934   6.156   4.498
 5385SOL     OW17053   4.754   2.902   5.359
 5385SOL    HW117054   4.776   2.806   5.337
 5385SOL    HW217055   4.728   2.909   5.455
 5386SOL     OW17056   5.468   1.734   3.782
 5386SOL    HW117057   5.547   1.738   3.842
 5386SOL    HW217058   5.489   1.679   3.701
 5387SOL     OW17059   2.469   6.388   2.990
 5387SOL    HW117060   2.464   6.289   2.981
 5387SOL    HW217061   2.559   6.415   3.022
 5388SOL     OW17062   1.162   0.267   2.420
 5388SOL    HW117063   1.256   0.301   2.424
 5388SOL    HW217064   1.122   0.290   2.332
 5389SOL     OW17065   3.663   1.320   4.295
 5389SOL    HW117066   3.713   1.240   4.328
 5389SOL    HW217067   3.728   1.390   4.264
 5390SOL     OW17068   5.917   4.064   3.424
 5390SOL    HW117069   5.879   3.985   3.472
 5390SOL    HW217070   6.004   4.089   3.466
 5391SOL     OW17071   2.276   1.724   0.652
 5391SOL    HW117072   2.185   1.758   0.675
 5391SOL    HW217073   2.345   1.773   0.705
 5392SOL     OW17074   5.341   3.970   0.648
 5392SOL    HW117075   5.387   3.886   0.619
 5392SOL    HW217076   5.242   3.960   0.638
 5393SOL     OW17077   5.006   0.995   4.958
 5393SOL    HW117078   4.951   1.012   4.876
 5393SOL    HW217079   5.030   0.898   4.963
 5394SOL     OW17080   1.087   5.695   1.208
 5394SOL    HW117081   1.051   5.678   1.117
 5394SOL    HW217082   1.185   5.674   1.211
 5395SOL     OW17083   4.884   0.317   1.271
 5395SOL    HW117084   4.805   0.306   1.210
 5395SOL    HW217085   4.858   0.374   1.349
 5396SOL     OW17086   5.795   4.839   1.773
 5396SOL    HW117087   5.727   4.773   1.740
 5396SOL    HW217088   5.870   4.789   1.818
 5397SOL     OW17089   6.760   1.815   1.797
 5397SOL    HW117090   6.711   1.730   1.776
 5397SOL    HW217091   6.735   1.845   1.889
 5398SOL     OW17092   3.104   2.108   4.004
 5398SOL    HW117093   3.089   2.037   4.072
 5398SOL    HW217094   3.055   2.191   4.031
 5399SOL     OW17095   2.762   6.875   6.282
 5399SOL    HW117096   2.860   6.890   6.270
 5399SOL    HW217097   2.733   6.797   6.227
 5400SOL     OW17098   3.280   3.600   0.432
 5400SOL    HW117099   3.364   3.584   0.484
 5400SOL    HW217100   3.292   3.568   0.338
 5401SOL     OW17101   5.769   4.093   2.149
 5401SOL    HW117102   5.764   4.064   2.245
 5401SOL    HW217103   5.688   4.059   2.100
 5402SOL     OW17104   2.848   6.729   1.202
 5402SOL    HW117105   2.848   6.719   1.103
 5402SOL    HW217106   2.760   6.766   1.232
 5403SOL     OW17107   4.924   3.295   5.893
 5403SOL    HW117108   4.866   3.280   5.813
 5403SOL    HW217109   4.867   3.319   5.972
 5404SOL     OW17110   0.734   0.206   1.439
 5404SOL    HW117111   0.830   0.209   1.411
 5404SOL    HW217112   0.728   0.223   1.538
 5405SOL     OW17113   5.625   4.936   6.789
 5405SOL    HW117114   5.581   4.874   6.724
 5405SOL    HW217115   5.606   4.905   6.882
 5406SOL     OW17116   2.020   0.991   5.167
 5406SOL    HW117117   1.968   1.009   5.251
 5406SOL    HW217118   2.015   1.070   5.107
 5407SOL     OW17119   3.410   1.813   0.957
 5407SOL    HW117120   3.398   1.867   1.040
 5407SOL    HW217121   3.338   1.837   0.892
 5408SOL     OW17122   3.924   0.666   4.949
 5408SOL    HW117123   3.933   0.759   4.914
 5408SOL    HW217124   3.998   0.648   5.014
 5409SOL     OW17125   6.437   1.763   2.816
 5409SOL    HW117126   6.366   1.734   2.753
 5409SOL    HW217127   6.479   1.847   2.782
 5410SOL     OW17128   0.811   2.246   6.642
 5410SOL    HW117129   0.861   2.197   6.571
 5410SOL    HW217130   0.768   2.328   6.603
 5411SOL     OW17131   5.515   5.544   6.248
 5411SOL    HW117132   5.451   5.621   6.254
 5411SOL    HW217133   5.470   5.467   6.203
 5412SOL     OW17134   3.196   1.246   6.443
 5412SOL    HW117135   3.293   1.221   6.449
 5412SOL    HW217136   3.182   1.334   6.489
 5413SOL     OW17137   0.863   6.840   6.921
 5413SOL    HW117138   0.848   6.825   7.019
 5413SOL    HW217139   0.861   6.938   6.902
 5414SOL     OW17140   6.176   5.023   4.555
 5414SOL    HW117141   6.152   5.017   4.458
 5414SOL    HW217142   6.209   5.115   4.576
 5415SOL     OW17143   2.524   6.550   1.197
 5415SOL    HW117144   2.597   6.483   1.189
 5415SOL    HW217145   2.435   6.504   1.194
 5416SOL     OW17146   2.814   4.887   5.038
 5416SOL    HW117147   2.789   4.790   5.046
 5416SOL    HW217148   2.751   4.932   4.975
 5417SOL     OW17149   3.963   6.901   5.067
 5417SOL    HW117150   4.054   6.923   5.031
 5417SOL    HW217151   3.900   6.976   5.048
 5418SOL     OW17152   5.815   5.865   4.927
 5418SOL    HW117153   5.743   5.929   4.952
 5418SOL    HW217154   5.805   5.781   4.979
 5419SOL     OW17155   3.297   5.956   0.566
 5419SOL    HW117156   3.270   5.889   0.636
 5419SOL    HW217157   3.304   5.910   0.477
 5420SOL     OW17158   1.869   1.728   0.984
 5420SOL    HW117159   1.929   1.718   1.063
 5420SOL    HW217160   1.851   1.825   0.968
 5421SOL     OW17161   3.366   5.050   1.702
 5421SOL    HW117162   3.459   5.078   1.726
 5421SOL    HW217163   3.301   5.117   1.739
 5422SOL     OW17164   0.973   4.555   4.581
 5422SOL    HW117165   1.012   4.485   4.640
 5422SOL    HW217166   1.031   4.637   4.584
 5423SOL     OW17167   5.267   5.029   7.020
 5423SOL    HW117168   5.188   5.086   6.998
 5423SOL    HW217169   5.263   4.945   6.965
 5424SOL     OW17170   5.608   3.967   4.563
 5424SOL    HW117171   5.541   3.910   4.515
 5424SOL    HW217172   5.587   3.967   4.661
 5425SOL     OW17173   5.792   1.823   5.030
 5425SOL    HW117174   5.872   1.773   5.064
 5425SOL    HW217175   5.728   1.841   5.104
 5426SOL     OW17176   5.359   5.575   2.759
 5426SOL    HW117177   5.259   5.574   2.768
 5426SOL    HW217178   5.391   5.486   2.728
 5427SOL     OW17179   5.286   3.192   0.228
 5427SOL    HW117180   5.307   3.131   0.305
 5427SOL    HW217181   5.237   3.141   0.157
 5428SOL     OW17182   5.468   6.785   1.507
 5428SOL    HW117183   5.535   6.758   1.576
 5428SOL    HW217184   5.427   6.703   1.466
 5429SOL     OW17185   1.923   0.159   5.383
 5429SOL    HW117186   2.020   0.134   5.379
 5429SOL    HW217187   1.888   0.176   5.291
 5430SOL     OW17188   1.914   3.021   5.040
 5430SOL    HW117189   1.998   3.062   5.075
 5430SOL    HW217190   1.935   2.931   5.000
 5431SOL     OW17191   2.742   3.964   6.246
 5431SOL    HW117192   2.664   3.991   6.301
 5431SOL    HW217193   2.821   4.023   6.267
 5432SOL     OW17194   3.697   5.493   6.421
 5432SOL    HW117195   3.629   5.420   6.414
 5432SOL    HW217196   3.692   5.551   6.340
 5433SOL     OW17197   0.973   0.575   1.706
 5433SOL    HW117198   0.907   0.576   1.631
 5433SOL    HW217199   1.017   0.665   1.712
 5434SOL     OW17200   3.960   1.216   4.469
 5434SOL    HW117201   4.038   1.241   4.411
 5434SOL    HW217202   3.895   1.162   4.416
 5435SOL     OW17203   6.576   3.569   0.639
 5435SOL    HW117204   6.612   3.552   0.730
 5435SOL    HW217205   6.623   3.648   0.598
 5436SOL     OW17206   6.101   4.598   3.980
 5436SOL    HW117207   6.188   4.647   3.990
 5436SOL    HW217208   6.072   4.564   4.070
 5437SOL     OW17209   3.256   4.952   4.939
 5437SOL    HW117210   3.287   4.929   5.031
 5437SOL    HW217211   3.162   4.919   4.925
 5438SOL     OW17212   5.569   4.390   2.276
 5438SOL    HW117213   5.573   4.453   2.199
 5438SOL    HW217214   5.650   4.404   2.334
 5439SOL     OW17215   0.344   3.316   6.690
 5439SOL    HW117216   0.345   3.247   6.763
 5439SOL    HW217217   0.300   3.277   6.609
 5440SOL     OW17218   6.505   6.348   3.458
 5440SOL    HW117219   6.584   6.338   3.397
 5440SOL    HW217220   6.480   6.258   3.494
 5441SOL     OW17221   4.922   3.564   3.784
 5441SOL    HW117222   4.901   3.517   3.870
 5441SOL    HW217223   5.019   3.554   3.764
 5442SOL     OW17224   3.740   0.390   3.654
 5442SOL    HW117225   3.646   0.378   3.685
 5442SOL    HW217226   3.770   0.483   3.677
 5443SOL     OW17227   4.170   5.907   3.740
 5443SOL    HW117228   4.225   5.959   3.675
 5443SOL    HW217229   4.206   5.921   3.832
 5444SOL     OW17230   0.388   0.729   4.117
 5444SOL    HW117231   0.321   0.659   4.091
 5444SOL    HW217232   0.424   0.773   4.035
 5445SOL     OW17233   6.043   4.355   3.470
 5445SOL    HW117234   5.997   4.442   3.487
 5445SOL    HW217235   6.117   4.343   3.536
 5446SOL     OW17236   5.988   5.624   4.227
 5446SOL    HW117237   6.051   5.682   4.279
 5446SOL    HW217238   6.028   5.603   4.137
 5447SOL     OW17239   1.508   1.147   0.643
 5447SOL    HW117240   1.555   1.233   0.664
 5447SOL    HW217241   1.410   1.157   0.661
 5448SOL     OW17242   4.482   4.555   3.460
 5448SOL    HW117243   4.428   4.537   3.377
 5448SOL    HW217244   4.437   4.627   3.513
 5449SOL     OW17245   2.167   1.052   0.745
 5449SOL    HW117246   2.260   1.021   0.763
 5449SOL    HW217247   2.167   1.151   0.727
 5450SOL     OW17248   3.211   0.350   1.329
 5450SOL    HW117249   3.223   0.253   1.311
 5450SOL    HW217250   3.297   0.398   1.311
 5451SOL     OW17251   2.041   5.996   3.412
 5451SOL    HW117252   2.067   6.091   3.392
 5451SOL    HW217253   2.032   5.984   3.511
 5452SOL     OW17254   2.766   4.496   1.011
 5452SOL    HW117255   2.785   4.467   0.917
 5452SOL    HW217256   2.675   4.465   1.038
 5453SOL     OW17257   5.008   3.757   2.141
 5453SOL    HW117258   4.956   3.727   2.062
 5453SOL    HW217259   5.041   3.851   2.127
 5454SOL     OW17260   5.948   6.070   1.161
 5454SOL    HW117261   5.931   6.157   1.116
 5454SOL    HW217262   5.887   6.060   1.239
 5455SOL     OW17263   0.346   2.273   3.790
 5455SOL    HW117264   0.390   2.186   3.814
 5455SOL    HW217265   0.268   2.256   3.730
 5456SOL     OW17266   3.482   2.081   6.707
 5456SOL    HW117267   3.491   2.014   6.634
 5456SOL    HW217268   3.448   2.167   6.670
 5457SOL     OW17269   6.514   1.956   1.050
 5457SOL    HW117270   6.436   2.014   1.026
 5457SOL    HW217271   6.485   1.860   1.054
 5458SOL     OW17272   6.783   5.310   0.400
 5458SOL    HW117273   6.731   5.384   0.357
 5458SOL    HW217274   6.874   5.304   0.358
 5459SOL     OW17275   1.849   4.714   5.479
 5459SOL    HW117276   1.889   4.797   5.519
 5459SOL    HW217277   1.791   4.739   5.402
 5460SOL     OW17278   2.755   0.121   2.422
 5460SOL    HW117279   2.844   0.076   2.432
 5460SOL    HW217280   2.755   0.207   2.473
 5461SOL     OW17281   0.833   6.905   4.340
 5461SOL    HW117282   0.920   6.928   4.298
 5461SOL    HW217283   0.844   6.821   4.395
 5462SOL     OW17284   5.570   6.229   0.178
 5462SOL    HW117285   5.643   6.174   0.218
 5462SOL    HW217286   5.598   6.263   0.088
 5463SOL     OW17287   0.532   2.008   0.066
 5463SOL    HW117288   0.470   1.937   0.098
 5463SOL    HW217289   0.492   2.054   7.010
 5464SOL     OW17290   5.612   6.238   4.876
 5464SOL    HW117291   5.658   6.290   4.948
 5464SOL    HW217292   5.658   6.255   4.789
 5465SOL     OW17293   6.312   0.895   3.398
 5465SOL    HW117294   6.361   0.880   3.312
 5465SOL    HW217295   6.309   0.993   3.418
 5466SOL     OW17296   5.034   2.538   5.782
 5466SOL    HW117297   4.944   2.568   5.749
 5466SOL    HW217298   5.105   2.570   5.720
 5467SOL     OW17299   6.428   3.656   3.407
 5467SOL    HW117300   6.447   3.561   3.383
 5467SOL    HW217301   6.339   3.683   3.370
 5468SOL     OW17302   6.621   1.476   5.171
 5468SOL    HW117303   6.612   1.576   5.169
 5468SOL    HW217304   6.663   1.445   5.085
 5469SOL     OW17305   3.309   5.770   5.093
 5469SOL    HW117306   3.391   5.785   5.038
 5469SOL    HW217307   3.238   5.730   5.036
 5470SOL     OW17308   3.731   5.398   4.107
 5470SOL    HW117309   3.658   5.405   4.174
 5470SOL    HW217310   3.817   5.431   4.147
 5471SOL     OW17311   6.416   0.468   2.622
 5471SOL    HW117312   6.330   0.506   2.657
 5471SOL    HW217313   6.399   0.428   2.531
 5472SOL     OW17314   3.338   3.198   6.669
 5472SOL    HW117315   3.277   3.276   6.682
 5472SOL    HW217316   3.363   3.190   6.572
 5473SOL     OW17317   1.848   3.301   0.806
 5473SOL    HW117318   1.865   3.259   0.895
 5473SOL    HW217319   1.925   3.280   0.745
 5474SOL     OW17320   1.089   4.739   4.871
 5474SOL    HW117321   1.012   4.752   4.808
 5474SOL    HW217322   1.092   4.814   4.937
 5475SOL     OW17323   1.424   2.045   0.536
 5475SOL    HW117324   1.390   2.058   0.629
 5475SOL    HW217325   1.429   1.947   0.516
 5476SOL     OW17326   2.079   4.500   5.114
 5476SOL    HW117327   2.118   4.408   5.108
 5476SOL    HW217328   2.136   4.564   5.062
 5477SOL     OW17329   1.943   4.089   3.195
 5477SOL    HW117330   1.981   4.001   3.164
 5477SOL    HW217331   1.991   4.164   3.150
 5478SOL     OW17332   4.513   0.040   5.330
 5478SOL    HW117333   4.492   0.067   5.424
 5478SOL    HW217334   4.429   0.035   5.277
 5479SOL     OW17335   4.891   2.035   4.886
 5479SOL    HW117336   4.822   2.104   4.864
 5479SOL    HW217337   4.861   1.982   4.966
 5480SOL     OW17338   5.137   5.483   4.347
 5480SOL    HW117339   5.114   5.560   4.407
 5480SOL    HW217340   5.234   5.487   4.323
 5481SOL     OW17341   4.533   1.742   4.530
 5481SOL    HW117342   4.512   1.653   4.572
 5481SOL    HW217343   4.514   1.738   4.432
 5482SOL     OW17344   3.845   3.712   2.038
 5482SOL    HW117345   3.774   3.779   2.013
 5482SOL    HW217346   3.932   3.760   2.049
 5483SOL     OW17347   0.344   1.787   5.115
 5483SOL    HW117348   0.438   1.794   5.149
 5483SOL    HW217349   0.308   1.696   5.134
 5484SOL     OW17350   4.945   0.613   4.062
 5484SOL    HW117351   4.856   0.649   4.034
 5484SOL    HW217352   5.018   0.656   4.008
 5485SOL     OW17353   3.149   0.086   5.321
 5485SOL    HW117354   3.145   0.035   5.235
 5485SOL    HW217355   3.070   0.063   5.377
 5486SOL     OW17356   1.866   5.865   5.308
 5486SOL    HW117357   1.877   5.844   5.405
 5486SOL    HW217358   1.792   5.809   5.271
 5487SOL     OW17359   4.908   3.257   6.306
 5487SOL    HW117360   4.896   3.158   6.307
 5487SOL    HW217361   4.818   3.301   6.307
 5488SOL     OW17362   5.504   1.047   1.444
 5488SOL    HW117363   5.604   1.044   1.447
 5488SOL    HW217364   5.467   0.997   1.523
 5489SOL     OW17365   1.336   4.847   0.993
 5489SOL    HW117366   1.284   4.810   0.916
 5489SOL    HW217367   1.297   4.813   1.079
 5490SOL     OW17368   3.522   6.982   0.281
 5490SOL    HW117369   3.576   6.898   0.278
 5490SOL    HW217370   3.514   7.021   0.189
 5491SOL     OW17371   2.141   4.194   0.905
 5491SOL    HW117372   2.146   4.199   1.005
 5491SOL    HW217373   2.189   4.112   0.874
 5492SOL     OW17374   0.493   2.239   6.496
 5492SOL    HW117375   0.498   2.182   6.578
 5492SOL    HW217376   0.582   2.279   6.478
 5493SOL     OW17377   3.740   4.077   4.239
 5493SOL    HW117378   3.654   4.034   4.266
 5493SOL    HW217379   3.748   4.075   4.139
 5494SOL     OW17380   6.816   2.852   6.501
 5494SOL    HW117381   6.818   2.789   6.423
 5494SOL    HW217382   6.842   2.804   6.584
 5495SOL     OW17383   4.247   2.427   1.441
 5495SOL    HW117384   4.177   2.383   1.497
 5495SOL    HW217385   4.227   2.410   1.345
 5496SOL     OW17386   2.629   6.930   2.960
 5496SOL    HW117387   2.610   6.950   2.864
 5496SOL    HW217388   2.680   6.844   2.967
 5497SOL     OW17389   0.358   1.811   4.159
 5497SOL    HW117390   0.353   1.723   4.110
 5497SOL    HW217391   0.286   1.872   4.125
 5498SOL     OW17392   5.652   6.673   1.131
 5498SOL    HW117393   5.578   6.606   1.135
 5498SOL    HW217394   5.732   6.637   1.179
 5499SOL     OW17395   6.927   0.583   4.541
 5499SOL    HW117396   6.917   0.486   4.517
 5499SOL    HW217397   6.990   0.627   4.476
 5500SOL     OW17398   1.546   0.057   0.444
 5500SOL    HW117399   1.580   7.000   0.490
 5500SOL    HW217400   1.478   0.031   0.375
 5501SOL     OW17401   3.944   6.370   0.413
 5501SOL    HW117402   3.990   6.428   0.346
 5501SOL    HW217403   3.853   6.347   0.381
 5502SOL     OW17404   5.915   3.478   0.145
 5502SOL    HW117405   5.841   3.497   0.210
 5502SOL    HW217406   5.914   3.380   0.122
 5503SOL     OW17407   0.110   5.194   2.977
 5503SOL    HW117408   0.020   5.156   3.001
 5503SOL    HW217409   0.153   5.232   3.059
 5504SOL     OW17410   3.948   0.919   4.862
 5504SOL    HW117411   3.889   0.999   4.869
 5504SOL    HW217412   4.001   0.924   4.777
 5505SOL     OW17413   1.539   5.570   4.402
 5505SOL    HW117414   1.595   5.524   4.333
 5505SOL    HW217415   1.578   5.555   4.493
 5506SOL     OW17416   1.672   1.812   6.113
 5506SOL    HW117417   1.720   1.831   6.198
 5506SOL    HW217418   1.725   1.747   6.058
 5507SOL     OW17419   2.774   0.294   3.806
 5507SOL    HW117420   2.795   0.242   3.889
 5507SOL    HW217421   2.675   0.308   3.799
 5508SOL     OW17422   1.606   0.929   6.225
 5508SOL    HW117423   1.694   0.949   6.267
 5508SOL    HW217424   1.549   0.878   6.289
 5509SOL     OW17425   0.792   6.589   0.663
 5509SOL    HW117426   0.772   6.491   0.663
 5509SOL    HW217427   0.708   6.641   0.677
 5510SOL     OW17428   4.751   5.846   1.239
 5510SOL    HW117429   4.826   5.794   1.199
 5510SOL    HW217430   4.765   5.943   1.221
 5511SOL     OW17431   2.308   1.282   4.391
 5511SOL    HW117432   2.306   1.313   4.486
 5511SOL    HW217433   2.220   1.300   4.348
 5512SOL     OW17434   5.895   2.027   1.808
 5512SOL    HW117435   5.815   1.969   1.794
 5512SOL    HW217436   5.977   1.979   1.775
 5513SOL     OW17437   4.370   5.367   6.668
 5513SOL    HW117438   4.440   5.332   6.731
 5513SOL    HW217439   4.290   5.307   6.671
 5514SOL     OW17440   4.021   6.737   3.370
 5514SOL    HW117441   4.014   6.826   3.416
 5514SOL    HW217442   4.055   6.669   3.434
 5515SOL     OW17443   0.428   4.930   1.046
 5515SOL    HW117444   0.460   4.845   1.003
 5515SOL    HW217445   0.329   4.936   1.039
 5516SOL     OW17446   1.601   3.818   6.803
 5516SOL    HW117447   1.623   3.721   6.818
 5516SOL    HW217448   1.638   3.847   6.715
 5517SOL     OW17449   2.061   3.239   1.950
 5517SOL    HW117450   2.107   3.319   1.987
 5517SOL    HW217451   1.975   3.225   1.999
 5518SOL     OW17452   6.612   6.776   6.639
 5518SOL    HW117453   6.650   6.815   6.723
 5518SOL    HW217454   6.519   6.743   6.656
 5519SOL     OW17455   5.313   3.331   3.184
 5519SOL    HW117456   5.385   3.275   3.225
 5519SOL    HW217457   5.229   3.278   3.178
 5520SOL     OW17458   6.350   6.109   1.819
 5520SOL    HW117459   6.300   6.023   1.813
 5520SOL    HW217460   6.349   6.154   1.730
 5521SOL     OW17461   5.055   6.969   1.685
 5521SOL    HW117462   5.055   0.028   1.741
 5521SOL    HW217463   4.981   6.909   1.715
 5522SOL     OW17464   6.791   5.206   0.640
 5522SOL    HW117465   6.804   5.268   0.563
 5522SOL    HW217466   6.833   5.246   0.723
 5523SOL     OW17467   3.838   0.288   2.125
 5523SOL    HW117468   3.846   0.359   2.195
 5523SOL    HW217469   3.926   0.278   2.078
 5524SOL     OW17470   5.052   5.173   4.882
 5524SOL    HW117471   4.978   5.111   4.857
 5524SOL    HW217472   5.016   5.244   4.944
 5525SOL     OW17473   0.116   2.410   0.608
 5525SOL    HW117474   0.071   2.337   0.558
 5525SOL    HW217475   0.111   2.392   0.706
 5526SOL     OW17476   4.734   4.678   4.404
 5526SOL    HW117477   4.789   4.735   4.342
 5526SOL    HW217478   4.706   4.595   4.356
 5527SOL     OW17479   5.371   3.705   3.797
 5527SOL    HW117480   5.281   3.661   3.798
 5527SOL    HW217481   5.431   3.657   3.733
 5528SOL     OW17482   1.076   1.514   7.023
 5528SOL    HW117483   1.082   1.515   6.923
 5528SOL    HW217484   1.011   1.583   0.029
 5529SOL     OW17485   2.137   0.126   3.060
 5529SOL    HW117486   2.072   0.113   2.985
 5529SOL    HW217487   2.225   0.086   3.035
 5530SOL     OW17488   6.258   2.327   2.287
 5530SOL    HW117489   6.278   2.324   2.189
 5530SOL    HW217490   6.197   2.251   2.310
 5531SOL     OW17491   3.651   2.828   2.283
 5531SOL    HW117492   3.645   2.728   2.284
 5531SOL    HW217493   3.730   2.856   2.339
 5532SOL     OW17494   1.125   2.425   0.560
 5532SOL    HW117495   1.164   2.425   0.468
 5532SOL    HW217496   1.092   2.517   0.582
 5533SOL     OW17497   3.321   1.038   3.499
 5533SOL    HW117498   3.346   1.007   3.407
 5533SOL    HW217499   3.237   1.091   3.494
 5534SOL     OW17500   1.180   2.121   6.118
 5534SOL    HW117501   1.134   2.128   6.207
 5534SOL    HW217502   1.119   2.156   6.046
 5535SOL     OW17503   0.112   2.912   3.776
 5535SOL    HW117504   0.161   2.825   3.773
 5535SOL    HW217505   0.032   2.903   3.837
 5536SOL     OW17506   2.998   1.568   4.347
 5536SOL    HW117507   3.050   1.496   4.393
 5536SOL    HW217508   3.005   1.554   4.248
 5537SOL     OW17509   2.105   0.997   2.816
 5537SOL    HW117510   2.055   0.931   2.872
 5537SOL    HW217511   2.181   0.952   2.771
 5538SOL     OW17512   2.833   6.770   5.497
 5538SOL    HW117513   2.831   6.710   5.417
 5538SOL    HW217514   2.915   6.751   5.551
 5539SOL     OW17515   0.974   3.725   1.020
 5539SOL    HW117516   1.056   3.669   1.032
 5539SOL    HW217517   0.948   3.764   1.108
 5540SOL     OW17518   5.837   3.433   3.775
 5540SOL    HW117519   5.884   3.435   3.863
 5540SOL    HW217520   5.897   3.469   3.704
 5541SOL     OW17521   6.100   0.425   6.596
 5541SOL    HW117522   6.162   0.457   6.525
 5541SOL    HW217523   6.044   0.350   6.561
 5542SOL     OW17524   6.022   4.436   6.304
 5542SOL    HW117525   6.101   4.402   6.253
 5542SOL    HW217526   5.942   4.381   6.282
 5543SOL     OW17527   3.642   5.409   5.805
 5543SOL    HW117528   3.706   5.483   5.826
 5543SOL    HW217529   3.592   5.431   5.721
 5544SOL     OW17530   5.696   6.289   6.023
 5544SOL    HW117531   5.679   6.192   6.010
 5544SOL    HW217532   5.795   6.306   6.027
 5545SOL     OW17533   3.994   1.717   1.985
 5545SOL    HW117534   4.025   1.781   1.914
 5545SOL    HW217535   3.974   1.629   1.943
 5546SOL     OW17536   0.869   6.152   4.694
 5546SOL    HW117537   0.775   6.127   4.670
 5546SOL    HW217538   0.932   6.117   4.624
 5547SOL     OW17539   3.062   6.875   4.368
 5547SOL    HW117540   3.053   6.895   4.270
 5547SOL    HW217541   3.157   6.855   4.390
 5548SOL     OW17542   5.606   3.455   5.860
 5548SOL    HW117543   5.554   3.515   5.799
 5548SOL    HW217544   5.608   3.495   5.952
 5549SOL     OW17545   4.445   3.962   6.863
 5549SOL    HW117546   4.362   4.017   6.861
 5549SOL    HW217547   4.447   3.908   6.947
 5550SOL     OW17548   2.442   4.508   1.997
 5550SOL    HW117549   2.475   4.443   1.929
 5550SOL    HW217550   2.512   4.576   2.015
 5551SOL     OW17551   1.739   0.318   3.234
 5551SOL    HW117552   1.835   0.293   3.220
 5551SOL    HW217553   1.714   0.300   3.329
 5552SOL     OW17554   0.071   0.255   0.063
 5552SOL    HW117555   0.149   0.317   0.061
 5552SOL    HW217556   7.017   0.298   0.019
 5553SOL     OW17557   5.468   6.294   6.620
 5553SOL    HW117558   5.526   6.233   6.566
 5553SOL    HW217559   5.391   6.326   6.564
 5554SOL     OW17560   4.367   1.477   5.227
 5554SOL    HW117561   4.268   1.491   5.232
 5554SOL    HW217562   4.386   1.383   5.198
 5555SOL     OW17563   2.112   4.419   4.075
 5555SOL    HW117564   2.126   4.423   3.976
 5555SOL    HW217565   2.137   4.507   4.116
 5556SOL     OW17566   6.695   1.427   3.466
 5556SOL    HW117567   6.622   1.486   3.501
 5556SOL    HW217568   6.772   1.429   3.530
 5557SOL     OW17569   3.596   7.005   2.536
 5557SOL    HW117570   3.539   0.054   2.574
 5557SOL    HW217571   3.570   6.989   2.440
 5558SOL     OW17572   4.742   3.421   6.070
 5558SOL    HW117573   4.672   3.425   5.999
 5558SOL    HW217574   4.747   3.510   6.116
 5559SOL     OW17575   2.244   0.676   2.418
 5559SOL    HW117576   2.246   0.758   2.360
 5559SOL    HW217577   2.321   0.617   2.395
 5560SOL     OW17578   1.162   0.203   3.005
 5560SOL    HW117579   1.132   0.158   2.921
 5560SOL    HW217580   1.186   0.133   3.073
 5561SOL     OW17581   1.362   2.268   4.281
 5561SOL    HW117582   1.421   2.294   4.205
 5561SOL    HW217583   1.395   2.312   4.365
 5562SOL     OW17584   3.279   2.185   7.007
 5562SOL    HW117585   3.196   2.197   6.952
 5562SOL    HW217586   3.348   2.252   6.979
 5563SOL     OW17587   4.194   5.426   2.186
 5563SOL    HW117588   4.109   5.396   2.142
 5563SOL    HW217589   4.192   5.399   2.282
 5564SOL     OW17590   4.575   1.257   1.946
 5564SOL    HW117591   4.666   1.258   1.989
 5564SOL    HW217592   4.527   1.341   1.969
 5565SOL     OW17593   4.796   1.797   6.023
 5565SOL    HW117594   4.807   1.713   5.970
 5565SOL    HW217595   4.879   1.852   6.017
 5566SOL     OW17596   1.773   5.596   6.995
 5566SOL    HW117597   1.861   5.549   6.993
 5566SOL    HW217598   1.744   5.615   6.901
 5567SOL     OW17599   0.296   3.475   1.683
 5567SOL    HW117600   0.318   3.543   1.754
 5567SOL    HW217601   0.243   3.519   1.611
 5568SOL     OW17602   4.206   2.196   3.315
 5568SOL    HW117603   4.175   2.193   3.220
 5568SOL    HW217604   4.233   2.290   3.339
 5569SOL     OW17605   1.742   1.548   2.666
 5569SOL    HW117606   1.814   1.578   2.728
 5569SOL    HW217607   1.679   1.624   2.648
 5570SOL     OW17608   5.638   4.436   4.816
 5570SOL    HW117609   5.591   4.405   4.734
 5570SOL    HW217610   5.712   4.372   4.838
 5571SOL     OW17611   0.081   5.365   0.567
 5571SOL    HW117612   0.072   5.362   0.467
 5571SOL    HW217613   0.173   5.395   0.591
 5572SOL     OW17614   0.684   2.411   5.005
 5572SOL    HW117615   0.593   2.370   5.008
 5572SOL    HW217616   0.711   2.441   5.096
 5573SOL     OW17617   1.616   3.526   6.743
 5573SOL    HW117618   1.610   3.539   6.644
 5573SOL    HW217619   1.708   3.548   6.775
 5574SOL     OW17620   6.373   1.739   3.346
 5574SOL    HW117621   6.362   1.750   3.247
 5574SOL    HW217622   6.434   1.810   3.380
 5575SOL     OW17623   6.847   1.418   0.787
 5575SOL    HW117624   6.789   1.386   0.862
 5575SOL    HW217625   6.800   1.490   0.736
 5576SOL     OW17626   1.010   5.847   2.766
 5576SOL    HW117627   0.914   5.842   2.736
 5576SOL    HW217628   1.013   5.851   2.866
 5577SOL     OW17629   2.735   2.557   5.241
 5577SOL    HW117630   2.668   2.543   5.314
 5577SOL    HW217631   2.795   2.632   5.265
 5578SOL     OW17632   4.058   4.291   0.111
 5578SOL    HW117633   4.063   4.384   0.148
 5578SOL    HW217634   4.082   4.225   0.183
 5579SOL     OW17635   0.233   3.631   6.211
 5579SOL    HW117636   0.272   3.539   6.217
 5579SOL    HW217637   0.134   3.625   6.202
 5580SOL     OW17638   5.055   2.938   5.961
 5580SOL    HW117639   5.134   2.879   5.977
 5580SOL    HW217640   5.032   2.938   5.864
 5581SOL     OW17641   2.787   6.916   1.772
 5581SOL    HW117642   2.693   6.948   1.759
 5581SOL    HW217643   2.808   6.846   1.704
 5582SOL     OW17644   3.652   3.246   4.273
 5582SOL    HW117645   3.647   3.146   4.275
 5582SOL    HW217646   3.563   3.284   4.248
 5583SOL     OW17647   4.068   0.578   3.112
 5583SOL    HW117648   4.098   0.632   3.191
 5583SOL    HW217649   4.026   0.638   3.045
 5584SOL     OW17650   5.821   4.394   3.732
 5584SOL    HW117651   5.795   4.334   3.657
 5584SOL    HW217652   5.741   4.413   3.789
 5585SOL     OW17653   4.965   6.498   4.077
 5585SOL    HW117654   4.961   6.563   4.152
 5585SOL    HW217655   4.898   6.426   4.092
 5586SOL     OW17656   0.097   2.379   6.808
 5586SOL    HW117657   0.036   2.458   6.815
 5586SOL    HW217658   0.137   2.360   6.898
 5587SOL     OW17659   3.998   6.242   2.639
 5587SOL    HW117660   4.012   6.191   2.554
 5587SOL    HW217661   3.916   6.299   2.630
 5588SOL     OW17662   1.621   6.896   2.607
 5588SOL    HW117663   1.671   6.950   2.675
 5588SOL    HW217664   1.644   6.800   2.618
 5589SOL     OW17665   5.978   2.759   6.332
 5589SOL    HW117666   5.885   2.744   6.364
 5589SOL    HW217667   6.042   2.740   6.406
 5590SOL     OW17668   6.752   5.638   3.203
 5590SOL    HW117669   6.695   5.675   3.130
 5590SOL    HW217670   6.695   5.586   3.267
 5591SOL     OW17671   5.980   1.217   6.973
 5591SOL    HW117672   5.908   1.202   0.016
 5591SOL    HW217673   5.948   1.189   6.883
 5592SOL     OW17674   0.334   4.662   2.691
 5592SOL    HW117675   0.264   4.596   2.718
 5592SOL    HW217676   0.316   4.693   2.598
 5593SOL     OW17677   6.999   2.407   6.031
 5593SOL    HW117678   7.022   2.414   5.934
 5593SOL    HW217679   6.900   2.399   6.041
 5594SOL     OW17680   2.942   0.925   6.743
 5594SOL    HW117681   2.883   0.938   6.822
 5594SOL    HW217682   2.899   0.966   6.662
 5595SOL     OW17683   5.758   0.182   5.376
 5595SOL    HW117684   5.812   0.120   5.433
 5595SOL    HW217685   5.663   0.150   5.372
 5596SOL     OW17686   5.096   0.462   3.059
 5596SOL    HW117687   5.114   0.550   3.017
 5596SOL    HW217688   5.000   0.458   3.088
 5597SOL     OW17689   6.758   1.652   5.515
 5597SOL    HW117690   6.715   1.732   5.473
 5597SOL    HW217691   6.706   1.626   5.596
 5598SOL     OW17692   6.426   2.666   4.498
 5598SOL    HW117693   6.413   2.711   4.587
 5598SOL    HW217694   6.387   2.575   4.501
 5599SOL     OW17695   0.355   2.268   1.752
 5599SOL    HW117696   0.259   2.270   1.723
 5599SOL    HW217697   0.375   2.351   1.804
 5600SOL     OW17698   2.457   0.200   2.267
 5600SOL    HW117699   2.509   0.116   2.284
 5600SOL    HW217700   2.427   0.201   2.172
 5601SOL     OW17701   3.461   1.384   6.278
 5601SOL    HW117702   3.546   1.351   6.320
 5601SOL    HW217703   3.451   1.482   6.294
 5602SOL     OW17704   0.614   0.328   2.203
 5602SOL    HW117705   0.557   0.312   2.283
 5602SOL    HW217706   0.596   0.419   2.166
 5603SOL     OW17707   5.479   2.025   6.635
 5603SOL    HW117708   5.512   2.048   6.727
 5603SOL    HW217709   5.556   2.018   6.573
 5604SOL     OW17710   6.789   2.291   5.272
 5604SOL    HW117711   6.775   2.389   5.290
 5604SOL    HW217712   6.707   2.253   5.231
 5605SOL     OW17713   1.718   0.006   4.566
 5605SOL    HW117714   1.730   6.952   4.505
 5605SOL    HW217715   1.807   0.040   4.596
 5606SOL     OW17716   5.755   0.988   0.943
 5606SOL    HW117717   5.780   0.928   1.020
 5606SOL    HW217718   5.754   1.083   0.974
 5607SOL     OW17719   5.618   1.390   3.812
 5607SOL    HW117720   5.644   1.294   3.797
 5607SOL    HW217721   5.667   1.448   3.747
 5608SOL     OW17722   6.302   1.744   3.064
 5608SOL    HW117723   6.313   1.646   3.043
 5608SOL    HW217724   6.347   1.798   2.993
 5609SOL     OW17725   4.687   6.078   1.533
 5609SOL    HW117726   4.618   6.048   1.467
 5609SOL    HW217727   4.666   6.170   1.564
 5610SOL     OW17728   4.935   4.252   1.269
 5610SOL    HW117729   4.952   4.265   1.367
 5610SOL    HW217730   5.023   4.251   1.220
 5611SOL     OW17731   0.709   5.131   2.807
 5611SOL    HW117732   0.739   5.224   2.786
 5611SOL    HW217733   0.693   5.080   2.722
 5612SOL     OW17734   4.010   3.259   0.536
 5612SOL    HW117735   4.056   3.216   0.614
 5612SOL    HW217736   3.925   3.302   0.567
 5613SOL     OW17737   5.603   5.281   5.060
 5613SOL    HW117738   5.699   5.266   5.083
 5613SOL    HW217739   5.547   5.209   5.102
 5614SOL     OW17740   5.272   3.651   5.143
 5614SOL    HW117741   5.181   3.609   5.141
 5614SOL    HW217742   5.342   3.581   5.127
 5615SOL     OW17743   6.352   1.376   3.934
 5615SOL    HW117744   6.401   1.441   3.992
 5615SOL    HW217745   6.289   1.322   3.990
 5616SOL     OW17746   1.874   2.867   4.451
 5616SOL    HW117747   1.892   2.933   4.378
 5616SOL    HW217748   1.878   2.914   4.539
 5617SOL     OW17749   1.289   4.139   4.967
 5617SOL    HW117750   1.246   4.116   4.880
 5617SOL    HW217751   1.386   4.156   4.953
 5618SOL     OW17752   6.421   4.779   3.272
 5618SOL    HW117753   6.435   4.697   3.216
 5618SOL    HW217754   6.510   4.817   3.296
 5619SOL     OW17755   3.177   3.875   3.913
 5619SOL    HW117756   3.154   3.926   3.831
 5619SOL    HW217757   3.219   3.936   3.980
 5620SOL     OW17758   4.634   4.097   6.725
 5620SOL    HW117759   4.566   4.040   6.771
 5620SOL    HW217760   4.616   4.097   6.627
 5621SOL     OW17761   1.702   2.829   6.986
 5621SOL    HW117762   1.747   2.914   7.013
 5621SOL    HW217763   1.699   2.823   6.887
 5622SOL     OW17764   4.930   0.332   5.493
 5622SOL    HW117765   4.831   0.315   5.491
 5622SOL    HW217766   4.973   0.268   5.556
 5623SOL     OW17767   4.478   6.606   4.854
 5623SOL    HW117768   4.520   6.539   4.915
 5623SOL    HW217769   4.548   6.668   4.818
 5624SOL     OW17770   0.453   4.702   3.873
 5624SOL    HW117771   0.524   4.653   3.822
 5624SOL    HW217772   0.446   4.663   3.965
 5625SOL     OW17773   6.787   6.438   5.495
 5625SOL    HW117774   6.886   6.450   5.497
 5625SOL    HW217775   6.765   6.342   5.477
 5626SOL     OW17776   2.707   4.917   4.093
 5626SOL    HW117777   2.796   4.959   4.078
 5626SOL    HW217778   2.717   4.837   4.151
 5627SOL     OW17779   0.104   4.648   6.608
 5627SOL    HW117780   0.083   4.731   6.660
 5627SOL    HW217781   0.076   4.568   6.662
 5628SOL     OW17782   1.854   2.490   1.272
 5628SOL    HW117783   1.803   2.505   1.187
 5628SOL    HW217784   1.799   2.432   1.333
 5629SOL     OW17785   4.893   3.174   1.800
 5629SOL    HW117786   4.977   3.160   1.852
 5629SOL    HW217787   4.818   3.123   1.844
 5630SOL     OW17788   1.788   4.411   6.590
 5630SOL    HW117789   1.850   4.339   6.623
 5630SOL    HW217790   1.735   4.377   6.513
 5631SOL     OW17791   4.719   1.714   1.519
 5631SOL    HW117792   4.730   1.645   1.447
 5631SOL    HW217793   4.666   1.790   1.484
 5632SOL     OW17794   3.350   2.278   5.372
 5632SOL    HW117795   3.446   2.307   5.368
 5632SOL    HW217796   3.296   2.329   5.306
 5633SOL     OW17797   6.011   4.610   4.409
 5633SOL    HW117798   6.096   4.634   4.363
 5633SOL    HW217799   6.032   4.561   4.493
 5634SOL     OW17800   2.020   4.497   4.814
 5634SOL    HW117801   2.114   4.515   4.783
 5634SOL    HW217802   1.957   4.512   4.739
 5635SOL     OW17803   1.634   6.430   6.722
 5635SOL    HW117804   1.682   6.407   6.638
 5635SOL    HW217805   1.616   6.528   6.724
 5636SOL     OW17806   6.524   0.067   5.337
 5636SOL    HW117807   6.523   0.112   5.426
 5636SOL    HW217808   6.618   0.066   5.301
 5637SOL     OW17809   3.968   6.924   3.568
 5637SOL    HW117810   3.887   6.981   3.582
 5637SOL    HW217811   3.980   6.862   3.646
 5638SOL     OW17812   6.270   4.097   0.939
 5638SOL    HW117813   6.219   4.166   0.989
 5638SOL    HW217814   6.263   4.115   0.841
 5639SOL     OW17815   2.436   0.622   2.003
 5639SOL    HW117816   2.429   0.551   1.934
 5639SOL    HW217817   2.502   0.594   2.073
 5640SOL     OW17818   2.929   0.676   2.487
 5640SOL    HW117819   2.842   0.721   2.508
 5640SOL    HW217820   2.963   0.629   2.569
 5641SOL     OW17821   0.857   4.689   5.935
 5641SOL    HW117822   0.929   4.706   6.002
 5641SOL    HW217823   0.889   4.715   5.844
 5642SOL     OW17824   0.546   5.657   5.013
 5642SOL    HW117825   0.490   5.598   5.072
 5642SOL    HW217826   0.609   5.710   5.069
 5643SOL     OW17827   2.874   0.846   4.285
 5643SOL    HW117828   2.972   0.862   4.293
 5643SOL    HW217829   2.825   0.921   4.328
 5644SOL     OW17830   3.732   0.178   4.616
 5644SOL    HW117831   3.653   0.182   4.678
 5644SOL    HW217832   3.700   0.164   4.522
 5645SOL     OW17833   5.824   5.062   2.711
 5645SOL    HW117834   5.862   5.007   2.786
 5645SOL    HW217835   5.787   5.001   2.641
 5646SOL     OW17836   0.872   5.480   3.266
 5646SOL    HW117837   0.831   5.424   3.337
 5646SOL    HW217838   0.849   5.443   3.176
 5647SOL     OW17839   5.858   0.091   1.110
 5647SOL    HW117840   5.858   0.020   1.041
 5647SOL    HW217841   5.784   0.155   1.092
 5648SOL     OW17842   1.502   0.945   3.405
 5648SOL    HW117843   1.436   0.874   3.428
 5648SOL    HW217844   1.457   1.034   3.400
 5649SOL     OW17845   6.974   6.878   5.098
 5649SOL    HW117846   6.962   6.949   5.028
 5649SOL    HW217847   6.886   6.833   5.114
 5650SOL     OW17848   1.292   5.052   1.173
 5650SOL    HW117849   1.308   5.005   1.259
 5650SOL    HW217850   1.306   4.989   1.097
 5651SOL     OW17851   0.298   0.937   1.490
 5651SOL    HW117852   0.398   0.947   1.492
 5651SOL    HW217853   0.257   1.008   1.547
 5652SOL     OW17854   6.469   0.182   2.122
 5652SOL    HW117855   6.412   0.107   2.088
 5652SOL    HW217856   6.563   0.151   2.134
 5653SOL     OW17857   0.880   6.183   6.661
 5653SOL    HW117858   0.962   6.214   6.615
 5653SOL    HW217859   0.876   6.083   6.659
 5654SOL     OW17860   6.504   6.849   5.936
 5654SOL    HW117861   6.485   6.786   5.861
 5654SOL    HW217862   6.574   6.810   5.996
 5655SOL     OW17863   1.905   3.801   5.004
 5655SOL    HW117864   1.931   3.722   4.948
 5655SOL    HW217865   1.980   3.822   5.067
 5656SOL     OW17866   0.274   3.447   0.284
 5656SOL    HW117867   0.265   3.349   0.266
 5656SOL    HW217868   0.301   3.461   0.379
 5657SOL     OW17869   5.749   1.575   6.961
 5657SOL    HW117870   5.804   1.493   6.950
 5657SOL    HW217871   5.709   1.601   6.873
 5658SOL     OW17872   3.899   4.822   5.962
 5658SOL    HW117873   3.858   4.883   5.895
 5658SOL    HW217874   3.992   4.853   5.983
 5659SOL     OW17875   3.618   3.531   3.923
 5659SOL    HW117876   3.671   3.495   3.846
 5659SOL    HW217877   3.528   3.559   3.890
 5660SOL     OW17878   5.750   0.647   6.692
 5660SOL    HW117879   5.759   0.708   6.771
 5660SOL    HW217880   5.683   0.576   6.713
 5661SOL     OW17881   1.323   5.128   4.952
 5661SOL    HW117882   1.297   5.173   4.866
 5661SOL    HW217883   1.363   5.196   5.014
 5662SOL     OW17884   3.165   5.401   2.887
 5662SOL    HW117885   3.085   5.452   2.919
 5662SOL    HW217886   3.248   5.443   2.923
 5663SOL     OW17887   2.452   3.346   0.071
 5663SOL    HW117888   2.409   3.286   0.139
 5663SOL    HW217889   2.468   3.294   7.011
 5664SOL     OW17890   6.622   4.249   4.535
 5664SOL    HW117891   6.552   4.320   4.529
 5664SOL    HW217892   6.712   4.289   4.521
 5665SOL     OW17893   1.845   1.773   0.346
 5665SOL    HW117894   1.784   1.779   0.425
 5665SOL    HW217895   1.811   1.704   0.282
 5666SOL     OW17896   5.864   5.824   1.870
 5666SOL    HW117897   5.888   5.826   1.968
 5666SOL    HW217898   5.791   5.890   1.853
 5667SOL     OW17899   1.118   5.032   4.327
 5667SOL    HW117900   1.037   5.061   4.378
 5667SOL    HW217901   1.193   5.097   4.343
 5668SOL     OW17902   5.298   1.966   4.924
 5668SOL    HW117903   5.247   2.000   5.003
 5668SOL    HW217904   5.385   1.927   4.956
 5669SOL     OW17905   0.340   3.149   6.928
 5669SOL    HW117906   0.302   3.064   6.891
 5669SOL    HW217907   0.426   3.130   6.976
 5670SOL     OW17908   6.800   2.613   3.813
 5670SOL    HW117909   6.758   2.544   3.872
 5670SOL    HW217910   6.762   2.703   3.835
 5671SOL     OW17911   0.254   6.099   0.057
 5671SOL    HW117912   0.213   6.031   0.117
 5671SOL    HW217913   0.343   6.065   0.024
 5672SOL     OW17914   4.316   4.917   6.168
 5672SOL    HW117915   4.414   4.911   6.191
 5672SOL    HW217916   4.262   4.893   6.249
 5673SOL     OW17917   0.807   6.743   2.102
 5673SOL    HW117918   0.775   6.692   2.022
 5673SOL    HW217919   0.866   6.685   2.158
 5674SOL     OW17920   0.139   5.120   5.088
 5674SOL    HW117921   0.064   5.180   5.063
 5674SOL    HW217922   0.102   5.031   5.115
 5675SOL     OW17923   4.043   1.989   5.533
 5675SOL    HW117924   3.975   1.973   5.605
 5675SOL    HW217925   4.134   1.991   5.573
 5676SOL     OW17926   1.552   2.850   2.268
 5676SOL    HW117927   1.492   2.843   2.348
 5676SOL    HW217928   1.640   2.807   2.289
 5677SOL     OW17929   6.983   1.070   1.340
 5677SOL    HW117930   0.039   1.066   1.281
 5677SOL    HW217931   6.981   0.990   1.399
 5678SOL     OW17932   3.999   6.649   2.865
 5678SOL    HW117933   4.059   6.614   2.793
 5678SOL    HW217934   4.024   6.608   2.952
 5679SOL     OW17935   1.085   1.344   4.103
 5679SOL    HW117936   1.067   1.258   4.150
 5679SOL    HW217937   1.085   1.328   4.004
 5680SOL     OW17938   1.494   5.217   6.457
 5680SOL    HW117939   1.451   5.288   6.512
 5680SOL    HW217940   1.546   5.260   6.383
 5681SOL     OW17941   0.391   4.740   0.246
 5681SOL    HW117942   0.425   4.664   0.303
 5681SOL    HW217943   0.347   4.808   0.305
 5682SOL     OW17944   2.468   4.071   5.580
 5682SOL    HW117945   2.412   3.996   5.544
 5682SOL    HW217946   2.560   4.037   5.599
 5683SOL     OW17947   3.932   0.656   6.499
 5683SOL    HW117948   3.898   0.744   6.532
 5683SOL    HW217949   4.031   0.663   6.484
 5684SOL     OW17950   2.890   3.544   5.568
 5684SOL    HW117951   2.800   3.576   5.597
 5684SOL    HW217952   2.898   3.549   5.469
 5685SOL     OW17953   1.381   3.110   2.237
 5685SOL    HW117954   1.448   3.128   2.165
 5685SOL    HW217955   1.422   3.050   2.306
 5686SOL     OW17956   3.100   0.912   5.836
 5686SOL    HW117957   3.018   0.968   5.841
 5686SOL    HW217958   3.180   0.968   5.856
 5687SOL     OW17959   0.336   4.697   6.445
 5687SOL    HW117960   0.396   4.623   6.415
 5687SOL    HW217961   0.260   4.659   6.497
 5688SOL     OW17962   0.433   2.218   0.899
 5688SOL    HW117963   0.503   2.285   0.875
 5688SOL    HW217964   0.431   2.205   0.998
 5689SOL     OW17965   4.003   1.521   1.032
 5689SOL    HW117966   3.999   1.602   0.972
 5689SOL    HW217967   3.922   1.519   1.091
 5690SOL     OW17968   2.340   5.877   0.527
 5690SOL    HW117969   2.439   5.888   0.539
 5690SOL    HW217970   2.297   5.967   0.525
 5691SOL     OW17971   2.999   0.207   1.995
 5691SOL    HW117972   2.944   0.123   1.989
 5691SOL    HW217973   3.093   0.187   1.969
 5692SOL     OW17974   5.960   3.156   0.390
 5692SOL    HW117975   6.055   3.125   0.392
 5692SOL    HW217976   5.936   3.186   0.298
 5693SOL     OW17977   5.698   2.240   2.397
 5693SOL    HW117978   5.628   2.308   2.420
 5693SOL    HW217979   5.720   2.246   2.300
 5694SOL     OW17980   0.391   1.982   3.356
 5694SOL    HW117981   0.436   1.923   3.423
 5694SOL    HW217982   0.362   1.928   3.277
 5695SOL     OW17983   1.038   2.784   2.874
 5695SOL    HW117984   1.064   2.762   2.968
 5695SOL    HW217985   1.095   2.860   2.841
 5696SOL     OW17986   1.243   1.132   2.921
 5696SOL    HW117987   1.173   1.145   2.850
 5696SOL    HW217988   1.242   1.038   2.953
 5697SOL     OW17989   5.882   2.526   1.785
 5697SOL    HW117990   5.821   2.583   1.839
 5697SOL    HW217991   5.841   2.435   1.773
 5698SOL     OW17992   0.822   3.660   3.397
 5698SOL    HW117993   0.738   3.706   3.369
 5698SOL    HW217994   0.897   3.726   3.401
 5699SOL     OW17995   0.249   2.242   3.292
 5699SOL    HW117996   0.338   2.285   3.305
 5699SOL    HW217997   0.258   2.143   3.302
 5700SOL     OW17998   0.217   7.022   4.261
 5700SOL    HW117999   0.252   6.988   4.174
 5700SOL    HW218000   0.164   0.081   4.245
 5701SOL     OW18001   1.675   0.771   2.311
 5701SOL    HW118002   1.770   0.749   2.289
 5701SOL    HW218003   1.658   0.755   2.408
 5702SOL     OW18004   2.601   6.044   4.966
 5702SOL    HW118005   2.559   5.963   5.007
 5702SOL    HW218006   2.562   6.127   5.007
 5703SOL     OW18007   6.383   4.601   1.306
 5703SOL    HW118008   6.343   4.624   1.395
 5703SOL    HW218009   6.392   4.684   1.251
 5704SOL     OW18010   4.428   4.611   2.487
 5704SOL    HW118011   4.423   4.525   2.438
 5704SOL    HW218012   4.342   4.627   2.535
 5705SOL     OW18013   5.058   0.870   0.857
 5705SOL    HW118014   5.011   0.958   0.867
 5705SOL    HW218015   5.093   0.861   0.764
 5706SOL     OW18016   6.705   3.792   0.574
 5706SOL    HW118017   6.779   3.790   0.641
 5706SOL    HW218018   6.744   3.805   0.482
 5707SOL     OW18019   0.350   6.673   0.491
 5707SOL    HW118020   0.365   6.720   0.404
 5707SOL    HW218021   0.255   6.643   0.497
 5708SOL     OW18022   5.256   6.305   1.331
 5708SOL    HW118023   5.229   6.213   1.302
 5708SOL    HW218024   5.175   6.363   1.337
 5709SOL     OW18025   1.566   6.655   2.359
 5709SOL    HW118026   1.560   6.578   2.294
 5709SOL    HW218027   1.656   6.698   2.350
 5710SOL     OW18028   2.842   2.717   0.252
 5710SOL    HW118029   2.905   2.649   0.289
 5710SOL    HW218030   2.761   2.723   0.310
 5711SOL     OW18031   5.024   1.312   2.657
 5711SOL    HW118032   4.976   1.227   2.634
 5711SOL    HW218033   5.106   1.290   2.710
 5712SOL     OW18034   0.287   6.167   6.450
 5712SOL    HW118035   0.268   6.250   6.398
 5712SOL    HW218036   0.352   6.187   6.523
 5713SOL     OW18037   2.793   2.954   1.617
 5713SOL    HW118038   2.849   2.874   1.639
 5713SOL    HW218039   2.845   3.016   1.559
 5714SOL     OW18040   0.490   5.935   0.030
 5714SOL    HW118041   0.508   5.995   0.108
 5714SOL    HW218042   0.516   5.841   0.053
 5715SOL     OW18043   0.554   6.589   3.840
 5715SOL    HW118044   0.505   6.668   3.804
 5715SOL    HW218045   0.541   6.584   3.939
 5716SOL     OW18046   1.471   4.058   6.843
 5716SOL    HW118047   1.520   3.976   6.813
 5716SOL    HW218048   1.536   4.126   6.875
 5717SOL     OW18049   2.165   5.680   0.518
 5717SOL    HW118050   2.230   5.754   0.500
 5717SOL    HW218051   2.073   5.710   0.494
 5718SOL     OW18052   0.309   2.382   5.854
 5718SOL    HW118053   0.383   2.362   5.790
 5718SOL    HW218054   0.221   2.375   5.806
 5719SOL     OW18055   3.076   1.494   6.555
 5719SOL    HW118056   3.015   1.508   6.476
 5719SOL    HW218057   3.021   1.468   6.635
 5720SOL     OW18058   1.628   5.437   5.044
 5720SOL    HW118059   1.540   5.471   5.012
 5720SOL    HW218060   1.680   5.512   5.084
 5721SOL     OW18061   0.571   3.884   1.180
 5721SOL    HW118062   0.655   3.917   1.139
 5721SOL    HW218063   0.553   3.935   1.265
 5722SOL     OW18064   6.264   1.600   5.461
 5722SOL    HW118065   6.255   1.593   5.561
 5722SOL    HW218066   6.183   1.562   5.417
 5723SOL     OW18067   4.723   3.600   0.197
 5723SOL    HW118068   4.788   3.549   0.253
 5723SOL    HW218069   4.767   3.626   0.111
 5724SOL     OW18070   5.240   2.998   4.963
 5724SOL    HW118071   5.250   2.902   4.936
 5724SOL    HW218072   5.144   3.024   4.958
 5725SOL     OW18073   5.357   4.787   3.505
 5725SOL    HW118074   5.366   4.780   3.605
 5725SOL    HW218075   5.368   4.883   3.477
 5726SOL     OW18076   0.040   4.568   5.163
 5726SOL    HW118077   6.968   4.550   5.141
 5726SOL    HW218078   0.046   4.607   5.255
 5727SOL     OW18079   6.767   1.086   3.916
 5727SOL    HW118080   6.740   1.000   3.874
 5727SOL    HW218081   6.743   1.162   3.856
 5728SOL     OW18082   3.972   1.205   5.920
 5728SOL    HW118083   3.949   1.283   5.979
 5728SOL    HW218084   3.967   1.233   5.824
 5729SOL     OW18085   1.008   1.118   0.692
 5729SOL    HW118086   1.077   1.118   0.620
 5729SOL    HW218087   0.971   1.210   0.704
 5730SOL     OW18088   4.913   5.468   6.046
 5730SOL    HW118089   4.873   5.457   6.137
 5730SOL    HW218090   5.007   5.435   6.047
 5731SOL     OW18091   0.489   6.878   4.078
 5731SOL    HW118092   0.457   6.846   4.168
 5731SOL    HW218093   0.588   6.863   4.072
 5732SOL     OW18094   6.267   5.274   4.591
 5732SOL    HW118095   6.319   5.237   4.514
 5732SOL    HW218096   6.208   5.348   4.558
 5733SOL     OW18097   3.639   6.829   4.761
 5733SOL    HW118098   3.583   6.747   4.752
 5733SOL    HW218099   3.613   6.878   4.845
 5734SOL     OW18100   0.809   6.904   6.050
 5734SOL    HW118101   0.898   6.947   6.039
 5734SOL    HW218102   0.768   6.889   5.960
 5735SOL     OW18103   3.984   2.113   2.003
 5735SOL    HW118104   3.987   2.044   1.931
 5735SOL    HW218105   3.905   2.173   1.989
 5736SOL     OW18106   5.987   4.303   0.405
 5736SOL    HW118107   6.051   4.226   0.408
 5736SOL    HW218108   5.908   4.282   0.462
 5737SOL     OW18109   4.785   6.285   0.724
 5737SOL    HW118110   4.693   6.280   0.684
 5737SOL    HW218111   4.789   6.362   0.788
 5738SOL     OW18112   2.808   3.200   6.450
 5738SOL    HW118113   2.764   3.139   6.515
 5738SOL    HW218114   2.907   3.185   6.451
 5739SOL     OW18115   1.212   0.778   5.671
 5739SOL    HW118116   1.296   0.824   5.644
 5739SOL    HW218117   1.146   0.845   5.706
 5740SOL     OW18118   4.163   3.622   1.414
 5740SOL    HW118119   4.150   3.719   1.394
 5740SOL    HW218120   4.138   3.567   1.334
 5741SOL     OW18121   0.158   4.077   4.240
 5741SOL    HW118122   0.242   4.132   4.240
 5741SOL    HW218123   0.181   3.983   4.266
 5742SOL     OW18124   4.717   6.683   3.031
 5742SOL    HW118125   4.718   6.765   2.974
 5742SOL    HW218126   4.622   6.651   3.041
 5743SOL     OW18127   2.661   5.281   5.404
 5743SOL    HW118128   2.579   5.335   5.382
 5743SOL    HW218129   2.698   5.243   5.319
 5744SOL     OW18130   5.258   1.641   1.992
 5744SOL    HW118131   5.277   1.591   1.908
 5744SOL    HW218132   5.165   1.676   1.991
 5745SOL     OW18133   1.886   0.886   4.268
 5745SOL    HW118134   1.907   0.927   4.357
 5745SOL    HW218135   1.869   0.789   4.280
 5746SOL     OW18136   5.389   6.555   1.382
 5746SOL    HW118137   5.359   6.462   1.402
 5746SOL    HW218138   5.342   6.588   1.300
 5747SOL     OW18139   0.177   4.458   2.741
 5747SOL    HW118140   0.095   4.489   2.789
 5747SOL    HW218141   0.193   4.362   2.763
 5748SOL     OW18142   1.606   5.975   0.621
 5748SOL    HW118143   1.543   6.017   0.555
 5748SOL    HW218144   1.608   6.029   0.705
 5749SOL     OW18145   1.231   6.553   4.367
 5749SOL    HW118146   1.172   6.473   4.356
 5749SOL    HW218147   1.325   6.523   4.382
 5750SOL     OW18148   6.912   6.030   4.408
 5750SOL    HW118149   6.975   5.952   4.401
 5750SOL    HW218150   6.873   6.049   4.318
 5751SOL     OW18151   2.779   2.333   4.382
 5751SOL    HW118152   2.777   2.372   4.475
 5751SOL    HW218153   2.713   2.258   4.377
 5752SOL     OW18154   6.391   0.621   0.351
 5752SOL    HW118155   6.420   0.590   0.441
 5752SOL    HW218156   6.397   0.546   0.286
 5753SOL     OW18157   3.936   3.007   4.381
 5753SOL    HW118158   3.942   2.918   4.426
 5753SOL    HW218159   3.860   3.006   4.315
 5754SOL     OW18160   6.861   4.960   1.248
 5754SOL    HW118161   6.923   4.985   1.322
 5754SOL    HW218162   6.782   4.912   1.285
 5755SOL     OW18163   2.023   3.563   6.302
 5755SOL    HW118164   1.950   3.497   6.285
 5755SOL    HW218165   2.092   3.555   6.231
 5756SOL     OW18166   6.064   6.869   3.221
 5756SOL    HW118167   6.110   6.952   3.191
 5756SOL    HW218168   6.128   6.809   3.268
 5757SOL     OW18169   6.603   6.755   2.943
 5757SOL    HW118170   6.632   6.804   3.024
 5757SOL    HW218171   6.521   6.798   2.906
 5758SOL     OW18172   2.620   0.678   4.230
 5758SOL    HW118173   2.711   0.648   4.259
 5758SOL    HW218174   2.598   0.765   4.273
 5759SOL     OW18175   5.359   1.698   6.919
 5759SOL    HW118176   5.314   1.711   6.830
 5759SOL    HW218177   5.330   1.771   6.981
 5760SOL     OW18178   0.303   4.480   0.674
 5760SOL    HW118179   0.253   4.459   0.591
 5760SOL    HW218180   0.249   4.454   0.754
 5761SOL     OW18181   5.721   6.629   6.222
 5761SOL    HW118182   5.710   6.676   6.309
 5761SOL    HW218183   5.660   6.669   6.154
 5762SOL     OW18184   4.588   5.817   0.501
 5762SOL    HW118185   4.583   5.726   0.460
 5762SOL    HW218186   4.623   5.882   0.434
 5763SOL     OW18187   0.346   6.933   0.355
 5763SOL    HW118188   0.256   6.967   0.328
 5763SOL    HW218189   0.384   6.992   0.427
 5764SOL     OW18190   5.392   5.191   5.212
 5764SOL    HW118191   5.325   5.214   5.282
 5764SOL    HW218192   5.351   5.201   5.122
 5765SOL     OW18193   6.226   3.198   0.505
 5765SOL    HW118194   6.175   3.281   0.529
 5765SOL    HW218195   6.322   3.221   0.493
 5766SOL     OW18196   2.003   2.514   6.627
 5766SOL    HW118197   2.028   2.609   6.646
 5766SOL    HW218198   1.971   2.506   6.532
 5767SOL     OW18199   2.113   0.967   0.203
 5767SOL    HW118200   2.180   1.031   0.165
 5767SOL    HW218201   2.118   0.881   0.152
 5768SOL     OW18202   0.888   6.391   3.157
 5768SOL    HW118203   0.834   6.475   3.170
 5768SOL    HW218204   0.903   6.376   3.059
 5769SOL     OW18205   2.240   5.701   4.063
 5769SOL    HW118206   2.171   5.752   4.115
 5769SOL    HW218207   2.215   5.604   4.061
 5770SOL     OW18208   5.987   6.780   0.581
 5770SOL    HW118209   6.057   6.846   0.556
 5770SOL    HW218210   5.965   6.788   0.678
 5771SOL     OW18211   1.703   6.926   3.486
 5771SOL    HW118212   1.653   6.893   3.405
 5771SOL    HW218213   1.801   6.920   3.468
 5772SOL     OW18214   5.905   1.929   1.273
 5772SOL    HW118215   5.843   1.923   1.352
 5772SOL    HW218216   5.866   1.991   1.205
 5773SOL     OW18217   4.308   0.939   3.853
 5773SOL    HW118218   4.370   1.014   3.830
 5773SOL    HW218219   4.292   0.939   3.952
 5774SOL     OW18220   2.916   5.328   3.645
 5774SOL    HW118221   2.913   5.419   3.687
 5774SOL    HW218222   2.849   5.323   3.571
 5775SOL     OW18223   1.371   1.232   2.223
 5775SOL    HW118224   1.327   1.143   2.228
 5775SOL    HW218225   1.457   1.225   2.174
 5776SOL     OW18226   0.378   0.414   5.658
 5776SOL    HW118227   0.302   0.413   5.723
 5776SOL    HW218228   0.367   0.339   5.593
 5777SOL     OW18229   6.156   0.174   4.771
 5777SOL    HW118230   6.238   0.175   4.714
 5777SOL    HW218231   6.155   0.256   4.829
 5778SOL     OW18232   1.433   0.653   1.666
 5778SOL    HW118233   1.375   0.575   1.688
 5778SOL    HW218234   1.524   0.620   1.639
 5779SOL     OW18235   4.669   2.161   0.573
 5779SOL    HW118236   4.596   2.161   0.505
 5779SOL    HW218237   4.641   2.108   0.652
 5780SOL     OW18238   5.994   5.100   3.093
 5780SOL    HW118239   5.896   5.080   3.099
 5780SOL    HW218240   6.045   5.015   3.105
 5781SOL     OW18241   6.966   4.125   4.536
 5781SOL    HW118242   0.033   4.101   4.567
 5781SOL    HW218243   6.898   4.072   4.588
 5782SOL     OW18244   0.758   0.999   0.761
 5782SOL    HW118245   0.841   1.042   0.726
 5782SOL    HW218246   0.766   0.900   0.753
 5783SOL     OW18247   1.834   1.001   1.324
 5783SOL    HW118248   1.889   0.992   1.241
 5783SOL    HW218249   1.771   1.078   1.314
 5784SOL     OW18250   0.033   6.264   6.961
 5784SOL    HW118251   0.103   6.213   7.011
 5784SOL    HW218252   0.070   6.292   6.872
 5785SOL     OW18253   1.625   1.727   0.875
 5785SOL    HW118254   1.546   1.709   0.933
 5785SOL    HW218255   1.708   1.694   0.921
 5786SOL     OW18256   0.599   4.320   0.964
 5786SOL    HW118257   0.614   4.345   0.868
 5786SOL    HW218258   0.682   4.340   1.017
 5787SOL     OW18259   3.980   2.617   5.605
 5787SOL    HW118260   3.981   2.655   5.512
 5787SOL    HW218261   4.068   2.573   5.623
 5788SOL     OW18262   2.927   1.554   1.408
 5788SOL    HW118263   2.990   1.620   1.450
 5788SOL    HW218264   2.960   1.461   1.424
 5789SOL     OW18265   3.063   4.232   6.887
 5789SOL    HW118266   3.118   4.221   6.804
 5789SOL    HW218267   3.058   4.144   6.935
 5790SOL     OW18268   0.497   4.610   4.795
 5790SOL    HW118269   0.398   4.614   4.779
 5790SOL    HW218270   0.525   4.686   4.853
 5791SOL     OW18271   3.260   1.773   2.244
 5791SOL    HW118272   3.348   1.809   2.274
 5791SOL    HW218273   3.273   1.687   2.194
 5792SOL     OW18274   5.266   2.471   2.290
 5792SOL    HW118275   5.253   2.570   2.290
 5792SOL    HW218276   5.182   2.426   2.322
 5793SOL     OW18277   6.018   0.562   4.299
 5793SOL    HW118278   5.982   0.479   4.255
 5793SOL    HW218279   6.092   0.599   4.244
 5794SOL     OW18280   2.683   0.478   6.056
 5794SOL    HW118281   2.648   0.568   6.030
 5794SOL    HW218282   2.610   0.410   6.046
 5795SOL     OW18283   0.195   6.180   0.683
 5795SOL    HW118284   0.106   6.225   0.689
 5795SOL    HW218285   0.267   6.247   0.695
 5796SOL     OW18286   4.898   1.267   6.844
 5796SOL    HW118287   4.851   1.179   6.840
 5796SOL    HW218288   4.947   1.283   6.758
 5797SOL     OW18289   5.024   2.201   0.133
 5797SOL    HW118290   4.983   2.151   0.210
 5797SOL    HW218291   5.113   2.161   0.112
 5798SOL     OW18292   6.782   5.269   4.817
 5798SOL    HW118293   6.806   5.179   4.852
 5798SOL    HW218294   6.707   5.261   4.751
 5799SOL     OW18295   6.954   0.517   4.834
 5799SOL    HW118296   7.007   0.433   4.844
 5799SOL    HW218297   6.965   0.552   4.741
 5800SOL     OW18298   0.450   6.928   1.910
 5800SOL    HW118299   0.416   6.835   1.901
 5800SOL    HW218300   0.465   6.950   2.006
 5801SOL     OW18301   1.762   2.105   3.310
 5801SOL    HW118302   1.728   2.196   3.329
 5801SOL    HW218303   1.699   2.057   3.250
 5802SOL     OW18304   6.545   3.039   2.891
 5802SOL    HW118305   6.531   2.964   2.955
 5802SOL    HW218306   6.508   3.124   2.931
 5803SOL     OW18307   1.950   6.126   2.818
 5803SOL    HW118308   2.029   6.171   2.776
 5803SOL    HW218309   1.952   6.028   2.796
 5804SOL     OW18310   0.197   5.337   3.217
 5804SOL    HW118311   0.133   5.413   3.208
 5804SOL    HW218312   0.163   5.274   3.287
 5805SOL     OW18313   1.746   2.901   1.166
 5805SOL    HW118314   1.747   2.825   1.101
 5805SOL    HW218315   1.782   2.870   1.254
 5806SOL     OW18316   6.760   5.750   4.764
 5806SOL    HW118317   6.828   5.824   4.756
 5806SOL    HW218318   6.669   5.789   4.768
 5807SOL     OW18319   1.310   5.103   0.344
 5807SOL    HW118320   1.286   5.195   0.312
 5807SOL    HW218321   1.239   5.039   0.315
 5808SOL     OW18322   0.026   6.356   4.120
 5808SOL    HW118323   0.030   6.394   4.212
 5808SOL    HW218324   0.119   6.330   4.091
 5809SOL     OW18325   6.842   1.404   5.408
 5809SOL    HW118326   6.830   1.479   5.473
 5809SOL    HW218327   6.825   1.437   5.315
 5810SOL     OW18328   5.047   0.871   5.867
 5810SOL    HW118329   5.008   0.956   5.901
 5810SOL    HW218330   4.987   0.795   5.891
 5811SOL     OW18331   3.276   1.239   4.977
 5811SOL    HW118332   3.331   1.196   4.905
 5811SOL    HW218333   3.242   1.170   5.040
 5812SOL     OW18334   5.226   3.226   5.718
 5812SOL    HW118335   5.187   3.314   5.745
 5812SOL    HW218336   5.153   3.160   5.704
 5813SOL     OW18337   2.432   0.735   0.789
 5813SOL    HW118338   2.439   0.664   0.859
 5813SOL    HW218339   2.365   0.708   0.720
 5814SOL     OW18340   6.722   3.244   2.357
 5814SOL    HW118341   6.688   3.252   2.451
 5814SOL    HW218342   6.750   3.150   2.339
 5815SOL     OW18343   3.944   1.532   3.661
 5815SOL    HW118344   3.902   1.497   3.745
 5815SOL    HW218345   3.877   1.588   3.612
 5816SOL     OW18346   4.682   4.568   0.275
 5816SOL    HW118347   4.765   4.515   0.293
 5816SOL    HW218348   4.673   4.640   0.344
 5817SOL     OW18349   6.128   5.019   5.812
 5817SOL    HW118350   6.131   4.955   5.736
 5817SOL    HW218351   6.182   5.100   5.790
 5818SOL     OW18352   6.484   5.423   5.722
 5818SOL    HW118353   6.441   5.375   5.798
 5818SOL    HW218354   6.446   5.515   5.714
 5819SOL     OW18355   3.917   0.037   6.790
 5819SOL    HW118356   3.918   0.107   6.719
 5819SOL    HW218357   3.947   6.974   6.752
 5820SOL     OW18358   4.325   4.901   2.843
 5820SOL    HW118359   4.381   4.871   2.766
 5820SOL    HW218360   4.338   4.839   2.920
 5821SOL     OW18361   6.951   0.800   1.542
 5821SOL    HW118362   6.969   0.769   1.635
 5821SOL    HW218363   7.016   0.757   1.479
 5822SOL     OW18364   1.685   2.455   1.560
 5822SOL    HW118365   1.738   2.537   1.586
 5822SOL    HW218366   1.628   2.426   1.637
 5823SOL     OW18367   2.729   0.460   4.493
 5823SOL    HW118368   2.817   0.452   4.447
 5823SOL    HW218369   2.702   0.371   4.529
 5824SOL     OW18370   0.019   5.874   2.934
 5824SOL    HW118371   6.958   5.915   2.965
 5824SOL    HW218372   0.096   5.929   2.966
 5825SOL     OW18373   0.211   6.921   4.666
 5825SOL    HW118374   0.260   6.873   4.739
 5825SOL    HW218375   0.112   6.909   4.677
 5826SOL     OW18376   6.904   5.699   6.768
 5826SOL    HW118377   6.837   5.659   6.831
 5826SOL    HW218378   6.918   5.638   6.690
 5827SOL     OW18379   1.624   3.724   4.995
 5827SOL    HW118380   1.590   3.810   5.033
 5827SOL    HW218381   1.723   3.719   5.007
 5828SOL     OW18382   5.298   1.872   2.716
 5828SOL    HW118383   5.241   1.800   2.757
 5828SOL    HW218384   5.390   1.836   2.700
 5829SOL     OW18385   1.707   0.200   4.234
 5829SOL    HW118386   1.764   0.225   4.156
 5829SOL    HW218387   1.680   0.104   4.227
 5830SOL     OW18388   5.545   6.986   6.057
 5830SOL    HW118389   5.490   7.023   5.982
 5830SOL    HW218390   5.504   6.901   6.090
 5831SOL     OW18391   1.023   0.934   5.779
 5831SOL    HW118392   1.020   1.022   5.733
 5831SOL    HW218393   1.018   0.947   5.878
 5832SOL     OW18394   3.246   4.692   6.934
 5832SOL    HW118395   3.294   4.724   7.016
 5832SOL    HW218396   3.240   4.592   6.937
 5833SOL     OW18397   4.375   3.670   5.295
 5833SOL    HW118398   4.283   3.680   5.258
 5833SOL    HW218399   4.439   3.649   5.220
 5834SOL     OW18400   0.023   3.513   0.210
 5834SOL    HW118401   0.115   3.508   0.248
 5834SOL    HW218402   0.026   3.490   0.112
 5835SOL     OW18403   5.836   2.409   2.977
 5835SOL    HW118404   5.761   2.360   2.932
 5835SOL    HW218405   5.805   2.501   3.002
 5836SOL     OW18406   3.293   0.387   1.599
 5836SOL    HW118407   3.276   0.386   1.500
 5836SOL    HW218408   3.220   0.439   1.644
 5837SOL     OW18409   3.411   3.576   0.174
 5837SOL    HW118410   3.464   3.649   0.130
 5837SOL    HW218411   3.472   3.507   0.212
 5838SOL     OW18412   2.770   1.703   0.800
 5838SOL    HW118413   2.727   1.645   0.730
 5838SOL    HW218414   2.860   1.664   0.823
 5839SOL     OW18415   0.648   1.995   1.368
 5839SOL    HW118416   0.722   1.929   1.371
 5839SOL    HW218417   0.582   1.975   1.440
 5840SOL     OW18418   1.564   4.381   6.155
 5840SOL    HW118419   1.563   4.481   6.159
 5840SOL    HW218420   1.633   4.351   6.090
 5841SOL     OW18421   4.978   1.473   2.440
 5841SOL    HW118422   4.988   1.425   2.527
 5841SOL    HW218423   4.886   1.512   2.433
 5842SOL     OW18424   4.709   2.812   1.804
 5842SOL    HW118425   4.692   2.903   1.841
 5842SOL    HW218426   4.670   2.805   1.713
 5843SOL     OW18427   1.301   4.402   2.330
 5843SOL    HW118428   1.332   4.496   2.318
 5843SOL    HW218429   1.377   4.345   2.360
 5844SOL     OW18430   1.839   6.180   5.360
 5844SOL    HW118431   1.871   6.262   5.407
 5844SOL    HW218432   1.744   6.192   5.332
 5845SOL     OW18433   0.900   0.541   1.963
 5845SOL    HW118434   0.913   0.445   1.988
 5845SOL    HW218435   0.920   0.553   1.866
 5846SOL     OW18436   6.070   3.497   6.126
 5846SOL    HW118437   6.128   3.550   6.064
 5846SOL    HW218438   5.982   3.479   6.082
 5847SOL     OW18439   2.656   2.325   2.158
 5847SOL    HW118440   2.735   2.363   2.110
 5847SOL    HW218441   2.668   2.227   2.170
 5848SOL     OW18442   1.381   5.373   3.544
 5848SOL    HW118443   1.460   5.364   3.606
 5848SOL    HW218444   1.310   5.308   3.572
 5849SOL     OW18445   1.825   0.323   5.133
 5849SOL    HW118446   1.792   0.249   5.074
 5849SOL    HW218447   1.747   0.370   5.174
 5850SOL     OW18448   6.888   3.428   1.923
 5850SOL    HW118449   6.957   3.499   1.936
 5850SOL    HW218450   6.877   3.377   2.009
 5851SOL     OW18451   5.096   2.976   3.471
 5851SOL    HW118452   5.023   2.950   3.407
 5851SOL    HW218453   5.138   3.062   3.441
 5852SOL     OW18454   5.724   6.193   3.096
 5852SOL    HW118455   5.753   6.206   3.001
 5852SOL    HW218456   5.636   6.146   3.098
 5853SOL     OW18457   3.798   5.172   5.101
 5853SOL    HW118458   3.748   5.129   5.176
 5853SOL    HW218459   3.771   5.268   5.095
 5854SOL     OW18460   4.282   4.260   5.985
 5854SOL    HW118461   4.197   4.226   6.027
 5854SOL    HW218462   4.316   4.192   5.921
 5855SOL     OW18463   1.698   0.926   4.483
 5855SOL    HW118464   1.651   0.847   4.523
 5855SOL    HW218465   1.793   0.926   4.514
 5856SOL     OW18466   1.849   5.609   3.442
 5856SOL    HW118467   1.932   5.623   3.388
 5856SOL    HW218468   1.801   5.529   3.408
 5857SOL     OW18469   6.200   2.934   5.728
 5857SOL    HW118470   6.170   2.898   5.816
 5857SOL    HW218471   6.283   2.989   5.741
 5858SOL     OW18472   2.668   2.384   2.426
 5858SOL    HW118473   2.670   2.361   2.329
 5858SOL    HW218474   2.579   2.423   2.449
 5859SOL     OW18475   6.541   6.340   1.702
 5859SOL    HW118476   6.599   6.313   1.778
 5859SOL    HW218477   6.528   6.262   1.641
 5860SOL     OW18478   0.020   4.333   3.427
 5860SOL    HW118479   0.030   4.362   3.522
 5860SOL    HW218480   0.110   4.323   3.385
 5861SOL     OW18481   5.433   1.490   4.246
 5861SOL    HW118482   5.394   1.438   4.322
 5861SOL    HW218483   5.381   1.471   4.163
 5862SOL     OW18484   5.961   5.729   1.075
 5862SOL    HW118485   5.984   5.653   1.014
 5862SOL    HW218486   5.963   5.697   1.170
 5863SOL     OW18487   3.010   2.029   5.089
 5863SOL    HW118488   3.064   1.954   5.127
 5863SOL    HW218489   3.066   2.112   5.085
 5864SOL     OW18490   3.575   4.057   2.538
 5864SOL    HW118491   3.501   3.994   2.560
 5864SOL    HW218492   3.603   4.045   2.443
 5865SOL     OW18493   6.297   7.004   6.088
 5865SOL    HW118494   6.217   6.955   6.123
 5865SOL    HW218495   6.358   6.940   6.041
 5866SOL     OW18496   3.627   3.915   0.816
 5866SOL    HW118497   3.560   3.844   0.836
 5866SOL    HW218498   3.597   3.968   0.737
 5867SOL     OW18499   2.273   3.517   0.928
 5867SOL    HW118500   2.175   3.500   0.917
 5867SOL    HW218501   2.287   3.612   0.957
 5868SOL     OW18502   1.425   1.667   5.240
 5868SOL    HW118503   1.437   1.761   5.207
 5868SOL    HW218504   1.380   1.669   5.329
 5869SOL     OW18505   1.929   6.636   3.245
 5869SOL    HW118506   1.994   6.707   3.272
 5869SOL    HW218507   1.872   6.611   3.324
 5870SOL     OW18508   4.645   6.798   4.744
 5870SOL    HW118509   4.704   6.802   4.825
 5870SOL    HW218510   4.609   6.890   4.725
 5871SOL     OW18511   3.288   3.206   1.585
 5871SOL    HW118512   3.321   3.232   1.676
 5871SOL    HW218513   3.329   3.119   1.558
 5872SOL     OW18514   4.741   6.745   0.979
 5872SOL    HW118515   4.645   6.718   0.985
 5872SOL    HW218516   4.756   6.826   1.036
 5873SOL     OW18517   3.446   1.059   2.216
 5873SOL    HW118518   3.463   0.965   2.245
 5873SOL    HW218519   3.394   1.107   2.286
 5874SOL     OW18520   2.465   4.865   5.612
 5874SOL    HW118521   2.374   4.827   5.630
 5874SOL    HW218522   2.503   4.823   5.530
 5875SOL     OW18523   4.028   1.426   0.216
 5875SOL    HW118524   4.122   1.421   0.182
 5875SOL    HW218525   4.001   1.336   0.250
 5876SOL     OW18526   3.627   3.130   1.469
 5876SOL    HW118527   3.615   3.199   1.539
 5876SOL    HW218528   3.538   3.108   1.428
 5877SOL     OW18529   0.791   6.721   1.656
 5877SOL    HW118530   0.769   6.817   1.639
 5877SOL    HW218531   0.868   6.715   1.719
 5878SOL     OW18532   6.914   5.590   4.391
 5878SOL    HW118533   6.851   5.555   4.460
 5878SOL    HW218534   6.966   5.515   4.351
 5879SOL     OW18535   1.366   4.172   6.497
 5879SOL    HW118536   1.345   4.134   6.407
 5879SOL    HW218537   1.289   4.156   6.558
 5880SOL     OW18538   4.415   4.358   6.210
 5880SOL    HW118539   4.383   4.311   6.128
 5880SOL    HW218540   4.504   4.400   6.192
 5881SOL     OW18541   1.042   6.768   2.602
 5881SOL    HW118542   1.106   6.843   2.618
 5881SOL    HW218543   0.999   6.779   2.513
 5882SOL     OW18544   0.303   5.366   1.292
 5882SOL    HW118545   0.345   5.448   1.333
 5882SOL    HW218546   0.375   5.308   1.253
 5883SOL     OW18547   0.737   1.139   6.831
 5883SOL    HW118548   0.800   1.134   6.753
 5883SOL    HW218549   0.782   1.103   6.912
 5884SOL     OW18550   3.147   1.567   4.702
 5884SOL    HW118551   3.118   1.663   4.699
 5884SOL    HW218552   3.219   1.552   4.634
 5885SOL     OW18553   0.731   6.836   2.612
 5885SOL    HW118554   0.767   6.831   2.705
 5885SOL    HW218555   0.692   6.747   2.587
 5886SOL     OW18556   0.893   1.956   4.754
 5886SOL    HW118557   0.910   2.015   4.675
 5886SOL    HW218558   0.859   1.867   4.722
 5887SOL     OW18559   2.609   1.911   2.626
 5887SOL    HW118560   2.566   1.916   2.535
 5887SOL    HW218561   2.581   1.827   2.672
 5888SOL     OW18562   3.086   0.949   1.465
 5888SOL    HW118563   3.078   0.890   1.385
 5888SOL    HW218564   3.177   0.990   1.467
 5889SOL     OW18565   1.022   6.746   0.693
 5889SOL    HW118566   0.938   6.699   0.718
 5889SOL    HW218567   1.092   6.678   0.669
 5890SOL     OW18568   2.019   1.115   3.670
 5890SOL    HW118569   1.927   1.097   3.634
 5890SOL    HW218570   2.083   1.047   3.633
 5891SOL     OW18571   3.559   2.856   6.585
 5891SOL    HW118572   3.627   2.827   6.653
 5891SOL    HW218573   3.506   2.777   6.554
 5892SOL     OW18574   1.014   5.542   1.448
 5892SOL    HW118575   1.028   5.443   1.439
 5892SOL    HW218576   1.039   5.587   1.362
 5893SOL     OW18577   2.273   4.051   4.165
 5893SOL    HW118578   2.225   3.966   4.140
 5893SOL    HW218579   2.242   4.081   4.255
 5894SOL     OW18580   6.719   5.327   4.166
 5894SOL    HW118581   6.666   5.318   4.251
 5894SOL    HW218582   6.816   5.320   4.186
 5895SOL     OW18583   5.449   3.837   4.017
 5895SOL    HW118584   5.434   3.785   3.932
 5895SOL    HW218585   5.409   3.787   4.094
 5896SOL     OW18586   4.072   0.620   0.429
 5896SOL    HW118587   4.035   0.639   0.519
 5896SOL    HW218588   3.998   0.613   0.363
 5897SOL     OW18589   4.170   0.698   1.432
 5897SOL    HW118590   4.241   0.645   1.479
 5897SOL    HW218591   4.162   0.666   1.338
 5898SOL     OW18592   2.122   6.440   3.807
 5898SOL    HW118593   2.218   6.454   3.780
 5898SOL    HW218594   2.064   6.505   3.758
 5899SOL     OW18595   5.801   5.886   6.593
 5899SOL    HW118596   5.804   5.981   6.562
 5899SOL    HW218597   5.894   5.850   6.597
 5900SOL     OW18598   6.099   5.515   3.843
 5900SOL    HW118599   6.080   5.606   3.805
 5900SOL    HW218600   6.180   5.477   3.799
 5901SOL     OW18601   2.382   0.666   6.963
 5901SOL    HW118602   2.310   0.715   6.912
 5901SOL    HW218603   2.378   0.693   0.035
 5902SOL     OW18604   6.311   2.340   5.640
 5902SOL    HW118605   6.341   2.430   5.610
 5902SOL    HW218606   6.283   2.286   5.560
 5903SOL     OW18607   5.033   5.177   7.022
 5903SOL    HW118608   4.968   5.123   0.051
 5903SOL    HW218609   5.081   5.241   0.058
 5904SOL     OW18610   1.132   4.374   1.671
 5904SOL    HW118611   1.075   4.345   1.595
 5904SOL    HW218612   1.222   4.331   1.664
 5905SOL     OW18613   6.273   6.313   3.290
 5905SOL    HW118614   6.335   6.347   3.361
 5905SOL    HW218615   6.185   6.360   3.298
 5906SOL     OW18616   3.717   2.104   4.079
 5906SOL    HW118617   3.622   2.100   4.049
 5906SOL    HW218618   3.720   2.127   4.177
 5907SOL     OW18619   1.597   4.967   0.658
 5907SOL    HW118620   1.624   4.881   0.700
 5907SOL    HW218621   1.667   5.037   0.677
 5908SOL     OW18622   0.328   2.730   0.282
 5908SOL    HW118623   0.255   2.736   0.350
 5908SOL    HW218624   0.399   2.667   0.314
 5909SOL     OW18625   6.225   5.357   0.835
 5909SOL    HW118626   6.302   5.303   0.803
 5909SOL    HW218627   6.208   5.338   0.932
 5910SOL     OW18628   0.105   3.754   4.053
 5910SOL    HW118629   0.156   3.723   4.134
 5910SOL    HW218630   0.053   3.677   4.016
 5911SOL     OW18631   6.800   6.247   6.482
 5911SOL    HW118632   6.786   6.162   6.533
 5911SOL    HW218633   6.730   6.313   6.508
 5912SOL     OW18634   6.441   1.447   6.057
 5912SOL    HW118635   6.366   1.450   6.123
 5912SOL    HW218636   6.411   1.402   5.973
 5913SOL     OW18637   5.179   2.962   6.398
 5913SOL    HW118638   5.226   2.917   6.322
 5913SOL    HW218639   5.081   2.965   6.380
 5914SOL     OW18640   1.153   4.482   5.730
 5914SOL    HW118641   1.189   4.572   5.752
 5914SOL    HW218642   1.223   4.413   5.750
 5915SOL     OW18643   4.661   5.496   0.939
 5915SOL    HW118644   4.661   5.555   0.858
 5915SOL    HW218645   4.735   5.523   1.000
 5916SOL     OW18646   5.211   6.877   3.906
 5916SOL    HW118647   5.207   6.973   3.877
 5916SOL    HW218648   5.186   6.819   3.829
 5917SOL     OW18649   2.877   3.553   4.449
 5917SOL    HW118650   2.875   3.598   4.538
 5917SOL    HW218651   2.799   3.583   4.395
 5918SOL     OW18652   1.671   3.570   6.476
 5918SOL    HW118653   1.674   3.472   6.455
 5918SOL    HW218654   1.764   3.604   6.487
 5919SOL     OW18655   3.414   3.342   3.162
 5919SOL    HW118656   3.436   3.288   3.244
 5919SOL    HW218657   3.480   3.322   3.090
 5920SOL     OW18658   4.836   0.993   6.819
 5920SOL    HW118659   4.926   0.950   6.815
 5920SOL    HW218660   4.785   0.957   6.897
 5921SOL     OW18661   3.670   5.662   6.642
 5921SOL    HW118662   3.614   5.622   6.714
 5921SOL    HW218663   3.691   5.593   6.573
 5922SOL     OW18664   5.564   4.926   2.813
 5922SOL    HW118665   5.538   5.005   2.868
 5922SOL    HW218666   5.564   4.844   2.871
 5923SOL     OW18667   6.312   1.520   1.379
 5923SOL    HW118668   6.317   1.488   1.285
 5923SOL    HW218669   6.350   1.613   1.385
 5924SOL     OW18670   6.156   0.148   2.766
 5924SOL    HW118671   6.190   0.153   2.672
 5924SOL    HW218672   6.163   0.053   2.799
 5925SOL     OW18673   4.009   0.073   2.416
 5925SOL    HW118674   3.990   6.999   2.413
 5925SOL    HW218675   4.008   0.104   2.511
 5926SOL     OW18676   4.168   5.409   1.356
 5926SOL    HW118677   4.211   5.359   1.280
 5926SOL    HW218678   4.148   5.502   1.326
 5927SOL     OW18679   1.662   4.016   2.276
 5927SOL    HW118680   1.616   4.097   2.311
 5927SOL    HW218681   1.745   4.044   2.226
 5928SOL     OW18682   4.109   0.270   1.023
 5928SOL    HW118683   4.063   0.352   1.058
 5928SOL    HW218684   4.064   0.240   0.939
 5929SOL     OW18685   0.052   6.923   6.553
 5929SOL    HW118686   6.994   6.867   6.541
 5929SOL    HW218687   0.036   7.013   6.514
 5930SOL     OW18688   6.671   3.588   2.880
 5930SOL    HW118689   6.715   3.612   2.966
 5930SOL    HW218690   6.718   3.510   2.839
 5931SOL     OW18691   0.233   5.497   2.683
 5931SOL    HW118692   0.316   5.444   2.670
 5931SOL    HW218693   0.255   5.595   2.685
 5932SOL     OW18694   3.283   0.182   0.282
 5932SOL    HW118695   3.218   0.224   0.220
 5932SOL    HW218696   3.371   0.171   0.236
 5933SOL     OW18697   0.137   5.462   2.930
 5933SOL    HW118698   0.125   5.363   2.926
 5933SOL    HW218699   0.168   5.496   2.841
 5934SOL     OW18700   3.454   2.912   4.827
 5934SOL    HW118701   3.466   2.826   4.778
 5934SOL    HW218702   3.430   2.894   4.922
 5935SOL     OW18703   5.399   5.341   6.452
 5935SOL    HW118704   5.461   5.311   6.380
 5935SOL    HW218705   5.453   5.382   6.526
 5936SOL     OW18706   3.472   2.575   1.537
 5936SOL    HW118707   3.392   2.564   1.595
 5936SOL    HW218708   3.548   2.613   1.591
 5937SOL     OW18709   6.942   4.212   2.268
 5937SOL    HW118710   6.998   4.237   2.189
 5937SOL    HW218711   7.000   4.208   2.350
 5938SOL     OW18712   0.191   5.691   3.127
 5938SOL    HW118713   0.187   5.620   3.057
 5938SOL    HW218714   0.210   5.779   3.084
 5939SOL     OW18715   2.692   6.476   3.124
 5939SOL    HW118716   2.773   6.429   3.159
 5939SOL    HW218717   2.648   6.527   3.198
 5940SOL     OW18718   4.518   5.603   1.541
 5940SOL    HW118719   4.563   5.517   1.565
 5940SOL    HW218720   4.534   5.622   1.444
 5941SOL     OW18721   6.166   3.013   2.034
 5941SOL    HW118722   6.223   2.951   2.088
 5941SOL    HW218723   6.089   2.962   1.996
 5942SOL     OW18724   5.236   3.875   0.360
 5942SOL    HW118725   5.305   3.947   0.358
 5942SOL    HW218726   5.145   3.916   0.347
 5943SOL     OW18727   3.224   4.581   5.980
 5943SOL    HW118728   3.212   4.673   5.944
 5943SOL    HW218729   3.229   4.516   5.904
 5944SOL     OW18730   6.724   2.825   1.029
 5944SOL    HW118731   6.783   2.750   1.059
 5944SOL    HW218732   6.634   2.789   1.006
 5945SOL     OW18733   6.553   5.261   4.653
 5945SOL    HW118734   6.512   5.304   4.573
 5945SOL    HW218735   6.491   5.192   4.690
 5946SOL     OW18736   3.804   3.370   6.317
 5946SOL    HW118737   3.870   3.295   6.328
 5946SOL    HW218738   3.853   3.457   6.318
 5947SOL     OW18739   3.214   3.498   2.417
 5947SOL    HW118740   3.244   3.419   2.471
 5947SOL    HW218741   3.125   3.479   2.377
 5948SOL     OW18742   4.317   4.707   3.044
 5948SOL    HW118743   4.394   4.657   3.084
 5948SOL    HW218744   4.232   4.677   3.086
 5949SOL     OW18745   5.148   3.676   1.848
 5949SOL    HW118746   5.110   3.767   1.830
 5949SOL    HW218747   5.075   3.608   1.839
 5950SOL     OW18748   4.757   1.150   5.455
 5950SOL    HW118749   4.709   1.086   5.515
 5950SOL    HW218750   4.816   1.098   5.393
 5951SOL     OW18751   1.589   5.873   3.964
 5951SOL    HW118752   1.541   5.793   4.000
 5951SOL    HW218753   1.536   5.913   3.890
 5952SOL     OW18754   5.646   4.820   3.506
 5952SOL    HW118755   5.566   4.762   3.491
 5952SOL    HW218756   5.718   4.767   3.552
 5953SOL     OW18757   6.658   3.278   5.858
 5953SOL    HW118758   6.578   3.286   5.799
 5953SOL    HW218759   6.740   3.301   5.806
 5954SOL     OW18760   6.552   4.728   5.181
 5954SOL    HW118761   6.575   4.814   5.135
 5954SOL    HW218762   6.468   4.691   5.140
 5955SOL     OW18763   4.979   5.699   2.299
 5955SOL    HW118764   4.883   5.672   2.299
 5955SOL    HW218765   4.993   5.776   2.237
 5956SOL     OW18766   4.630   2.009   4.553
 5956SOL    HW118767   4.669   2.039   4.466
 5956SOL    HW218768   4.590   1.918   4.542
 5957SOL     OW18769   3.870   1.009   5.399
 5957SOL    HW118770   3.850   0.997   5.302
 5957SOL    HW218771   3.968   1.028   5.411
 5958SOL     OW18772   5.888   6.312   2.896
 5958SOL    HW118773   5.860   6.368   2.974
 5958SOL    HW218774   5.850   6.351   2.812
 5959SOL     OW18775   4.416   2.767   5.276
 5959SOL    HW118776   4.438   2.828   5.352
 5959SOL    HW218777   4.360   2.692   5.309
 5960SOL     OW18778   4.103   5.494   4.992
 5960SOL    HW118779   4.084   5.396   4.992
 5960SOL    HW218780   4.088   5.531   4.901
 5961SOL     OW18781   5.044   1.769   2.837
 5961SOL    HW118782   5.099   1.805   2.913
 5961SOL    HW218783   5.018   1.674   2.857
 5962SOL     OW18784   5.894   6.524   0.498
 5962SOL    HW118785   5.941   6.509   0.411
 5962SOL    HW218786   5.931   6.607   0.542
 5963SOL     OW18787   4.011   3.760   6.163
 5963SOL    HW118788   4.008   3.662   6.143
 5963SOL    HW218789   3.941   3.782   6.231
 5964SOL     OW18790   0.375   5.501   5.569
 5964SOL    HW118791   0.311   5.578   5.564
 5964SOL    HW218792   0.329   5.422   5.609
 5965SOL     OW18793   1.992   1.819   6.683
 5965SOL    HW118794   2.002   1.721   6.698
 5965SOL    HW218795   1.940   1.859   6.758
 5966SOL     OW18796   2.262   5.924   4.892
 5966SOL    HW118797   2.175   5.882   4.868
 5966SOL    HW218798   2.248   5.990   4.966
 5967SOL     OW18799   3.941   6.790   6.201
 5967SOL    HW118800   3.865   6.727   6.222
 5967SOL    HW218801   4.000   6.797   6.282
 5968SOL     OW18802   4.809   2.417   0.849
 5968SOL    HW118803   4.760   2.369   0.922
 5968SOL    HW218804   4.757   2.411   0.764
 5969SOL     OW18805   6.644   6.934   6.870
 5969SOL    HW118806   6.634   7.020   6.821
 5969SOL    HW218807   6.554   6.900   6.896
 5970SOL     OW18808   0.342   4.207   2.478
 5970SOL    HW118809   0.329   4.299   2.516
 5970SOL    HW218810   0.412   4.159   2.532
 5971SOL     OW18811   0.502   0.899   2.680
 5971SOL    HW118812   0.601   0.900   2.696
 5971SOL    HW218813   0.455   0.858   2.758
 5972SOL     OW18814   5.974   5.480   6.098
 5972SOL    HW118815   5.916   5.412   6.054
 5972SOL    HW218816   5.954   5.570   6.061
 5973SOL     OW18817   1.436   3.565   2.619
 5973SOL    HW118818   1.359   3.628   2.617
 5973SOL    HW218819   1.431   3.508   2.700
 5974SOL     OW18820   5.866   6.158   6.722
 5974SOL    HW118821   5.924   6.153   6.804
 5974SOL    HW218822   5.914   6.118   6.645
 5975SOL     OW18823   4.888   6.943   0.509
 5975SOL    HW118824   4.919   0.014   0.509
 5975SOL    HW218825   4.841   6.923   0.424
 5976SOL     OW18826   3.766   2.708   5.977
 5976SOL    HW118827   3.691   2.647   6.004
 5976SOL    HW218828   3.737   2.803   5.989
 5977SOL     OW18829   1.690   6.017   6.498
 5977SOL    HW118830   1.757   5.947   6.526
 5977SOL    HW218831   1.638   5.983   6.420
 5978SOL     OW18832   4.575   5.328   1.635
 5978SOL    HW118833   4.582   5.355   1.731
 5978SOL    HW218834   4.551   5.231   1.629
 5979SOL     OW18835   5.399   0.858   2.960
 5979SOL    HW118836   5.368   0.848   3.054
 5979SOL    HW218837   5.435   0.771   2.927
 5980SOL     OW18838   3.528   3.663   1.147
 5980SOL    HW118839   3.511   3.761   1.159
 5980SOL    HW218840   3.617   3.649   1.103
 5981SOL     OW18841   5.142   2.162   1.486
 5981SOL    HW118842   5.154   2.138   1.583
 5981SOL    HW218843   5.075   2.236   1.479
 5982SOL     OW18844   6.097   3.493   1.931
 5982SOL    HW118845   6.096   3.514   2.029
 5982SOL    HW218846   6.098   3.394   1.918
 5983SOL     OW18847   1.531   1.718   3.879
 5983SOL    HW118848   1.629   1.720   3.859
 5983SOL    HW218849   1.510   1.637   3.934
 5984SOL     OW18850   6.739   5.707   3.631
 5984SOL    HW118851   6.660   5.730   3.687
 5984SOL    HW218852   6.788   5.630   3.673
 5985SOL     OW18853   6.824   2.456   4.347
 5985SOL    HW118854   6.894   2.436   4.279
 5985SOL    HW218855   6.766   2.531   4.315
 5986SOL     OW18856   3.287   3.681   4.813
 5986SOL    HW118857   3.332   3.747   4.753
 5986SOL    HW218858   3.272   3.722   4.903
 5987SOL     OW18859   5.404   0.062   3.767
 5987SOL    HW118860   5.306   0.081   3.762
 5987SOL    HW218861   5.444   0.068   3.675
 5988SOL     OW18862   4.648   0.174   5.686
 5988SOL    HW118863   4.716   0.101   5.683
 5988SOL    HW218864   4.678   0.245   5.749
 5989SOL     OW18865   2.303   6.086   6.534
 5989SOL    HW118866   2.355   6.162   6.495
 5989SOL    HW218867   2.364   6.008   6.548
 5990SOL     OW18868   3.850   3.547   0.791
 5990SOL    HW118869   3.950   3.557   0.787
 5990SOL    HW218870   3.815   3.520   0.702
 5991SOL     OW18871   3.670   5.025   6.673
 5991SOL    HW118872   3.584   5.009   6.721
 5991SOL    HW218873   3.688   5.124   6.669
 5992SOL     OW18874   3.606   0.625   2.055
 5992SOL    HW118875   3.581   0.704   2.000
 5992SOL    HW218876   3.604   0.543   1.997
 5993SOL     OW18877   3.574   5.086   5.906
 5993SOL    HW118878   3.477   5.071   5.926
 5993SOL    HW218879   3.597   5.181   5.924
 5994SOL     OW18880   5.963   2.704   2.106
 5994SOL    HW118881   5.975   2.742   2.015
 5994SOL    HW218882   5.901   2.762   2.159
 5995SOL     OW18883   4.814   3.938   2.576
 5995SOL    HW118884   4.764   3.981   2.652
 5995SOL    HW218885   4.830   3.842   2.597
 5996SOL     OW18886   1.238   6.111   1.473
 5996SOL    HW118887   1.311   6.152   1.418
 5996SOL    HW218888   1.261   6.016   1.495
 5997SOL     OW18889   0.286   5.944   3.059
 5997SOL    HW118890   0.279   5.993   2.972
 5997SOL    HW218891   0.298   6.010   3.133
 5998SOL     OW18892   6.049   1.224   3.112
 5998SOL    HW118893   6.053   1.288   3.035
 5998SOL    HW218894   6.078   1.270   3.196
 5999SOL     OW18895   2.111   2.133   2.024
 5999SOL    HW118896   2.136   2.116   1.929
 5999SOL    HW218897   2.193   2.160   2.076
 6000SOL     OW18898   3.205   0.092   0.793
 6000SOL    HW118899   3.126   0.089   0.732
 6000SOL    HW218900   3.239   0.186   0.799
 6001SOL     OW18901   0.680   4.039   6.896
 6001SOL    HW118902   0.746   3.975   6.938
 6001SOL    HW218903   0.591   4.029   6.940
 6002SOL     OW18904   5.796   1.339   0.736
 6002SOL    HW118905   5.894   1.360   0.742
 6002SOL    HW218906   5.761   1.318   0.828
 6003SOL     OW18907   5.763   1.877   4.747
 6003SOL    HW118908   5.751   1.819   4.827
 6003SOL    HW218909   5.713   1.962   4.760
 6004SOL     OW18910   6.748   3.866   2.778
 6004SOL    HW118911   6.749   3.808   2.860
 6004SOL    HW218912   6.814   3.832   2.712
 6005SOL     OW18913   4.652   5.636   4.078
 6005SOL    HW118914   4.603   5.697   4.140
 6005SOL    HW218915   4.713   5.690   4.020
 6006SOL     OW18916   2.614   1.028   5.430
 6006SOL    HW118917   2.529   1.052   5.477
 6006SOL    HW218918   2.603   1.043   5.332
 6007SOL     OW18919   5.417   4.182   5.541
 6007SOL    HW118920   5.372   4.093   5.534
 6007SOL    HW218921   5.396   4.223   5.629
 6008SOL     OW18922   2.555   4.429   5.471
 6008SOL    HW118923   2.575   4.487   5.550
 6008SOL    HW218924   2.467   4.454   5.432
 6009SOL     OW18925   2.049   0.827   3.209
 6009SOL    HW118926   1.988   0.856   3.136
 6009SOL    HW218927   1.999   0.771   3.275
 6010SOL     OW18928   1.081   4.949   4.057
 6010SOL    HW118929   1.116   5.031   4.012
 6010SOL    HW218930   1.087   4.961   4.156
 6011SOL     OW18931   4.840   2.826   3.553
 6011SOL    HW118932   4.903   2.752   3.530
 6011SOL    HW218933   4.785   2.848   3.473
 6012SOL     OW18934   5.166   0.844   0.314
 6012SOL    HW118935   5.111   0.885   0.386
 6012SOL    HW218936   5.189   0.913   0.246
 6013SOL     OW18937   4.894   2.143   2.734
 6013SOL    HW118938   4.835   2.199   2.793
 6013SOL    HW218939   4.853   2.053   2.721
 6014SOL     OW18940   4.119   3.386   2.706
 6014SOL    HW118941   4.147   3.478   2.678
 6014SOL    HW218942   4.029   3.365   2.668
 6015SOL     OW18943   5.789   3.991   3.777
 6015SOL    HW118944   5.871   4.015   3.725
 6015SOL    HW218945   5.739   4.074   3.801
 6016SOL     OW18946   6.626   1.926   5.507
 6016SOL    HW118947   6.624   1.976   5.593
 6016SOL    HW218948   6.680   1.977   5.440
 6017SOL     OW18949   6.676   4.362   3.319
 6017SOL    HW118950   6.577   4.376   3.315
 6017SOL    HW218951   6.701   4.318   3.405
 6018SOL     OW18952   4.265   0.601   6.689
 6018SOL    HW118953   4.251   0.651   6.604
 6018SOL    HW218954   4.185   0.612   6.748
 6019SOL     OW18955   6.841   1.808   4.225
 6019SOL    HW118956   6.804   1.801   4.318
 6019SOL    HW218957   6.925   1.754   4.219
 6020SOL     OW18958   1.035   4.974   0.412
 6020SOL    HW118959   0.966   5.044   0.423
 6020SOL    HW218960   1.058   4.935   0.501
 6021SOL     OW18961   4.601   0.179   3.372
 6021SOL    HW118962   4.625   0.204   3.466
 6021SOL    HW218963   4.541   0.248   3.333
 6022SOL     OW18964   5.424   2.296   4.022
 6022SOL    HW118965   5.403   2.233   4.096
 6022SOL    HW218966   5.500   2.260   3.967
 6023SOL     OW18967   6.037   1.037   1.783
 6023SOL    HW118968   5.967   0.970   1.804
 6023SOL    HW218969   6.027   1.068   1.688
 6024SOL     OW18970   1.308   4.606   2.931
 6024SOL    HW118971   1.220   4.590   2.888
 6024SOL    HW218972   1.322   4.704   2.943
 6025SOL     OW18973   3.338   1.802   3.326
 6025SOL    HW118974   3.298   1.843   3.243
 6025SOL    HW218975   3.393   1.871   3.374
 6026SOL     OW18976   0.362   4.236   5.342
 6026SOL    HW118977   0.384   4.140   5.328
 6026SOL    HW218978   0.270   4.255   5.308
 6027SOL     OW18979   0.691   3.192   5.909
 6027SOL    HW118980   0.684   3.251   5.989
 6027SOL    HW218981   0.783   3.198   5.870
 6028SOL     OW18982   6.629   5.530   0.329
 6028SOL    HW118983   6.551   5.511   0.269
 6028SOL    HW218984   6.658   5.625   0.318
 6029SOL     OW18985   2.391   6.741   4.863
 6029SOL    HW118986   2.371   6.649   4.830
 6029SOL    HW218987   2.307   6.796   4.860
 6030SOL     OW18988   3.825   5.144   2.269
 6030SOL    HW118989   3.758   5.076   2.238
 6030SOL    HW218990   3.904   5.098   2.308
 6031SOL     OW18991   2.844   5.154   3.878
 6031SOL    HW118992   2.885   5.219   3.814
 6031SOL    HW218993   2.754   5.187   3.906
 6032SOL     OW18994   2.077   4.297   2.656
 6032SOL    HW118995   2.173   4.272   2.656
 6032SOL    HW218996   2.021   4.215   2.665
 6033SOL     OW18997   2.836   2.242   2.614
 6033SOL    HW118998   2.776   2.307   2.567
 6033SOL    HW218999   2.814   2.240   2.711
 6034SOL     OW19000   1.341   6.915   4.923
 6034SOL    HW119001   1.350   6.826   4.966
 6034SOL    HW219002   1.285   6.907   4.841
 6035SOL     OW19003   0.409   0.698   2.379
 6035SOL    HW119004   0.353   0.774   2.411
 6035SOL    HW219005   0.504   0.727   2.371
 6036SOL     OW19006   5.200   4.551   3.408
 6036SOL    HW119007   5.148   4.600   3.339
 6036SOL    HW219008   5.233   4.615   3.477
 6037SOL     OW19009   4.423   5.799   0.186
 6037SOL    HW119010   4.466   5.886   0.211
 6037SOL    HW219011   4.329   5.816   0.156
 6038SOL     OW19012   1.742   2.330   5.588
 6038SOL    HW119013   1.801   2.298   5.514
 6038SOL    HW219014   1.769   2.286   5.674
 6039SOL     OW19015   2.900   3.607   2.503
 6039SOL    HW119016   2.945   3.572   2.421
 6039SOL    HW219017   2.866   3.531   2.558
 6040SOL     OW19018   1.247   1.415   0.428
 6040SOL    HW119019   1.182   1.483   0.394
 6040SOL    HW219020   1.212   1.323   0.408
 6041SOL     OW19021   2.908   0.738   5.013
 6041SOL    HW119022   2.976   0.726   5.086
 6041SOL    HW219023   2.922   0.827   4.969
 6042SOL     OW19024   4.607   6.291   2.508
 6042SOL    HW119025   4.556   6.363   2.461
 6042SOL    HW219026   4.587   6.203   2.464
 6043SOL     OW19027   0.851   4.856   5.663
 6043SOL    HW119028   0.919   4.902   5.606
 6043SOL    HW219029   0.788   4.804   5.606
 6044SOL     OW19030   1.290   2.593   1.339
 6044SOL    HW119031   1.378   2.575   1.381
 6044SOL    HW219032   1.303   2.634   1.249
 6045SOL     OW19033   5.639   3.972   2.450
 6045SOL    HW119034   5.697   4.020   2.515
 6045SOL    HW219035   5.695   3.908   2.397
 6046SOL     OW19036   3.547   2.361   0.414
 6046SOL    HW119037   3.467   2.376   0.356
 6046SOL    HW219038   3.561   2.263   0.429
 6047SOL     OW19039   4.627   1.943   2.163
 6047SOL    HW119040   4.531   1.930   2.137
 6047SOL    HW219041   4.652   2.039   2.151
 6048SOL     OW19042   4.762   5.897   5.158
 6048SOL    HW119043   4.712   5.856   5.082
 6048SOL    HW219044   4.759   5.835   5.237
 6049SOL     OW19045   5.001   3.246   6.967
 6049SOL    HW119046   4.951   3.231   6.882
 6049SOL    HW219047   5.043   3.337   6.966
 6050SOL     OW19048   4.133   5.688   5.178
 6050SOL    HW119049   4.050   5.662   5.228
 6050SOL    HW219050   4.138   5.637   5.093
 6051SOL     OW19051   2.246   0.104   3.537
 6051SOL    HW119052   2.202   0.140   3.455
 6051SOL    HW219053   2.219   0.160   3.616
 6052SOL     OW19054   6.707   0.847   6.970
 6052SOL    HW119055   6.621   0.877   6.929
 6052SOL    HW219056   6.725   0.752   6.944
 6053SOL     OW19057   3.730   1.979   6.742
 6053SOL    HW119058   3.801   2.049   6.732
 6053SOL    HW219059   3.640   2.022   6.747
 6054SOL     OW19060   2.282   3.212   0.276
 6054SOL    HW119061   2.352   3.179   0.340
 6054SOL    HW219062   2.228   3.135   0.243
 6055SOL     OW19063   4.787   0.587   5.143
 6055SOL    HW119064   4.887   0.584   5.151
 6055SOL    HW219065   4.752   0.663   5.197
 6056SOL     OW19066   5.195   3.190   4.392
 6056SOL    HW119067   5.163   3.167   4.300
 6056SOL    HW219068   5.188   3.110   4.451
 6057SOL     OW19069   5.970   2.232   3.678
 6057SOL    HW119070   5.939   2.204   3.768
 6057SOL    HW219071   6.048   2.293   3.687
 6058SOL     OW19072   4.919   3.510   1.726
 6058SOL    HW119073   4.824   3.485   1.705
 6058SOL    HW219074   4.977   3.429   1.715
 6059SOL     OW19075   5.186   4.973   5.037
 6059SOL    HW119076   5.158   4.892   4.985
 6059SOL    HW219077   5.142   5.054   4.997
 6060SOL     OW19078   3.139   3.854   0.322
 6060SOL    HW119079   3.174   3.820   0.409
 6060SOL    HW219080   3.138   3.780   0.255
 6061SOL     OW19081   3.553   2.542   1.299
 6061SOL    HW119082   3.507   2.607   1.238
 6061SOL    HW219083   3.523   2.557   1.393
 6062SOL     OW19084   2.179   0.780   4.955
 6062SOL    HW119085   2.276   0.801   4.969
 6062SOL    HW219086   2.135   0.856   4.908
 6063SOL     OW19087   4.075   2.769   6.116
 6063SOL    HW119088   4.108   2.861   6.134
 6063SOL    HW219089   4.059   2.758   6.018
 6064SOL     OW19090   1.776   6.446   0.684
 6064SOL    HW119091   1.697   6.408   0.635
 6064SOL    HW219092   1.849   6.377   0.687
 6065SOL     OW19093   0.066   6.742   2.182
 6065SOL    HW119094   0.089   6.690   2.100
 6065SOL    HW219095   0.128   6.716   2.257
 6066SOL     OW19096   4.773   1.095   6.117
 6066SOL    HW119097   4.851   1.145   6.080
 6066SOL    HW219098   4.744   1.136   6.203
 6067SOL     OW19099   5.892   0.694   5.318
 6067SOL    HW119100   5.940   0.756   5.379
 6067SOL    HW219101   5.862   0.613   5.369
 6068SOL     OW19102   5.658   3.546   4.515
 6068SOL    HW119103   5.595   3.469   4.522
 6068SOL    HW219104   5.609   3.632   4.528
 6069SOL     OW19105   6.060   3.284   5.771
 6069SOL    HW119106   6.063   3.231   5.686
 6069SOL    HW219107   6.072   3.223   5.849
 6070SOL     OW19108   2.809   2.357   0.501
 6070SOL    HW119109   2.753   2.432   0.537
 6070SOL    HW219110   2.755   2.273   0.501
 6071SOL     OW19111   5.341   5.564   3.965
 6071SOL    HW119112   5.428   5.533   4.003
 6071SOL    HW219113   5.359   5.626   3.888
 6072SOL     OW19114   6.862   0.300   1.606
 6072SOL    HW119115   6.825   0.279   1.515
 6072SOL    HW219116   6.794   0.275   1.676
 6073SOL     OW19117   5.937   3.211   0.126
 6073SOL    HW119118   5.854   3.165   0.095
 6073SOL    HW219119   6.016   3.171   0.081
 6074SOL     OW19120   1.072   6.587   3.294
 6074SOL    HW119121   1.025   6.503   3.264
 6074SOL    HW219122   1.101   6.576   3.389
 6075SOL     OW19123   6.543   1.178   6.207
 6075SOL    HW119124   6.620   1.240   6.191
 6075SOL    HW219125   6.544   1.106   6.138
 6076SOL     OW19126   3.084   5.716   3.915
 6076SOL    HW119127   3.136   5.801   3.905
 6076SOL    HW219128   3.021   5.725   3.993
 6077SOL     OW19129   6.201   5.873   0.984
 6077SOL    HW119130   6.214   5.774   0.998
 6077SOL    HW219131   6.287   5.920   1.000
 6078SOL     OW19132   4.419   5.020   0.366
 6078SOL    HW119133   4.490   5.060   0.424
 6078SOL    HW219134   4.408   4.923   0.388
 6079SOL     OW19135   4.149   3.796   6.447
 6079SOL    HW119136   4.106   3.817   6.359
 6079SOL    HW219137   4.196   3.877   6.482
 6080SOL     OW19138   0.289   0.196   1.263
 6080SOL    HW119139   0.340   0.190   1.349
 6080SOL    HW219140   0.307   0.285   1.221
 6081SOL     OW19141   0.113   3.716   5.640
 6081SOL    HW119142   0.051   3.653   5.591
 6081SOL    HW219143   0.196   3.668   5.666
 6082SOL     OW19144   2.292   1.593   4.054
 6082SOL    HW119145   2.382   1.592   4.097
 6082SOL    HW219146   2.293   1.537   3.971
 6083SOL     OW19147   6.662   5.587   6.870
 6083SOL    HW119148   6.612   5.643   6.936
 6083SOL    HW219149   6.695   5.504   6.914
 6084SOL     OW19150   0.624   0.142   3.975
 6084SOL    HW119151   0.692   0.093   3.920
 6084SOL    HW219152   0.625   0.107   4.068
 6085SOL     OW19153   0.704   5.334   0.551
 6085SOL    HW119154   0.756   5.415   0.522
 6085SOL    HW219155   0.646   5.359   0.628
 6086SOL     OW19156   4.109   0.455   6.004
 6086SOL    HW119157   4.072   0.426   5.916
 6086SOL    HW219158   4.045   0.516   6.049
 6087SOL     OW19159   3.795   5.360   0.760
 6087SOL    HW119160   3.849   5.355   0.844
 6087SOL    HW219161   3.708   5.407   0.779
 6088SOL     OW19162   5.384   5.647   3.713
 6088SOL    HW119163   5.334   5.615   3.633
 6088SOL    HW219164   5.367   5.745   3.726
 6089SOL     OW19165   4.634   3.488   1.718
 6089SOL    HW119166   4.601   3.582   1.721
 6089SOL    HW219167   4.588   3.439   1.644
 6090SOL     OW19168   2.362   5.763   5.235
 6090SOL    HW119169   2.274   5.717   5.223
 6090SOL    HW219170   2.349   5.845   5.291
 6091SOL     OW19171   1.734   1.246   0.227
 6091SOL    HW119172   1.639   1.252   0.258
 6091SOL    HW219173   1.769   1.154   0.243
 6092SOL     OW19174   4.207   6.908   2.978
 6092SOL    HW119175   4.215   7.005   3.002
 6092SOL    HW219176   4.155   6.860   3.048
 6093SOL     OW19177   1.906   3.603   2.011
 6093SOL    HW119178   1.936   3.559   2.096
 6093SOL    HW219179   1.974   3.587   1.939
 6094SOL     OW19180   2.518   6.588   1.470
 6094SOL    HW119181   2.527   6.609   1.372
 6094SOL    HW219182   2.429   6.619   1.503
 6095SOL     OW19183   4.972   3.994   0.312
 6095SOL    HW119184   4.885   3.971   0.268
 6095SOL    HW219185   4.955   4.020   0.407
 6096SOL     OW19186   6.632   6.584   3.672
 6096SOL    HW119187   6.571   6.583   3.593
 6096SOL    HW219188   6.602   6.515   3.738
 6097SOL     OW19189   2.394   6.394   2.453
 6097SOL    HW119190   2.389   6.384   2.552
 6097SOL    HW219191   2.461   6.331   2.416
 6098SOL     OW19192   2.072   1.981   5.042
 6098SOL    HW119193   2.007   1.908   5.064
 6098SOL    HW219194   2.165   1.944   5.043
 6099SOL     OW19195   6.399   6.440   6.950
 6099SOL    HW119196   6.477   6.411   7.005
 6099SOL    HW219197   6.315   6.426   7.002
 6100SOL     OW19198   4.959   5.708   0.084
 6100SOL    HW119199   4.955   5.672   0.177
 6100SOL    HW219200   5.003   5.641   0.024
 6101SOL     OW19201   6.648   2.667   4.327
 6101SOL    HW119202   6.719   2.695   4.391
 6101SOL    HW219203   6.561   2.659   4.375
 6102SOL     OW19204   3.595   6.606   3.627
 6102SOL    HW119205   3.550   6.564   3.705
 6102SOL    HW219206   3.689   6.571   3.619
 6103SOL     OW19207   6.553   2.082   2.435
 6103SOL    HW119208   6.564   1.986   2.410
 6103SOL    HW219209   6.615   2.138   2.381
 6104SOL     OW19210   6.141   0.652   5.206
 6104SOL    HW119211   6.048   0.682   5.230
 6104SOL    HW219212   6.153   0.557   5.233
 6105SOL     OW19213   3.050   6.503   6.128
 6105SOL    HW119214   3.022   6.457   6.212
 6105SOL    HW219215   3.071   6.434   6.058
 6106SOL     OW19216   1.951   4.157   6.202
 6106SOL    HW119217   1.915   4.123   6.115
 6106SOL    HW219218   2.050   4.144   6.204
 6107SOL     OW19219   3.191   5.235   4.183
 6107SOL    HW119220   3.282   5.198   4.169
 6107SOL    HW219221   3.181   5.319   4.129
 6108SOL     OW19222   1.757   3.030   1.951
 6108SOL    HW119223   1.724   3.076   2.034
 6108SOL    HW219224   1.712   3.070   1.871
 6109SOL     OW19225   5.411   2.349   5.298
 6109SOL    HW119226   5.469   2.274   5.264
 6109SOL    HW219227   5.351   2.314   5.369
 6110SOL     OW19228   4.144   4.176   0.715
 6110SOL    HW119229   4.103   4.088   0.689
 6110SOL    HW219230   4.242   4.165   0.726
 6111SOL     OW19231   2.184   4.262   2.321
 6111SOL    HW119232   2.154   4.170   2.295
 6111SOL    HW219233   2.240   4.257   2.404
 6112SOL     OW19234   4.149   0.508   2.666
 6112SOL    HW119235   4.174   0.590   2.716
 6112SOL    HW219236   4.207   0.432   2.696
 6113SOL     OW19237   2.636   1.313   6.069
 6113SOL    HW119238   2.554   1.343   6.118
 6113SOL    HW219239   2.637   1.353   5.977
 6114SOL     OW19240   5.094   5.695   0.918
 6114SOL    HW119241   5.051   5.702   1.008
 6114SOL    HW219242   5.189   5.666   0.929
 6115SOL     OW19243   5.152   0.055   4.170
 6115SOL    HW119244   5.136   0.154   4.166
 6115SOL    HW219245   5.244   0.035   4.136
 6116SOL     OW19246   3.751   0.992   5.979
 6116SOL    HW119247   3.790   1.083   5.994
 6116SOL    HW219248   3.691   0.994   5.899
 6117SOL     OW19249   1.541   1.190   4.138
 6117SOL    HW119250   1.618   1.141   4.099
 6117SOL    HW219251   1.556   1.203   4.236
 6118SOL     OW19252   6.755   0.919   2.474
 6118SOL    HW119253   6.726   1.012   2.498
 6118SOL    HW219254   6.766   0.912   2.375
 6119SOL     OW19255   1.284   3.742   6.703
 6119SOL    HW119256   1.375   3.755   6.663
 6119SOL    HW219257   1.221   3.707   6.634
 6120SOL     OW19258   3.889   6.567   4.653
 6120SOL    HW119259   3.796   6.574   4.617
 6120SOL    HW219260   3.952   6.543   4.580
 6121SOL     OW19261   1.106   3.406   5.302
 6121SOL    HW119262   1.195   3.412   5.346
 6121SOL    HW219263   1.072   3.498   5.281
 6122SOL     OW19264   4.435   5.526   1.087
 6122SOL    HW119265   4.517   5.507   1.034
 6122SOL    HW219266   4.355   5.517   1.029
 6123SOL     OW19267   5.751   0.042   6.781
 6123SOL    HW119268   5.683   7.024   6.721
 6123SOL    HW219269   5.831   7.007   6.788
 6124SOL     OW19270   2.609   6.898   5.904
 6124SOL    HW119271   2.525   6.843   5.913
 6124SOL    HW219272   2.661   6.891   5.989
 6125SOL     OW19273   1.749   5.166   0.743
 6125SOL    HW119274   1.730   5.184   0.839
 6125SOL    HW219275   1.701   5.233   0.686
 6126SOL     OW19276   1.304   6.997   4.274
 6126SOL    HW119277   1.378   6.930   4.267
 6126SOL    HW219278   1.334   0.058   4.231
 6127SOL     OW19279   3.583   7.023   0.803
 6127SOL    HW119280   3.577   6.944   0.862
 6127SOL    HW219281   3.636   0.071   0.848
 6128SOL     OW19282   5.964   3.832   0.642
 6128SOL    HW119283   5.894   3.792   0.584
 6128SOL    HW219284   6.052   3.789   0.623
 6129SOL     OW19285   6.521   3.359   3.604
 6129SOL    HW119286   6.529   3.264   3.636
 6129SOL    HW219287   6.582   3.417   3.657
 6130SOL     OW19288   6.382   2.544   3.857
 6130SOL    HW119289   6.419   2.554   3.949
 6130SOL    HW219290   6.415   2.619   3.800
 6131SOL     OW19291   0.084   1.179   4.999
 6131SOL    HW119292   0.067   1.204   4.904
 6131SOL    HW219293   0.154   1.108   5.003
 6132SOL     OW19294   4.777   2.431   6.869
 6132SOL    HW119295   4.726   2.345   6.867
 6132SOL    HW219296   4.761   2.482   6.785
 6133SOL     OW19297   1.517   2.607   1.845
 6133SOL    HW119298   1.504   2.568   1.936
 6133SOL    HW219299   1.599   2.663   1.844
 6134SOL     OW19300   3.717   4.215   6.254
 6134SOL    HW119301   3.658   4.137   6.233
 6134SOL    HW219302   3.810   4.183   6.273
 6135SOL     OW19303   0.573   0.609   1.751
 6135SOL    HW119304   0.530   0.699   1.766
 6135SOL    HW219305   0.558   0.552   1.832
 6136SOL     OW19306   0.942   2.563   2.109
 6136SOL    HW119307   0.986   2.598   2.027
 6136SOL    HW219308   1.011   2.520   2.168
 6137SOL     OW19309   6.745   2.633   3.203
 6137SOL    HW119310   6.784   2.605   3.115
 6137SOL    HW219311   6.647   2.617   3.203
 6138SOL     OW19312   3.506   6.676   3.305
 6138SOL    HW119313   3.547   6.738   3.372
 6138SOL    HW219314   3.455   6.604   3.352
 6139SOL     OW19315   1.034   0.029   6.121
 6139SOL    HW119316   1.083   7.000   6.190
 6139SOL    HW219317   0.949   0.065   6.160
 6140SOL     OW19318   0.662   6.333   1.537
 6140SOL    HW119319   0.619   6.301   1.453
 6140SOL    HW219320   0.694   6.427   1.526
 6141SOL     OW19321   6.652   6.519   6.343
 6141SOL    HW119322   6.743   6.496   6.311
 6141SOL    HW219323   6.588   6.447   6.315
 6142SOL     OW19324   1.243   6.267   0.315
 6142SOL    HW119325   1.253   6.310   0.226
 6142SOL    HW219326   1.327   6.217   0.338
 6143SOL     OW19327   6.641   3.725   1.219
 6143SOL    HW119328   6.582   3.690   1.146
 6143SOL    HW219329   6.604   3.812   1.253
 6144SOL     OW19330   5.619   4.619   2.840
 6144SOL    HW119331   5.528   4.653   2.866
 6144SOL    HW219332   5.665   4.583   2.921
 6145SOL     OW19333   5.105   5.045   2.991
 6145SOL    HW119334   5.076   5.119   3.052
 6145SOL    HW219335   5.176   4.991   3.035
 6146SOL     OW19336   2.956   5.746   3.517
 6146SOL    HW119337   2.909   5.713   3.599
 6146SOL    HW219338   2.889   5.783   3.453
 6147SOL     OW19339   1.719   2.616   4.491
 6147SOL    HW119340   1.784   2.568   4.431
 6147SOL    HW219341   1.731   2.715   4.481
 6148SOL     OW19342   5.875   6.665   4.091
 6148SOL    HW119343   5.821   6.742   4.055
 6148SOL    HW219344   5.814   6.597   4.130
 6149SOL     OW19345   2.949   6.067   0.674
 6149SOL    HW119346   2.895   6.026   0.748
 6149SOL    HW219347   2.958   6.002   0.599
 6150SOL     OW19348   4.534   5.702   6.949
 6150SOL    HW119349   4.612   5.649   6.983
 6150SOL    HW219350   4.481   5.737   0.002
 6151SOL     OW19351   5.806   4.279   6.708
 6151SOL    HW119352   5.786   4.353   6.644
 6151SOL    HW219353   5.883   4.225   6.673
 6152SOL     OW19354   5.904   5.018   4.591
 6152SOL    HW119355   5.997   4.996   4.562
 6152SOL    HW219356   5.897   5.116   4.606
 6153SOL     OW19357   5.092   4.662   1.324
 6153SOL    HW119358   5.180   4.672   1.370
 6153SOL    HW219359   5.018   4.686   1.387
 6154SOL     OW19360   6.112   2.148   2.454
 6154SOL    HW119361   6.050   2.101   2.391
 6154SOL    HW219362   6.090   2.122   2.548
 6155SOL     OW19363   1.341   1.990   4.179
 6155SOL    HW119364   1.321   2.072   4.233
 6155SOL    HW219365   1.429   1.953   4.207
 6156SOL     OW19366   4.108   4.430   1.392
 6156SOL    HW119367   4.145   4.360   1.331
 6156SOL    HW219368   4.093   4.390   1.483
 6157SOL     OW19369   0.390   0.487   5.189
 6157SOL    HW119370   0.460   0.428   5.229
 6157SOL    HW219371   0.322   0.431   5.142
 6158SOL     OW19372   3.804   1.693   5.734
 6158SOL    HW119373   3.869   1.621   5.712
 6158SOL    HW219374   3.711   1.659   5.724
 6159SOL     OW19375   4.919   2.816   2.370
 6159SOL    HW119376   5.011   2.776   2.372
 6159SOL    HW219377   4.858   2.762   2.429
 6160SOL     OW19378   5.069   1.314   6.640
 6160SOL    HW119379   5.062   1.238   6.575
 6160SOL    HW219380   5.120   1.389   6.598
 6161SOL     OW19381   4.792   1.426   4.951
 6161SOL    HW119382   4.762   1.363   5.022
 6161SOL    HW219383   4.827   1.510   4.994
 6162SOL     OW19384   0.968   6.039   3.526
 6162SOL    HW119385   1.017   6.119   3.492
 6162SOL    HW219386   1.033   5.970   3.557
 6163SOL     OW19387   6.051   6.856   1.038
 6163SOL    HW119388   6.084   6.946   1.067
 6163SOL    HW219389   6.059   6.792   1.114
 6164SOL     OW19390   4.135   3.230   2.003
 6164SOL    HW119391   4.192   3.184   2.071
 6164SOL    HW219392   4.039   3.208   2.019
 6165SOL     OW19393   4.779   1.192   0.350
 6165SOL    HW119394   4.830   1.208   0.266
 6165SOL    HW219395   4.768   1.094   0.365
 6166SOL     OW19396   5.547   1.401   6.175
 6166SOL    HW119397   5.603   1.414   6.094
 6166SOL    HW219398   5.575   1.466   6.246
 6167SOL     OW19399   1.246   5.095   3.607
 6167SOL    HW119400   1.166   5.141   3.568
 6167SOL    HW219401   1.218   5.006   3.643
 6168SOL     OW19402   0.917   4.136   1.814
 6168SOL    HW119403   0.965   4.148   1.727
 6168SOL    HW219404   0.841   4.200   1.819
 6169SOL     OW19405   1.371   2.120   1.101
 6169SOL    HW119406   1.420   2.072   1.028
 6169SOL    HW219407   1.366   2.217   1.078
 6170SOL     OW19408   0.773   4.212   6.181
 6170SOL    HW119409   0.754   4.307   6.208
 6170SOL    HW219410   0.861   4.208   6.135
 6171SOL     OW19411   0.880   2.834   0.750
 6171SOL    HW119412   0.853   2.822   0.654
 6171SOL    HW219413   0.963   2.782   0.768
 6172SOL     OW19414   1.651   2.909   2.618
 6172SOL    HW119415   1.683   2.993   2.660
 6172SOL    HW219416   1.558   2.889   2.649
 6173SOL     OW19417   6.801   5.540   1.564
 6173SOL    HW119418   6.727   5.578   1.619
 6173SOL    HW219419   6.804   5.440   1.576
 6174SOL     OW19420   5.293   5.233   2.885
 6174SOL    HW119421   5.245   5.154   2.923
 6174SOL    HW219422   5.328   5.209   2.794
 6175SOL     OW19423   4.047   0.570   3.874
 6175SOL    HW119424   3.986   0.498   3.907
 6175SOL    HW219425   4.133   0.566   3.926
 6176SOL     OW19426   5.374   3.893   6.278
 6176SOL    HW119427   5.304   3.918   6.212
 6176SOL    HW219428   5.334   3.837   6.351
 6177SOL     OW19429   5.693   1.265   0.996
 6177SOL    HW119430   5.595   1.251   1.011
 6177SOL    HW219431   5.735   1.291   1.083
 6178SOL     OW19432   4.802   4.884   2.312
 6178SOL    HW119433   4.861   4.846   2.241
 6178SOL    HW219434   4.718   4.920   2.270
 6179SOL     OW19435   6.398   4.731   2.553
 6179SOL    HW119436   6.345   4.656   2.513
 6179SOL    HW219437   6.343   4.778   2.622
 6180SOL     OW19438   3.649   4.363   0.681
 6180SOL    HW119439   3.717   4.406   0.621
 6180SOL    HW219440   3.586   4.433   0.714
 6181SOL     OW19441   4.402   6.671   0.672
 6181SOL    HW119442   4.344   6.598   0.635
 6181SOL    HW219443   4.394   6.752   0.615
 6182SOL     OW19444   5.001   3.438   5.442
 6182SOL    HW119445   4.994   3.502   5.366
 6182SOL    HW219446   5.077   3.464   5.501
 6183SOL     OW19447   1.208   2.595   3.436
 6183SOL    HW119448   1.128   2.654   3.421
 6183SOL    HW219449   1.192   2.507   3.390
 6184SOL     OW19450   2.619   0.023   6.427
 6184SOL    HW119451   2.659   7.003   6.346
 6184SOL    HW219452   2.671   0.106   6.448
 6185SOL     OW19453   0.675   3.673   5.917
 6185SOL    HW119454   0.588   3.711   5.947
 6185SOL    HW219455   0.687   3.690   5.819
 6186SOL     OW19456   0.860   0.485   0.648
 6186SOL    HW119457   0.898   0.408   0.596
 6186SOL    HW219458   0.770   0.508   0.612
 6187SOL     OW19459   5.070   4.311   3.831
 6187SOL    HW119460   5.116   4.223   3.832
 6187SOL    HW219461   5.050   4.341   3.924
 6188SOL     OW19462   2.510   1.477   6.809
 6188SOL    HW119463   2.431   1.487   6.747
 6188SOL    HW219464   2.547   1.385   6.800
 6189SOL     OW19465   4.511   4.782   2.678
 6189SOL    HW119466   4.606   4.815   2.675
 6189SOL    HW219467   4.487   4.741   2.591
 6190SOL     OW19468   1.085   4.025   5.456
 6190SOL    HW119469   1.153   3.959   5.424
 6190SOL    HW219470   1.128   4.115   5.465
 6191SOL     OW19471   3.029   1.882   6.757
 6191SOL    HW119472   3.126   1.857   6.757
 6191SOL    HW219473   2.996   1.886   6.852
 6192SOL     OW19474   3.321   2.214   5.626
 6192SOL    HW119475   3.235   2.250   5.662
 6192SOL    HW219476   3.324   2.229   5.527
 6193SOL     OW19477   4.671   0.227   1.767
 6193SOL    HW119478   4.762   0.258   1.794
 6193SOL    HW219479   4.661   0.235   1.667
 6194SOL     OW19480   1.512   0.365   1.410
 6194SOL    HW119481   1.428   0.388   1.459
 6194SOL    HW219482   1.539   0.271   1.432
 6195SOL     OW19483   4.187   5.867   5.414
 6195SOL    HW119484   4.234   5.946   5.375
 6195SOL    HW219485   4.172   5.798   5.342
 6196SOL     OW19486   5.450   3.076   1.773
 6196SOL    HW119487   5.447   3.146   1.845
 6196SOL    HW219488   5.362   3.075   1.725
 6197SOL     OW19489   3.811   5.082   0.660
 6197SOL    HW119490   3.844   5.051   0.749
 6197SOL    HW219491   3.793   5.181   0.663
 6198SOL     OW19492   3.983   6.932   1.517
 6198SOL    HW119493   4.036   6.892   1.442
 6198SOL    HW219494   3.896   6.884   1.526
 6199SOL     OW19495   1.019   1.565   0.379
 6199SOL    HW119496   0.938   1.510   0.398
 6199SOL    HW219497   1.004   1.619   0.296
 6200SOL     OW19498   0.914   1.098   5.467
 6200SOL    HW119499   0.884   1.159   5.540
 6200SOL    HW219500   1.014   1.095   5.465
 6201SOL     OW19501   0.407   3.952   5.319
 6201SOL    HW119502   0.334   3.911   5.373
 6201SOL    HW219503   0.495   3.934   5.361
 6202SOL     OW19504   4.214   1.448   2.109
 6202SOL    HW119505   4.143   1.475   2.044
 6202SOL    HW219506   4.250   1.358   2.083
 6203SOL     OW19507   6.782   5.439   1.987
 6203SOL    HW119508   6.710   5.509   1.983
 6203SOL    HW219509   6.743   5.353   2.021
 6204SOL     OW19510   7.006   5.349   4.217
 6204SOL    HW119511   0.060   5.310   4.265
 6204SOL    HW219512   0.001   5.353   4.119
 6205SOL     OW19513   6.409   5.555   0.796
 6205SOL    HW119514   6.326   5.501   0.782
 6205SOL    HW219515   6.450   5.531   0.884
 6206SOL     OW19516   5.312   2.240   3.128
 6206SOL    HW119517   5.365   2.161   3.096
 6206SOL    HW219518   5.220   2.236   3.090
 6207SOL     OW19519   1.308   5.316   5.395
 6207SOL    HW119520   1.284   5.313   5.492
 6207SOL    HW219521   1.385   5.256   5.378
 6208SOL     OW19522   5.478   2.920   5.884
 6208SOL    HW119523   5.418   2.970   5.947
 6208SOL    HW219524   5.571   2.955   5.893
 6209SOL     OW19525   3.840   6.144   6.788
 6209SOL    HW119526   3.776   6.098   6.849
 6209SOL    HW219527   3.800   6.151   6.696
 6210SOL     OW19528   5.400   3.644   4.215
 6210SOL    HW119529   5.495   3.613   4.208
 6210SOL    HW219530   5.338   3.567   4.197
 6211SOL     OW19531   2.825   6.034   5.904
 6211SOL    HW119532   2.774   5.969   5.848
 6211SOL    HW219533   2.922   6.008   5.905
 6212SOL     OW19534   2.624   4.674   4.491
 6212SOL    HW119535   2.581   4.618   4.420
 6212SOL    HW219536   2.623   4.624   4.577
 6213SOL     OW19537   6.095   0.558   0.353
 6213SOL    HW119538   6.145   0.478   0.385
 6213SOL    HW219539   6.126   0.640   0.402
 6214SOL     OW19540   4.475   5.434   3.967
 6214SOL    HW119541   4.543   5.436   3.894
 6214SOL    HW219542   4.514   5.475   4.050
 6215SOL     OW19543   4.285   2.262   6.649
 6215SOL    HW119544   4.214   2.253   6.719
 6215SOL    HW219545   4.296   2.359   6.626
 6216SOL     OW19546   6.748   1.182   2.598
 6216SOL    HW119547   6.740   1.234   2.513
 6216SOL    HW219548   6.844   1.172   2.622
 6217SOL     OW19549   0.819   3.521   2.338
 6217SOL    HW119550   0.851   3.608   2.300
 6217SOL    HW219551   0.815   3.529   2.438
 6218SOL     OW19552   4.051   6.640   6.617
 6218SOL    HW119553   4.024   6.554   6.574
 6218SOL    HW219554   4.096   6.699   6.550
 6219SOL     OW19555   1.576   2.127   4.570
 6219SOL    HW119556   1.527   2.087   4.647
 6219SOL    HW219557   1.523   2.202   4.532
 6220SOL     OW19558   2.641   0.920   4.621
 6220SOL    HW119559   2.629   0.955   4.528
 6220SOL    HW219560   2.669   0.995   4.682
 6221SOL     OW19561   5.774   6.849   0.407
 6221SOL    HW119562   5.757   6.769   0.349
 6221SOL    HW219563   5.849   6.830   0.470
 6222SOL     OW19564   1.499   6.304   1.584
 6222SOL    HW119565   1.545   6.324   1.670
 6222SOL    HW219566   1.536   6.363   1.512
 6223SOL     OW19567   1.642   4.605   3.772
 6223SOL    HW119568   1.567   4.561   3.821
 6223SOL    HW219569   1.608   4.685   3.723
 6224SOL     OW19570   3.291   1.546   5.746
 6224SOL    HW119571   3.371   1.595   5.781
 6224SOL    HW219572   3.268   1.580   5.655
 6225SOL     OW19573   4.172   3.349   6.486
 6225SOL    HW119574   4.128   3.401   6.413
 6225SOL    HW219575   4.266   3.326   6.458
 6226SOL     OW19576   0.581   1.785   5.316
 6226SOL    HW119577   0.679   1.796   5.297
 6226SOL    HW219578   0.548   1.703   5.270
 6227SOL     OW19579   3.506   5.104   5.268
 6227SOL    HW119580   3.537   5.030   5.208
 6227SOL    HW219581   3.568   5.110   5.347
 6228SOL     OW19582   0.919   3.501   2.076
 6228SOL    HW119583   0.851   3.477   2.145
 6228SOL    HW219584   0.920   3.432   2.004
 6229SOL     OW19585   0.894   1.813   4.087
 6229SOL    HW119586   0.806   1.838   4.129
 6229SOL    HW219587   0.903   1.858   3.998
 6230SOL     OW19588   0.821   2.112   4.278
 6230SOL    HW119589   0.921   2.109   4.288
 6230SOL    HW219590   0.778   2.067   4.356
 6231SOL     OW19591   6.401   6.607   0.423
 6231SOL    HW119592   6.466   6.656   0.365
 6231SOL    HW219593   6.408   6.509   0.406
 6232SOL     OW19594   6.060   1.383   0.744
 6232SOL    HW119595   6.040   1.379   0.842
 6232SOL    HW219596   6.104   1.470   0.722
 6233SOL     OW19597   6.719   1.924   1.541
 6233SOL    HW119598   6.733   1.910   1.639
 6233SOL    HW219599   6.784   1.868   1.489
 6234SOL     OW19600   6.901   0.554   5.462
 6234SOL    HW119601   6.976   0.508   5.510
 6234SOL    HW219602   6.934   0.640   5.423
 6235SOL     OW19603   0.115   0.011   0.952
 6235SOL    HW119604   0.047   6.969   0.986
 6235SOL    HW219605   0.104   0.022   0.853
 6236SOL     OW19606   0.785   4.340   1.190
 6236SOL    HW119607   0.790   4.240   1.191
 6236SOL    HW219608   0.711   4.371   1.250
 6237SOL     OW19609   3.935   0.426   6.331
 6237SOL    HW119610   3.941   0.494   6.404
 6237SOL    HW219611   3.845   0.430   6.289
 6238SOL     OW19612   4.384   5.394   2.445
 6238SOL    HW119613   4.434   5.430   2.524
 6238SOL    HW219614   4.300   5.349   2.476
 6239SOL     OW19615   3.531   0.714   1.400
 6239SOL    HW119616   3.482   0.756   1.477
 6239SOL    HW219617   3.561   0.785   1.337
 6240SOL     OW19618   2.198   3.885   5.662
 6240SOL    HW119619   2.234   3.916   5.575
 6240SOL    HW219620   2.149   3.799   5.649
 6241SOL     OW19621   3.150   0.557   1.722
 6241SOL    HW119622   3.135   0.650   1.691
 6241SOL    HW219623   3.073   0.528   1.780
 6242SOL     OW19624   3.924   0.610   4.242
 6242SOL    HW119625   3.995   0.671   4.208
 6242SOL    HW219626   3.902   0.542   4.172
 6243SOL     OW19627   6.860   6.742   5.547
 6243SOL    HW119628   6.870   6.680   5.470
 6243SOL    HW219629   6.785   6.806   5.529
 6244SOL     OW19630   5.777   2.900   2.943
 6244SOL    HW119631   5.841   2.918   2.869
 6244SOL    HW219632   5.688   2.941   2.921
 6245SOL     OW19633   1.750   3.637   0.545
 6245SOL    HW119634   1.656   3.604   0.559
 6245SOL    HW219635   1.756   3.681   0.456
 6246SOL     OW19636   1.148   2.113   5.653
 6246SOL    HW119637   1.149   2.213   5.657
 6246SOL    HW219638   1.186   2.083   5.565
 6247SOL     OW19639   0.489   6.106   3.903
 6247SOL    HW119640   0.470   6.114   3.805
 6247SOL    HW219641   0.439   6.028   3.941
 6248SOL     OW19642   3.516   3.757   6.918
 6248SOL    HW119643   3.464   3.840   6.901
 6248SOL    HW219644   3.550   3.758   7.012
 6249SOL     OW19645   7.004   3.758   0.589
 6249SOL    HW119646   0.013   3.844   0.550
 6249SOL    HW219647   0.057   3.707   0.628
 6250SOL     OW19648   6.706   0.376   0.592
 6250SOL    HW119649   6.765   0.373   0.511
 6250SOL    HW219650   6.665   0.466   0.601
 6251SOL     OW19651   3.897   5.860   5.538
 6251SOL    HW119652   3.993   5.867   5.511
 6251SOL    HW219653   3.870   5.764   5.539
 6252SOL     OW19654   2.073   6.279   5.646
 6252SOL    HW119655   1.998   6.342   5.667
 6252SOL    HW219656   2.115   6.306   5.560
 6253SOL     OW19657   2.467   5.027   4.220
 6253SOL    HW119658   2.485   5.122   4.247
 6253SOL    HW219659   2.530   5.001   4.147
 6254SOL     OW19660   5.512   1.336   1.406
 6254SOL    HW119661   5.468   1.392   1.336
 6254SOL    HW219662   5.480   1.242   1.398
 6255SOL     OW19663   2.844   0.642   0.701
 6255SOL    HW119664   2.892   0.557   0.724
 6255SOL    HW219665   2.904   0.701   0.647
 6256SOL     OW19666   3.616   5.131   1.750
 6256SOL    HW119667   3.660   5.215   1.717
 6256SOL    HW219668   3.607   5.135   1.849
 6257SOL     OW19669   4.653   2.443   0.589
 6257SOL    HW119670   4.707   2.499   0.526
 6257SOL    HW219671   4.681   2.348   0.581
 6258SOL     OW19672   2.784   0.771   3.219
 6258SOL    HW119673   2.873   0.729   3.203
 6258SOL    HW219674   2.788   0.867   3.193
 6259SOL     OW19675   1.456   2.276   6.863
 6259SOL    HW119676   1.453   2.180   6.833
 6259SOL    HW219677   1.396   2.288   6.942
 6260SOL     OW19678   3.002   5.555   0.546
 6260SOL    HW119679   2.987   5.509   0.458
 6260SOL    HW219680   3.096   5.587   0.551
 6261SOL     OW19681   4.027   1.440   6.875
 6261SOL    HW119682   4.004   1.348   6.844
 6261SOL    HW219683   3.971   1.464   6.954
 6262SOL     OW19684   2.243   6.104   1.808
 6262SOL    HW119685   2.298   6.177   1.849
 6262SOL    HW219686   2.189   6.059   1.878
 6263SOL     OW19687   6.976   6.980   4.300
 6263SOL    HW119688   6.967   6.966   4.202
 6263SOL    HW219689   0.048   6.967   4.327
 6264SOL     OW19690   2.252   0.352   1.644
 6264SOL    HW119691   2.325   0.372   1.709
 6264SOL    HW219692   2.197   0.434   1.630
 6265SOL     OW19693   3.538   3.838   0.158
 6265SOL    HW119694   3.635   3.825   0.174
 6265SOL    HW219695   3.502   3.904   0.224
 6266SOL     OW19696   4.419   0.626   3.500
 6266SOL    HW119697   4.458   0.610   3.591
 6266SOL    HW219698   4.354   0.553   3.479
 6267SOL     OW19699   2.415   6.853   5.240
 6267SOL    HW119700   2.418   6.820   5.145
 6267SOL    HW219701   2.449   6.946   5.243
 6268SOL     OW19702   2.609   0.557   2.695
 6268SOL    HW119703   2.519   0.526   2.726
 6268SOL    HW219704   2.638   0.636   2.749
 6269SOL     OW19705   0.077   6.651   1.933
 6269SOL    HW119706   0.154   6.622   1.878
 6269SOL    HW219707   0.041   6.737   1.897
 6270SOL     OW19708   1.011   0.663   6.226
 6270SOL    HW119709   1.099   0.616   6.214
 6270SOL    HW219710   1.028   0.757   6.254
 6271SOL     OW19711   5.785   2.524   6.042
 6271SOL    HW119712   5.843   2.446   6.069
 6271SOL    HW219713   5.692   2.508   6.073
 6272SOL     OW19714   0.491   2.471   0.247
 6272SOL    HW119715   0.575   2.446   0.296
 6272SOL    HW219716   0.413   2.424   0.287
 6273SOL     OW19717   0.544   6.320   2.450
 6273SOL    HW119718   0.498   6.366   2.373
 6273SOL    HW219719   0.632   6.283   2.418
 6274SOL     OW19720   3.311   6.586   5.592
 6274SOL    HW119721   3.290   6.595   5.689
 6274SOL    HW219722   3.234   6.541   5.545
 6275SOL     OW19723   2.392   6.449   6.616
 6275SOL    HW119724   2.356   6.537   6.586
 6275SOL    HW219725   2.491   6.447   6.604
 6276SOL     OW19726   2.193   4.573   3.829
 6276SOL    HW119727   2.279   4.539   3.791
 6276SOL    HW219728   2.199   4.671   3.843
 6277SOL     OW19729   4.736   3.363   0.811
 6277SOL    HW119730   4.669   3.316   0.869
 6277SOL    HW219731   4.704   3.361   0.716
 6278SOL     OW19732   4.823   0.195   4.974
 6278SOL    HW119733   4.858   0.189   5.068
 6278SOL    HW219734   4.787   0.287   4.957
 6279SOL     OW19735   3.497   6.354   6.827
 6279SOL    HW119736   3.542   6.430   6.874
 6279SOL    HW219737   3.465   6.384   6.737
 6280SOL     OW19738   0.389   1.212   6.604
 6280SOL    HW119739   0.311   1.251   6.653
 6280SOL    HW219740   0.422   1.131   6.653
 6281SOL     OW19741   0.109   5.018   4.388
 6281SOL    HW119742   0.029   5.035   4.446
 6281SOL    HW219743   0.147   5.105   4.358
 6282SOL     OW19744   6.776   5.041   5.956
 6282SOL    HW119745   6.703   5.028   5.889
 6282SOL    HW219746   6.747   5.005   6.045
 6283SOL     OW19747   0.256   3.702   4.548
 6283SOL    HW119748   0.308   3.728   4.630
 6283SOL    HW219749   0.159   3.697   4.571
 6284SOL     OW19750   1.476   4.896   4.962
 6284SOL    HW119751   1.499   4.918   4.867
 6284SOL    HW219752   1.454   4.981   5.010
 6285SOL     OW19753   7.002   3.407   4.277
 6285SOL    HW119754   6.995   3.404   4.377
 6285SOL    HW219755   6.960   3.491   4.243
 6286SOL     OW19756   6.310   2.419   4.184
 6286SOL    HW119757   6.264   2.443   4.099
 6286SOL    HW219758   6.404   2.454   4.183
 6287SOL     OW19759   3.479   5.105   4.859
 6287SOL    HW119760   3.490   5.122   4.761
 6287SOL    HW219761   3.411   5.033   4.872
 6288SOL     OW19762   4.759   4.575   2.311
 6288SOL    HW119763   4.832   4.521   2.353
 6288SOL    HW219764   4.786   4.671   2.309
 6289SOL     OW19765   2.747   4.808   0.127
 6289SOL    HW119766   2.674   4.741   0.138
 6289SOL    HW219767   2.815   4.774   0.062
 6290SOL     OW19768   6.064   4.996   6.087
 6290SOL    HW119769   6.141   5.041   6.132
 6290SOL    HW219770   6.083   4.989   5.989
 6291SOL     OW19771   3.742   3.686   4.146
 6291SOL    HW119772   3.721   3.627   4.068
 6291SOL    HW219773   3.684   3.768   4.143
 6292SOL     OW19774   1.516   2.037   4.819
 6292SOL    HW119775   1.595   2.013   4.875
 6292SOL    HW219776   1.445   1.967   4.831
 6293SOL     OW19777   4.421   1.784   1.140
 6293SOL    HW119778   4.484   1.741   1.075
 6293SOL    HW219779   4.381   1.713   1.199
 6294SOL     OW19780   3.856   0.103   4.151
 6294SOL    HW119781   3.865   0.109   4.052
 6294SOL    HW219782   3.913   0.173   4.194
 6295SOL     OW19783   5.281   4.606   4.609
 6295SOL    HW119784   5.204   4.544   4.592
 6295SOL    HW219785   5.366   4.553   4.611
 6296SOL     OW19786   6.780   5.472   5.730
 6296SOL    HW119787   6.818   5.516   5.812
 6296SOL    HW219788   6.681   5.482   5.731
 6297SOL     OW19789   5.512   0.472   5.163
 6297SOL    HW119790   5.484   0.392   5.216
 6297SOL    HW219791   5.493   0.456   5.066
 6298SOL     OW19792   1.444   3.627   0.187
 6298SOL    HW119793   1.524   3.653   0.241
 6298SOL    HW219794   1.472   3.577   0.106
 6299SOL     OW19795   6.260   2.341   2.028
 6299SOL    HW119796   6.236   2.421   1.973
 6299SOL    HW219797   6.186   2.274   2.022
 6300SOL     OW19798   6.847   1.511   6.875
 6300SOL    HW119799   6.875   1.603   6.848
 6300SOL    HW219800   6.892   1.444   6.816
 6301SOL     OW19801   3.303   0.060   6.975
 6301SOL    HW119802   3.205   0.057   6.995
 6301SOL    HW219803   3.332   0.155   6.964
 6302SOL     OW19804   1.467   1.447   3.970
 6302SOL    HW119805   1.492   1.366   4.023
 6302SOL    HW219806   1.384   1.488   4.009
 6303SOL     OW19807   0.946   0.924   4.785
 6303SOL    HW119808   1.034   0.880   4.799
 6303SOL    HW219809   0.883   0.897   4.857
 6304SOL     OW19810   3.037   0.775   1.222
 6304SOL    HW119811   2.999   0.868   1.214
 6304SOL    HW219812   3.134   0.777   1.201
 6305SOL     OW19813   6.310   6.674   0.972
 6305SOL    HW119814   6.385   6.720   0.923
 6305SOL    HW219815   6.255   6.742   1.021
 6306SOL     OW19816   0.180   4.082   4.632
 6306SOL    HW119817   0.141   4.054   4.720
 6306SOL    HW219818   0.270   4.041   4.621
 6307SOL     OW19819   3.664   4.111   4.582
 6307SOL    HW119820   3.694   4.186   4.641
 6307SOL    HW219821   3.742   4.075   4.532
 6308SOL     OW19822   2.109   2.487   4.412
 6308SOL    HW119823   2.056   2.559   4.367
 6308SOL    HW219824   2.126   2.512   4.507
 6309SOL     OW19825   6.355   5.646   4.486
 6309SOL    HW119826   6.435   5.648   4.427
 6309SOL    HW219827   6.380   5.609   4.576
 6310SOL     OW19828   1.993   5.846   2.745
 6310SOL    HW119829   2.078   5.793   2.741
 6310SOL    HW219830   1.945   5.839   2.657
 6311SOL     OW19831   5.358   1.948   5.973
 6311SOL    HW119832   5.362   2.044   5.948
 6311SOL    HW219833   5.333   1.893   5.893
 6312SOL     OW19834   0.196   6.357   5.305
 6312SOL    HW119835   0.274   6.329   5.363
 6312SOL    HW219836   0.228   6.420   5.235
 6313SOL     OW19837   0.077   6.102   3.799
 6313SOL    HW119838   0.170   6.086   3.766
 6313SOL    HW219839   0.061   6.049   3.882
 6314SOL     OW19840   4.151   6.872   1.812
 6314SOL    HW119841   4.056   6.858   1.785
 6314SOL    HW219842   4.160   6.963   1.853
 6315SOL     OW19843   2.800   1.872   5.492
 6315SOL    HW119844   2.738   1.919   5.554
 6315SOL    HW219845   2.884   1.925   5.482
 6316SOL     OW19846   5.452   2.305   6.643
 6316SOL    HW119847   5.452   2.206   6.634
 6316SOL    HW219848   5.502   2.346   6.567
 6317SOL     OW19849   4.999   4.993   1.610
 6317SOL    HW119850   5.030   5.079   1.568
 6317SOL    HW219851   5.076   4.930   1.617
 6318SOL     OW19852   4.375   0.194   5.647
 6318SOL    HW119853   4.326   0.107   5.648
 6318SOL    HW219854   4.474   0.177   5.642
 6319SOL     OW19855   6.390   1.521   4.961
 6319SOL    HW119856   6.481   1.504   5.001
 6319SOL    HW219857   6.401   1.557   4.869
 6320SOL     OW19858   6.440   6.473   5.212
 6320SOL    HW119859   6.463   6.376   5.223
 6320SOL    HW219860   6.394   6.487   5.125
 6321SOL     OW19861   4.489   3.634   0.926
 6321SOL    HW119862   4.509   3.614   1.022
 6321SOL    HW219863   4.471   3.549   0.877
 6322SOL     OW19864   1.789   2.385   0.744
 6322SOL    HW119865   1.835   2.473   0.728
 6322SOL    HW219866   1.710   2.378   0.683
 6323SOL     OW19867   2.117   1.829   1.478
 6323SOL    HW119868   2.143   1.812   1.573
 6323SOL    HW219869   2.195   1.866   1.428
 6324SOL     OW19870   4.916   1.123   0.820
 6324SOL    HW119871   4.920   1.222   0.809
 6324SOL    HW219872   4.834   1.088   0.776
 6325SOL     OW19873   1.754   3.239   2.619
 6325SOL    HW119874   1.739   3.329   2.578
 6325SOL    HW219875   1.674   3.214   2.673
 6326SOL     OW19876   5.094   5.021   1.221
 6326SOL    HW119877   5.193   5.029   1.232
 6326SOL    HW219878   5.063   4.936   1.264
 6327SOL     OW19879   0.025   1.316   4.721
 6327SOL    HW119880   0.050   1.408   4.691
 6327SOL    HW219881   6.958   1.317   4.761
 6328SOL     OW19882   3.963   3.991   0.103
 6328SOL    HW119883   3.967   4.045   0.019
 6328SOL    HW219884   3.910   4.040   0.172
 6329SOL     OW19885   1.740   2.637   3.518
 6329SOL    HW119886   1.684   2.617   3.598
 6329SOL    HW219887   1.750   2.736   3.509
 6330SOL     OW19888   5.704   0.090   1.769
 6330SOL    HW119889   5.735   0.121   1.858
 6330SOL    HW219890   5.780   0.094   1.704
 6331SOL     OW19891   6.422   2.891   5.196
 6331SOL    HW119892   6.419   2.969   5.258
 6331SOL    HW219893   6.363   2.910   5.117
 6332SOL     OW19894   0.271   2.624   0.878
 6332SOL    HW119895   0.265   2.710   0.930
 6332SOL    HW219896   0.366   2.591   0.880
 6333SOL     OW19897   4.505   6.770   5.468
 6333SOL    HW119898   4.490   6.834   5.544
 6333SOL    HW219899   4.420   6.759   5.416
 6334SOL     OW19900   2.765   1.202   2.530
 6334SOL    HW119901   2.842   1.141   2.514
 6334SOL    HW219902   2.793   1.297   2.514
 6335SOL     OW19903   4.478   1.004   0.748
 6335SOL    HW119904   4.507   1.074   0.813
 6335SOL    HW219905   4.452   0.921   0.798
 6336SOL     OW19906   1.703   2.348   7.009
 6336SOL    HW119907   1.692   2.301   0.073
 6336SOL    HW219908   1.623   2.330   6.952
 6337SOL     OW19909   4.663   5.015   5.324
 6337SOL    HW119910   4.588   4.957   5.356
 6337SOL    HW219911   4.748   4.987   5.370
 6338SOL     OW19912   3.034   2.040   3.741
 6338SOL    HW119913   2.942   2.045   3.780
 6338SOL    HW219914   3.102   2.060   3.812
 6339SOL     OW19915   0.918   3.954   3.707
 6339SOL    HW119916   0.851   3.971   3.779
 6339SOL    HW219917   0.905   3.861   3.671
 6340SOL     OW19918   1.627   5.010   1.713
 6340SOL    HW119919   1.717   5.054   1.702
 6340SOL    HW219920   1.577   5.057   1.786
 6341SOL     OW19921   6.508   4.006   4.426
 6341SOL    HW119922   6.550   4.059   4.500
 6341SOL    HW219923   6.427   3.959   4.461
 6342SOL     OW19924   2.655   1.038   1.367
 6342SOL    HW119925   2.592   0.965   1.392
 6342SOL    HW219926   2.603   1.119   1.338
 6343SOL     OW19927   4.408   1.132   6.497
 6343SOL    HW119928   4.378   1.147   6.403
 6343SOL    HW219929   4.467   1.051   6.500
 6344SOL     OW19930   4.927   2.015   4.447
 6344SOL    HW119931   4.907   1.973   4.536
 6344SOL    HW219932   4.991   2.091   4.460
 6345SOL     OW19933   5.975   2.666   2.571
 6345SOL    HW119934   5.963   2.571   2.545
 6345SOL    HW219935   5.904   2.722   2.527
 6346SOL     OW19936   6.672   5.578   4.032
 6346SOL    HW119937   6.719   5.505   4.082
 6346SOL    HW219938   6.658   5.551   3.937
 6347SOL     OW19939   1.954   0.507   0.885
 6347SOL    HW119940   2.044   0.481   0.920
 6347SOL    HW219941   1.913   0.431   0.836
 6348SOL     OW19942   1.640   2.846   5.858
 6348SOL    HW119943   1.701   2.796   5.920
 6348SOL    HW219944   1.631   2.941   5.888
 6349SOL     OW19945   1.867   0.288   1.060
 6349SOL    HW119946   1.917   0.336   1.132
 6349SOL    HW219947   1.791   0.236   1.101
 6350SOL     OW19948   0.642   5.380   4.145
 6350SOL    HW119949   0.581   5.395   4.068
 6350SOL    HW219950   0.589   5.355   4.226
 6351SOL     OW19951   6.015   3.027   3.694
 6351SOL    HW119952   5.929   3.075   3.711
 6351SOL    HW219953   6.054   2.998   3.781
 6352SOL     OW19954   2.971   6.826   4.903
 6352SOL    HW119955   2.951   6.906   4.846
 6352SOL    HW219956   2.985   6.855   4.998
 6353SOL     OW19957   0.720   6.288   6.363
 6353SOL    HW119958   0.638   6.336   6.393
 6353SOL    HW219959   0.801   6.333   6.400
 6354SOL     OW19960   2.736   5.071   3.584
 6354SOL    HW119961   2.754   5.167   3.607
 6354SOL    HW219962   2.821   5.027   3.555
 6355SOL     OW19963   2.284   5.276   6.699
 6355SOL    HW119964   2.331   5.205   6.751
 6355SOL    HW219965   2.329   5.364   6.713
 6356SOL     OW19966   4.546   6.070   1.825
 6356SOL    HW119967   4.639   6.091   1.855
 6356SOL    HW219968   4.492   6.154   1.821
 6357SOL     OW19969   6.346   3.439   2.873
 6357SOL    HW119970   6.272   3.400   2.818
 6357SOL    HW219971   6.394   3.509   2.820
 6358SOL     OW19972   6.614   2.599   6.802
 6358SOL    HW119973   6.539   2.640   6.854
 6358SOL    HW219974   6.661   2.670   6.751
 6359SOL     OW19975   6.200   0.672   0.640
 6359SOL    HW119976   6.283   0.728   0.635
 6359SOL    HW219977   6.123   0.723   0.601
 6360SOL     OW19978   1.100   3.998   5.106
 6360SOL    HW119979   1.051   4.018   5.191
 6360SOL    HW219980   1.171   4.067   5.092
 6361SOL     OW19981   1.393   6.898   0.956
 6361SOL    HW119982   1.411   6.900   0.857
 6361SOL    HW219983   1.463   6.844   1.002
 6362SOL     OW19984   0.586   5.669   0.059
 6362SOL    HW119985   0.597   5.602   7.009
 6362SOL    HW219986   0.673   5.679   0.107
 6363SOL     OW19987   2.099   5.439   3.637
 6363SOL    HW119988   2.194   5.468   3.627
 6363SOL    HW219989   2.039   5.517   3.623
 6364SOL     OW19990   2.476   1.505   5.643
 6364SOL    HW119991   2.546   1.553   5.592
 6364SOL    HW219992   2.407   1.570   5.676
 6365SOL     OW19993   5.305   0.334   4.269
 6365SOL    HW119994   5.260   0.419   4.298
 6365SOL    HW219995   5.347   0.290   4.349
 6366SOL     OW19996   0.743   5.525   5.204
 6366SOL    HW119997   0.666   5.496   5.261
 6366SOL    HW219998   0.731   5.621   5.178
 6367SOL     OW19999   4.070   1.422   4.034
 6367SOL    HW120000   4.061   1.481   4.114
 6367SOL    HW220001   4.159   1.438   3.990
 6368SOL     OW20002   3.602   5.134   3.722
 6368SOL    HW120003   3.590   5.131   3.623
 6368SOL    HW220004   3.595   5.229   3.753
 6369SOL     OW20005   2.674   0.212   4.600
 6369SOL    HW120006   2.624   0.137   4.557
 6369SOL    HW220007   2.662   0.208   4.699
 6370SOL     OW20008   0.053   3.099   3.439
 6370SOL    HW120009   0.104   3.181   3.463
 6370SOL    HW220010   6.979   3.117   3.449
 6371SOL     OW20011   5.518   5.187   3.075
 6371SOL    HW120012   5.505   5.230   2.986
 6371SOL    HW220013   5.526   5.258   3.145
 6372SOL     OW20014   2.036   1.360   1.149
 6372SOL    HW120015   2.043   1.353   1.248
 6372SOL    HW220016   2.075   1.278   1.107
 6373SOL     OW20017   4.340   4.758   2.277
 6373SOL    HW120018   4.372   4.705   2.199
 6373SOL    HW220019   4.389   4.731   2.359
 6374SOL     OW20020   4.073   3.142   2.832
 6374SOL    HW120021   4.110   3.066   2.778
 6374SOL    HW220022   4.109   3.229   2.796
 6375SOL     OW20023   0.013   1.949   3.088
 6375SOL    HW120024   0.048   2.042   3.098
 6375SOL    HW220025   0.034   1.916   2.996
 6376SOL     OW20026   4.982   1.998   5.710
 6376SOL    HW120027   5.048   2.066   5.743
 6376SOL    HW220028   4.907   2.044   5.664
 6377SOL     OW20029   0.305   1.262   5.114
 6377SOL    HW120030   0.219   1.267   5.063
 6377SOL    HW220031   0.288   1.228   5.206
 6378SOL     OW20032   4.671   4.425   3.615
 6378SOL    HW120033   4.687   4.327   3.603
 6378SOL    HW220034   4.621   4.460   3.536
 6379SOL     OW20035   1.538   4.428   5.217
 6379SOL    HW120036   1.634   4.425   5.188
 6379SOL    HW220037   1.508   4.523   5.225
 6380SOL     OW20038   0.367   1.527   4.944
 6380SOL    HW120039   0.387   1.515   4.847
 6380SOL    HW220040   0.394   1.445   4.995
 6381SOL     OW20041   3.930   3.040   1.185
 6381SOL    HW120042   3.927   2.988   1.100
 6381SOL    HW220043   3.926   3.138   1.165
 6382SOL     OW20044   3.023   1.674   0.696
 6382SOL    HW120045   3.102   1.727   0.727
 6382SOL    HW220046   3.038   1.577   0.717
 6383SOL     OW20047   2.293   2.839   3.000
 6383SOL    HW120048   2.288   2.933   2.965
 6383SOL    HW220049   2.297   2.841   3.100
 6384SOL     OW20050   6.327   3.928   2.899
 6384SOL    HW120051   6.395   3.963   2.834
 6384SOL    HW220052   6.368   3.856   2.955
 6385SOL     OW20053   7.005   3.633   3.655
 6385SOL    HW120054   6.960   3.704   3.601
 6385SOL    HW220055   0.078   3.654   3.664
 6386SOL     OW20056   2.349   3.611   6.339
 6386SOL    HW120057   2.363   3.549   6.262
 6386SOL    HW220058   2.257   3.597   6.376
 6387SOL     OW20059   6.624   2.197   6.182
 6387SOL    HW120060   6.544   2.200   6.242
 6387SOL    HW220061   6.635   2.105   6.145
 6388SOL     OW20062   4.243   6.621   1.877
 6388SOL    HW120063   4.235   6.596   1.973
 6388SOL    HW220064   4.201   6.710   1.862
 6389SOL     OW20065   0.025   6.008   1.523
 6389SOL    HW120066   6.963   5.979   1.482
 6389SOL    HW220067   0.094   6.021   1.452
 6390SOL     OW20068   0.689   0.730   5.845
 6390SOL    HW120069   0.712   0.729   5.943
 6390SOL    HW220070   0.625   0.805   5.827
 6391SOL     OW20071   1.666   7.015   5.825
 6391SOL    HW120072   1.762   6.996   5.806
 6391SOL    HW220073   1.653   0.007   5.922
 6392SOL     OW20074   3.008   5.723   2.839
 6392SOL    HW120075   3.108   5.727   2.828
 6392SOL    HW220076   2.967   5.698   2.752
 6393SOL     OW20077   0.589   6.110   1.686
 6393SOL    HW120078   0.519   6.064   1.632
 6393SOL    HW220079   0.587   6.208   1.668
 6394SOL     OW20080   2.246   5.158   0.787
 6394SOL    HW120081   2.164   5.120   0.743
 6394SOL    HW220082   2.223   5.186   0.880
 6395SOL     OW20083   0.024   2.556   1.464
 6395SOL    HW120084   0.064   2.638   1.425
 6395SOL    HW220085   0.008   2.569   1.562
 6396SOL     OW20086   5.348   3.276   6.945
 6396SOL    HW120087   5.315   3.189   6.984
 6396SOL    HW220088   5.271   3.326   6.906
 6397SOL     OW20089   5.775   1.603   1.390
 6397SOL    HW120090   5.752   1.699   1.407
 6397SOL    HW220091   5.692   1.547   1.396
 6398SOL     OW20092   3.202   6.587   1.624
 6398SOL    HW120093   3.150   6.653   1.677
 6398SOL    HW220094   3.152   6.564   1.540
 6399SOL     OW20095   1.935   0.138   0.008
 6399SOL    HW120096   2.000   0.099   6.967
 6399SOL    HW220097   1.958   0.105   0.100
 6400SOL     OW20098   2.685   5.495   2.242
 6400SOL    HW120099   2.590   5.504   2.273
 6400SOL    HW220100   2.725   5.412   2.281
 6401SOL     OW20101   5.491   6.215   3.522
 6401SOL    HW120102   5.559   6.148   3.492
 6401SOL    HW220103   5.401   6.172   3.524
 6402SOL     OW20104   2.668   2.400   3.238
 6402SOL    HW120105   2.582   2.435   3.201
 6402SOL    HW220106   2.649   2.327   3.304
 6403SOL     OW20107   6.883   5.228   6.300
 6403SOL    HW120108   6.797   5.193   6.337
 6403SOL    HW220109   6.865   5.277   6.215
 6404SOL     OW20110   4.033   0.678   2.500
 6404SOL    HW120111   4.086   0.611   2.551
 6404SOL    HW220112   4.085   0.710   2.420
 6405SOL     OW20113   3.662   0.296   4.039
 6405SOL    HW120114   3.587   0.240   4.005
 6405SOL    HW220115   3.626   0.368   4.099
 6406SOL     OW20116   0.525   2.932   2.739
 6406SOL    HW120117   0.549   3.008   2.798
 6406SOL    HW220118   0.426   2.933   2.721
 6407SOL     OW20119   2.265   6.836   3.712
 6407SOL    HW120120   2.329   6.901   3.672
 6407SOL    HW220121   2.228   6.872   3.797
 6408SOL     OW20122   5.273   1.216   0.578
 6408SOL    HW120123   5.185   1.172   0.560
 6408SOL    HW220124   5.306   1.189   0.668
 6409SOL     OW20125   6.167   4.340   3.708
 6409SOL    HW120126   6.235   4.410   3.729
 6409SOL    HW220127   6.080   4.364   3.749
 6410SOL     OW20128   1.977   1.507   6.307
 6410SOL    HW120129   1.938   1.596   6.332
 6410SOL    HW220130   2.003   1.507   6.211
 6411SOL     OW20131   0.761   2.983   3.342
 6411SOL    HW120132   0.851   3.008   3.378
 6411SOL    HW220133   0.692   3.045   3.378
 6412SOL     OW20134   1.235   2.253   4.717
 6412SOL    HW120135   1.228   2.154   4.701
 6412SOL    HW220136   1.310   2.272   4.779
 6413SOL     OW20137   3.999   4.857   3.476
 6413SOL    HW120138   4.061   4.811   3.540
 6413SOL    HW220139   3.911   4.872   3.521
 6414SOL     OW20140   6.005   0.812   0.001
 6414SOL    HW120141   5.990   0.727   0.050
 6414SOL    HW220142   5.921   0.838   6.977
 6415SOL     OW20143   2.090   3.380   2.943
 6415SOL    HW120144   2.057   3.474   2.942
 6415SOL    HW220145   2.053   3.330   2.865
 6416SOL     OW20146   1.271   0.866   6.599
 6416SOL    HW120147   1.211   0.945   6.617
 6416SOL    HW220148   1.318   0.840   6.684
 6417SOL     OW20149   5.657   4.970   1.007
 6417SOL    HW120150   5.753   4.987   1.027
 6417SOL    HW220151   5.648   4.921   0.921
 6418SOL     OW20152   4.877   3.560   2.285
 6418SOL    HW120153   4.800   3.592   2.342
 6418SOL    HW220154   4.917   3.639   2.238
 6419SOL     OW20155   1.324   4.682   3.295
 6419SOL    HW120156   1.420   4.697   3.319
 6419SOL    HW220157   1.317   4.637   3.206
 6420SOL     OW20158   2.327   6.255   3.928
 6420SOL    HW120159   2.239   6.295   3.956
 6420SOL    HW220160   2.389   6.328   3.899
 6421SOL     OW20161   4.844   7.022   2.661
 6421SOL    HW120162   4.908   0.074   2.657
 6421SOL    HW220163   4.824   6.990   2.568
 6422SOL     OW20164   6.740   0.694   5.147
 6422SOL    HW120165   6.719   0.613   5.202
 6422SOL    HW220166   6.822   0.738   5.182
 6423SOL     OW20167   5.241   5.236   3.301
 6423SOL    HW120168   5.164   5.182   3.269
 6423SOL    HW220169   5.247   5.321   3.248
 6424SOL     OW20170   0.059   4.898   5.233
 6424SOL    HW120171   0.033   4.831   5.302
 6424SOL    HW220172   0.134   4.955   5.268
 6425SOL     OW20173   6.630   6.156   2.889
 6425SOL    HW120174   6.659   6.248   2.915
 6425SOL    HW220175   6.564   6.161   2.814
 6426SOL     OW20176   1.042   5.096   3.200
 6426SOL    HW120177   1.040   5.098   3.299
 6426SOL    HW220178   1.072   5.006   3.169
 6427SOL     OW20179   3.264   4.102   4.627
 6427SOL    HW120180   3.183   4.049   4.601
 6427SOL    HW220181   3.250   4.198   4.605
 6428SOL     OW20182   5.799   3.219   6.413
 6428SOL    HW120183   5.844   3.180   6.493
 6428SOL    HW220184   5.707   3.248   6.438
 6429SOL     OW20185   0.550   1.752   5.592
 6429SOL    HW120186   0.553   1.779   5.496
 6429SOL    HW220187   0.533   1.653   5.598
 6430SOL     OW20188   5.829   1.294   3.517
 6430SOL    HW120189   5.869   1.214   3.562
 6430SOL    HW220190   5.780   1.266   3.435
 6431SOL     OW20191   4.634   6.572   3.955
 6431SOL    HW120192   4.721   6.622   3.954
 6431SOL    HW220193   4.616   6.537   3.863
 6432SOL     OW20194   4.622   4.556   6.163
 6432SOL    HW120195   4.597   4.583   6.255
 6432SOL    HW220196   4.675   4.629   6.120
 6433SOL     OW20197   1.487   5.467   5.922
 6433SOL    HW120198   1.454   5.541   5.981
 6433SOL    HW220199   1.467   5.379   5.964
 6434SOL     OW20200   2.478   5.555   6.155
 6434SOL    HW120201   2.478   5.597   6.246
 6434SOL    HW220202   2.570   5.524   6.132
 6435SOL     OW20203   5.089   6.562   1.043
 6435SOL    HW120204   5.081   6.632   0.971
 6435SOL    HW220205   5.059   6.474   1.008
 6436SOL     OW20206   1.336   2.660   2.905
 6436SOL    HW120207   1.365   2.577   2.953
 6436SOL    HW220208   1.266   2.707   2.959
 6437SOL     OW20209   2.548   1.283   0.420
 6437SOL    HW120210   2.583   1.233   0.498
 6437SOL    HW220211   2.482   1.352   0.451
 6438SOL     OW20212   6.760   3.906   5.282
 6438SOL    HW120213   6.842   3.850   5.289
 6438SOL    HW220214   6.708   3.899   5.367
 6439SOL     OW20215   5.590   1.601   1.872
 6439SOL    HW120216   5.674   1.570   1.917
 6439SOL    HW220217   5.593   1.576   1.775
 6440SOL     OW20218   2.254   1.662   6.173
 6440SOL    HW120219   2.310   1.586   6.207
 6440SOL    HW220220   2.188   1.688   6.243
 6441SOL     OW20221   6.831   0.015   2.018
 6441SOL    HW120222   6.863   6.974   1.949
 6441SOL    HW220223   6.910   0.061   2.059
 6442SOL     OW20224   2.540   1.187   4.479
 6442SOL    HW120225   2.585   1.269   4.514
 6442SOL    HW220226   2.458   1.214   4.428
 6443SOL     OW20227   3.702   2.207   5.212
 6443SOL    HW120228   3.726   2.136   5.278
 6443SOL    HW220229   3.623   2.177   5.158
 6444SOL     OW20230   5.318   3.535   4.700
 6444SOL    HW120231   5.227   3.571   4.680
 6444SOL    HW220232   5.351   3.482   4.622
 6445SOL     OW20233   3.884   3.135   4.614
 6445SOL    HW120234   3.917   3.082   4.535
 6445SOL    HW220235   3.786   3.121   4.625
 6446SOL     OW20236   1.082   1.256   0.090
 6446SOL    HW120237   1.168   1.221   0.054
 6446SOL    HW220238   1.074   1.354   0.070
 6447SOL     OW20239   5.550   4.971   3.759
 6447SOL    HW120240   5.601   4.955   3.674
 6447SOL    HW220241   5.487   4.895   3.774
 6448SOL     OW20242   4.578   5.811   1.854
 6448SOL    HW120243   4.552   5.906   1.836
 6448SOL    HW220244   4.531   5.751   1.789
 6449SOL     OW20245   3.630   6.245   1.051
 6449SOL    HW120246   3.717   6.199   1.037
 6449SOL    HW220247   3.568   6.222   0.975
 6450SOL     OW20248   1.041   3.928   1.217
 6450SOL    HW120249   1.113   3.868   1.252
 6450SOL    HW220250   1.078   4.020   1.205
 6451SOL     OW20251   2.056   0.492   5.117
 6451SOL    HW120252   1.966   0.447   5.117
 6451SOL    HW220253   2.124   0.429   5.079
 6452SOL     OW20254   4.603   5.328   2.898
 6452SOL    HW120255   4.655   5.250   2.933
 6452SOL    HW220256   4.514   5.331   2.945
 6453SOL     OW20257   2.474   6.134   2.164
 6453SOL    HW120258   2.531   6.211   2.193
 6453SOL    HW220259   2.519   6.087   2.087
 6454SOL     OW20260   0.779   2.436   2.847
 6454SOL    HW120261   0.772   2.519   2.902
 6454SOL    HW220262   0.751   2.455   2.753
 6455SOL     OW20263   0.306   3.379   4.052
 6455SOL    HW120264   0.366   3.302   4.030
 6455SOL    HW220265   0.211   3.351   4.045
 6456SOL     OW20266   1.178   1.441   3.605
 6456SOL    HW120267   1.144   1.527   3.567
 6456SOL    HW220268   1.147   1.365   3.549
 6457SOL     OW20269   5.171   1.561   1.414
 6457SOL    HW120270   5.163   1.466   1.446
 6457SOL    HW220271   5.248   1.568   1.351
 6458SOL     OW20272   1.219   5.680   4.705
 6458SOL    HW120273   1.185   5.678   4.799
 6458SOL    HW220274   1.270   5.765   4.691
 6459SOL     OW20275   6.280   2.863   1.233
 6459SOL    HW120276   6.202   2.917   1.265
 6459SOL    HW220277   6.336   2.918   1.171
 6460SOL     OW20278   5.680   6.183   6.481
 6460SOL    HW120279   5.744   6.211   6.552
 6460SOL    HW220280   5.670   6.256   6.414
 6461SOL     OW20281   2.159   4.363   6.685
 6461SOL    HW120282   2.196   4.337   6.774
 6461SOL    HW220283   2.065   4.330   6.677
 6462SOL     OW20284   2.199   3.155   4.273
 6462SOL    HW120285   2.217   3.062   4.305
 6462SOL    HW220286   2.240   3.169   4.183
 6463SOL     OW20287   5.872   2.564   0.254
 6463SOL    HW120288   5.827   2.515   0.180
 6463SOL    HW220289   5.865   2.662   0.239
 6464SOL     OW20290   1.414   4.749   4.523
 6464SOL    HW120291   1.394   4.691   4.603
 6464SOL    HW220292   1.350   4.727   4.450
 6465SOL     OW20293   6.992   2.884   2.727
 6465SOL    HW120294   6.924   2.954   2.706
 6465SOL    HW220295   6.969   2.840   2.814
 6466SOL     OW20296   0.724   0.967   6.081
 6466SOL    HW120297   0.655   0.982   6.151
 6466SOL    HW220298   0.750   0.870   6.080
 6467SOL     OW20299   4.028   1.143   0.242
 6467SOL    HW120300   3.931   1.126   0.260
 6467SOL    HW220301   4.073   1.057   0.217
 6468SOL     OW20302   2.918   6.878   0.698
 6468SOL    HW120303   2.939   6.785   0.667
 6468SOL    HW220304   2.975   6.943   0.649
 6469SOL     OW20305   4.164   1.957   3.706
 6469SOL    HW120306   4.150   1.961   3.607
 6469SOL    HW220307   4.181   2.049   3.741
 6470SOL     OW20308   5.796   2.692   0.929
 6470SOL    HW120309   5.740   2.634   0.988
 6470SOL    HW220310   5.739   2.733   0.857
 6471SOL     OW20311   0.243   6.349   5.707
 6471SOL    HW120312   0.292   6.414   5.765
 6471SOL    HW220313   0.156   6.389   5.678
 6472SOL     OW20314   0.097   5.884   1.762
 6472SOL    HW120315   0.064   5.912   1.673
 6472SOL    HW220316   0.022   5.842   1.814
 6473SOL     OW20317   2.577   1.772   4.586
 6473SOL    HW120318   2.548   1.860   4.549
 6473SOL    HW220319   2.656   1.738   4.535
 6474SOL     OW20320   3.108   4.928   6.322
 6474SOL    HW120321   3.108   5.013   6.374
 6474SOL    HW220322   3.201   4.892   6.316
 6475SOL     OW20323   6.170   5.232   3.574
 6475SOL    HW120324   6.231   5.306   3.600
 6475SOL    HW220325   6.090   5.270   3.526
 6476SOL     OW20326   4.621   3.879   0.782
 6476SOL    HW120327   4.630   3.965   0.832
 6476SOL    HW220328   4.568   3.814   0.837
 6477SOL     OW20329   5.861   4.503   0.551
 6477SOL    HW120330   5.782   4.519   0.609
 6477SOL    HW220331   5.932   4.456   0.603
 6478SOL     OW20332   3.251   0.533   2.159
 6478SOL    HW120333   3.279   0.456   2.103
 6478SOL    HW220334   3.185   0.503   2.228
 6479SOL     OW20335   4.248   5.114   3.505
 6479SOL    HW120336   4.295   5.073   3.582
 6479SOL    HW220337   4.267   5.062   3.422
 6480SOL     OW20338   3.127   0.960   6.983
 6480SOL    HW120339   3.151   0.877   0.010
 6480SOL    HW220340   3.055   0.939   6.917
 6481SOL     OW20341   3.631   2.033   2.128
 6481SOL    HW120342   3.532   2.048   2.138
 6481SOL    HW220343   3.671   2.111   2.079
 6482SOL     OW20344   6.299   0.780   5.565
 6482SOL    HW120345   6.346   0.781   5.654
 6482SOL    HW220346   6.345   0.715   5.504
 6483SOL     OW20347   1.032   0.075   2.784
 6483SOL    HW120348   0.957   0.099   2.722
 6483SOL    HW220349   1.110   0.043   2.731
 6484SOL     OW20350   3.502   0.084   1.203
 6484SOL    HW120351   3.498   0.033   1.289
 6484SOL    HW220352   3.569   0.041   1.142
 6485SOL     OW20353   2.032   5.021   3.712
 6485SOL    HW120354   2.080   4.939   3.682
 6485SOL    HW220355   1.968   4.997   3.785
 6486SOL     OW20356   1.213   4.046   3.343
 6486SOL    HW120357   1.194   4.035   3.441
 6486SOL    HW220358   1.252   4.137   3.328
 6487SOL     OW20359   0.545   6.441   4.940
 6487SOL    HW120360   0.600   6.477   4.865
 6487SOL    HW220361   0.584   6.354   4.972
 6488SOL     OW20362   3.627   5.808   4.471
 6488SOL    HW120363   3.665   5.821   4.380
 6488SOL    HW220364   3.700   5.779   4.533
 6489SOL     OW20365   2.892   2.991   6.179
 6489SOL    HW120366   2.900   2.894   6.156
 6489SOL    HW220367   2.796   3.016   6.184
 6490SOL     OW20368   3.687   1.395   6.453
 6490SOL    HW120369   3.677   1.494   6.436
 6490SOL    HW220370   3.653   1.373   6.544
 6491SOL     OW20371   3.977   0.936   1.059
 6491SOL    HW120372   3.972   0.837   1.075
 6491SOL    HW220373   4.064   0.958   1.014
 6492SOL     OW20374   4.310   4.761   6.544
 6492SOL    HW120375   4.366   4.806   6.613
 6492SOL    HW220376   4.246   4.698   6.590
 6493SOL     OW20377   1.850   4.274   5.306
 6493SOL    HW120378   1.858   4.369   5.338
 6493SOL    HW220379   1.824   4.274   5.209
 6494SOL     OW20380   6.657   0.206   3.337
 6494SOL    HW120381   6.573   0.256   3.355
 6494SOL    HW220382   6.677   0.208   3.239
 6495SOL     OW20383   6.177   0.291   4.284
 6495SOL    HW120384   6.189   0.338   4.371
 6495SOL    HW220385   6.095   0.235   4.287
 6496SOL     OW20386   6.191   1.416   3.377
 6496SOL    HW120387   6.128   1.493   3.386
 6496SOL    HW220388   6.227   1.391   3.466
 6497SOL     OW20389   0.489   1.506   0.983
 6497SOL    HW120390   0.520   1.579   1.044
 6497SOL    HW220391   0.485   1.540   0.889
 6498SOL     OW20392   1.539   3.506   3.688
 6498SOL    HW120393   1.600   3.432   3.716
 6498SOL    HW220394   1.453   3.500   3.739
 6499SOL     OW20395   5.658   3.205   5.422
 6499SOL    HW120396   5.589   3.226   5.491
 6499SOL    HW220397   5.705   3.120   5.447
 6500SOL     OW20398   6.730   3.662   4.740
 6500SOL    HW120399   6.727   3.623   4.647
 6500SOL    HW220400   6.637   3.673   4.775
 6501SOL     OW20401   7.007   1.686   6.562
 6501SOL    HW120402   0.074   1.646   6.571
 6501SOL    HW220403   6.962   1.649   6.481
 6502SOL     OW20404   6.880   2.485   2.324
 6502SOL    HW120405   6.926   2.471   2.236
 6502SOL    HW220406   6.935   2.445   2.397
 6503SOL     OW20407   5.343   1.143   3.213
 6503SOL    HW120408   5.421   1.084   3.192
 6503SOL    HW220409   5.352   1.177   3.307
 6504SOL     OW20410   4.330   6.377   5.307
 6504SOL    HW120411   4.385   6.408   5.229
 6504SOL    HW220412   4.314   6.278   5.299
 6505SOL     OW20413   5.357   5.884   6.832
 6505SOL    HW120414   5.326   5.969   6.876
 6505SOL    HW220415   5.321   5.879   6.739
 6506SOL     OW20416   6.709   2.699   2.744
 6506SOL    HW120417   6.687   2.762   2.669
 6506SOL    HW220418   6.801   2.663   2.731
 6507SOL     OW20419   1.167   5.418   6.086
 6507SOL    HW120420   1.142   5.333   6.040
 6507SOL    HW220421   1.203   5.397   6.177
 6508SOL     OW20422   1.963   1.010   2.389
 6508SOL    HW120423   2.036   1.077   2.390
 6508SOL    HW220424   1.996   0.925   2.347
 6509SOL     OW20425   3.496   1.167   4.822
 6509SOL    HW120426   3.552   1.119   4.754
 6509SOL    HW220427   3.525   1.140   4.914
 6510SOL     OW20428   6.156   5.829   0.478
 6510SOL    HW120429   6.185   5.877   0.561
 6510SOL    HW220430   6.168   5.730   0.490
 6511SOL     OW20431   4.040   1.323   4.963
 6511SOL    HW120432   4.003   1.408   5.001
 6511SOL    HW220433   4.012   1.315   4.867
 6512SOL     OW20434   4.132   6.997   2.138
 6512SOL    HW120435   4.098   0.041   2.073
 6512SOL    HW220436   4.075   7.000   2.221
 6513SOL     OW20437   2.528   4.973   3.056
 6513SOL    HW120438   2.446   4.994   3.109
 6513SOL    HW220439   2.606   5.022   3.095
 6514SOL     OW20440   5.901   1.100   3.738
 6514SOL    HW120441   5.805   1.092   3.768
 6514SOL    HW220442   5.960   1.114   3.818
 6515SOL     OW20443   0.241   5.246   4.312
 6515SOL    HW120444   0.221   5.343   4.298
 6515SOL    HW220445   0.341   5.234   4.317
 6516SOL     OW20446   1.038   3.740   1.975
 6516SOL    HW120447   1.116   3.800   1.995
 6516SOL    HW220448   1.012   3.690   2.057
 6517SOL     OW20449   6.401   1.285   1.544
 6517SOL    HW120450   6.377   1.380   1.526
 6517SOL    HW220451   6.446   1.277   1.633
 6518SOL     OW20452   0.437   1.074   0.061
 6518SOL    HW120453   0.359   1.012   0.058
 6518SOL    HW220454   0.521   1.022   0.066
 6519SOL     OW20455   1.074   2.822   3.341
 6519SOL    HW120456   1.110   2.841   3.433
 6519SOL    HW220457   1.076   2.906   3.287
 6520SOL     OW20458   6.001   5.369   1.448
 6520SOL    HW120459   6.063   5.297   1.479
 6520SOL    HW220460   5.939   5.394   1.523
 6521SOL     OW20461   2.017   2.802   4.014
 6521SOL    HW120462   2.052   2.769   4.102
 6521SOL    HW220463   1.940   2.745   3.985
 6522SOL     OW20464   3.354   5.248   5.523
 6522SOL    HW120465   3.394   5.200   5.445
 6522SOL    HW220466   3.254   5.241   5.518
 6523SOL     OW20467   3.245   1.871   6.947
 6523SOL    HW120468   3.249   1.971   6.943
 6523SOL    HW220469   3.319   1.837   7.005
 6524SOL     OW20470   3.540   3.656   1.837
 6524SOL    HW120471   3.630   3.621   1.813
 6524SOL    HW220472   3.549   3.748   1.875
 6525SOL     OW20473   2.407   5.256   3.109
 6525SOL    HW120474   2.361   5.167   3.112
 6525SOL    HW220475   2.363   5.313   3.039
 6526SOL     OW20476   2.161   0.224   6.667
 6526SOL    HW120477   2.143   0.156   6.738
 6526SOL    HW220478   2.251   0.207   6.627
 6527SOL     OW20479   0.974   1.632   5.413
 6527SOL    HW120480   0.935   1.711   5.365
 6527SOL    HW220481   0.957   1.550   5.359
 6528SOL     OW20482   6.684   0.715   5.602
 6528SOL    HW120483   6.729   0.632   5.568
 6528SOL    HW220484   6.712   0.793   5.546
 6529SOL     OW20485   1.958   0.701   2.843
 6529SOL    HW120486   2.006   0.710   2.756
 6529SOL    HW220487   2.019   0.663   2.912
 6530SOL     OW20488   6.927   2.705   0.673
 6530SOL    HW120489   6.943   2.690   0.770
 6530SOL    HW220490   6.833   2.682   0.650
 6531SOL     OW20491   5.040   2.714   5.294
 6531SOL    HW120492   5.046   2.660   5.210
 6531SOL    HW220493   5.091   2.799   5.283
 6532SOL     OW20494   6.462   0.744   1.224
 6532SOL    HW120495   6.498   0.778   1.137
 6532SOL    HW220496   6.401   0.813   1.264
 6533SOL     OW20497   4.410   0.025   0.670
 6533SOL    HW120498   4.476   0.010   0.597
 6533SOL    HW220499   4.416   6.974   0.736
 6534SOL     OW20500   4.344   4.717   1.390
 6534SOL    HW120501   4.342   4.649   1.317
 6534SOL    HW220502   4.310   4.677   1.475
 6535SOL     OW20503   6.305   3.830   4.526
 6535SOL    HW120504   6.207   3.842   4.536
 6535SOL    HW220505   6.326   3.734   4.507
 6536SOL     OW20506   0.582   1.084   5.853
 6536SOL    HW120507   0.602   1.054   5.946
 6536SOL    HW220508   0.654   1.146   5.821
 6537SOL     OW20509   6.822   5.296   6.798
 6537SOL    HW120510   6.814   5.351   6.881
 6537SOL    HW220511   6.751   5.322   6.733
 6538SOL     OW20512   2.460   3.844   6.250
 6538SOL    HW120513   2.421   3.768   6.302
 6538SOL    HW220514   2.550   3.817   6.214
 6539SOL     OW20515   4.193   0.692   6.449
 6539SOL    HW120516   4.231   0.623   6.388
 6539SOL    HW220517   4.181   0.778   6.400
 6540SOL     OW20518   4.559   1.962   5.640
 6540SOL    HW120519   4.461   1.938   5.642
 6540SOL    HW220520   4.608   1.907   5.707
 6541SOL     OW20521   4.192   2.204   4.773
 6541SOL    HW120522   4.111   2.195   4.715
 6541SOL    HW220523   4.275   2.200   4.717
 6542SOL     OW20524   6.477   2.987   4.483
 6542SOL    HW120525   6.450   2.938   4.566
 6542SOL    HW220526   6.410   2.969   4.410
 6543SOL     OW20527   5.118   2.647   6.025
 6543SOL    HW120528   5.098   2.593   5.943
 6543SOL    HW220529   5.036   2.653   6.082
 6544SOL     OW20530   0.935   5.939   3.036
 6544SOL    HW120531   0.984   6.007   3.090
 6544SOL    HW220532   0.854   5.981   2.995
 6545SOL     OW20533   3.998   1.667   0.405
 6545SOL    HW120534   3.973   1.746   0.348
 6545SOL    HW220535   4.028   1.592   0.346
 6546SOL     OW20536   3.411   4.323   0.070
 6546SOL    HW120537   3.421   4.329   6.994
 6546SOL    HW220538   3.481   4.261   0.107
 6547SOL     OW20539   4.558   0.960   5.920
 6547SOL    HW120540   4.471   0.923   5.952
 6547SOL    HW220541   4.612   0.989   5.999
 6548SOL     OW20542   0.730   4.187   0.722
 6548SOL    HW120543   0.818   4.161   0.761
 6548SOL    HW220544   0.744   4.237   0.636
 6549SOL     OW20545   5.237   0.859   1.473
 6549SOL    HW120546   5.313   0.826   1.530
 6549SOL    HW220547   5.211   0.951   1.503
 6550SOL     OW20548   0.104   6.466   3.383
 6550SOL    HW120549   0.053   6.550   3.362
 6550SOL    HW220550   0.124   6.417   3.299
 6551SOL     OW20551   2.125   4.586   2.588
 6551SOL    HW120552   2.101   4.490   2.597
 6551SOL    HW220553   2.063   4.642   2.643
 6552SOL     OW20554   1.882   6.846   0.131
 6552SOL    HW120555   1.973   6.836   0.090
 6552SOL    HW220556   1.876   6.934   0.178
 6553SOL     OW20557   0.143   1.987   3.574
 6553SOL    HW120558   0.228   1.950   3.536
 6553SOL    HW220559   0.142   2.086   3.561
 6554SOL     OW20560   0.691   0.465   4.591
 6554SOL    HW120561   0.751   0.386   4.581
 6554SOL    HW220562   0.597   0.433   4.605
 6555SOL     OW20563   6.003   1.600   3.164
 6555SOL    HW120564   6.045   1.673   3.218
 6555SOL    HW220565   5.916   1.573   3.207
 6556SOL     OW20566   5.039   4.597   4.180
 6556SOL    HW120567   4.949   4.634   4.156
 6556SOL    HW220568   5.040   4.498   4.162
 6557SOL     OW20569   3.343   6.680   2.851
 6557SOL    HW120570   3.375   6.704   2.759
 6557SOL    HW220571   3.418   6.638   2.902
 6558SOL     OW20572   0.008   5.143   6.900
 6558SOL    HW120573   6.969   5.094   6.960
 6558SOL    HW220574   6.985   5.221   6.859
 6559SOL     OW20575   0.271   2.948   6.481
 6559SOL    HW120576   0.349   2.922   6.539
 6559SOL    HW220577   0.281   2.905   6.391
 6560SOL     OW20578   4.530   4.907   1.355
 6560SOL    HW120579   4.458   4.846   1.390
 6560SOL    HW220580   4.493   4.965   1.282
 6561SOL     OW20581   3.482   3.899   1.331
 6561SOL    HW120582   3.532   3.985   1.326
 6561SOL    HW220583   3.474   3.870   1.426
 6562SOL     OW20584   6.026   3.357   0.845
 6562SOL    HW120585   6.022   3.379   0.747
 6562SOL    HW220586   5.965   3.418   0.895
 6563SOL     OW20587   5.537   6.184   6.864
 6563SOL    HW120588   5.579   6.093   6.858
 6563SOL    HW220589   5.482   6.200   6.781
 6564SOL     OW20590   7.007   4.127   2.942
 6564SOL    HW120591   6.959   4.096   2.860
 6564SOL    HW220592   6.949   4.189   2.994
 6565SOL     OW20593   5.122   1.905   3.557
 6565SOL    HW120594   5.065   1.985   3.537
 6565SOL    HW220595   5.152   1.863   3.471
 6566SOL     OW20596   3.822   6.425   2.550
 6566SOL    HW120597   3.795   6.506   2.602
 6566SOL    HW220598   3.853   6.453   2.459
 6567SOL     OW20599   4.202   1.066   2.897
 6567SOL    HW120600   4.256   1.109   2.824
 6567SOL    HW220601   4.186   0.970   2.873
 6568SOL     OW20602   2.990   0.971   3.167
 6568SOL    HW120603   3.069   0.981   3.107
 6568SOL    HW220604   3.013   0.908   3.241
 6569SOL     OW20605   2.854   3.566   0.157
 6569SOL    HW120606   2.869   3.577   0.059
 6569SOL    HW220607   2.838   3.655   0.199
 6570SOL     OW20608   3.953   0.488   2.272
 6570SOL    HW120609   3.942   0.552   2.348
 6570SOL    HW220610   3.997   0.535   2.196
 6571SOL     OW20611   3.210   5.625   1.656
 6571SOL    HW120612   3.132   5.576   1.617
 6571SOL    HW220613   3.252   5.569   1.728
 6572SOL     OW20614   6.364   4.959   5.615
 6572SOL    HW120615   6.287   4.899   5.594
 6572SOL    HW220616   6.335   5.055   5.609
 6573SOL     OW20617   1.655   2.069   2.186
 6573SOL    HW120618   1.633   1.975   2.163
 6573SOL    HW220619   1.571   2.120   2.202
 6574SOL     OW20620   3.182   5.586   2.422
 6574SOL    HW120621   3.156   5.529   2.500
 6574SOL    HW220622   3.255   5.541   2.371
 6575SOL     OW20623   0.549   6.997   3.030
 6575SOL    HW120624   0.611   0.050   3.047
 6575SOL    HW220625   0.499   7.013   2.945
 6576SOL     OW20626   2.298   6.238   6.759
 6576SOL    HW120627   2.348   6.320   6.732
 6576SOL    HW220628   2.301   6.172   6.683
 6577SOL     OW20629   0.876   1.372   4.341
 6577SOL    HW120630   0.795   1.354   4.285
 6577SOL    HW220631   0.954   1.392   4.282
 6578SOL     OW20632   1.067   5.396   3.673
 6578SOL    HW120633   1.097   5.425   3.582
 6578SOL    HW220634   0.970   5.415   3.684
 6579SOL     OW20635   6.602   3.338   4.626
 6579SOL    HW120636   6.659   3.273   4.575
 6579SOL    HW220637   6.552   3.396   4.561
 6580SOL     OW20638   0.881   2.475   0.979
 6580SOL    HW120639   0.824   2.408   0.931
 6580SOL    HW220640   0.827   2.519   1.051
 6581SOL     OW20641   3.063   0.693   6.783
 6581SOL    HW120642   3.030   0.782   6.754
 6581SOL    HW220643   2.992   0.645   6.834
 6582SOL     OW20644   1.517   1.311   2.604
 6582SOL    HW120645   1.527   1.379   2.676
 6582SOL    HW220646   1.569   1.229   2.629
 6583SOL     OW20647   4.121   1.148   5.167
 6583SOL    HW120648   4.098   1.210   5.243
 6583SOL    HW220649   4.071   1.176   5.085
 6584SOL     OW20650   4.466   2.819   1.103
 6584SOL    HW120651   4.427   2.742   1.053
 6584SOL    HW220652   4.486   2.792   1.197
 6585SOL     OW20653   5.906   6.869   6.922
 6585SOL    HW120654   5.970   6.797   6.949
 6585SOL    HW220655   5.844   6.889   6.998
 6586SOL     OW20656   6.648   1.158   5.127
 6586SOL    HW120657   6.613   1.199   5.043
 6586SOL    HW220658   6.604   1.069   5.141
 6587SOL     OW20659   1.823   6.143   5.019
 6587SOL    HW120660   1.835   6.218   5.084
 6587SOL    HW220661   1.858   6.059   5.059
 6588SOL     OW20662   0.996   3.295   1.337
 6588SOL    HW120663   1.086   3.320   1.374
 6588SOL    HW220664   0.932   3.282   1.412
 6589SOL     OW20665   5.041   0.873   0.550
 6589SOL    HW120666   5.055   0.968   0.523
 6589SOL    HW220667   4.944   0.858   0.569
 6590SOL     OW20668   1.047   1.421   6.161
 6590SOL    HW120669   1.122   1.415   6.095
 6590SOL    HW220670   1.057   1.346   6.228
 6591SOL     OW20671   5.861   5.563   2.622
 6591SOL    HW120672   5.877   5.660   2.610
 6591SOL    HW220673   5.763   5.544   2.610
 6592SOL     OW20674   5.495   0.217   3.498
 6592SOL    HW120675   5.397   0.208   3.480
 6592SOL    HW220676   5.543   0.140   3.455
 6593SOL     OW20677   2.092   2.199   2.494
 6593SOL    HW120678   2.035   2.234   2.568
 6593SOL    HW220679   2.035   2.153   2.426
 6594SOL     OW20680   3.654   1.831   0.186
 6594SOL    HW120681   3.611   1.899   0.127
 6594SOL    HW220682   3.601   1.746   0.184
 6595SOL     OW20683   0.912   3.595   6.517
 6595SOL    HW120684   0.930   3.620   6.612
 6595SOL    HW220685   0.871   3.673   6.470
 6596SOL     OW20686   3.253   6.094   4.563
 6596SOL    HW120687   3.226   6.164   4.629
 6596SOL    HW220688   3.319   6.132   4.498
 6597SOL     OW20689   1.498   5.335   1.781
 6597SOL    HW120690   1.484   5.362   1.686
 6597SOL    HW220691   1.572   5.389   1.821
 6598SOL     OW20692   1.494   5.834   4.281
 6598SOL    HW120693   1.411   5.779   4.277
 6598SOL    HW220694   1.573   5.777   4.260
 6599SOL     OW20695   4.741   6.503   6.354
 6599SOL    HW120696   4.683   6.456   6.420
 6599SOL    HW220697   4.832   6.461   6.354
 6600SOL     OW20698   4.835   4.914   5.064
 6600SOL    HW120699   4.901   4.949   5.131
 6600SOL    HW220700   4.810   4.987   5.001
 6601SOL     OW20701   1.343   2.112   5.175
 6601SOL    HW120702   1.271   2.142   5.113
 6601SOL    HW220703   1.315   2.131   5.269
 6602SOL     OW20704   1.601   1.190   1.816
 6602SOL    HW120705   1.688   1.200   1.766
 6602SOL    HW220706   1.547   1.117   1.775
 6603SOL     OW20707   7.001   2.621   4.049
 6603SOL    HW120708   0.053   2.652   4.106
 6603SOL    HW220709   6.933   2.695   4.041
 6604SOL     OW20710   2.062   0.346   0.525
 6604SOL    HW120711   1.992   0.298   0.578
 6604SOL    HW220712   2.047   0.330   0.428
 6605SOL     OW20713   5.264   4.231   2.028
 6605SOL    HW120714   5.282   4.179   2.112
 6605SOL    HW220715   5.182   4.194   1.983
 6606SOL     OW20716   0.306   6.275   1.824
 6606SOL    HW120717   0.226   6.231   1.865
 6606SOL    HW220718   0.307   6.257   1.726
 6607SOL     OW20719   1.842   3.680   2.343
 6607SOL    HW120720   1.793   3.700   2.258
 6607SOL    HW220721   1.913   3.611   2.325
 6608SOL     OW20722   5.997   6.361   1.392
 6608SOL    HW120723   6.076   6.363   1.331
 6608SOL    HW220724   5.953   6.450   1.393
 6609SOL     OW20725   4.668   0.717   6.246
 6609SOL    HW120726   4.569   0.731   6.250
 6609SOL    HW220727   4.703   0.693   6.336
 6610SOL     OW20728   2.778   6.857   6.644
 6610SOL    HW120729   2.701   6.795   6.661
 6610SOL    HW220730   2.748   6.934   6.589
 6611SOL     OW20731   4.925   2.639   3.985
 6611SOL    HW120732   4.843   2.661   4.038
 6611SOL    HW220733   4.906   2.559   3.927
 6612SOL     OW20734   5.800   2.279   5.703
 6612SOL    HW120735   5.856   2.356   5.734
 6612SOL    HW220736   5.707   2.288   5.740
 6613SOL     OW20737   6.144   6.738   5.424
 6613SOL    HW120738   6.149   6.769   5.519
 6613SOL    HW220739   6.190   6.804   5.365
 6614SOL     OW20740   4.911   6.211   0.507
 6614SOL    HW120741   4.873   6.253   0.590
 6614SOL    HW220742   4.970   6.277   0.461
 6615SOL     OW20743   1.482   5.671   2.016
 6615SOL    HW120744   1.440   5.762   2.021
 6615SOL    HW220745   1.423   5.605   2.062
 6616SOL     OW20746   4.923   0.874   6.170
 6616SOL    HW120747   4.858   0.827   6.229
 6616SOL    HW220748   4.876   0.945   6.118
 6617SOL     OW20749   4.543   4.908   3.207
 6617SOL    HW120750   4.551   4.856   3.292
 6617SOL    HW220751   4.594   4.862   3.135
 6618SOL     OW20752   0.510   2.425   2.578
 6618SOL    HW120753   0.543   2.346   2.526
 6618SOL    HW220754   0.584   2.492   2.588
 6619SOL     OW20755   6.307   6.490   3.816
 6619SOL    HW120756   6.277   6.584   3.831
 6619SOL    HW220757   6.228   6.429   3.819
 6620SOL     OW20758   1.958   2.746   5.409
 6620SOL    HW120759   1.974   2.662   5.358
 6620SOL    HW220760   2.022   2.817   5.379
 6621SOL     OW20761   3.160   2.971   6.245
 6621SOL    HW120762   3.064   2.987   6.221
 6621SOL    HW220763   3.218   3.035   6.194
 6622SOL     OW20764   6.084   6.689   1.258
 6622SOL    HW120765   6.000   6.660   1.304
 6622SOL    HW220766   6.162   6.667   1.316
 6623SOL     OW20767   2.999   3.334   5.747
 6623SOL    HW120768   2.995   3.378   5.837
 6623SOL    HW220769   2.961   3.396   5.678
 6624SOL     OW20770   0.036   5.062   6.053
 6624SOL    HW120771   6.968   5.099   6.040
 6624SOL    HW220772   0.073   5.094   6.140
 6625SOL     OW20773   5.454   1.858   5.203
 6625SOL    HW120774   5.375   1.799   5.221
 6625SOL    HW220775   5.528   1.834   5.266
 6626SOL     OW20776   4.211   5.025   5.130
 6626SOL    HW120777   4.255   5.068   5.210
 6626SOL    HW220778   4.170   4.938   5.158
 6627SOL     OW20779   2.101   6.402   4.798
 6627SOL    HW120780   2.002   6.405   4.807
 6627SOL    HW220781   2.139   6.344   4.871
 6628SOL     OW20782   4.819   5.076   4.801
 6628SOL    HW120783   4.751   5.015   4.761
 6628SOL    HW220784   4.820   5.162   4.750
 6629SOL     OW20785   4.555   5.953   6.812
 6629SOL    HW120786   4.544   5.867   6.862
 6629SOL    HW220787   4.591   6.023   6.874
 6630SOL     OW20788   4.357   1.783   1.575
 6630SOL    HW120789   4.398   1.737   1.653
 6630SOL    HW220790   4.416   1.858   1.545
 6631SOL     OW20791   2.249   4.961   3.396
 6631SOL    HW120792   2.212   4.892   3.458
 6631SOL    HW220793   2.202   5.048   3.413
 6632SOL     OW20794   0.335   7.001   1.107
 6632SOL    HW120795   0.260   7.007   1.042
 6632SOL    HW220796   0.350   0.066   1.150
 6633SOL     OW20797   1.375   4.755   6.515
 6633SOL    HW120798   1.383   4.680   6.581
 6633SOL    HW220799   1.392   4.842   6.560
 6634SOL     OW20800   5.045   2.257   4.810
 6634SOL    HW120801   5.012   2.322   4.878
 6634SOL    HW220802   5.001   2.168   4.824
 6635SOL     OW20803   4.732   5.023   2.922
 6635SOL    HW120804   4.730   5.071   3.010
 6635SOL    HW220805   4.768   5.084   2.851
 6636SOL     OW20806   4.692   1.783   6.295
 6636SOL    HW120807   4.733   1.786   6.204
 6636SOL    HW220808   4.593   1.795   6.288
 6637SOL     OW20809   1.228   6.962   7.015
 6637SOL    HW120810   1.142   7.000   0.025
 6637SOL    HW220811   1.211   6.871   6.975
 6638SOL     OW20812   3.103   3.940   3.621
 6638SOL    HW120813   3.070   3.902   3.534
 6638SOL    HW220814   3.179   4.002   3.603
 6639SOL     OW20815   5.525   5.278   6.197
 6639SOL    HW120816   5.622   5.262   6.177
 6639SOL    HW220817   5.469   5.231   6.129
 6640SOL     OW20818   1.346   1.782   4.885
 6640SOL    HW120819   1.327   1.799   4.788
 6640SOL    HW220820   1.270   1.731   4.925
 6641SOL     OW20821   2.031   2.257   6.046
 6641SOL    HW120822   1.952   2.260   6.109
 6641SOL    HW220823   2.099   2.193   6.082
 6642SOL     OW20824   2.192   5.552   6.685
 6642SOL    HW120825   2.257   5.532   6.758
 6642SOL    HW220826   2.172   5.468   6.634
 6643SOL     OW20827   6.160   5.035   0.038
 6643SOL    HW120828   6.208   5.002   6.981
 6643SOL    HW220829   6.170   5.135   0.045
 6644SOL     OW20830   2.542   5.702   1.754
 6644SOL    HW120831   2.611   5.656   1.697
 6644SOL    HW220832   2.496   5.635   1.812
 6645SOL     OW20833   6.156   4.791   0.203
 6645SOL    HW120834   6.142   4.868   0.140
 6645SOL    HW220835   6.175   4.826   0.295
 6646SOL     OW20836   3.875   0.455   4.721
 6646SOL    HW120837   3.920   0.529   4.770
 6646SOL    HW220838   3.887   0.468   4.623
 6647SOL     OW20839   4.944   1.002   1.202
 6647SOL    HW120840   4.956   1.048   1.290
 6647SOL    HW220841   4.915   1.069   1.133
 6648SOL     OW20842   4.305   6.337   3.428
 6648SOL    HW120843   4.336   6.269   3.361
 6648SOL    HW220844   4.383   6.376   3.476
 6649SOL     OW20845   5.361   0.919   6.727
 6649SOL    HW120846   5.401   0.992   6.671
 6649SOL    HW220847   5.363   0.947   6.823
 6650SOL     OW20848   3.983   1.559   5.105
 6650SOL    HW120849   3.977   1.585   5.202
 6650SOL    HW220850   4.062   1.602   5.063
 6651SOL     OW20851   2.237   1.630   5.710
 6651SOL    HW120852   2.260   1.728   5.714
 6651SOL    HW220853   2.192   1.611   5.622
 6652SOL     OW20854   1.157   4.356   0.752
 6652SOL    HW120855   1.234   4.374   0.690
 6652SOL    HW220856   1.188   4.368   0.846
 6653SOL     OW20857   3.520   3.636   2.550
 6653SOL    HW120858   3.466   3.703   2.498
 6653SOL    HW220859   3.581   3.587   2.488
 6654SOL     OW20860   1.217   5.235   1.776
 6654SOL    HW120861   1.216   5.138   1.799
 6654SOL    HW220862   1.311   5.270   1.783
 6655SOL     OW20863   0.825   0.395   3.826
 6655SOL    HW120864   0.829   0.387   3.925
 6655SOL    HW220865   0.748   0.341   3.791
 6656SOL     OW20866   5.961   1.915   4.082
 6656SOL    HW120867   6.057   1.890   4.098
 6656SOL    HW220868   5.952   1.955   3.991
 6657SOL     OW20869   6.471   4.880   6.356
 6657SOL    HW120870   6.512   4.792   6.330
 6657SOL    HW220871   6.389   4.863   6.410
 6658SOL     OW20872   6.946   1.247   4.487
 6658SOL    HW120873   6.942   1.260   4.586
 6658SOL    HW220874   6.867   1.193   4.457
 6659SOL     OW20875   1.972   2.870   0.757
 6659SOL    HW120876   2.020   2.829   0.834
 6659SOL    HW220877   1.998   2.966   0.749
 6660SOL     OW20878   1.088   5.048   1.433
 6660SOL    HW120879   1.184   5.035   1.457
 6660SOL    HW220880   1.075   5.024   1.336
 6661SOL     OW20881   1.270   6.164   4.973
 6661SOL    HW120882   1.364   6.167   5.005
 6661SOL    HW220883   1.267   6.126   4.881
 6662SOL     OW20884   1.463   0.614   0.027
 6662SOL    HW120885   1.449   0.586   0.122
 6662SOL    HW220886   1.529   0.689   0.024
 6663SOL     OW20887   6.333   5.035   4.145
 6663SOL    HW120888   6.346   4.936   4.135
 6663SOL    HW220889   6.264   5.066   4.079
 6664SOL     OW20890   1.964   6.195   0.707
 6664SOL    HW120891   1.922   6.186   0.797
 6664SOL    HW220892   1.957   6.108   0.659
 6665SOL     OW20893   2.083   5.910   4.477
 6665SOL    HW120894   2.052   5.819   4.506
 6665SOL    HW220895   2.153   5.942   4.541
 6666SOL     OW20896   6.148   0.237   6.090
 6666SOL    HW120897   6.219   0.166   6.091
 6666SOL    HW220898   6.061   0.198   6.121
 6667SOL     OW20899   6.535   6.181   6.733
 6667SOL    HW120900   6.603   6.254   6.733
 6667SOL    HW220901   6.526   6.143   6.641
 6668SOL     OW20902   6.808   5.162   1.075
 6668SOL    HW120903   6.834   5.087   1.137
 6668SOL    HW220904   6.752   5.125   1.000
 6669SOL     OW20905   1.696   2.560   2.769
 6669SOL    HW120906   1.635   2.482   2.769
 6669SOL    HW220907   1.732   2.575   2.677
 6670SOL     OW20908   3.738   1.434   5.424
 6670SOL    HW120909   3.690   1.385   5.351
 6670SOL    HW220910   3.673   1.459   5.496
 6671SOL     OW20911   5.490   6.173   0.715
 6671SOL    HW120912   5.559   6.118   0.668
 6671SOL    HW220913   5.534   6.250   0.761
 6672SOL     OW20914   6.207   2.658   6.700
 6672SOL    HW120915   6.258   2.683   6.617
 6672SOL    HW220916   6.199   2.558   6.705
 6673SOL     OW20917   4.865   5.355   3.971
 6673SOL    HW120918   4.964   5.370   3.965
 6673SOL    HW220919   4.822   5.433   4.017
 6674SOL     OW20920   0.382   4.259   6.245
 6674SOL    HW120921   0.410   4.353   6.225
 6674SOL    HW220922   0.390   4.204   6.161
 6675SOL     OW20923   4.790   3.699   1.462
 6675SOL    HW120924   4.866   3.741   1.412
 6675SOL    HW220925   4.811   3.603   1.479
 6676SOL     OW20926   0.728   3.715   5.652
 6676SOL    HW120927   0.775   3.670   5.577
 6676SOL    HW220928   0.661   3.780   5.615
 6677SOL     OW20929   1.437   1.802   6.240
 6677SOL    HW120930   1.525   1.827   6.201
 6677SOL    HW220931   1.442   1.806   6.340
 6678SOL     OW20932   3.066   3.174   0.066
 6678SOL    HW120933   3.046   3.090   0.116
 6678SOL    HW220934   3.136   3.155   7.020
 6679SOL     OW20935   3.012   1.133   3.993
 6679SOL    HW120936   2.976   1.054   3.943
 6679SOL    HW220937   2.936   1.183   4.035
 6680SOL     OW20938   5.310   6.531   0.070
 6680SOL    HW120939   5.345   6.437   0.074
 6680SOL    HW220940   5.216   6.530   0.037
 6681SOL     OW20941   3.561   6.156   1.309
 6681SOL    HW120942   3.528   6.229   1.368
 6681SOL    HW220943   3.543   6.180   1.213
 6682SOL     OW20944   0.560   4.403   2.543
 6682SOL    HW120945   0.619   4.347   2.484
 6682SOL    HW220946   0.597   4.404   2.636
 6683SOL     OW20947   5.868   3.168   5.094
 6683SOL    HW120948   5.847   3.248   5.150
 6683SOL    HW220949   5.783   3.130   5.057
 6684SOL     OW20950   2.875   0.277   1.551
 6684SOL    HW120951   2.957   0.227   1.578
 6684SOL    HW220952   2.818   0.294   1.631
 6685SOL     OW20953   6.347   3.346   6.111
 6685SOL    HW120954   6.249   3.359   6.124
 6685SOL    HW220955   6.397   3.422   6.152
 6686SOL     OW20956   5.255   5.786   4.711
 6686SOL    HW120957   5.246   5.686   4.705
 6686SOL    HW220958   5.323   5.809   4.781
 6687SOL     OW20959   1.120   3.491   6.948
 6687SOL    HW120960   1.076   3.551   6.880
 6687SOL    HW220961   1.160   3.547   7.020
 6688SOL     OW20962   6.843   4.008   2.400
 6688SOL    HW120963   6.931   3.963   2.387
 6688SOL    HW220964   6.834   4.084   2.337
 6689SOL     OW20965   4.327   3.061   0.265
 6689SOL    HW120966   4.370   3.088   0.351
 6689SOL    HW220967   4.236   3.100   0.260
 6690SOL     OW20968   1.567   1.406   0.810
 6690SOL    HW120969   1.557   1.404   0.910
 6690SOL    HW220970   1.650   1.456   0.787
 6691SOL     OW20971   2.796   6.767   2.296
 6691SOL    HW120972   2.825   6.848   2.347
 6691SOL    HW220973   2.872   6.735   2.239
 6692SOL     OW20974   3.957   3.697   5.575
 6692SOL    HW120975   4.025   3.652   5.517
 6692SOL    HW220976   3.866   3.683   5.537
 6693SOL     OW20977   4.421   3.192   5.504
 6693SOL    HW120978   4.508   3.218   5.463
 6693SOL    HW220979   4.369   3.275   5.527
 6694SOL     OW20980   3.438   5.732   0.748
 6694SOL    HW120981   3.464   5.682   0.831
 6694SOL    HW220982   3.478   5.823   0.750
 6695SOL     OW20983   2.671   1.937   0.524
 6695SOL    HW120984   2.650   2.034   0.535
 6695SOL    HW220985   2.600   1.882   0.569
 6696SOL     OW20986   2.692   3.121   6.052
 6696SOL    HW120987   2.633   3.044   6.030
 6696SOL    HW220988   2.736   3.155   5.969
 6697SOL     OW20989   4.682   2.708   2.868
 6697SOL    HW120990   4.672   2.640   2.795
 6697SOL    HW220991   4.779   2.728   2.881
 6698SOL     OW20992   2.462   2.549   1.677
 6698SOL    HW120993   2.415   2.613   1.617
 6698SOL    HW220994   2.476   2.462   1.628
 6699SOL     OW20995   2.703   5.885   5.701
 6699SOL    HW120996   2.605   5.863   5.699
 6699SOL    HW220997   2.724   5.948   5.627
 6700SOL     OW20998   0.772   6.584   1.417
 6700SOL    HW120999   0.773   6.637   1.502
 6700SOL    HW221000   0.838   6.624   1.352
 6701SOL     OW21001   5.260   3.940   2.260
 6701SOL    HW121002   5.296   3.847   2.259
 6701SOL    HW221003   5.327   4.000   2.304
 6702SOL     OW21004   3.221   2.080   1.577
 6702SOL    HW121005   3.267   2.046   1.495
 6702SOL    HW221006   3.222   2.009   1.648
 6703SOL     OW21007   6.155   2.383   6.817
 6703SOL    HW121008   6.107   2.352   6.899
 6703SOL    HW221009   6.101   2.359   6.736
 6704SOL     OW21010   2.956   1.766   3.339
 6704SOL    HW121011   3.007   1.757   3.254
 6704SOL    HW221012   3.017   1.800   3.411
 6705SOL     OW21013   6.907   2.869   1.554
 6705SOL    HW121014   6.870   2.960   1.540
 6705SOL    HW221015   6.950   2.836   1.470
 6706SOL     OW21016   1.967   4.028   2.756
 6706SOL    HW121017   2.057   4.022   2.799
 6706SOL    HW221018   1.950   3.945   2.703
 6707SOL     OW21019   6.689   6.284   3.264
 6707SOL    HW121020   6.714   6.187   3.266
 6707SOL    HW221021   6.718   6.324   3.176
 6708SOL     OW21022   0.005   5.563   1.723
 6708SOL    HW121023   0.056   5.538   1.640
 6708SOL    HW221024   6.935   5.585   1.698
 6709SOL     OW21025   3.003   6.243   3.486
 6709SOL    HW121026   3.085   6.194   3.516
 6709SOL    HW221027   2.944   6.261   3.564
 6710SOL     OW21028   3.947   0.689   6.088
 6710SOL    HW121029   3.855   0.722   6.065
 6710SOL    HW221030   3.997   0.761   6.137
 6711SOL     OW21031   4.619   5.163   6.046
 6711SOL    HW121032   4.700   5.120   6.008
 6711SOL    HW221033   4.636   5.261   6.058
 6712SOL     OW21034   5.452   4.071   0.281
 6712SOL    HW121035   5.498   4.087   0.194
 6712SOL    HW221036   5.509   4.103   0.356
 6713SOL     OW21037   2.245   0.026   2.367
 6713SOL    HW121038   2.281   0.114   2.337
 6713SOL    HW221039   2.285   6.977   2.312
 6714SOL     OW21040   6.195   0.713   6.013
 6714SOL    HW121041   6.189   0.784   6.083
 6714SOL    HW221042   6.236   0.750   5.930
 6715SOL     OW21043   0.592   0.270   0.319
 6715SOL    HW121044   0.636   0.181   0.313
 6715SOL    HW221045   0.537   0.274   0.402
 6716SOL     OW21046   0.522   5.538   1.299
 6716SOL    HW121047   0.574   5.613   1.340
 6716SOL    HW221048   0.496   5.563   1.206
 6717SOL     OW21049   3.911   3.291   0.050
 6717SOL    HW121050   3.942   3.215   7.017
 6717SOL    HW221051   3.852   3.256   0.123
 6718SOL     OW21052   5.240   0.511   0.896
 6718SOL    HW121053   5.179   0.453   0.950
 6718SOL    HW221054   5.257   0.596   0.946
 6719SOL     OW21055   2.530   0.451   6.443
 6719SOL    HW121056   2.618   0.460   6.396
 6719SOL    HW221057   2.540   0.387   6.519
 6720SOL     OW21058   1.289   6.874   3.922
 6720SOL    HW121059   1.382   6.900   3.946
 6720SOL    HW221060   1.274   6.778   3.944
 6721SOL     OW21061   6.892   0.359   6.901
 6721SOL    HW121062   6.971   0.379   6.843
 6721SOL    HW221063   6.833   0.440   6.905
 6722SOL     OW21064   6.723   2.898   1.791
 6722SOL    HW121065   6.695   2.817   1.842
 6722SOL    HW221066   6.791   2.872   1.722
 6723SOL     OW21067   2.660   5.936   3.110
 6723SOL    HW121068   2.651   6.035   3.119
 6723SOL    HW221069   2.573   5.892   3.132
 6724SOL     OW21070   1.690   3.361   5.722
 6724SOL    HW121071   1.626   3.338   5.648
 6724SOL    HW221072   1.643   3.359   5.810
 6725SOL     OW21073   0.496   3.467   1.267
 6725SOL    HW121074   0.594   3.476   1.286
 6725SOL    HW221075   0.473   3.370   1.253
 6726SOL     OW21076   0.653   2.228   5.384
 6726SOL    HW121077   0.586   2.154   5.378
 6726SOL    HW221078   0.607   2.316   5.374
 6727SOL     OW21079   6.877   4.170   5.289
 6727SOL    HW121080   6.879   4.237   5.214
 6727SOL    HW221081   6.816   4.095   5.265
 6728SOL     OW21082   3.691   1.908   3.057
 6728SOL    HW121083   3.761   1.979   3.051
 6728SOL    HW221084   3.655   1.906   3.151
 6729SOL     OW21085   6.704   1.200   2.930
 6729SOL    HW121086   6.761   1.138   2.875
 6729SOL    HW221087   6.659   1.266   2.869
 6730SOL     OW21088   2.734   6.813   0.396
 6730SOL    HW121089   2.745   6.910   0.374
 6730SOL    HW221090   2.815   6.780   0.444
 6731SOL     OW21091   0.664   5.712   1.470
 6731SOL    HW121092   0.705   5.634   1.516
 6731SOL    HW221093   0.733   5.758   1.415
 6732SOL     OW21094   5.333   4.640   4.903
 6732SOL    HW121095   5.332   4.648   4.803
 6732SOL    HW221096   5.399   4.705   4.941
 6733SOL     OW21097   4.275   5.758   0.554
 6733SOL    HW121098   4.324   5.833   0.510
 6733SOL    HW221099   4.219   5.711   0.485
 6734SOL     OW21100   6.063   2.243   4.991
 6734SOL    HW121101   6.087   2.183   4.915
 6734SOL    HW221102   6.125   2.227   5.067
 6735SOL     OW21103   6.606   4.286   4.820
 6735SOL    HW121104   6.604   4.385   4.829
 6735SOL    HW221105   6.625   4.262   4.724
 6736SOL     OW21106   3.163   3.682   0.092
 6736SOL    HW121107   3.184   3.703   7.021
 6736SOL    HW221108   3.229   3.616   0.127
 6737SOL     OW21109   1.906   2.604   0.653
 6737SOL    HW121110   1.865   2.592   0.562
 6737SOL    HW221111   1.955   2.691   0.656
 6738SOL     OW21112   1.664   5.418   2.657
 6738SOL    HW121113   1.613   5.500   2.683
 6738SOL    HW221114   1.614   5.337   2.688
 6739SOL     OW21115   3.546   6.278   5.124
 6739SOL    HW121116   3.578   6.223   5.201
 6739SOL    HW221117   3.484   6.223   5.068
 6740SOL     OW21118   1.606   0.354   4.479
 6740SOL    HW121119   1.599   0.261   4.514
 6740SOL    HW221120   1.554   0.363   4.394
 6741SOL     OW21121   4.462   1.298   5.517
 6741SOL    HW121122   4.502   1.321   5.428
 6741SOL    HW221123   4.535   1.281   5.583
 6742SOL     OW21124   6.728   5.926   2.231
 6742SOL    HW121125   6.697   6.010   2.276
 6742SOL    HW221126   6.698   5.847   2.284
 6743SOL     OW21127   3.590   4.974   0.519
 6743SOL    HW121128   3.679   4.994   0.560
 6743SOL    HW221129   3.597   4.894   0.460
 6744SOL     OW21130   6.016   4.132   6.613
 6744SOL    HW121131   5.964   4.089   6.539
 6744SOL    HW221132   6.101   4.081   6.629
 6745SOL     OW21133   0.153   0.267   2.809
 6745SOL    HW121134   0.199   0.246   2.895
 6745SOL    HW221135   0.060   0.230   2.811
 6746SOL     OW21136   0.975   0.934   3.365
 6746SOL    HW121137   0.925   0.896   3.287
 6746SOL    HW221138   1.061   0.973   3.334
 6747SOL     OW21139   5.649   0.937   4.971
 6747SOL    HW121140   5.587   0.979   5.037
 6747SOL    HW221141   5.674   1.005   4.902
 6748SOL     OW21142   1.938   1.185   3.941
 6748SOL    HW121143   1.953   1.281   3.964
 6748SOL    HW221144   1.942   1.173   3.842
 6749SOL     OW21145   2.994   6.594   0.326
 6749SOL    HW121146   2.999   6.606   0.425
 6749SOL    HW221147   3.070   6.536   0.295
 6750SOL     OW21148   3.976   2.155   5.079
 6750SOL    HW121149   3.989   2.067   5.123
 6750SOL    HW221150   3.879   2.165   5.053
 6751SOL     OW21151   4.040   0.217   3.718
 6751SOL    HW121152   3.980   0.163   3.658
 6751SOL    HW221153   4.130   0.225   3.677
 6752SOL     OW21154   0.452   2.290   2.824
 6752SOL    HW121155   0.476   2.333   2.737
 6752SOL    HW221156   0.361   2.322   2.854
 6753SOL     OW21157   4.155   0.944   6.363
 6753SOL    HW121158   4.067   0.958   6.318
 6753SOL    HW221159   4.224   1.003   6.322
 6754SOL     OW21160   0.360   1.869   0.237
 6754SOL    HW121161   0.283   1.932   0.240
 6754SOL    HW221162   0.359   1.811   0.319
 6755SOL     OW21163   3.655   0.643   3.379
 6755SOL    HW121164   3.630   0.648   3.283
 6755SOL    HW221165   3.642   0.732   3.422
 6756SOL     OW21166   3.848   4.856   5.110
 6756SOL    HW121167   3.749   4.864   5.096
 6756SOL    HW221168   3.870   4.876   5.205
 6757SOL     OW21169   4.210   1.170   2.600
 6757SOL    HW121170   4.254   1.238   2.660
 6757SOL    HW221171   4.112   1.170   2.617
 6758SOL     OW21172   6.345   2.244   1.717
 6758SOL    HW121173   6.332   2.341   1.739
 6758SOL    HW221174   6.426   2.210   1.765
 6759SOL     OW21175   0.707   4.648   4.570
 6759SOL    HW121176   0.661   4.629   4.657
 6759SOL    HW221177   0.793   4.598   4.566
 6760SOL     OW21178   6.204   4.190   3.325
 6760SOL    HW121179   6.182   4.146   3.238
 6760SOL    HW221180   6.122   4.235   3.361
 6761SOL     OW21181   6.392   2.376   6.063
 6761SOL    HW121182   6.369   2.473   6.068
 6761SOL    HW221183   6.342   2.327   6.135
 6762SOL     OW21184   0.491   5.199   3.937
 6762SOL    HW121185   0.466   5.202   3.840
 6762SOL    HW221186   0.589   5.184   3.946
 6763SOL     OW21187   0.357   4.877   2.926
 6763SOL    HW121188   0.265   4.850   2.957
 6763SOL    HW221189   0.411   4.795   2.908
 6764SOL     OW21190   2.423   5.072   6.772
 6764SOL    HW121191   2.431   4.979   6.736
 6764SOL    HW221192   2.507   5.123   6.751
 6765SOL     OW21193   5.283   4.017   3.754
 6765SOL    HW121194   5.188   4.005   3.780
 6765SOL    HW221195   5.333   3.932   3.770
 6766SOL     OW21196   5.260   6.647   6.279
 6766SOL    HW121197   5.210   6.671   6.363
 6766SOL    HW221198   5.198   6.602   6.215
 6767SOL     OW21199   1.146   1.853   0.848
 6767SOL    HW121200   1.159   1.824   0.753
 6767SOL    HW221201   1.076   1.796   0.891
 6768SOL     OW21202   0.775   6.213   3.631
 6768SOL    HW121203   0.838   6.149   3.586
 6768SOL    HW221204   0.809   6.232   3.724
 6769SOL     OW21205   2.616   6.941   5.596
 6769SOL    HW121206   2.670   6.874   5.546
 6769SOL    HW221207   2.637   6.935   5.694
 6770SOL     OW21208   4.551   1.960   3.770
 6770SOL    HW121209   4.503   1.947   3.684
 6770SOL    HW221210   4.613   2.038   3.762
 6771SOL     OW21211   4.404   0.977   2.238
 6771SOL    HW121212   4.492   0.944   2.204
 6771SOL    HW221213   4.343   0.899   2.254
 6772SOL     OW21214   4.684   2.442   2.747
 6772SOL    HW121215   4.589   2.427   2.772
 6772SOL    HW221216   4.743   2.415   2.824
 6773SOL     OW21217   0.497   6.281   2.063
 6773SOL    HW121218   0.442   6.251   1.985
 6773SOL    HW221219   0.521   6.202   2.119
 6774SOL     OW21220   1.953   3.478   4.610
 6774SOL    HW121221   1.879   3.510   4.552
 6774SOL    HW221222   2.010   3.413   4.559
 6775SOL     OW21223   1.128   2.352   3.319
 6775SOL    HW121224   1.084   2.291   3.385
 6775SOL    HW221225   1.089   2.338   3.229
 6776SOL     OW21226   4.158   4.070   0.324
 6776SOL    HW121227   4.246   4.111   0.349
 6776SOL    HW221228   4.166   3.970   0.326
 6777SOL     OW21229   5.133   5.315   0.867
 6777SOL    HW121230   5.075   5.373   0.811
 6777SOL    HW221231   5.085   5.289   0.951
 6778SOL     OW21232   6.539   3.888   1.867
 6778SOL    HW121233   6.480   3.941   1.806
 6778SOL    HW221234   6.635   3.913   1.852
 6779SOL     OW21235   5.770   4.485   6.155
 6779SOL    HW121236   5.833   4.460   6.081
 6779SOL    HW221237   5.730   4.575   6.135
 6780SOL     OW21238   0.756   2.956   2.617
 6780SOL    HW121239   0.675   2.935   2.671
 6780SOL    HW221240   0.734   2.950   2.520
 6781SOL     OW21241   6.719   1.637   4.752
 6781SOL    HW121242   6.620   1.651   4.739
 6781SOL    HW221243   6.769   1.714   4.714
 6782SOL     OW21244   0.722   1.038   2.931
 6782SOL    HW121245   0.720   0.971   2.857
 6782SOL    HW221246   0.774   1.118   2.902
 6783SOL     OW21247   0.823   2.344   6.053
 6783SOL    HW121248   0.851   2.421   6.110
 6783SOL    HW221249   0.902   2.308   6.004
 6784SOL     OW21250   2.793   3.730   0.487
 6784SOL    HW121251   2.787   3.772   0.397
 6784SOL    HW221252   2.887   3.700   0.504
 6785SOL     OW21253   5.444   4.999   4.990
 6785SOL    HW121254   5.454   5.036   4.898
 6785SOL    HW221255   5.348   4.980   5.008
 6786SOL     OW21256   0.843   2.538   0.199
 6786SOL    HW121257   0.774   2.588   0.148
 6786SOL    HW221258   0.803   2.504   0.284
 6787SOL     OW21259   3.163   2.614   0.762
 6787SOL    HW121260   3.110   2.694   0.791
 6787SOL    HW221261   3.103   2.547   0.720
 6788SOL     OW21262   0.812   4.436   2.141
 6788SOL    HW121263   0.909   4.445   2.164
 6788SOL    HW221264   0.766   4.523   2.154
 6789SOL     OW21265   0.226   4.419   3.828
 6789SOL    HW121266   0.300   4.484   3.812
 6789SOL    HW221267   0.261   4.341   3.880
 6790SOL     OW21268   1.237   4.045   6.702
 6790SOL    HW121269   1.207   3.955   6.733
 6790SOL    HW221270   1.320   4.072   6.751
 6791SOL     OW21271   4.062   2.114   2.502
 6791SOL    HW121272   3.973   2.138   2.540
 6791SOL    HW221273   4.052   2.089   2.406
 6792SOL     OW21274   5.142   0.493   5.326
 6792SOL    HW121275   5.079   0.451   5.391
 6792SOL    HW221276   5.174   0.581   5.362
 6793SOL     OW21277   3.050   1.011   6.422
 6793SOL    HW121278   2.964   1.015   6.372
 6793SOL    HW221279   3.099   1.097   6.413
 6794SOL     OW21280   5.527   1.394   5.263
 6794SOL    HW121281   5.489   1.329   5.329
 6794SOL    HW221282   5.596   1.349   5.208
 6795SOL     OW21283   1.505   5.854   0.955
 6795SOL    HW121284   1.431   5.920   0.967
 6795SOL    HW221285   1.489   5.802   0.871
 6796SOL     OW21286   6.368   0.364   2.349
 6796SOL    HW121287   6.423   0.309   2.286
 6796SOL    HW221288   6.277   0.324   2.359
 6797SOL     OW21289   6.760   2.565   1.843
 6797SOL    HW121290   6.678   2.588   1.895
 6797SOL    HW221291   6.773   2.466   1.842
 6798SOL     OW21292   6.721   6.788   1.648
 6798SOL    HW121293   6.650   6.772   1.717
 6798SOL    HW221294   6.681   6.837   1.570
 6799SOL     OW21295   6.118   0.283   2.440
 6799SOL    HW121296   6.173   0.201   2.455
 6799SOL    HW221297   6.027   0.256   2.407
 6800SOL     OW21298   2.479   2.564   2.127
 6800SOL    HW121299   2.558   2.503   2.136
 6800SOL    HW221300   2.416   2.527   2.059
 6801SOL     OW21301   1.087   0.015   3.922
 6801SOL    HW121302   1.108   0.111   3.906
 6801SOL    HW221303   1.168   6.984   3.906
 6802SOL     OW21304   2.927   6.222   1.743
 6802SOL    HW121305   2.979   6.214   1.658
 6802SOL    HW221306   2.938   6.139   1.797
 6803SOL     OW21307   4.363   4.293   6.449
 6803SOL    HW121308   4.369   4.325   6.355
 6803SOL    HW221309   4.438   4.334   6.502
 6804SOL     OW21310   4.329   5.433   2.733
 6804SOL    HW121311   4.340   5.334   2.738
 6804SOL    HW221312   4.233   5.456   2.750
 6805SOL     OW21313   0.541   5.064   6.123
 6805SOL    HW121314   0.508   5.154   6.152
 6805SOL    HW221315   0.491   4.993   6.173
 6806SOL     OW21316   6.727   0.866   3.744
 6806SOL    HW121317   6.765   0.830   3.659
 6806SOL    HW221318   6.714   0.790   3.809
 6807SOL     OW21319   3.804   3.585   2.295
 6807SOL    HW121320   3.755   3.501   2.320
 6807SOL    HW221321   3.769   3.618   2.207
 6808SOL     OW21322   0.007   1.682   5.427
 6808SOL    HW121323   6.938   1.655   5.452
 6808SOL    HW221324   0.003   1.758   5.362
 6809SOL     OW21325   6.444   3.323   1.188
 6809SOL    HW121326   6.436   3.227   1.214
 6809SOL    HW221327   6.380   3.344   1.115
 6810SOL     OW21328   2.893   1.088   2.181
 6810SOL    HW121329   2.981   1.134   2.169
 6810SOL    HW221330   2.907   1.002   2.230
 6811SOL     OW21331   6.551   3.618   2.228
 6811SOL    HW121332   6.520   3.528   2.258
 6811SOL    HW221333   6.616   3.655   2.294
 6812SOL     OW21334   3.787   4.190   5.187
 6812SOL    HW121335   3.734   4.143   5.259
 6812SOL    HW221336   3.782   4.288   5.201
 6813SOL     OW21337   6.006   3.066   2.341
 6813SOL    HW121338   5.977   3.120   2.262
 6813SOL    HW221339   6.077   3.002   2.313
 6814SOL     OW21340   4.599   2.052   6.403
 6814SOL    HW121341   4.569   1.982   6.338
 6814SOL    HW221342   4.566   2.029   6.495
 6815SOL     OW21343   2.548   6.646   6.357
 6815SOL    HW121344   2.485   6.707   6.405
 6815SOL    HW221345   2.643   6.673   6.378
 6816SOL     OW21346   6.955   0.820   5.728
 6816SOL    HW121347   6.886   0.793   5.661
 6816SOL    HW221348   0.013   0.852   5.680
 6817SOL     OW21349   2.218   2.922   3.549
 6817SOL    HW121350   2.191   3.013   3.519
 6817SOL    HW221351   2.188   2.907   3.643
 6818SOL     OW21352   1.843   6.720   0.635
 6818SOL    HW121353   1.928   6.742   0.683
 6818SOL    HW221354   1.831   6.621   0.632
 6819SOL     OW21355   4.263   1.472   3.297
 6819SOL    HW121356   4.327   1.493   3.372
 6819SOL    HW221357   4.184   1.423   3.334
 6820SOL     OW21358   1.525   6.058   1.443
 6820SOL    HW121359   1.615   6.016   1.434
 6820SOL    HW221360   1.530   6.137   1.503
 6821SOL     OW21361   4.306   2.555   5.398
 6821SOL    HW121362   4.244   2.556   5.320
 6821SOL    HW221363   4.259   2.517   5.478
 6822SOL     OW21364   5.847   2.524   5.780
 6822SOL    HW121365   5.842   2.617   5.742
 6822SOL    HW221366   5.814   2.525   5.874
 6823SOL     OW21367   6.026   3.978   6.269
 6823SOL    HW121368   6.000   4.075   6.266
 6823SOL    HW221369   5.975   3.932   6.342
 6824SOL     OW21370   1.075   1.503   0.839
 6824SOL    HW121371   1.158   1.482   0.788
 6824SOL    HW221372   1.007   1.543   0.777
 6825SOL     OW21373   5.602   0.861   0.137
 6825SOL    HW121374   5.690   0.820   0.159
 6825SOL    HW221375   5.530   0.817   0.191
 6826SOL     OW21376   1.872   3.451   3.806
 6826SOL    HW121377   1.875   3.548   3.784
 6826SOL    HW221378   1.943   3.429   3.873
 6827SOL     OW21379   5.756   5.543   6.373
 6827SOL    HW121380   5.803   5.455   6.382
 6827SOL    HW221381   5.676   5.532   6.314
 6828SOL     OW21382   3.789   1.542   1.855
 6828SOL    HW121383   3.736   1.608   1.907
 6828SOL    HW221384   3.751   1.534   1.762
 6829SOL     OW21385   5.015   6.274   5.502
 6829SOL    HW121386   5.071   6.356   5.491
 6829SOL    HW221387   5.074   6.197   5.529
 6830SOL     OW21388   5.224   0.598   3.509
 6830SOL    HW121389   5.237   0.688   3.550
 6830SOL    HW221390   5.272   0.530   3.565
 6831SOL     OW21391   1.847   1.498   5.730
 6831SOL    HW121392   1.784   1.538   5.796
 6831SOL    HW221393   1.931   1.469   5.776
 6832SOL     OW21394   2.785   4.180   0.952
 6832SOL    HW121395   2.726   4.243   0.902
 6832SOL    HW221396   2.776   4.088   0.913
 6833SOL     OW21397   2.470   4.847   6.586
 6833SOL    HW121398   2.404   4.777   6.614
 6833SOL    HW221399   2.443   4.885   6.497
 6834SOL     OW21400   6.348   0.040   0.701
 6834SOL    HW121401   6.381   0.112   0.762
 6834SOL    HW221402   6.384   0.055   0.609
 6835SOL     OW21403   3.597   0.863   4.677
 6835SOL    HW121404   3.679   0.920   4.681
 6835SOL    HW221405   3.600   0.794   4.749
 6836SOL     OW21406   2.858   4.569   6.453
 6836SOL    HW121407   2.910   4.495   6.410
 6836SOL    HW221408   2.921   4.636   6.491
 6837SOL     OW21409   0.460   2.400   3.368
 6837SOL    HW121410   0.470   2.487   3.320
 6837SOL    HW221411   0.455   2.417   3.467
 6838SOL     OW21412   3.080   5.162   6.479
 6838SOL    HW121413   3.142   5.120   6.546
 6838SOL    HW221414   3.134   5.200   6.403
 6839SOL     OW21415   5.335   1.177   4.995
 6839SOL    HW121416   5.243   1.197   5.029
 6839SOL    HW221417   5.329   1.122   4.912
 6840SOL     OW21418   3.005   6.815   5.185
 6840SOL    HW121419   2.971   6.888   5.245
 6840SOL    HW221420   3.082   6.769   5.230
 6841SOL     OW21421   3.979   4.770   0.680
 6841SOL    HW121422   3.904   4.747   0.742
 6841SOL    HW221423   3.998   4.868   0.686
 6842SOL     OW21424   2.597   2.710   0.377
 6842SOL    HW121425   2.545   2.694   0.293
 6842SOL    HW221426   2.578   2.637   0.442
 6843SOL     OW21427   5.535   6.941   1.896
 6843SOL    HW121428   5.561   7.019   1.838
 6843SOL    HW221429   5.552   6.856   1.847
 6844SOL     OW21430   5.763   6.850   3.669
 6844SOL    HW121431   5.694   6.819   3.603
 6844SOL    HW221432   5.828   6.775   3.686
 6845SOL     OW21433   5.647   4.381   2.685
 6845SOL    HW121434   5.634   4.468   2.732
 6845SOL    HW221435   5.559   4.333   2.679
 6846SOL     OW21436   4.200   3.483   1.091
 6846SOL    HW121437   4.293   3.518   1.104
 6846SOL    HW221438   4.134   3.547   1.130
 6847SOL     OW21439   6.611   4.714   2.940
 6847SOL    HW121440   6.701   4.715   2.983
 6847SOL    HW221441   6.581   4.619   2.928
 6848SOL     OW21442   3.238   6.308   3.666
 6848SOL    HW121443   3.245   6.288   3.764
 6848SOL    HW221444   3.217   6.405   3.654
 6849SOL     OW21445   3.601   5.555   4.860
 6849SOL    HW121446   3.546   5.476   4.889
 6849SOL    HW221447   3.670   5.524   4.794
 6850SOL     OW21448   5.631   3.703   2.200
 6850SOL    HW121449   5.592   3.730   2.112
 6850SOL    HW221450   5.573   3.739   2.274
 6851SOL     OW21451   1.311   2.857   3.777
 6851SOL    HW121452   1.291   2.953   3.756
 6851SOL    HW221453   1.336   2.810   3.692
 6852SOL     OW21454   1.825   4.516   1.009
 6852SOL    HW121455   1.852   4.527   0.913
 6852SOL    HW221456   1.798   4.421   1.025
 6853SOL     OW21457   6.871   3.935   0.330
 6853SOL    HW121458   6.893   3.869   0.258
 6853SOL    HW221459   6.866   4.027   0.291
 6854SOL     OW21460   5.702   2.072   5.989
 6854SOL    HW121461   5.747   2.038   5.906
 6854SOL    HW221462   5.638   2.144   5.964
 6855SOL     OW21463   3.336   5.703   3.253
 6855SOL    HW121464   3.289   5.755   3.181
 6855SOL    HW221465   3.268   5.659   3.312
 6856SOL     OW21466   5.051   4.642   5.283
 6856SOL    HW121467   5.076   4.566   5.343
 6856SOL    HW221468   5.111   4.642   5.203
 6857SOL     OW21469   2.865   1.626   6.786
 6857SOL    HW121470   2.766   1.638   6.786
 6857SOL    HW221471   2.908   1.709   6.749
 6858SOL     OW21472   3.822   3.406   4.403
 6858SOL    HW121473   3.761   3.346   4.352
 6858SOL    HW221474   3.915   3.369   4.402
 6859SOL     OW21475   1.207   0.255   1.176
 6859SOL    HW121476   1.122   0.252   1.228
 6859SOL    HW221477   1.267   0.325   1.214
 6860SOL     OW21478   5.978   5.628   1.316
 6860SOL    HW121479   5.925   5.681   1.382
 6860SOL    HW221480   6.005   5.541   1.356
 6861SOL     OW21481   5.505   4.135   0.796
 6861SOL    HW121482   5.431   4.082   0.755
 6861SOL    HW221483   5.559   4.076   0.855
 6862SOL     OW21484   1.804   4.468   5.112
 6862SOL    HW121485   1.901   4.492   5.105
 6862SOL    HW221486   1.751   4.528   5.052
 6863SOL     OW21487   6.116   1.209   5.782
 6863SOL    HW121488   6.194   1.245   5.833
 6863SOL    HW221489   6.148   1.144   5.713
 6864SOL     OW21490   3.272   5.893   4.230
 6864SOL    HW121491   3.308   5.854   4.314
 6864SOL    HW221492   3.208   5.967   4.252
 6865SOL     OW21493   0.267   5.781   3.394
 6865SOL    HW121494   0.218   5.867   3.407
 6865SOL    HW221495   0.245   5.743   3.304
 6866SOL     OW21496   6.751   4.666   2.324
 6866SOL    HW121497   6.805   4.647   2.242
 6866SOL    HW221498   6.810   4.703   2.396
 6867SOL     OW21499   1.681   5.143   1.445
 6867SOL    HW121500   1.645   5.233   1.469
 6867SOL    HW221501   1.647   5.075   1.511
 6868SOL     OW21502   1.200   5.311   6.347
 6868SOL    HW121503   1.250   5.344   6.427
 6868SOL    HW221504   1.230   5.218   6.324
 6869SOL     OW21505   5.492   0.520   4.883
 6869SOL    HW121506   5.443   0.469   4.812
 6869SOL    HW221507   5.557   0.582   4.839
 6870SOL     OW21508   0.100   4.774   2.188
 6870SOL    HW121509   0.040   4.849   2.214
 6870SOL    HW221510   0.047   4.691   2.175
 6871SOL     OW21511   6.111   4.272   2.802
 6871SOL    HW121512   6.014   4.299   2.801
 6871SOL    HW221513   6.119   4.179   2.838
 6872SOL     OW21514   0.811   2.896   1.288
 6872SOL    HW121515   0.768   2.935   1.370
 6872SOL    HW221516   0.910   2.901   1.297
 6873SOL     OW21517   6.581   4.037   5.106
 6873SOL    HW121518   6.649   3.995   5.165
 6873SOL    HW221519   6.554   4.126   5.143
 6874SOL     OW21520   0.971   5.436   2.301
 6874SOL    HW121521   1.015   5.526   2.292
 6874SOL    HW221522   0.874   5.444   2.282
 6875SOL     OW21523   1.440   2.488   3.291
 6875SOL    HW121524   1.493   2.565   3.254
 6875SOL    HW221525   1.385   2.520   3.367
 6876SOL     OW21526   4.147   6.244   4.397
 6876SOL    HW121527   4.184   6.177   4.462
 6876SOL    HW221528   4.192   6.233   4.309
 6877SOL     OW21529   2.664   4.197   0.096
 6877SOL    HW121530   2.655   4.216   0.194
 6877SOL    HW221531   2.578   4.217   0.050
 6878SOL     OW21532   3.003   2.111   5.459
 6878SOL    HW121533   3.095   2.083   5.434
 6878SOL    HW221534   2.966   2.172   5.389
 6879SOL     OW21535   0.964   2.107   0.246
 6879SOL    HW121536   0.991   2.197   0.212
 6879SOL    HW221537   1.033   2.039   0.222
 6880SOL     OW21538   2.149   3.859   5.143
 6880SOL    HW121539   2.212   3.901   5.077
 6880SOL    HW221540   2.170   3.892   5.235
 6881SOL     OW21541   0.915   3.773   2.267
 6881SOL    HW121542   0.879   3.866   2.260
 6881SOL    HW221543   1.014   3.775   2.257
 6882SOL     OW21544   3.763   0.943   6.570
 6882SOL    HW121545   3.814   0.956   6.655
 6882SOL    HW221546   3.674   0.904   6.591
 6883SOL     OW21547   3.873   1.935   0.606
 6883SOL    HW121548   3.934   1.989   0.664
 6883SOL    HW221549   3.855   1.847   0.650
 6884SOL     OW21550   1.848   3.854   4.530
 6884SOL    HW121551   1.936   3.817   4.501
 6884SOL    HW221552   1.858   3.897   4.620
 6885SOL     OW21553   3.670   6.158   4.577
 6885SOL    HW121554   3.715   6.127   4.660
 6885SOL    HW221555   3.696   6.098   4.501
 6886SOL     OW21556   6.748   0.675   3.924
 6886SOL    HW121557   6.723   0.581   3.946
 6886SOL    HW221558   6.835   0.698   3.968
 6887SOL     OW21559   5.180   6.261   5.263
 6887SOL    HW121560   5.151   6.329   5.195
 6887SOL    HW221561   5.173   6.301   5.355
 6888SOL     OW21562   5.374   6.350   6.281
 6888SOL    HW121563   5.468   6.329   6.310
 6888SOL    HW221564   5.375   6.395   6.192
 6889SOL     OW21565   1.736   2.395   5.159
 6889SOL    HW121566   1.818   2.375   5.104
 6889SOL    HW221567   1.720   2.319   5.222
 6890SOL     OW21568   3.663   6.940   1.084
 6890SOL    HW121569   3.739   6.892   1.040
 6890SOL    HW221570   3.584   6.878   1.092
 6891SOL     OW21571   2.187   4.642   4.204
 6891SOL    HW121572   2.253   4.701   4.250
 6891SOL    HW221573   2.098   4.652   4.247
 6892SOL     OW21574   3.501   1.836   3.644
 6892SOL    HW121575   3.414   1.824   3.693
 6892SOL    HW221576   3.552   1.750   3.645
 6893SOL     OW21577   5.137   5.154   6.709
 6893SOL    HW121578   5.158   5.234   6.765
 6893SOL    HW221579   5.075   5.180   6.635
 6894SOL     OW21580   6.225   4.475   0.318
 6894SOL    HW121581   6.191   4.548   0.260
 6894SOL    HW221582   6.147   4.424   0.356
 6895SOL     OW21583   2.896   5.731   6.598
 6895SOL    HW121584   2.924   5.673   6.674
 6895SOL    HW221585   2.906   5.681   6.512
 6896SOL     OW21586   1.302   6.778   3.346
 6896SOL    HW121587   1.269   6.755   3.437
 6896SOL    HW221588   1.232   6.754   3.278
 6897SOL     OW21589   2.769   2.643   7.021
 6897SOL    HW121590   2.841   2.574   7.017
 6897SOL    HW221591   2.763   2.679   0.090
 6898SOL     OW21592   4.078   1.188   2.239
 6898SOL    HW121593   4.099   1.265   2.300
 6898SOL    HW221594   4.158   1.166   2.184
 6899SOL     OW21595   5.317   6.658   1.143
 6899SOL    HW121596   5.257   6.588   1.106
 6899SOL    HW221597   5.263   6.740   1.165
 6900SOL     OW21598   6.526   7.018   5.699
 6900SOL    HW121599   6.545   6.972   5.786
 6900SOL    HW221600   6.604   0.049   5.672
 6901SOL     OW21601   0.520   6.772   6.344
 6901SOL    HW121602   0.577   6.849   6.374
 6901SOL    HW221603   0.434   6.773   6.395
 6902SOL     OW21604   5.487   6.853   0.373
 6902SOL    HW121605   5.546   6.842   0.292
 6902SOL    HW221606   5.544   6.851   0.455
 6903SOL     OW21607   3.898   5.477   4.420
 6903SOL    HW121608   3.933   5.399   4.368
 6903SOL    HW221609   3.805   5.498   4.390
 6904SOL     OW21610   5.854   1.913   4.315
 6904SOL    HW121611   5.876   1.930   4.219
 6904SOL    HW221612   5.859   1.815   4.334
 6905SOL     OW21613   6.403   6.637   6.765
 6905SOL    HW121614   6.384   6.574   6.840
 6905SOL    HW221615   6.323   6.694   6.749
 6906SOL     OW21616   4.632   1.386   3.937
 6906SOL    HW121617   4.729   1.376   3.912
 6906SOL    HW221618   4.585   1.437   3.866
 6907SOL     OW21619   4.865   2.181   1.264
 6907SOL    HW121620   4.892   2.238   1.187
 6907SOL    HW221621   4.915   2.094   1.261
 6908SOL     OW21622   1.120   6.173   6.504
 6908SOL    HW121623   1.098   6.161   6.407
 6908SOL    HW221624   1.218   6.159   6.518
 6909SOL     OW21625   6.302   4.094   1.419
 6909SOL    HW121626   6.203   4.086   1.408
 6909SOL    HW221627   6.332   4.185   1.390
 6910SOL     OW21628   0.429   2.672   3.924
 6910SOL    HW121629   0.465   2.611   3.995
 6910SOL    HW221630   0.337   2.644   3.899
 6911SOL     OW21631   4.624   6.438   3.717
 6911SOL    HW121632   4.660   6.346   3.734
 6911SOL    HW221633   4.606   6.450   3.620
 6912SOL     OW21634   3.316   4.957   0.595
 6912SOL    HW121635   3.408   4.961   0.557
 6912SOL    HW221636   3.312   5.009   0.680
 6913SOL     OW21637   5.075   4.776   4.854
 6913SOL    HW121638   4.985   4.747   4.887
 6913SOL    HW221639   5.145   4.716   4.891
 6914SOL     OW21640   5.314   4.586   6.679
 6914SOL    HW121641   5.305   4.499   6.726
 6914SOL    HW221642   5.339   4.570   6.583
 6915SOL     OW21643   5.999   4.068   1.448
 6915SOL    HW121644   5.955   4.010   1.379
 6915SOL    HW221645   5.935   4.139   1.477
 6916SOL     OW21646   6.394   3.715   6.866
 6916SOL    HW121647   6.467   3.713   6.934
 6916SOL    HW221648   6.347   3.803   6.869
 6917SOL     OW21649   3.140   5.758   1.009
 6917SOL    HW121650   3.175   5.851   0.997
 6917SOL    HW221651   3.057   5.761   1.065
 6918SOL     OW21652   0.112   3.160   4.249
 6918SOL    HW121653   0.163   3.174   4.334
 6918SOL    HW221654   0.065   3.244   4.224
 6919SOL     OW21655   0.161   6.547   2.604
 6919SOL    HW121656   0.196   6.575   2.514
 6919SOL    HW221657   0.173   6.449   2.616
 6920SOL     OW21658   4.752   5.434   5.441
 6920SOL    HW121659   4.736   5.379   5.359
 6920SOL    HW221660   4.664   5.460   5.481
 6921SOL     OW21661   5.476   6.092   3.104
 6921SOL    HW121662   5.465   5.996   3.126
 6921SOL    HW221663   5.412   6.117   3.032
 6922SOL     OW21664   2.230   5.835   6.382
 6922SOL    HW121665   2.216   5.808   6.478
 6922SOL    HW221666   2.146   5.817   6.331
 6923SOL     OW21667   4.970   5.093   3.281
 6923SOL    HW121668   4.954   4.995   3.281
 6923SOL    HW221669   4.892   5.140   3.240
 6924SOL     OW21670   1.668   4.243   6.882
 6924SOL    HW121671   1.740   4.207   6.823
 6924SOL    HW221672   1.709   4.301   6.953
 6925SOL     OW21673   3.854   6.036   4.762
 6925SOL    HW121674   3.799   5.952   4.763
 6925SOL    HW221675   3.859   6.074   4.854
 6926SOL     OW21676   3.033   3.479   1.943
 6926SOL    HW121677   3.079   3.464   1.856
 6926SOL    HW221678   2.964   3.408   1.957
 6927SOL     OW21679   5.423   3.255   6.627
 6927SOL    HW121680   5.490   3.189   6.660
 6927SOL    HW221681   5.442   3.344   6.668
 6928SOL     OW21682   6.078   6.157   0.889
 6928SOL    HW121683   6.176   6.174   0.881
 6928SOL    HW221684   6.032   6.241   0.920
 6929SOL     OW21685   5.458   5.424   0.829
 6929SOL    HW121686   5.403   5.484   0.886
 6929SOL    HW221687   5.453   5.454   0.734
 6930SOL     OW21688   0.253   6.618   2.346
 6930SOL    HW121689   0.279   6.715   2.342
 6930SOL    HW221690   0.319   6.564   2.295
 6931SOL     OW21691   1.938   0.754   2.295
 6931SOL    HW121692   1.946   0.743   2.196
 6931SOL    HW221693   1.946   0.665   2.340
 6932SOL     OW21694   3.621   0.129   0.538
 6932SOL    HW121695   3.642   0.068   0.614
 6932SOL    HW221696   3.573   0.079   0.467
 6933SOL     OW21697   2.935   6.065   5.206
 6933SOL    HW121698   2.892   5.990   5.156
 6933SOL    HW221699   2.889   6.151   5.183
 6934SOL     OW21700   5.111   3.674   6.102
 6934SOL    HW121701   5.040   3.651   6.035
 6934SOL    HW221702   5.126   3.596   6.162
 6935SOL     OW21703   4.328   5.613   3.144
 6935SOL    HW121704   4.396   5.686   3.140
 6935SOL    HW221705   4.314   5.585   3.239
 6936SOL     OW21706   6.636   2.398   3.663
 6936SOL    HW121707   6.582   2.482   3.653
 6936SOL    HW221708   6.612   2.334   3.590
 6937SOL     OW21709   0.096   6.213   0.410
 6937SOL    HW121710   0.137   6.238   0.497
 6937SOL    HW221711   0.157   6.241   0.335
 6938SOL     OW21712   5.113   3.480   5.766
 6938SOL    HW121713   5.098   3.579   5.767
 6938SOL    HW221714   5.061   3.438   5.840
 6939SOL     OW21715   0.678   4.280   1.944
 6939SOL    HW121716   0.642   4.200   1.993
 6939SOL    HW221717   0.735   4.334   2.007
 6940SOL     OW21718   4.720   1.061   0.629
 6940SOL    HW121719   4.629   1.037   0.664
 6940SOL    HW221720   4.738   1.009   0.546
 6941SOL     OW21721   2.904   3.310   2.607
 6941SOL    HW121722   2.956   3.290   2.524
 6941SOL    HW221723   2.872   3.225   2.648
 6942SOL     OW21724   5.939   2.473   1.292
 6942SOL    HW121725   5.964   2.567   1.271
 6942SOL    HW221726   5.884   2.471   1.375
 6943SOL     OW21727   4.721   6.112   6.957
 6943SOL    HW121728   4.779   6.165   6.895
 6943SOL    HW221729   4.693   6.169   0.009
 6944SOL     OW21730   1.197   3.519   6.429
 6944SOL    HW121731   1.109   3.528   6.384
 6944SOL    HW221732   1.247   3.605   6.424
 6945SOL     OW21733   6.572   2.872   6.331
 6945SOL    HW121734   6.547   2.968   6.316
 6945SOL    HW221735   6.655   2.867   6.387
 6946SOL     OW21736   6.193   6.059   1.318
 6946SOL    HW121737   6.250   6.078   1.239
 6946SOL    HW221738   6.098   6.047   1.289
 6947SOL     OW21739   3.564   6.265   5.595
 6947SOL    HW121740   3.578   6.344   5.655
 6947SOL    HW221741   3.474   6.225   5.613
 6948SOL     OW21742   6.634   0.169   6.736
 6948SOL    HW121743   6.717   0.222   6.755
 6948SOL    HW221744   6.553   0.225   6.756
 6949SOL     OW21745   5.373   6.834   3.349
 6949SOL    HW121746   5.338   6.743   3.367
 6949SOL    HW221747   5.299   6.893   3.317
 6950SOL     OW21748   2.555   0.650   3.878
 6950SOL    HW121749   2.475   0.665   3.935
 6950SOL    HW221750   2.562   0.723   3.810
 6951SOL     OW21751   6.776   6.355   5.767
 6951SOL    HW121752   6.682   6.376   5.793
 6951SOL    HW221753   6.793   6.390   5.675
 6952SOL     OW21754   0.216   5.565   3.878
 6952SOL    HW121755   0.231   5.603   3.787
 6952SOL    HW221756   0.252   5.629   3.947
 6953SOL     OW21757   5.092   6.673   6.977
 6953SOL    HW121758   5.106   6.759   0.001
 6953SOL    HW221759   4.997   6.666   6.946
 6954SOL     OW21760   0.240   3.474   3.745
 6954SOL    HW121761   0.231   3.489   3.844
 6954SOL    HW221762   0.248   3.562   3.699
 6955SOL     OW21763   6.463   1.030   1.752
 6955SOL    HW121764   6.534   1.035   1.821
 6955SOL    HW221765   6.504   1.013   1.662
 6956SOL     OW21766   4.820   6.582   3.607
 6956SOL    HW121767   4.768   6.508   3.650
 6956SOL    HW221768   4.757   6.655   3.580
 6957SOL     OW21769   6.095   5.578   0.687
 6957SOL    HW121770   6.123   5.497   0.738
 6957SOL    HW221771   6.117   5.565   0.590
 6958SOL     OW21772   3.250   4.137   4.974
 6958SOL    HW121773   3.281   4.167   5.064
 6958SOL    HW221774   3.321   4.153   4.906
 6959SOL     OW21775   1.908   1.748   4.513
 6959SOL    HW121776   1.991   1.764   4.459
 6959SOL    HW221777   1.830   1.734   4.451
 6960SOL     OW21778   1.860   5.524   1.631
 6960SOL    HW121779   1.958   5.537   1.643
 6960SOL    HW221780   1.837   5.534   1.534
 6961SOL     OW21781   6.062   2.087   4.469
 6961SOL    HW121782   5.985   2.081   4.405
 6961SOL    HW221783   6.144   2.115   4.419
 6962SOL     OW21784   5.543   6.160   2.053
 6962SOL    HW121785   5.505   6.253   2.055
 6962SOL    HW221786   5.468   6.094   2.060
 6963SOL     OW21787   6.066   5.809   1.510
 6963SOL    HW121788   6.108   5.779   1.424
 6963SOL    HW221789   6.004   5.886   1.492
 6964SOL     OW21790   3.424   6.740   5.151
 6964SOL    HW121791   3.474   6.809   5.098
 6964SOL    HW221792   3.460   6.649   5.128
 6965SOL     OW21793   0.650   3.057   0.545
 6965SOL    HW121794   0.581   3.046   0.473
 6965SOL    HW221795   0.705   2.973   0.551
 6966SOL     OW21796   6.932   2.369   3.710
 6966SOL    HW121797   6.854   2.329   3.662
 6966SOL    HW221798   6.901   2.446   3.766
 6967SOL     OW21799   1.323   0.013   5.557
 6967SOL    HW121800   1.273   7.002   5.636
 6967SOL    HW221801   1.421   7.024   5.570
 6968SOL     OW21802   4.324   6.697   2.817
 6968SOL    HW121803   4.279   6.669   2.732
 6968SOL    HW221804   4.269   6.768   2.862
 6969SOL     OW21805   2.658   2.257   1.337
 6969SOL    HW121806   2.639   2.198   1.259
 6969SOL    HW221807   2.757   2.276   1.342
 6970SOL     OW21808   2.999   4.067   6.093
 6970SOL    HW121809   3.091   4.091   6.063
 6970SOL    HW221810   2.979   4.113   6.180
 6971SOL     OW21811   6.160   4.422   1.733
 6971SOL    HW121812   6.151   4.334   1.687
 6971SOL    HW221813   6.193   4.409   1.826
 6972SOL     OW21814   5.743   4.744   3.230
 6972SOL    HW121815   5.744   4.830   3.179
 6972SOL    HW221816   5.654   4.733   3.275
 6973SOL     OW21817   0.305   3.133   5.229
 6973SOL    HW121818   0.386   3.186   5.204
 6973SOL    HW221819   0.325   3.076   5.309
 6974SOL     OW21820   3.213   2.955   2.604
 6974SOL    HW121821   3.200   3.028   2.537
 6974SOL    HW221822   3.238   2.870   2.557
 6975SOL     OW21823   2.012   5.677   6.086
 6975SOL    HW121824   1.983   5.728   6.167
 6975SOL    HW221825   2.091   5.620   6.109
 6976SOL     OW21826   4.693   6.103   4.718
 6976SOL    HW121827   4.784   6.092   4.758
 6976SOL    HW221828   4.677   6.200   4.698
 6977SOL     OW21829   4.380   2.559   1.806
 6977SOL    HW121830   4.436   2.521   1.732
 6977SOL    HW221831   4.405   2.515   1.892
 6978SOL     OW21832   4.212   1.886   2.485
 6978SOL    HW121833   4.167   1.960   2.535
 6978SOL    HW221834   4.142   1.822   2.451
 6979SOL     OW21835   1.421   4.587   1.296
 6979SOL    HW121836   1.492   4.624   1.236
 6979SOL    HW221837   1.339   4.644   1.290
 6980SOL     OW21838   1.176   1.271   3.840
 6980SOL    HW121839   1.242   1.198   3.823
 6980SOL    HW221840   1.181   1.338   3.766
 6981SOL     OW21841   3.974   2.791   5.836
 6981SOL    HW121842   3.993   2.737   5.755
 6981SOL    HW221843   3.890   2.758   5.879
 6982SOL     OW21844   1.548   0.338   5.017
 6982SOL    HW121845   1.610   0.353   4.940
 6982SOL    HW221846   1.505   0.248   5.008
 6983SOL     OW21847   4.183   2.205   3.783
 6983SOL    HW121848   4.103   2.227   3.838
 6983SOL    HW221849   4.262   2.255   3.817
 6984SOL     OW21850   2.546   1.464   4.041
 6984SOL    HW121851   2.552   1.496   3.946
 6984SOL    HW221852   2.553   1.365   4.043
 6985SOL     OW21853   4.371   5.078   1.213
 6985SOL    HW121854   4.438   5.151   1.227
 6985SOL    HW221855   4.292   5.114   1.163
 6986SOL     OW21856   2.123   6.805   6.366
 6986SOL    HW121857   2.135   6.901   6.389
 6986SOL    HW221858   2.145   6.790   6.269
 6987SOL     OW21859   0.085   1.358   5.977
 6987SOL    HW121860   0.109   1.290   5.908
 6987SOL    HW221861   0.168   1.401   6.012
 6988SOL     OW21862   0.153   0.456   5.831
 6988SOL    HW121863   0.110   0.447   5.921
 6988SOL    HW221864   0.091   0.505   5.770
 6989SOL     OW21865   0.215   4.212   2.840
 6989SOL    HW121866   0.264   4.132   2.873
 6989SOL    HW221867   0.125   4.216   2.882
 6990SOL     OW21868   4.796   2.722   1.115
 6990SOL    HW121869   4.718   2.667   1.084
 6990SOL    HW221870   4.807   2.710   1.214
 6991SOL     OW21871   3.522   4.958   3.924
 6991SOL    HW121872   3.430   4.964   3.964
 6991SOL    HW221873   3.532   5.028   3.853
 6992SOL     OW21874   5.063   5.919   5.867
 6992SOL    HW121875   5.012   5.913   5.953
 6992SOL    HW221876   5.053   5.833   5.817
 6993SOL     OW21877   6.524   0.609   3.354
 6993SOL    HW121878   6.518   0.665   3.271
 6993SOL    HW221879   6.457   0.640   3.421
 6994SOL     OW21880   0.285   1.729   4.491
 6994SOL    HW121881   0.232   1.715   4.407
 6994SOL    HW221882   0.378   1.758   4.468
 6995SOL     OW21883   6.771   4.597   5.993
 6995SOL    HW121884   6.700   4.596   5.922
 6995SOL    HW221885   6.851   4.645   5.959
 6996SOL     OW21886   1.642   0.651   6.546
 6996SOL    HW121887   1.681   0.571   6.499
 6996SOL    HW221888   1.611   0.624   6.637
 6997SOL     OW21889   5.968   5.895   5.456
 6997SOL    HW121890   6.025   5.819   5.487
 6997SOL    HW221891   5.993   5.919   5.362
 6998SOL     OW21892   1.885   1.500   1.515
 6998SOL    HW121893   1.829   1.435   1.567
 6998SOL    HW221894   1.835   1.586   1.504
 6999SOL     OW21895   2.479   3.200   5.857
 6999SOL    HW121896   2.381   3.197   5.873
 6999SOL    HW221897   2.525   3.235   5.939
 7000SOL     OW21898   6.349   6.143   1.557
 7000SOL    HW121899   6.443   6.143   1.522
 7000SOL    HW221900   6.286   6.114   1.485
 7001SOL     OW21901   2.128   2.933   5.346
 7001SOL    HW121902   2.174   2.906   5.261
 7001SOL    HW221903   2.149   3.028   5.366
 7002SOL     OW21904   2.148   5.194   3.502
 7002SOL    HW121905   2.124   5.290   3.494
 7002SOL    HW221906   2.144   5.166   3.598
 7003SOL     OW21907   3.626   5.519   0.224
 7003SOL    HW121908   3.597   5.451   0.156
 7003SOL    HW221909   3.713   5.559   0.195
 7004SOL     OW21910   1.217   4.477   2.603
 7004SOL    HW121911   1.228   4.454   2.506
 7004SOL    HW221912   1.132   4.436   2.637
 7005SOL     OW21913   1.402   6.977   0.224
 7005SOL    HW121914   1.356   7.009   0.141
 7005SOL    HW221915   1.456   6.895   0.203
 7006SOL     OW21916   4.817   4.925   3.858
 7006SOL    HW121917   4.822   5.011   3.909
 7006SOL    HW221918   4.721   4.897   3.851
 7007SOL     OW21919   4.777   0.338   3.837
 7007SOL    HW121920   4.730   0.418   3.871
 7007SOL    HW221921   4.832   0.297   3.910
 7008SOL     OW21922   1.056   4.335   4.733
 7008SOL    HW121923   1.056   4.237   4.750
 7008SOL    HW221924   1.057   4.384   4.820
 7009SOL     OW21925   6.076   6.145   1.976
 7009SOL    HW121926   5.988   6.107   2.005
 7009SOL    HW221927   6.132   6.073   1.936
 7010SOL     OW21928   5.262   4.859   4.516
 7010SOL    HW121929   5.287   4.763   4.531
 7010SOL    HW221930   5.173   4.877   4.556
 7011SOL     OW21931   4.179   6.787   6.433
 7011SOL    HW121932   4.139   6.877   6.416
 7011SOL    HW221933   4.278   6.796   6.444
 7012SOL     OW21934   2.178   2.070   1.773
 7012SOL    HW121935   2.148   2.124   1.693
 7012SOL    HW221936   2.183   1.974   1.748
 7013SOL     OW21937   1.077   0.466   0.820
 7013SOL    HW121938   1.109   0.371   0.825
 7013SOL    HW221939   0.987   0.468   0.777
 7014SOL     OW21940   3.914   3.304   1.048
 7014SOL    HW121941   3.963   3.377   1.096
 7014SOL    HW221942   3.824   3.338   1.019
 7015SOL     OW21943   6.029   4.181   2.089
 7015SOL    HW121944   5.937   4.148   2.111
 7015SOL    HW221945   6.094   4.146   2.157
 7016SOL     OW21946   3.648   5.030   1.435
 7016SOL    HW121947   3.713   4.983   1.376
 7016SOL    HW221948   3.634   4.978   1.519
 7017SOL     OW21949   3.261   5.865   3.047
 7017SOL    HW121950   3.258   5.849   2.948
 7017SOL    HW221951   3.197   5.937   3.071
 7018SOL     OW21952   5.882   4.023   4.118
 7018SOL    HW121953   5.930   3.956   4.061
 7018SOL    HW221954   5.794   3.986   4.146
 7019SOL     OW21955   2.845   4.361   6.995
 7019SOL    HW121956   2.917   4.304   6.955
 7019SOL    HW221957   2.767   4.304   7.020
 7020SOL     OW21958   5.971   6.468   6.590
 7020SOL    HW121959   5.968   6.500   6.496
 7020SOL    HW221960   6.037   6.393   6.598
 7021SOL     OW21961   1.734   1.488   6.037
 7021SOL    HW121962   1.649   1.480   5.984
 7021SOL    HW221963   1.744   1.407   6.094
 7022SOL     OW21964   4.390   6.400   0.050
 7022SOL    HW121965   4.292   6.394   0.031
 7022SOL    HW221966   4.413   6.493   0.079
 7023SOL     OW21967   0.293   1.626   3.693
 7023SOL    HW121968   0.219   1.642   3.759
 7023SOL    HW221969   0.279   1.538   3.647
 7024SOL     OW21970   2.362   3.855   5.412
 7024SOL    HW121971   2.386   3.889   5.321
 7024SOL    HW221972   2.391   3.760   5.421
 7025SOL     OW21973   2.430   1.006   6.848
 7025SOL    HW121974   2.340   1.013   6.804
 7025SOL    HW221975   2.472   0.919   6.822
 7026SOL     OW21976   3.457   2.313   1.713
 7026SOL    HW121977   3.543   2.334   1.759
 7026SOL    HW221978   3.390   2.281   1.781
 7027SOL     OW21979   2.683   4.949   4.510
 7027SOL    HW121980   2.616   4.999   4.455
 7027SOL    HW221981   2.685   4.854   4.481
 7028SOL     OW21982   4.128   1.024   4.099
 7028SOL    HW121983   4.045   1.078   4.088
 7028SOL    HW221984   4.105   0.927   4.105
 7029SOL     OW21985   5.253   4.658   5.667
 7029SOL    HW121986   5.351   4.650   5.684
 7029SOL    HW221987   5.238   4.697   5.577
 7030SOL     OW21988   1.218   1.445   5.558
 7030SOL    HW121989   1.206   1.540   5.586
 7030SOL    HW221990   1.198   1.384   5.636
 7031SOL     OW21991   2.532   6.228   5.135
 7031SOL    HW121992   2.499   6.228   5.230
 7031SOL    HW221993   2.512   6.316   5.092
 7032SOL     OW21994   3.254   0.875   2.836
 7032SOL    HW121995   3.189   0.805   2.806
 7032SOL    HW221996   3.344   0.854   2.798
 7033SOL     OW21997   1.659   2.369   3.361
 7033SOL    HW121998   1.718   2.440   3.400
 7033SOL    HW221999   1.570   2.408   3.339
 7034SOL     OW22000   5.912   0.589   3.012
 7034SOL    HW122001   5.988   0.529   3.039
 7034SOL    HW222002   5.841   0.535   2.968
 7035SOL     OW22003   2.063   6.774   1.735
 7035SOL    HW122004   2.130   6.787   1.661
 7035SOL    HW222005   1.988   6.717   1.702
 7036SOL     OW22006   0.681   0.753   2.366
 7036SOL    HW122007   0.772   0.725   2.337
 7036SOL    HW222008   0.688   0.813   2.446
 7037SOL     OW22009   2.223   1.028   6.330
 7037SOL    HW122010   2.148   0.970   6.360
 7037SOL    HW222011   2.236   1.018   6.231
 7038SOL     OW22012   1.860   3.490   5.196
 7038SOL    HW122013   1.852   3.401   5.151
 7038SOL    HW222014   1.954   3.524   5.186
 7039SOL     OW22015   2.747   4.648   1.452
 7039SOL    HW122016   2.820   4.716   1.446
 7039SOL    HW222017   2.723   4.633   1.548
 7040SOL     OW22018   6.244   1.967   4.859
 7040SOL    HW122019   6.158   2.017   4.852
 7040SOL    HW222020   6.284   1.956   4.768
 7041SOL     OW22021   0.112   1.904   2.032
 7041SOL    HW122022   0.150   1.896   1.939
 7041SOL    HW222023   0.186   1.928   2.095
 7042SOL     OW22024   5.202   4.813   5.453
 7042SOL    HW122025   5.287   4.860   5.431
 7042SOL    HW222026   5.153   4.792   5.368
 7043SOL     OW22027   2.146   3.411   2.643
 7043SOL    HW122028   2.107   3.372   2.560
 7043SOL    HW222029   2.245   3.420   2.631
 7044SOL     OW22030   4.463   4.512   3.193
 7044SOL    HW122031   4.550   4.544   3.229
 7044SOL    HW222032   4.478   4.436   3.130
 7045SOL     OW22033   5.369   5.074   3.513
 7045SOL    HW122034   5.329   5.122   3.435
 7045SOL    HW222035   5.413   5.141   3.574
 7046SOL     OW22036   3.231   1.767   2.896
 7046SOL    HW122037   3.186   1.805   2.815
 7046SOL    HW222038   3.177   1.691   2.931
 7047SOL     OW22039   0.266   2.396   2.182
 7047SOL    HW122040   0.264   2.418   2.279
 7047SOL    HW222041   0.307   2.305   2.169
 7048SOL     OW22042   5.795   6.077   2.601
 7048SOL    HW122043   5.877   6.131   2.584
 7048SOL    HW222044   5.790   6.054   2.698
 7049SOL     OW22045   3.672   1.245   1.212
 7049SOL    HW122046   3.647   1.222   1.118
 7049SOL    HW222047   3.635   1.335   1.235
 7050SOL     OW22048   4.032   3.991   1.928
 7050SOL    HW122049   4.027   3.930   2.008
 7050SOL    HW222050   4.032   4.086   1.958
 7051SOL     OW22051   0.039   0.178   2.062
 7051SOL    HW122052   0.070   0.191   2.156
 7051SOL    HW222053   0.103   0.118   2.014
 7052SOL     OW22054   5.580   2.496   3.654
 7052SOL    HW122055   5.523   2.576   3.634
 7052SOL    HW222056   5.644   2.481   3.579
 7053SOL     OW22057   0.585   3.281   5.056
 7053SOL    HW122058   0.623   3.343   4.987
 7053SOL    HW222059   0.562   3.334   5.138
 7054SOL     OW22060   0.772   0.044   0.264
 7054SOL    HW122061   0.782   6.996   0.333
 7054SOL    HW222062   0.778   0.003   0.172
 7055SOL     OW22063   3.072   6.781   5.637
 7055SOL    HW122064   3.102   6.746   5.726
 7055SOL    HW222065   3.083   6.881   5.635
 7056SOL     OW22066   0.009   5.501   2.082
 7056SOL    HW122067   0.076   5.538   2.018
 7056SOL    HW222068   6.946   5.488   2.035
 7057SOL     OW22069   1.125   5.647   4.031
 7057SOL    HW122070   1.035   5.609   4.049
 7057SOL    HW222071   1.176   5.656   4.117
 7058SOL     OW22072   6.294   5.080   6.219
 7058SOL    HW122073   6.341   4.993   6.236
 7058SOL    HW222074   6.322   5.147   6.287
 7059SOL     OW22075   6.945   0.719   4.232
 7059SOL    HW122076   0.012   0.761   4.233
 7059SOL    HW222077   6.947   0.637   4.174
 7060SOL     OW22078   4.254   0.379   2.048
 7060SOL    HW122079   4.345   0.361   2.011
 7060SOL    HW222080   4.239   0.323   2.130
 7061SOL     OW22081   0.944   3.015   3.970
 7061SOL    HW122082   1.031   2.971   3.950
 7061SOL    HW222083   0.869   2.956   3.940
 7062SOL     OW22084   4.473   1.211   5.223
 7062SOL    HW122085   4.413   1.212   5.143
 7062SOL    HW222086   4.483   1.117   5.256
 7063SOL     OW22087   1.169   0.253   1.895
 7063SOL    HW122088   1.210   0.162   1.896
 7063SOL    HW222089   1.083   0.250   1.844
 7064SOL     OW22090   3.825   2.206   1.487
 7064SOL    HW122091   3.791   2.236   1.398
 7064SOL    HW222092   3.850   2.286   1.542
 7065SOL     OW22093   3.596   3.949   6.076
 7065SOL    HW122094   3.631   3.875   6.133
 7065SOL    HW222095   3.666   3.975   6.009
 7066SOL     OW22096   4.695   0.418   0.275
 7066SOL    HW122097   4.613   0.394   0.224
 7066SOL    HW222098   4.715   0.348   0.343
 7067SOL     OW22099   2.169   2.201   4.887
 7067SOL    HW122100   2.259   2.233   4.917
 7067SOL    HW222101   2.139   2.125   4.945
 7068SOL     OW22102   0.383   4.179   3.934
 7068SOL    HW122103   0.342   4.090   3.910
 7068SOL    HW222104   0.391   4.186   4.033
 7069SOL     OW22105   5.678   1.104   4.726
 7069SOL    HW122106   5.664   1.203   4.726
 7069SOL    HW222107   5.609   1.060   4.669
 7070SOL     OW22108   6.843   6.261   4.790
 7070SOL    HW122109   6.743   6.263   4.793
 7070SOL    HW222110   6.879   6.314   4.867
 7071SOL     OW22111   2.476   5.888   6.616
 7071SOL    HW122112   2.554   5.929   6.664
 7071SOL    HW222113   2.437   5.815   6.671
 7072SOL     OW22114   1.388   6.187   6.927
 7072SOL    HW122115   1.321   6.175   7.000
 7072SOL    HW222116   1.349   6.245   6.855
 7073SOL     OW22117   4.803   0.205   4.657
 7073SOL    HW122118   4.714   0.164   4.637
 7073SOL    HW222119   4.803   0.240   4.750
 7074SOL     OW22120   4.779   2.608   2.549
 7074SOL    HW122121   4.756   2.554   2.630
 7074SOL    HW222122   4.704   2.602   2.483
 7075SOL     OW22123   1.386   4.458   4.939
 7075SOL    HW122124   1.410   4.379   4.995
 7075SOL    HW222125   1.293   4.488   4.961
 7076SOL     OW22126   5.883   2.094   6.676
 7076SOL    HW122127   5.974   2.073   6.641
 7076SOL    HW222128   5.818   2.098   6.600
 7077SOL     OW22129   2.507   4.442   3.992
 7077SOL    HW122130   2.574   4.458   4.064
 7077SOL    HW222131   2.457   4.526   3.973
 7078SOL     OW22132   0.254   6.611   1.494
 7078SOL    HW122133   0.241   6.628   1.592
 7078SOL    HW222134   0.250   6.698   1.445
 7079SOL     OW22135   6.805   6.247   4.180
 7079SOL    HW122136   6.735   6.277   4.115
 7079SOL    HW222137   6.892   6.291   4.158
 7080SOL     OW22138   2.820   1.544   4.939
 7080SOL    HW122139   2.760   1.604   4.887
 7080SOL    HW222140   2.875   1.598   5.002
 7081SOL     OW22141   3.297   6.808   6.616
 7081SOL    HW122142   3.202   6.840   6.617
 7081SOL    HW222143   3.359   6.887   6.620
 7082SOL     OW22144   6.657   4.039   6.891
 7082SOL    HW122145   6.617   4.115   6.942
 7082SOL    HW222146   6.627   4.044   6.795
 7083SOL     OW22147   2.887   0.281   0.486
 7083SOL    HW122148   2.882   0.262   0.584
 7083SOL    HW222149   2.907   0.378   0.472
 7084SOL     OW22150   0.342   6.372   6.095
 7084SOL    HW122151   0.248   6.375   6.061
 7084SOL    HW222152   0.387   6.459   6.075
 7085SOL     OW22153   1.001   1.538   2.071
 7085SOL    HW122154   0.965   1.491   1.990
 7085SOL    HW222155   1.094   1.570   2.053
 7086SOL     OW22156   5.272   0.758   5.401
 7086SOL    HW122157   5.335   0.791   5.331
 7086SOL    HW222158   5.323   0.734   5.483
 7087SOL     OW22159   6.134   3.346   4.376
 7087SOL    HW122160   6.131   3.263   4.432
 7087SOL    HW222161   6.069   3.413   4.412
 7088SOL     OW22162   5.938   2.665   3.538
 7088SOL    HW122163   5.915   2.753   3.497
 7088SOL    HW222164   6.033   2.642   3.518
 7089SOL     OW22165   2.919   2.174   4.624
 7089SOL    HW122166   2.883   2.164   4.717
 7089SOL    HW222167   2.898   2.093   4.571
 7090SOL     OW22168   1.986   0.554   6.638
 7090SOL    HW122169   1.981   0.456   6.657
 7090SOL    HW222170   2.040   0.570   6.555
 7091SOL     OW22171   0.671   1.525   6.737
 7091SOL    HW122172   0.639   1.469   6.660
 7091SOL    HW222173   0.740   1.474   6.788
 7092SOL     OW22174   4.247   3.110   5.982
 7092SOL    HW122175   4.268   3.118   6.080
 7092SOL    HW222176   4.150   3.086   5.972
 7093SOL     OW22177   2.949   3.847   3.129
 7093SOL    HW122178   3.008   3.768   3.112
 7093SOL    HW222179   2.952   3.908   3.051
 7094SOL     OW22180   6.972   6.347   5.950
 7094SOL    HW122181   0.006   6.429   5.948
 7094SOL    HW222182   6.909   6.349   5.872
 7095SOL     OW22183   3.889   4.330   5.987
 7095SOL    HW122184   3.940   4.356   5.905
 7095SOL    HW222185   3.836   4.247   5.968
 7096SOL     OW22186   6.309   0.377   3.611
 7096SOL    HW122187   6.232   0.347   3.667
 7096SOL    HW222188   6.373   0.429   3.666
 7097SOL     OW22189   5.892   2.243   1.463
 7097SOL    HW122190   5.975   2.287   1.499
 7097SOL    HW222191   5.916   2.154   1.424
 7098SOL     OW22192   1.561   6.184   5.336
 7098SOL    HW122193   1.549   6.153   5.242
 7098SOL    HW222194   1.557   6.106   5.398
 7099SOL     OW22195   3.592   1.286   5.237
 7099SOL    HW122196   3.507   1.336   5.224
 7099SOL    HW222197   3.587   1.199   5.187
 7100SOL     OW22198   5.297   3.168   1.160
 7100SOL    HW122199   5.290   3.100   1.086
 7100SOL    HW222200   5.206   3.198   1.187
 7101SOL     OW22201   1.993   0.591   4.780
 7101SOL    HW122202   2.084   0.587   4.823
 7101SOL    HW222203   1.992   0.663   4.710
 7102SOL     OW22204   5.420   6.681   0.823
 7102SOL    HW122205   5.346   6.708   0.884
 7102SOL    HW222206   5.382   6.645   0.738
 7103SOL     OW22207   4.870   4.513   1.659
 7103SOL    HW122208   4.801   4.485   1.592
 7103SOL    HW222209   4.893   4.435   1.717
 7104SOL     OW22210   0.203   2.730   4.188
 7104SOL    HW122211   0.194   2.752   4.285
 7104SOL    HW222212   0.258   2.800   4.142
 7105SOL     OW22213   2.811   3.075   5.731
 7105SOL    HW122214   2.825   3.149   5.665
 7105SOL    HW222215   2.808   2.988   5.681
 7106SOL     OW22216   4.085   3.395   3.019
 7106SOL    HW122217   4.070   3.492   2.998
 7106SOL    HW222218   4.132   3.352   2.941
 7107SOL     OW22219   4.425   1.171   0.521
 7107SOL    HW122220   4.381   1.117   0.593
 7107SOL    HW222221   4.493   1.116   0.474
 7108SOL     OW22222   4.173   5.839   2.802
 7108SOL    HW122223   4.107   5.778   2.845
 7108SOL    HW222224   4.151   5.934   2.824
 7109SOL     OW22225   2.973   0.395   6.066
 7109SOL    HW122226   2.873   0.395   6.064
 7109SOL    HW222227   3.008   0.480   6.029
 7110SOL     OW22228   2.955   5.781   4.336
 7110SOL    HW122229   2.961   5.844   4.414
 7110SOL    HW222230   2.955   5.834   4.251
 7111SOL     OW22231   1.163   2.713   4.911
 7111SOL    HW122232   1.075   2.673   4.885
 7111SOL    HW222233   1.147   2.801   4.957
 7112SOL     OW22234   1.779   4.802   4.700
 7112SOL    HW122235   1.792   4.749   4.616
 7112SOL    HW222236   1.693   4.853   4.694
 7113SOL     OW22237   4.140   3.586   4.710
 7113SOL    HW122238   4.158   3.632   4.797
 7113SOL    HW222239   4.108   3.493   4.727
 7114SOL     OW22240   4.539   6.303   1.600
 7114SOL    HW122241   4.608   6.364   1.640
 7114SOL    HW222242   4.461   6.296   1.662
 7115SOL     OW22243   5.160   3.331   1.407
 7115SOL    HW122244   5.131   3.418   1.447
 7115SOL    HW222245   5.091   3.300   1.341
 7116SOL     OW22246   6.280   3.833   3.276
 7116SOL    HW122247   6.353   3.884   3.321
 7116SOL    HW222248   6.238   3.890   3.206
 7117SOL     OW22249   0.626   6.171   5.029
 7117SOL    HW122250   0.701   6.121   4.985
 7117SOL    HW222251   0.648   6.185   5.125
 7118SOL     OW22252   3.059   4.606   0.658
 7118SOL    HW122253   3.085   4.511   0.671
 7118SOL    HW222254   3.097   4.640   0.572
 7119SOL     OW22255   4.910   2.307   3.654
 7119SOL    HW122256   4.893   2.388   3.709
 7119SOL    HW222257   5.008   2.293   3.643
 7120SOL     OW22258   3.763   1.517   2.289
 7120SOL    HW122259   3.694   1.458   2.246
 7120SOL    HW222260   3.720   1.571   2.361
 7121SOL     OW22261   0.901   0.014   3.188
 7121SOL    HW122262   0.981   0.024   3.247
 7121SOL    HW222263   0.930   7.000   3.100
 7122SOL     OW22264   0.939   0.440   5.578
 7122SOL    HW122265   1.002   0.439   5.500
 7122SOL    HW222266   0.935   0.532   5.617
 7123SOL     OW22267   1.653   4.130   3.310
 7123SOL    HW122268   1.730   4.114   3.250
 7123SOL    HW222269   1.574   4.079   3.277
 7124SOL     OW22270   6.981   2.077   1.175
 7124SOL    HW122271   6.883   2.077   1.195
 7124SOL    HW222272   7.005   1.992   1.127
 7125SOL     OW22273   0.177   6.629   1.021
 7125SOL    HW122274   0.210   6.660   0.932
 7125SOL    HW222275   0.175   6.529   1.022
 7126SOL     OW22276   3.671   5.103   0.062
 7126SOL    HW122277   3.689   5.031   7.020
 7126SOL    HW222278   3.600   5.073   0.126
 7127SOL     OW22279   1.450   5.106   5.534
 7127SOL    HW122280   1.544   5.135   5.551
 7127SOL    HW222281   1.405   5.085   5.621
 7128SOL     OW22282   2.755   4.989   0.310
 7128SOL    HW122283   2.745   4.930   0.230
 7128SOL    HW222284   2.685   4.966   0.378
 7129SOL     OW22285   2.256   1.858   6.947
 7129SOL    HW122286   2.265   1.764   6.916
 7129SOL    HW222287   2.314   1.917   6.891
 7130SOL     OW22288   4.347   5.831   4.985
 7130SOL    HW122289   4.440   5.815   4.954
 7130SOL    HW222290   4.316   5.754   5.040
 7131SOL     OW22291   2.784   0.258   0.737
 7131SOL    HW122292   2.782   0.158   0.727
 7131SOL    HW222293   2.755   0.282   0.830
 7132SOL     OW22294   4.168   4.618   6.714
 7132SOL    HW122295   4.070   4.631   6.730
 7132SOL    HW222296   4.211   4.581   6.796
 7133SOL     OW22297   4.923   5.739   6.055
 7133SOL    HW122298   4.972   5.750   6.142
 7133SOL    HW222299   4.929   5.644   6.026
 7134SOL     OW22300   5.083   6.912   1.989
 7134SOL    HW122301   5.174   6.872   1.978
 7134SOL    HW222302   5.090   7.012   1.983
 7135SOL     OW22303   1.629   3.012   3.183
 7135SOL    HW122304   1.674   3.012   3.093
 7135SOL    HW222305   1.534   3.041   3.172
 7136SOL     OW22306   2.432   3.022   1.277
 7136SOL    HW122307   2.423   2.923   1.288
 7136SOL    HW222308   2.514   3.053   1.324
 7137SOL     OW22309   4.035   7.022   6.464
 7137SOL    HW122310   3.978   0.054   6.405
 7137SOL    HW222311   4.040   0.039   6.555
 7138SOL     OW22312   2.195   2.605   0.255
 7138SOL    HW122313   2.128   2.568   0.320
 7138SOL    HW222314   2.194   2.705   0.260
 7139SOL     OW22315   5.903   4.272   1.609
 7139SOL    HW122316   5.934   4.366   1.623
 7139SOL    HW222317   5.889   4.228   1.698
 7140SOL     OW22318   6.179   4.051   3.096
 7140SOL    HW122319   6.273   4.065   3.065
 7140SOL    HW222320   6.116   4.070   3.020
 7141SOL     OW22321   3.816   5.599   0.956
 7141SOL    HW122322   3.899   5.600   1.012
 7141SOL    HW222323   3.736   5.606   1.014
 7142SOL     OW22324   4.383   0.366   3.296
 7142SOL    HW122325   4.436   0.448   3.277
 7142SOL    HW222326   4.305   0.362   3.234
 7143SOL     OW22327   1.169   2.441   6.000
 7143SOL    HW122328   1.268   2.454   5.993
 7143SOL    HW222329   1.134   2.407   5.913
 7144SOL     OW22330   1.950   2.612   2.083
 7144SOL    HW122331   1.997   2.644   2.165
 7144SOL    HW222332   1.872   2.672   2.064
 7145SOL     OW22333   4.658   0.096   0.166
 7145SOL    HW122334   4.608   0.171   0.123
 7145SOL    HW222335   4.716   0.131   0.239
 7146SOL     OW22336   2.060   0.133   0.820
 7146SOL    HW122337   1.965   0.138   0.790
 7146SOL    HW222338   2.064   0.133   0.920
 7147SOL     OW22339   6.903   6.970   3.010
 7147SOL    HW122340   6.828   6.937   3.067
 7147SOL    HW222341   6.866   7.008   2.925
 7148SOL     OW22342   0.399   5.936   0.898
 7148SOL    HW122343   0.321   5.986   0.935
 7148SOL    HW222344   0.369   5.880   0.821
 7149SOL     OW22345   6.342   6.045   3.236
 7149SOL    HW122346   6.340   6.135   3.279
 7149SOL    HW222347   6.251   6.020   3.205
 7150SOL     OW22348   3.210   2.516   1.746
 7150SOL    HW122349   3.119   2.500   1.783
 7150SOL    HW222350   3.258   2.428   1.736
 7151SOL     OW22351   2.589   5.982   0.595
 7151SOL    HW122352   2.586   6.078   0.622
 7151SOL    HW222353   2.655   5.933   0.653
 7152SOL     OW22354   0.803   0.662   5.317
 7152SOL    HW122355   0.885   0.713   5.342
 7152SOL    HW222356   0.737   0.722   5.273
 7153SOL     OW22357   3.662   5.527   1.466
 7153SOL    HW122358   3.726   5.493   1.536
 7153SOL    HW222359   3.598   5.591   1.509
 7154SOL     OW22360   4.440   0.377   3.725
 7154SOL    HW122361   4.402   0.318   3.797
 7154SOL    HW222362   4.533   0.347   3.703
 7155SOL     OW22363   2.084   3.666   1.374
 7155SOL    HW122364   2.147   3.729   1.419
 7155SOL    HW222365   2.120   3.573   1.378
 7156SOL     OW22366   6.765   3.196   3.880
 7156SOL    HW122367   6.777   3.125   3.811
 7156SOL    HW222368   6.855   3.232   3.907
 7157SOL     OW22369   0.467   3.854   1.597
 7157SOL    HW122370   0.522   3.771   1.597
 7157SOL    HW222371   0.370   3.831   1.588
 7158SOL     OW22372   1.540   0.137   3.943
 7158SOL    HW122373   1.472   0.160   3.874
 7158SOL    HW222374   1.551   0.037   3.947
 7159SOL     OW22375   0.292   5.134   2.488
 7159SOL    HW122376   0.370   5.083   2.452
 7159SOL    HW222377   0.271   5.103   2.581
 7160SOL     OW22378   5.636   0.540   2.410
 7160SOL    HW122379   5.693   0.473   2.457
 7160SOL    HW222380   5.695   0.606   2.363
 7161SOL     OW22381   3.146   4.079   4.315
 7161SOL    HW122382   3.059   4.042   4.284
 7161SOL    HW222383   3.178   4.025   4.394
 7162SOL     OW22384   0.923   5.240   6.269
 7162SOL    HW122385   1.016   5.257   6.304
 7162SOL    HW222386   0.858   5.295   6.322
 7163SOL     OW22387   2.956   6.968   2.424
 7163SOL    HW122388   3.054   6.954   2.409
 7163SOL    HW222389   2.922   6.900   2.489
 7164SOL     OW22390   1.909   0.607   4.031
 7164SOL    HW122391   1.908   0.706   4.022
 7164SOL    HW222392   2.004   0.576   4.045
 7165SOL     OW22393   6.466   1.052   2.704
 7165SOL    HW122394   6.372   1.032   2.677
 7165SOL    HW222395   6.482   1.150   2.697
 7166SOL     OW22396   5.690   2.035   1.119
 7166SOL    HW122397   5.609   2.015   1.175
 7166SOL    HW222398   5.682   2.127   1.081
 7167SOL     OW22399   5.528   3.388   4.087
 7167SOL    HW122400   5.577   3.464   4.130
 7167SOL    HW222401   5.583   3.305   4.094
 7168SOL     OW22402   1.425   2.935   2.856
 7168SOL    HW122403   1.435   2.837   2.866
 7168SOL    HW222404   1.333   2.963   2.884
 7169SOL     OW22405   0.507   2.670   5.142
 7169SOL    HW122406   0.412   2.689   5.117
 7169SOL    HW222407   0.540   2.740   5.205
 7170SOL     OW22408   4.659   0.206   4.093
 7170SOL    HW122409   4.666   0.258   4.179
 7170SOL    HW222410   4.728   0.133   4.093
 7171SOL     OW22411   5.938   3.871   0.334
 7171SOL    HW122412   5.974   3.780   0.355
 7171SOL    HW222413   5.839   3.871   0.347
 7172SOL     OW22414   1.188   6.935   4.676
 7172SOL    HW122415   1.279   6.910   4.643
 7172SOL    HW222416   1.155   7.014   4.625
 7173SOL     OW22417   6.744   4.397   6.372
 7173SOL    HW122418   6.823   4.450   6.401
 7173SOL    HW222419   6.752   4.375   6.275
 7174SOL     OW22420   1.473   4.268   0.180
 7174SOL    HW122421   1.391   4.214   0.161
 7174SOL    HW222422   1.464   4.358   0.136
 7175SOL     OW22423   5.731   2.713   6.714
 7175SOL    HW122424   5.744   2.614   6.724
 7175SOL    HW222425   5.721   2.735   6.618
 7176SOL     OW22426   7.021   0.186   3.190
 7176SOL    HW122427   6.976   0.104   3.156
 7176SOL    HW222428   6.966   0.267   3.166
 7177SOL     OW22429   1.536   4.935   4.679
 7177SOL    HW122430   1.475   4.878   4.624
 7177SOL    HW222431   1.546   5.025   4.635
 7178SOL     OW22432   1.564   1.994   5.932
 7178SOL    HW122433   1.471   1.968   5.907
 7178SOL    HW222434   1.607   1.918   5.981
 7179SOL     OW22435   2.124   3.838   4.527
 7179SOL    HW122436   2.193   3.768   4.511
 7179SOL    HW222437   2.155   3.899   4.601
 7180SOL     OW22438   2.003   5.118   0.677
 7180SOL    HW122439   2.036   5.090   0.586
 7180SOL    HW222440   1.904   5.132   0.674
 7181SOL     OW22441   2.189   6.592   0.258
 7181SOL    HW122442   2.242   6.676   0.243
 7181SOL    HW222443   2.112   6.611   0.319
 7182SOL     OW22444   0.493   2.493   4.792
 7182SOL    HW122445   0.566   2.550   4.829
 7182SOL    HW222446   0.461   2.430   4.863
 7183SOL     OW22447   2.126   5.885   0.172
 7183SOL    HW122448   2.214   5.862   0.214
 7183SOL    HW222449   2.120   5.842   0.082
 7184SOL     OW22450   0.033   0.854   3.723
 7184SOL    HW122451   0.101   0.925   3.745
 7184SOL    HW222452   6.988   0.892   3.663
 7185SOL     OW22453   5.656   0.082   4.956
 7185SOL    HW122454   5.719   0.160   4.959
 7185SOL    HW222455   5.638   0.050   5.049
 7186SOL     OW22456   6.588   2.027   0.378
 7186SOL    HW122457   6.575   2.110   0.434
 7186SOL    HW222458   6.643   1.961   0.429
 7187SOL     OW22459   4.133   4.783   6.354
 7187SOL    HW122460   4.207   4.784   6.421
 7187SOL    HW222461   4.134   4.696   6.304
 7188SOL     OW22462   6.052   0.876   0.276
 7188SOL    HW122463   6.028   0.847   0.184
 7188SOL    HW222464   6.139   0.925   0.275
 7189SOL     OW22465   0.125   1.110   5.824
 7189SOL    HW122466   0.129   1.030   5.883
 7189SOL    HW222467   0.038   1.111   5.776
 7190SOL     OW22468   0.440   3.315   2.555
 7190SOL    HW122469   0.360   3.255   2.560
 7190SOL    HW222470   0.443   3.359   2.466
 7191SOL     OW22471   0.641   4.351   2.795
 7191SOL    HW122472   0.613   4.334   2.889
 7191SOL    HW222473   0.734   4.388   2.794
 7192SOL     OW22474   2.698   4.384   5.960
 7192SOL    HW122475   2.629   4.441   5.916
 7192SOL    HW222476   2.755   4.441   6.020
 7193SOL     OW22477   0.810   2.196   2.198
 7193SOL    HW122478   0.901   2.211   2.235
 7193SOL    HW222479   0.790   2.098   2.196
 7194SOL     OW22480   2.776   1.958   0.245
 7194SOL    HW122481   2.758   1.988   0.339
 7194SOL    HW222482   2.743   1.865   0.233
 7195SOL     OW22483   0.317   3.953   6.745
 7195SOL    HW122484   0.375   3.984   6.821
 7195SOL    HW222485   0.240   4.016   6.734
 7196SOL     OW22486   3.197   4.154   1.255
 7196SOL    HW122487   3.237   4.062   1.252
 7196SOL    HW222488   3.102   4.150   1.225
 7197SOL     OW22489   0.429   2.521   6.285
 7197SOL    HW122490   0.352   2.533   6.222
 7197SOL    HW222491   0.514   2.542   6.238
 7198SOL     OW22492   6.685   0.671   0.624
 7198SOL    HW122493   6.772   0.673   0.575
 7198SOL    HW222494   6.701   0.641   0.718
 7199SOL     OW22495   1.961   0.766   1.974
 7199SOL    HW122496   2.040   0.709   1.995
 7199SOL    HW222497   1.887   0.710   1.936
 7200SOL     OW22498   2.396   2.480   6.557
 7200SOL    HW122499   2.375   2.465   6.653
 7200SOL    HW222500   2.389   2.394   6.507
 7201SOL     OW22501   0.980   5.402   5.151
 7201SOL    HW122502   0.900   5.451   5.186
 7201SOL    HW222503   0.952   5.342   5.076
 7202SOL     OW22504   4.941   0.075   6.723
 7202SOL    HW122505   4.871   0.146   6.719
 7202SOL    HW222506   4.897   7.010   6.736
 7203SOL     OW22507   0.623   1.700   1.154
 7203SOL    HW122508   0.583   1.660   1.237
 7203SOL    HW222509   0.597   1.796   1.147
 7204SOL     OW22510   0.588   6.827   5.416
 7204SOL    HW122511   0.556   6.795   5.327
 7204SOL    HW222512   0.656   6.899   5.402
 7205SOL     OW22513   0.756   5.086   3.955
 7205SOL    HW122514   0.780   5.156   4.022
 7205SOL    HW222515   0.827   5.016   3.953
 7206SOL     OW22516   1.223   0.484   1.759
 7206SOL    HW122517   1.142   0.534   1.728
 7206SOL    HW222518   1.196   0.393   1.790
 7207SOL     OW22519   3.792   0.296   2.720
 7207SOL    HW122520   3.796   0.348   2.805
 7207SOL    HW222521   3.748   0.351   2.649
 7208SOL     OW22522   4.107   0.085   3.156
 7208SOL    HW122523   4.117   0.183   3.138
 7208SOL    HW222524   4.117   0.068   3.254
 7209SOL     OW22525   3.103   3.583   1.523
 7209SOL    HW122526   3.183   3.591   1.583
 7209SOL    HW222527   3.033   3.528   1.568
 7210SOL     OW22528   4.654   1.082   4.043
 7210SOL    HW122529   4.676   1.143   3.967
 7210SOL    HW222530   4.564   1.106   4.080
 7211SOL     OW22531   3.134   6.400   4.238
 7211SOL    HW122532   3.081   6.409   4.323
 7211SOL    HW222533   3.185   6.484   4.221
 7212SOL     OW22534   0.638   6.027   4.646
 7212SOL    HW122535   0.623   5.928   4.654
 7212SOL    HW222536   0.550   6.074   4.648
 7213SOL     OW22537   5.280   6.245   0.238
 7213SOL    HW122538   5.250   6.319   0.299
 7213SOL    HW222539   5.379   6.232   0.249
 7214SOL     OW22540   6.514   5.892   5.795
 7214SOL    HW122541   6.605   5.860   5.767
 7214SOL    HW222542   6.486   5.967   5.736
 7215SOL     OW22543   0.055   3.948   5.118
 7215SOL    HW122544   0.021   4.025   5.171
 7215SOL    HW222545   0.027   3.862   5.161
 7216SOL     OW22546   3.265   6.176   6.895
 7216SOL    HW122547   3.309   6.122   6.967
 7216SOL    HW222548   3.323   6.253   6.871
 7217SOL     OW22549   2.283   4.287   3.263
 7217SOL    HW122550   2.357   4.341   3.222
 7217SOL    HW222551   2.196   4.317   3.225
 7218SOL     OW22552   5.309   2.650   5.191
 7218SOL    HW122553   5.291   2.553   5.204
 7218SOL    HW222554   5.369   2.683   5.264
 7219SOL     OW22555   4.970   0.610   3.416
 7219SOL    HW122556   4.917   0.584   3.497
 7219SOL    HW222557   5.068   0.603   3.437
 7220SOL     OW22558   1.136   5.124   5.271
 7220SOL    HW122559   1.039   5.116   5.245
 7220SOL    HW222560   1.158   5.220   5.287
 7221SOL     OW22561   3.470   5.973   4.724
 7221SOL    HW122562   3.500   6.045   4.662
 7221SOL    HW222563   3.526   5.891   4.710
 7222SOL     OW22564   5.903   0.312   3.198
 7222SOL    HW122565   5.940   0.379   3.262
 7222SOL    HW222566   5.803   0.311   3.205
 7223SOL     OW22567   3.045   1.206   1.221
 7223SOL    HW122568   3.035   1.221   1.320
 7223SOL    HW222569   3.031   1.293   1.173
 7224SOL     OW22570   5.577   1.681   3.505
 7224SOL    HW122571   5.559   1.673   3.407
 7224SOL    HW222572   5.648   1.750   3.520
 7225SOL     OW22573   1.062   5.606   0.281
 7225SOL    HW122574   1.080   5.510   0.306
 7225SOL    HW222575   1.131   5.636   0.216
 7226SOL     OW22576   6.594   1.328   0.885
 7226SOL    HW122577   6.604   1.229   0.892
 7226SOL    HW222578   6.518   1.359   0.942
 7227SOL     OW22579   1.398   1.373   1.203
 7227SOL    HW122580   1.466   1.444   1.187
 7227SOL    HW222581   1.344   1.395   1.283
 7228SOL     OW22582   1.085   1.874   2.878
 7228SOL    HW122583   1.153   1.944   2.897
 7228SOL    HW222584   0.994   1.914   2.879
 7229SOL     OW22585   1.479   6.011   5.675
 7229SOL    HW122586   1.577   6.030   5.686
 7229SOL    HW222587   1.450   6.037   5.583
 7230SOL     OW22588   3.972   5.263   4.272
 7230SOL    HW122589   3.956   5.168   4.299
 7230SOL    HW222590   4.038   5.265   4.197
 7231SOL     OW22591   4.229   0.708   0.005
 7231SOL    HW122592   4.322   0.707   6.992
 7231SOL    HW222593   4.170   0.650   6.974
 7232SOL     OW22594   5.403   5.836   3.148
 7232SOL    HW122595   5.404   5.817   3.050
 7232SOL    HW222596   5.311   5.864   3.176
 7233SOL     OW22597   0.126   1.451   4.115
 7233SOL    HW122598   0.223   1.427   4.121
 7233SOL    HW222599   0.070   1.375   4.146
 7234SOL     OW22600   5.654   3.104   3.491
 7234SOL    HW122601   5.729   3.081   3.429
 7234SOL    HW222602   5.686   3.103   3.585
 7235SOL     OW22603   6.854   4.453   1.918
 7235SOL    HW122604   6.849   4.474   1.820
 7235SOL    HW222605   6.799   4.373   1.938
 7236SOL     OW22606   2.142   2.081   1.180
 7236SOL    HW122607   2.211   2.039   1.238
 7236SOL    HW222608   2.104   2.161   1.225
 7237SOL     OW22609   4.069   0.957   4.609
 7237SOL    HW122610   4.165   0.938   4.633
 7237SOL    HW222611   4.064   0.980   4.512
 7238SOL     OW22612   3.814   1.973   1.053
 7238SOL    HW122613   3.774   1.884   1.031
 7238SOL    HW222614   3.896   1.987   0.998
 7239SOL     OW22615   1.344   2.597   2.627
 7239SOL    HW122616   1.349   2.503   2.594
 7239SOL    HW222617   1.367   2.599   2.725
 7240SOL     OW22618   1.594   5.900   5.978
 7240SOL    HW122619   1.671   5.836   5.976
 7240SOL    HW222620   1.607   5.969   5.906
 7241SOL     OW22621   1.841   1.010   0.275
 7241SOL    HW122622   1.921   0.988   0.220
 7241SOL    HW222623   1.795   0.926   0.303
 7242SOL     OW22624   6.496   5.905   0.533
 7242SOL    HW122625   6.415   5.946   0.575
 7242SOL    HW222626   6.530   5.831   0.591
 7243SOL     OW22627   6.506   4.590   6.317
 7243SOL    HW122628   6.474   4.614   6.225
 7243SOL    HW222629   6.462   4.506   6.347
 7244SOL     OW22630   6.168   1.680   1.901
 7244SOL    HW122631   6.114   1.751   1.857
 7244SOL    HW222632   6.265   1.702   1.894
 7245SOL     OW22633   1.235   1.806   4.544
 7245SOL    HW122634   1.234   1.707   4.559
 7245SOL    HW222635   1.156   1.831   4.486
 7246SOL     OW22636   6.266   0.367   4.537
 7246SOL    HW122637   6.327   0.288   4.542
 7246SOL    HW222638   6.295   0.436   4.603
 7247SOL     OW22639   2.596   7.014   4.346
 7247SOL    HW122640   2.626   6.958   4.423
 7247SOL    HW222641   2.581   6.957   4.266
 7248SOL     OW22642   2.430   1.356   3.624
 7248SOL    HW122643   2.464   1.398   3.540
 7248SOL    HW222644   2.330   1.354   3.622
 7249SOL     OW22645   6.775   4.385   2.440
 7249SOL    HW122646   6.814   4.476   2.426
 7249SOL    HW222647   6.840   4.328   2.490
 7250SOL     OW22648   4.399   0.075   6.332
 7250SOL    HW122649   4.328   0.143   6.319
 7250SOL    HW222650   4.481   0.102   6.283
 7251SOL     OW22651   0.438   6.623   5.559
 7251SOL    HW122652   0.465   6.692   5.492
 7251SOL    HW222653   0.437   6.533   5.515
 7252SOL     OW22654   3.333   3.500   2.858
 7252SOL    HW122655   3.382   3.413   2.859
 7252SOL    HW222656   3.307   3.524   2.952
 7253SOL     OW22657   2.714   6.657   6.115
 7253SOL    HW122658   2.623   6.617   6.130
 7253SOL    HW222659   2.754   6.619   6.031
 7254SOL     OW22660   4.482   5.017   3.652
 7254SOL    HW122661   4.469   5.071   3.735
 7254SOL    HW222662   4.497   5.078   3.574
 7255SOL     OW22663   3.324   3.341   0.798
 7255SOL    HW122664   3.300   3.419   0.856
 7255SOL    HW222665   3.250   3.323   0.733
 7256SOL     OW22666   4.185   4.927   4.139
 7256SOL    HW122667   4.090   4.949   4.157
 7256SOL    HW222668   4.226   4.883   4.219
 7257SOL     OW22669   5.540   3.005   3.847
 7257SOL    HW122670   5.566   2.911   3.869
 7257SOL    HW222671   5.495   3.007   3.757
 7258SOL     OW22672   4.082   1.342   3.481
 7258SOL    HW122673   4.076   1.437   3.513
 7258SOL    HW222674   4.000   1.292   3.509
 7259SOL     OW22675   2.753   3.256   0.903
 7259SOL    HW122676   2.677   3.321   0.907
 7259SOL    HW222677   2.740   3.185   0.973
 7260SOL     OW22678   3.611   1.876   1.747
 7260SOL    HW122679   3.626   1.871   1.846
 7260SOL    HW222680   3.665   1.952   1.709
 7261SOL     OW22681   1.309   2.794   1.750
 7261SOL    HW122682   1.391   2.745   1.777
 7261SOL    HW222683   1.229   2.735   1.763
 7262SOL     OW22684   5.252   1.789   5.758
 7262SOL    HW122685   5.185   1.772   5.686
 7262SOL    HW222686   5.332   1.730   5.743
 7263SOL     OW22687   0.975   6.555   0.989
 7263SOL    HW122688   0.920   6.635   0.967
 7263SOL    HW222689   0.925   6.472   0.964
 7264SOL     OW22690   5.541   1.108   6.192
 7264SOL    HW122691   5.631   1.088   6.232
 7264SOL    HW222692   5.531   1.207   6.180
 7265SOL     OW22693   5.609   5.401   5.861
 7265SOL    HW122694   5.690   5.361   5.903
 7265SOL    HW222695   5.600   5.496   5.889
 7266SOL     OW22696   5.850   0.253   1.352
 7266SOL    HW122697   5.832   0.161   1.318
 7266SOL    HW222698   5.833   0.319   1.280
 7267SOL     OW22699   6.330   6.016   5.379
 7267SOL    HW122700   6.314   5.918   5.366
 7267SOL    HW222701   6.347   6.035   5.476
 7268SOL     OW22702   5.347   4.968   3.099
 7268SOL    HW122703   5.386   4.882   3.132
 7268SOL    HW222704   5.419   5.038   3.097
 7269SOL     OW22705   0.166   6.101   1.066
 7269SOL    HW122706   0.148   6.019   1.010
 7269SOL    HW222707   0.149   6.183   1.011
 7270SOL     OW22708   0.776   3.640   5.046
 7270SOL    HW122709   0.809   3.547   5.061
 7270SOL    HW222710   0.811   3.674   4.959
 7271SOL     OW22711   0.310   6.055   3.678
 7271SOL    HW122712   0.339   6.071   3.583
 7271SOL    HW222713   0.282   5.960   3.689
 7272SOL     OW22714   5.552   5.291   2.221
 7272SOL    HW122715   5.455   5.270   2.210
 7272SOL    HW222716   5.603   5.255   2.143
 7273SOL     OW22717   5.416   4.020   1.441
 7273SOL    HW122718   5.497   4.020   1.500
 7273SOL    HW222719   5.366   4.105   1.453
 7274SOL     OW22720   0.962   5.711   6.926
 7274SOL    HW122721   0.929   5.629   6.972
 7274SOL    HW222722   0.971   5.693   6.828
 7275SOL     OW22723   6.837   0.493   2.884
 7275SOL    HW122724   6.928   0.515   2.920
 7275SOL    HW222725   6.771   0.491   2.960
 7276SOL     OW22726   3.437   1.676   2.726
 7276SOL    HW122727   3.434   1.776   2.715
 7276SOL    HW222728   3.380   1.650   2.803
 7277SOL     OW22729   4.397   1.106   4.127
 7277SOL    HW122730   4.311   1.056   4.126
 7277SOL    HW222731   4.394   1.176   4.199
 7278SOL     OW22732   3.350   2.296   1.416
 7278SOL    HW122733   3.347   2.251   1.506
 7278SOL    HW222734   3.399   2.383   1.424
 7279SOL     OW22735   4.431   3.285   6.478
 7279SOL    HW122736   4.453   3.211   6.415
 7279SOL    HW222737   4.465   3.263   6.569
 7280SOL     OW22738   0.110   1.633   3.895
 7280SOL    HW122739   0.012   1.622   3.876
 7280SOL    HW222740   0.134   1.575   3.973
 7281SOL     OW22741   1.814   0.558   0.321
 7281SOL    HW122742   1.773   0.519   0.403
 7281SOL    HW222743   1.751   0.624   0.280
 7282SOL     OW22744   5.864   6.864   1.609
 7282SOL    HW122745   5.834   6.922   1.534
 7282SOL    HW222746   5.962   6.846   1.600
 7283SOL     OW22747   3.513   0.518   1.677
 7283SOL    HW122748   3.481   0.613   1.682
 7283SOL    HW222749   3.435   0.457   1.664
 7284SOL     OW22750   6.845   2.081   5.407
 7284SOL    HW122751   6.882   2.001   5.360
 7284SOL    HW222752   6.827   2.154   5.340
 7285SOL     OW22753   5.586   3.571   1.673
 7285SOL    HW122754   5.555   3.485   1.633
 7285SOL    HW222755   5.685   3.568   1.686
 7286SOL     OW22756   1.212   0.783   1.141
 7286SOL    HW122757   1.224   0.780   1.042
 7286SOL    HW222758   1.301   0.791   1.185
 7287SOL     OW22759   6.791   2.730   4.945
 7287SOL    HW122760   6.769   2.806   5.006
 7287SOL    HW222761   6.754   2.748   4.854
 7288SOL     OW22762   1.410   1.871   1.419
 7288SOL    HW122763   1.356   1.875   1.335
 7288SOL    HW222764   1.506   1.888   1.397
 7289SOL     OW22765   5.981   1.998   3.304
 7289SOL    HW122766   5.998   2.096   3.306
 7289SOL    HW222767   5.886   1.981   3.276
 7290SOL     OW22768   2.326   1.132   5.000
 7290SOL    HW122769   2.392   1.182   4.945
 7290SOL    HW222770   2.292   1.191   5.074
 7291SOL     OW22771   2.037   6.839   0.438
 7291SOL    HW122772   1.964   6.785   0.481
 7291SOL    HW222773   2.003   6.931   0.418
 7292SOL     OW22774   3.118   6.942   3.104
 7292SOL    HW122775   3.117   0.016   3.090
 7292SOL    HW222776   3.031   6.913   3.144
 7293SOL     OW22777   1.287   1.987   5.924
 7293SOL    HW122778   1.215   1.995   5.855
 7293SOL    HW222779   1.255   2.024   6.010
 7294SOL     OW22780   3.198   4.681   0.934
 7294SOL    HW122781   3.164   4.770   0.964
 7294SOL    HW222782   3.138   4.645   0.863
 7295SOL     OW22783   6.844   4.478   0.726
 7295SOL    HW122784   6.886   4.558   0.684
 7295SOL    HW222785   6.915   4.410   0.746
 7296SOL     OW22786   4.277   5.475   1.624
 7296SOL    HW122787   4.252   5.453   1.530
 7296SOL    HW222788   4.346   5.546   1.625
 7297SOL     OW22789   2.593   6.818   1.274
 7297SOL    HW122790   2.538   6.851   1.351
 7297SOL    HW222791   2.534   6.770   1.209
 7298SOL     OW22792   4.987   4.987   6.393
 7298SOL    HW122793   4.997   4.999   6.294
 7298SOL    HW222794   5.069   4.943   6.429
 7299SOL     OW22795   1.100   2.059   1.212
 7299SOL    HW122796   1.192   2.097   1.201
 7299SOL    HW222797   1.107   1.968   1.253
 7300SOL     OW22798   0.598   6.800   2.321
 7300SOL    HW122799   0.508   6.826   2.285
 7300SOL    HW222800   0.641   6.879   2.363
 7301SOL     OW22801   6.053   2.183   5.478
 7301SOL    HW122802   6.066   2.148   5.385
 7301SOL    HW222803   6.065   2.282   5.478
 7302SOL     OW22804   0.120   2.373   6.263
 7302SOL    HW122805   0.046   2.312   6.288
 7302SOL    HW222806   0.106   2.408   6.170
 7303SOL     OW22807   3.875   1.200   6.490
 7303SOL    HW122808   3.811   1.277   6.484
 7303SOL    HW222809   3.838   1.131   6.552
 7304SOL     OW22810   2.994   5.504   1.542
 7304SOL    HW122811   3.014   5.407   1.525
 7304SOL    HW222812   3.001   5.555   1.457
 7305SOL     OW22813   5.026   2.514   1.463
 7305SOL    HW122814   5.021   2.473   1.554
 7305SOL    HW222815   4.937   2.551   1.438
 7306SOL     OW22816   3.669   1.521   1.607
 7306SOL    HW122817   3.753   1.488   1.565
 7306SOL    HW222818   3.634   1.599   1.555
 7307SOL     OW22819   3.928   6.820   2.359
 7307SOL    HW122820   3.876   6.833   2.444
 7307SOL    HW222821   3.872   6.850   2.281
 7308SOL     OW22822   6.431   1.647   4.379
 7308SOL    HW122823   6.438   1.632   4.281
 7308SOL    HW222824   6.342   1.687   4.402
 7309SOL     OW22825   3.658   6.584   1.289
 7309SOL    HW122826   3.628   6.649   1.360
 7309SOL    HW222827   3.694   6.502   1.333
 7310SOL     OW22828   2.272   3.484   0.618
 7310SOL    HW122829   2.313   3.394   0.631
 7310SOL    HW222830   2.285   3.539   0.700
 7311SOL     OW22831   1.792   0.825   0.520
 7311SOL    HW122832   1.878   0.774   0.530
 7311SOL    HW222833   1.803   0.917   0.556
 7312SOL     OW22834   1.120   2.201   4.995
 7312SOL    HW122835   1.159   2.242   4.912
 7312SOL    HW222836   1.025   2.174   4.976
 7313SOL     OW22837   2.156   1.166   0.407
 7313SOL    HW122838   2.155   1.080   0.356
 7313SOL    HW222839   2.229   1.164   0.475
 7314SOL     OW22840   6.996   4.248   5.740
 7314SOL    HW122841   0.030   4.232   5.660
 7314SOL    HW222842   7.008   4.173   5.805
 7315SOL     OW22843   4.830   5.899   1.900
 7315SOL    HW122844   4.804   5.988   1.861
 7315SOL    HW222845   4.756   5.834   1.886
 7316SOL     OW22846   3.163   2.781   6.779
 7316SOL    HW122847   3.182   2.693   6.736
 7316SOL    HW222848   3.102   2.834   6.721
 7317SOL     OW22849   4.026   1.451   1.910
 7317SOL    HW122850   3.934   1.483   1.888
 7317SOL    HW222851   4.049   1.374   1.850
 7318SOL     OW22852   2.875   0.362   2.178
 7318SOL    HW122853   2.912   0.284   2.127
 7318SOL    HW222854   2.945   0.398   2.239
 7319SOL     OW22855   5.516   2.814   0.407
 7319SOL    HW122856   5.544   2.735   0.353
 7319SOL    HW222857   5.541   2.898   0.359
 7320SOL     OW22858   0.396   3.748   1.001
 7320SOL    HW122859   0.477   3.785   1.046
 7320SOL    HW222860   0.338   3.701   1.069
 7321SOL     OW22861   2.236   6.830   5.604
 7321SOL    HW122862   2.260   6.924   5.627
 7321SOL    HW222863   2.136   6.822   5.593
 7322SOL     OW22864   0.086   2.428   3.162
 7322SOL    HW122865   0.149   2.360   3.201
 7322SOL    HW222866   7.024   2.425   3.212
 7323SOL     OW22867   2.156   3.029   1.411
 7323SOL    HW122868   2.139   2.937   1.447
 7323SOL    HW222869   2.205   3.083   1.480
 7324SOL     OW22870   5.637   4.598   2.086
 7324SOL    HW122871   5.681   4.559   2.006
 7324SOL    HW222872   5.703   4.604   2.161
 7325SOL     OW22873   2.763   0.233   5.461
 7325SOL    HW122874   2.819   0.247   5.542
 7325SOL    HW222875   2.681   0.290   5.467
 7326SOL     OW22876   3.693   6.018   5.671
 7326SOL    HW122877   3.728   5.942   5.616
 7326SOL    HW222878   3.652   6.087   5.610
 7327SOL     OW22879   6.277   3.088   5.029
 7327SOL    HW122880   6.216   3.163   5.004
 7327SOL    HW222881   6.360   3.092   4.973
 7328SOL     OW22882   4.411   6.935   5.697
 7328SOL    HW122883   4.334   6.885   5.737
 7328SOL    HW222884   4.454   6.992   5.767
 7329SOL     OW22885   0.815   3.941   0.453
 7329SOL    HW122886   0.791   4.034   0.480
 7329SOL    HW222887   0.758   3.876   0.504
 7330SOL     OW22888   2.465   3.116   0.459
 7330SOL    HW122889   2.456   3.170   0.543
 7330SOL    HW222890   2.508   3.028   0.482
 7331SOL     OW22891   5.732   6.373   1.467
 7331SOL    HW122892   5.811   6.313   1.457
 7331SOL    HW222893   5.653   6.319   1.498
 7332SOL     OW22894   2.737   4.147   6.537
 7332SOL    HW122895   2.670   4.211   6.576
 7332SOL    HW222896   2.732   4.060   6.587
 7333SOL     OW22897   6.277   3.069   3.156
 7333SOL    HW122898   6.338   2.991   3.169
 7333SOL    HW222899   6.329   3.154   3.164
 7334SOL     OW22900   2.502   6.271   6.419
 7334SOL    HW122901   2.548   6.335   6.480
 7334SOL    HW222902   2.489   6.313   6.329
 7335SOL     OW22903   6.899   2.822   2.975
 7335SOL    HW122904   6.882   2.879   3.056
 7335SOL    HW222905   6.916   2.728   3.003
 7336SOL     OW22906   2.287   6.440   1.959
 7336SOL    HW122907   2.301   6.526   1.910
 7336SOL    HW222908   2.353   6.372   1.928
 7337SOL     OW22909   1.974   3.039   1.738
 7337SOL    HW122910   1.966   3.075   1.830
 7337SOL    HW222911   1.941   3.107   1.672
 7338SOL     OW22912   5.319   2.035   1.947
 7338SOL    HW122913   5.272   2.088   2.017
 7338SOL    HW222914   5.390   1.979   1.989
 7339SOL     OW22915   6.078   0.088   5.281
 7339SOL    HW122916   6.114   0.059   5.369
 7339SOL    HW222917   6.050   0.007   5.229
 7340SOL     OW22918   3.795   1.213   6.886
 7340SOL    HW122919   3.713   1.244   6.839
 7340SOL    HW222920   3.811   1.270   6.967
 7341SOL     OW22921   0.852   4.793   4.766
 7341SOL    HW122922   0.829   4.754   4.676
 7341SOL    HW222923   0.810   4.738   4.838
 7342SOL     OW22924   6.989   6.708   6.972
 7342SOL    HW122925   6.953   6.800   6.987
 7342SOL    HW222926   6.939   6.643   0.004
 7343SOL     OW22927   4.756   4.461   1.263
 7343SOL    HW122928   4.833   4.399   1.254
 7343SOL    HW222929   4.723   4.460   1.358
 7344SOL     OW22930   1.709   0.714   5.744
 7344SOL    HW122931   1.734   0.787   5.680
 7344SOL    HW222932   1.613   0.724   5.769
 7345SOL     OW22933   4.679   6.338   5.298
 7345SOL    HW122934   4.770   6.364   5.330
 7345SOL    HW222935   4.686   6.292   5.210
 7346SOL     OW22936   3.929   4.205   1.208
 7346SOL    HW122937   3.933   4.177   1.112
 7346SOL    HW222938   3.903   4.301   1.213
 7347SOL     OW22939   0.341   2.889   0.971
 7347SOL    HW122940   0.368   2.905   0.877
 7347SOL    HW222941   0.392   2.950   1.032
 7348SOL     OW22942   1.520   3.374   3.406
 7348SOL    HW122943   1.502   3.276   3.410
 7348SOL    HW222944   1.537   3.409   3.498
 7349SOL     OW22945   4.404   2.184   0.967
 7349SOL    HW122946   4.423   2.121   0.892
 7349SOL    HW222947   4.309   2.212   0.965
 7350SOL     OW22948   1.504   3.542   5.177
 7350SOL    HW122949   1.532   3.557   5.082
 7350SOL    HW222950   1.572   3.583   5.238
 7351SOL     OW22951   4.550   6.382   4.987
 7351SOL    HW122952   4.562   6.283   5.002
 7351SOL    HW222953   4.640   6.426   4.983
 7352SOL     OW22954   1.628   3.116   2.853
 7352SOL    HW122955   1.618   3.211   2.882
 7352SOL    HW222956   1.540   3.069   2.864
 7353SOL     OW22957   0.518   0.005   6.014
 7353SOL    HW122958   0.604   6.989   6.045
 7353SOL    HW222959   0.532   0.103   5.994
 7354SOL     OW22960   1.118   1.905   0.156
 7354SOL    HW122961   1.055   1.828   0.143
 7354SOL    HW222962   1.202   1.871   0.200
 7355SOL     OW22963   1.306   1.469   0.708
 7355SOL    HW122964   1.405   1.478   0.708
 7355SOL    HW222965   1.277   1.418   0.627
 7356SOL     OW22966   4.296   3.424   6.113
 7356SOL    HW122967   4.303   3.453   6.209
 7356SOL    HW222968   4.336   3.333   6.102
 7357SOL     OW22969   4.641   0.548   2.016
 7357SOL    HW122970   4.611   0.452   2.011
 7357SOL    HW222971   4.624   0.592   1.928
 7358SOL     OW22972   0.851   2.773   2.274
 7358SOL    HW122973   0.868   2.695   2.214
 7358SOL    HW222974   0.811   2.741   2.360
 7359SOL     OW22975   2.684   2.906   6.542
 7359SOL    HW122976   2.634   2.841   6.485
 7359SOL    HW222977   2.624   2.981   6.568
 7360SOL     OW22978   3.265   3.698   6.050
 7360SOL    HW122979   3.167   3.691   6.031
 7360SOL    HW222980   3.316   3.683   5.965
 7361SOL     OW22981   4.512   0.656   2.273
 7361SOL    HW122982   4.559   0.600   2.206
 7361SOL    HW222983   4.577   0.686   2.343
 7362SOL     OW22984   1.155   5.602   4.992
 7362SOL    HW122985   1.075   5.542   4.991
 7362SOL    HW222986   1.136   5.682   5.049
 7363SOL     OW22987   3.844   1.536   1.258
 7363SOL    HW122988   3.749   1.567   1.261
 7363SOL    HW222989   3.852   1.451   1.311
 7364SOL     OW22990   4.712   0.605   1.105
 7364SOL    HW122991   4.662   0.600   1.192
 7364SOL    HW222992   4.807   0.631   1.123
 7365SOL     OW22993   1.730   6.809   1.686
 7365SOL    HW122994   1.785   6.729   1.709
 7365SOL    HW222995   1.633   6.788   1.703
 7366SOL     OW22996   2.390   5.763   6.860
 7366SOL    HW122997   2.451   5.818   6.917
 7366SOL    HW222998   2.295   5.782   6.886
 7367SOL     OW22999   4.476   3.726   1.394
 7367SOL    HW123000   4.413   3.730   1.472
 7367SOL    HW223001   4.568   3.706   1.427
 7368SOL     OW23002   3.877   3.008   3.616
 7368SOL    HW123003   3.862   3.043   3.708
 7368SOL    HW223004   3.959   3.050   3.576
 7369SOL     OW23005   4.353   2.807   0.310
 7369SOL    HW123006   4.448   2.793   0.338
 7369SOL    HW223007   4.332   2.905   0.309
 7370SOL     OW23008   2.747   0.492   4.890
 7370SOL    HW123009   2.771   0.587   4.871
 7370SOL    HW223010   2.743   0.440   4.804
 7371SOL     OW23011   2.077   5.903   3.701
 7371SOL    HW123012   2.095   5.990   3.745
 7371SOL    HW223013   1.989   5.867   3.732
 7372SOL     OW23014   3.227   1.650   5.509
 7372SOL    HW123015   3.208   1.740   5.548
 7372SOL    HW223016   3.315   1.652   5.462
 7373SOL     OW23017   5.239   1.310   4.647
 7373SOL    HW123018   5.309   1.350   4.707
 7373SOL    HW223019   5.184   1.383   4.607
 7374SOL     OW23020   2.674   1.794   6.012
 7374SOL    HW123021   2.711   1.866   5.954
 7374SOL    HW223022   2.742   1.721   6.023
 7375SOL     OW23023   2.048   2.785   2.839
 7375SOL    HW123024   2.109   2.824   2.908
 7375SOL    HW223025   1.970   2.742   2.885
 7376SOL     OW23026   3.842   1.537   0.029
 7376SOL    HW123027   3.872   1.632   0.034
 7376SOL    HW223028   3.871   1.488   0.112
 7377SOL     OW23029   5.351   5.592   0.993
 7377SOL    HW123030   5.341   5.525   1.067
 7377SOL    HW223031   5.422   5.658   1.018
 7378SOL     OW23032   0.578   1.065   5.323
 7378SOL    HW123033   0.613   1.133   5.259
 7378SOL    HW223034   0.486   1.091   5.353
 7379SOL     OW23035   3.180   2.175   2.358
 7379SOL    HW123036   3.275   2.145   2.354
 7379SOL    HW223037   3.166   2.249   2.293
 7380SOL     OW23038   0.038   2.941   5.477
 7380SOL    HW123039   6.997   2.964   5.405
 7380SOL    HW223040   0.127   2.980   5.456
 7381SOL     OW23041   4.679   3.797   1.755
 7381SOL    HW123042   4.759   3.760   1.802
 7381SOL    HW223043   4.707   3.870   1.693
 7382SOL     OW23044   6.890   5.549   6.541
 7382SOL    HW123045   6.923   5.458   6.567
 7382SOL    HW223046   6.794   5.542   6.513
 7383SOL     OW23047   0.893   6.907   1.421
 7383SOL    HW123048   0.795   6.923   1.416
 7383SOL    HW223049   0.920   6.843   1.349
 7384SOL     OW23050   5.706   0.518   2.765
 7384SOL    HW123051   5.757   0.604   2.774
 7384SOL    HW223052   5.740   0.468   2.685
 7385SOL     OW23053   4.194   5.827   2.100
 7385SOL    HW123054   4.099   5.801   2.114
 7385SOL    HW223055   4.255   5.754   2.132
 7386SOL     OW23056   0.900   2.009   5.530
 7386SOL    HW123057   0.974   2.067   5.564
 7386SOL    HW223058   0.870   1.947   5.603
 7387SOL     OW23059   4.787   6.270   4.057
 7387SOL    HW123060   4.720   6.236   4.124
 7387SOL    HW223061   4.868   6.212   4.058
 7388SOL     OW23062   0.238   4.531   3.113
 7388SOL    HW123063   0.217   4.628   3.107
 7388SOL    HW223064   0.284   4.502   3.029
 7389SOL     OW23065   0.309   3.323   6.241
 7389SOL    HW123066   0.404   3.314   6.211
 7389SOL    HW223067   0.297   3.272   6.326
 7390SOL     OW23068   2.236   1.577   6.889
 7390SOL    HW123069   2.240   1.504   6.957
 7390SOL    HW223070   2.188   1.543   6.807
 7391SOL     OW23071   4.889   4.337   5.285
 7391SOL    HW123072   4.900   4.413   5.349
 7391SOL    HW223073   4.963   4.271   5.297
 7392SOL     OW23074   2.374   6.410   6.980
 7392SOL    HW123075   2.302   6.364   6.928
 7392SOL    HW223076   2.422   6.344   0.012
 7393SOL     OW23077   5.311   4.647   1.580
 7393SOL    HW123078   5.225   4.621   1.625
 7393SOL    HW223079   5.332   4.742   1.604
 7394SOL     OW23080   3.116   2.489   5.975
 7394SOL    HW123081   3.108   2.566   5.912
 7394SOL    HW223082   3.190   2.429   5.946
 7395SOL     OW23083   2.381   1.595   0.211
 7395SOL    HW123084   2.306   1.541   0.173
 7395SOL    HW223085   2.360   1.693   0.201
 7396SOL     OW23086   1.117   6.667   0.424
 7396SOL    HW123087   1.083   6.692   0.334
 7396SOL    HW223088   1.045   6.616   0.473
 7397SOL     OW23089   4.380   5.067   4.910
 7397SOL    HW123090   4.324   5.063   4.993
 7397SOL    HW223091   4.392   4.975   4.872
 7398SOL     OW23092   2.366   5.044   4.521
 7398SOL    HW123093   2.360   5.093   4.607
 7398SOL    HW223094   2.342   4.948   4.535
 7399SOL     OW23095   1.095   2.493   5.702
 7399SOL    HW123096   0.999   2.521   5.699
 7399SOL    HW223097   1.130   2.482   5.609
 7400SOL     OW23098   3.841   3.286   5.988
 7400SOL    HW123099   3.861   3.188   5.984
 7400SOL    HW223100   3.775   3.303   6.061
 7401SOL     OW23101   1.596   0.390   4.738
 7401SOL    HW123102   1.524   0.321   4.737
 7401SOL    HW223103   1.624   0.410   4.644
 7402SOL     OW23104   3.282   5.712   5.950
 7402SOL    HW123105   3.281   5.614   5.933
 7402SOL    HW223106   3.282   5.730   6.048
 7403SOL     OW23107   2.330   4.235   2.688
 7403SOL    HW123108   2.326   4.239   2.788
 7403SOL    HW223109   2.409   4.287   2.655
 7404SOL     OW23110   2.416   5.183   1.232
 7404SOL    HW123111   2.454   5.206   1.322
 7404SOL    HW223112   2.379   5.090   1.235
 7405SOL     OW23113   3.731   4.864   4.075
 7405SOL    HW123114   3.645   4.880   4.025
 7405SOL    HW223115   3.717   4.882   4.172
 7406SOL     OW23116   1.036   3.180   3.384
 7406SOL    HW123117   1.057   3.112   3.455
 7406SOL    HW223118   1.002   3.264   3.426
 7407SOL     OW23119   0.186   6.261   4.735
 7407SOL    HW123120   0.120   6.236   4.663
 7407SOL    HW223121   0.141   6.254   4.824
 7408SOL     OW23122   1.699   3.898   6.547
 7408SOL    HW123123   1.630   3.889   6.475
 7408SOL    HW223124   1.769   3.828   6.535
 7409SOL     OW23125   0.570   1.301   6.194
 7409SOL    HW123126   0.642   1.282   6.128
 7409SOL    HW223127   0.549   1.399   6.193
 7410SOL     OW23128   0.230   5.400   0.915
 7410SOL    HW123129   0.239   5.316   0.863
 7410SOL    HW223130   0.141   5.402   0.960
 7411SOL     OW23131   2.676   6.892   4.073
 7411SOL    HW123132   2.671   6.980   4.025
 7411SOL    HW223133   2.643   6.820   4.013
 7412SOL     OW23134   4.918   0.635   2.121
 7412SOL    HW123135   4.935   0.724   2.079
 7412SOL    HW223136   4.829   0.601   2.092
 7413SOL     OW23137   4.688   5.660   4.719
 7413SOL    HW123138   4.769   5.601   4.721
 7413SOL    HW223139   4.668   5.686   4.625
 7414SOL     OW23140   0.598   0.277   3.635
 7414SOL    HW123141   0.678   0.330   3.605
 7414SOL    HW223142   0.606   0.183   3.600
 7415SOL     OW23143   1.086   3.760   3.984
 7415SOL    HW123144   1.120   3.682   4.037
 7415SOL    HW223145   1.062   3.835   4.045
 7416SOL     OW23146   2.950   1.434   3.770
 7416SOL    HW123147   2.900   1.434   3.683
 7416SOL    HW223148   2.932   1.520   3.819
 7417SOL     OW23149   2.136   0.610   6.406
 7417SOL    HW123150   2.074   0.617   6.328
 7417SOL    HW223151   2.226   0.579   6.374
 7418SOL     OW23152   3.263   5.541   0.862
 7418SOL    HW123153   3.258   5.627   0.914
 7418SOL    HW223154   3.172   5.500   0.859
 7419SOL     OW23155   5.623   3.071   5.005
 7419SOL    HW123156   5.536   3.120   4.994
 7419SOL    HW223157   5.610   2.976   4.977
 7420SOL     OW23158   0.857   7.015   1.990
 7420SOL    HW123159   0.844   6.941   2.056
 7420SOL    HW223160   0.803   6.996   1.908
 7421SOL     OW23161   3.315   3.527   0.996
 7421SOL    HW123162   3.387   3.568   1.053
 7421SOL    HW223163   3.226   3.562   1.025
 7422SOL     OW23164   0.189   2.652   2.776
 7422SOL    HW123165   0.268   2.699   2.816
 7422SOL    HW223166   0.191   2.662   2.677
 7423SOL     OW23167   6.114   4.764   5.227
 7423SOL    HW123168   6.182   4.707   5.182
 7423SOL    HW223169   6.159   4.833   5.283
 7424SOL     OW23170   6.899   0.304   5.093
 7424SOL    HW123171   6.825   0.370   5.082
 7424SOL    HW223172   6.867   0.212   5.071
 7425SOL     OW23173   4.622   5.434   6.057
 7425SOL    HW123174   4.541   5.458   6.110
 7425SOL    HW223175   4.664   5.517   6.020
 7426SOL     OW23176   2.012   0.900   6.096
 7426SOL    HW123177   1.931   0.934   6.048
 7426SOL    HW223178   1.990   0.813   6.141
 7427SOL     OW23179   3.392   0.003   3.781
 7427SOL    HW123180   3.449   6.964   3.832
 7427SOL    HW223181   3.300   6.989   3.772
 7428SOL     OW23182   4.309   1.122   6.251
 7428SOL    HW123183   4.359   1.144   6.168
 7428SOL    HW223184   4.240   1.192   6.269
 7429SOL     OW23185   6.327   6.574   3.137
 7429SOL    HW123186   6.303   6.569   3.040
 7429SOL    HW223187   6.291   6.493   3.184
 7430SOL     OW23188   0.753   3.660   6.936
 7430SOL    HW123189   0.722   3.736   6.993
 7430SOL    HW223190   0.695   3.580   6.953
 7431SOL     OW23191   0.234   2.968   2.717
 7431SOL    HW123192   0.139   2.938   2.712
 7431SOL    HW223193   0.248   3.046   2.656
 7432SOL     OW23194   0.233   0.202   3.071
 7432SOL    HW123195   0.154   0.222   3.129
 7432SOL    HW223196   0.295   0.140   3.119
 7433SOL     OW23197   5.391   5.085   6.657
 7433SOL    HW123198   5.300   5.110   6.690
 7433SOL    HW223199   5.434   5.165   6.615
 7434SOL     OW23200   5.603   0.457   5.600
 7434SOL    HW123201   5.656   0.447   5.685
 7434SOL    HW223202   5.663   0.439   5.522
 7435SOL     OW23203   3.529   6.034   0.353
 7435SOL    HW123204   3.493   6.049   0.445
 7435SOL    HW223205   3.622   5.997   0.360
 7436SOL     OW23206   5.490   3.457   6.812
 7436SOL    HW123207   5.586   3.455   6.840
 7436SOL    HW223208   5.434   3.416   6.884
 7437SOL     OW23209   1.040   5.813   0.486
 7437SOL    HW123210   0.943   5.789   0.489
 7437SOL    HW223211   1.093   5.733   0.458
 7438SOL     OW23212   0.543   5.155   0.119
 7438SOL    HW123213   0.605   5.125   0.191
 7438SOL    HW223214   0.596   5.192   0.043
 7439SOL     OW23215   1.981   5.863   4.860
 7439SOL    HW123216   2.002   5.766   4.868
 7439SOL    HW223217   1.886   5.875   4.833
 7440SOL     OW23218   0.349   3.406   4.783
 7440SOL    HW123219   0.302   3.408   4.872
 7440SOL    HW223220   0.365   3.500   4.753
 7441SOL     OW23221   5.088   5.891   3.968
 7441SOL    HW123222   5.144   5.853   4.042
 7441SOL    HW223223   5.147   5.914   3.891
 7442SOL     OW23224   0.418   0.851   6.152
 7442SOL    HW123225   0.372   0.820   6.069
 7442SOL    HW223226   0.484   0.781   6.181
 7443SOL     OW23227   0.222   0.528   2.370
 7443SOL    HW123228   0.296   0.595   2.368
 7443SOL    HW223229   0.194   0.511   2.464
 7444SOL     OW23230   6.303   3.311   5.275
 7444SOL    HW123231   6.395   3.319   5.313
 7444SOL    HW223232   6.273   3.216   5.281
 7445SOL     OW23233   3.391   1.292   1.292
 7445SOL    HW123234   3.459   1.287   1.219
 7445SOL    HW223235   3.318   1.355   1.264
 7446SOL     OW23236   5.656   4.324   0.899
 7446SOL    HW123237   5.605   4.351   0.981
 7446SOL    HW223238   5.607   4.250   0.853
 7447SOL     OW23239   0.636   3.312   5.497
 7447SOL    HW123240   0.719   3.368   5.504
 7447SOL    HW223241   0.660   3.215   5.500
 7448SOL     OW23242   6.140   6.851   5.665
 7448SOL    HW123243   6.203   6.787   5.708
 7448SOL    HW223244   6.076   6.885   5.733
 7449SOL     OW23245   6.355   3.278   1.847
 7449SOL    HW123246   6.297   3.201   1.819
 7449SOL    HW223247   6.368   3.339   1.769
 7450SOL     OW23248   5.294   2.135   4.716
 7450SOL    HW123249   5.224   2.205   4.734
 7450SOL    HW223250   5.284   2.060   4.781
 7451SOL     OW23251   0.826   6.596   3.759
 7451SOL    HW123252   0.736   6.593   3.802
 7451SOL    HW223253   0.818   6.640   3.669
 7452SOL     OW23254   0.959   6.356   4.869
 7452SOL    HW123255   0.893   6.376   4.941
 7452SOL    HW223256   0.930   6.276   4.817
 7453SOL     OW23257   4.704   6.613   5.341
 7453SOL    HW123258   4.676   6.679   5.411
 7453SOL    HW223259   4.670   6.522   5.365
 7454SOL     OW23260   0.687   2.479   2.193
 7454SOL    HW123261   0.767   2.506   2.139
 7454SOL    HW223262   0.708   2.395   2.244
 7455SOL     OW23263   6.968   1.635   2.113
 7455SOL    HW123264   0.019   1.700   2.104
 7455SOL    HW223265   6.987   1.572   2.188
 7456SOL     OW23266   0.096   1.611   4.329
 7456SOL    HW123267   0.001   1.599   4.357
 7456SOL    HW223268   0.118   1.545   4.257
 7457SOL     OW23269   4.116   0.366   5.746
 7457SOL    HW123270   4.189   0.299   5.745
 7457SOL    HW223271   4.029   0.321   5.767
 7458SOL     OW23272   2.359   6.787   6.042
 7458SOL    HW123273   2.401   6.715   6.096
 7458SOL    HW223274   2.391   6.876   6.073
 7459SOL     OW23275   5.233   0.578   1.752
 7459SOL    HW123276   5.264   0.636   1.827
 7459SOL    HW223277   5.309   0.557   1.692
 7460SOL     OW23278   1.958   5.446   1.079
 7460SOL    HW123279   2.000   5.444   0.988
 7460SOL    HW223280   2.027   5.467   1.147
 7461SOL     OW23281   6.238   1.599   5.767
 7461SOL    HW123282   6.326   1.640   5.791
 7461SOL    HW223283   6.164   1.659   5.800
 7462SOL     OW23284   1.209   4.079   2.652
 7462SOL    HW123285   1.279   4.007   2.654
 7462SOL    HW223286   1.212   4.131   2.738
 7463SOL     OW23287   3.047   5.138   1.130
 7463SOL    HW123288   3.045   5.227   1.174
 7463SOL    HW223289   2.961   5.122   1.082
 7464SOL     OW23290   4.737   0.632   6.490
 7464SOL    HW123291   4.836   0.642   6.474
 7464SOL    HW223292   4.714   0.535   6.492
 7465SOL     OW23293   0.843   5.717   0.199
 7465SOL    HW123294   0.873   5.784   0.132
 7465SOL    HW223295   0.921   5.661   0.227
 7466SOL     OW23296   0.757   0.713   6.115
 7466SOL    HW123297   0.676   0.675   6.159
 7466SOL    HW223298   0.839   0.675   6.157
 7467SOL     OW23299   0.081   2.068   0.796
 7467SOL    HW123300   0.111   2.161   0.816
 7467SOL    HW223301   0.103   2.045   0.701
 7468SOL     OW23302   6.225   2.377   3.674
 7468SOL    HW123303   6.202   2.430   3.592
 7468SOL    HW223304   6.277   2.435   3.737
 7469SOL     OW23305   0.315   0.678   0.903
 7469SOL    HW123306   0.265   0.758   0.869
 7469SOL    HW223307   0.287   0.597   0.851
 7470SOL     OW23308   0.319   3.076   3.598
 7470SOL    HW123309   0.241   3.025   3.636
 7470SOL    HW223310   0.290   3.168   3.574
 7471SOL     OW23311   6.991   6.083   6.111
 7471SOL    HW123312   7.012   6.085   6.209
 7471SOL    HW223313   7.000   6.175   6.073
 7472SOL     OW23314   6.282   0.358   4.063
 7472SOL    HW123315   6.236   0.324   4.145
 7472SOL    HW223316   6.344   0.432   4.088
 7473SOL     OW23317   6.361   4.538   3.117
 7473SOL    HW123318   6.270   4.523   3.080
 7473SOL    HW223319   6.428   4.486   3.065
 7474SOL     OW23320   2.308   0.991   5.375
 7474SOL    HW123321   2.265   0.952   5.457
 7474SOL    HW223322   2.313   0.921   5.304
 7475SOL     OW23323   4.458   1.510   2.559
 7475SOL    HW123324   4.446   1.599   2.602
 7475SOL    HW223325   4.392   1.498   2.485
 7476SOL     OW23326   3.374   5.520   3.589
 7476SOL    HW123327   3.401   5.608   3.628
 7476SOL    HW223328   3.298   5.534   3.525
 7477SOL     OW23329   6.933   1.058   5.179
 7477SOL    HW123330   6.836   1.056   5.153
 7477SOL    HW223331   6.989   1.073   5.097
 7478SOL     OW23332   4.856   5.505   6.328
 7478SOL    HW123333   4.790   5.457   6.386
 7478SOL    HW223334   4.942   5.517   6.379
 7479SOL     OW23335   4.199   2.378   1.860
 7479SOL    HW123336   4.236   2.347   1.948
 7479SOL    HW223337   4.241   2.466   1.835
 7480SOL     OW23338   0.084   4.107   1.782
 7480SOL    HW123339   0.043   4.017   1.766
 7480SOL    HW223340   0.080   4.128   1.880
 7481SOL     OW23341   6.187   4.984   1.145
 7481SOL    HW123342   6.204   4.894   1.104
 7481SOL    HW223343   6.216   4.982   1.241
 7482SOL     OW23344   4.154   2.164   3.058
 7482SOL    HW123345   4.216   2.226   3.009
 7482SOL    HW223346   4.066   2.161   3.011
 7483SOL     OW23347   4.958   3.099   4.660
 7483SOL    HW123348   5.051   3.081   4.628
 7483SOL    HW223349   4.894   3.035   4.617
 7484SOL     OW23350   0.710   1.275   3.916
 7484SOL    HW123351   0.794   1.221   3.915
 7484SOL    HW223352   0.632   1.215   3.901
 7485SOL     OW23353   3.516   0.807   5.084
 7485SOL    HW123354   3.433   0.844   5.043
 7485SOL    HW223355   3.566   0.753   5.016
 7486SOL     OW23356   2.430   0.329   6.222
 7486SOL    HW123357   2.356   0.359   6.162
 7486SOL    HW223358   2.425   0.379   6.308
 7487SOL     OW23359   2.335   6.406   2.742
 7487SOL    HW123360   2.308   6.501   2.729
 7487SOL    HW223361   2.380   6.395   2.830
 7488SOL     OW23362   1.731   6.624   3.932
 7488SOL    HW123363   1.728   6.647   3.834
 7488SOL    HW223364   1.818   6.579   3.952
 7489SOL     OW23365   5.128   2.548   4.572
 7489SOL    HW123366   5.156   2.625   4.516
 7489SOL    HW223367   5.200   2.479   4.574
 7490SOL     OW23368   1.193   0.921   1.977
 7490SOL    HW123369   1.216   0.823   1.982
 7490SOL    HW223370   1.276   0.973   1.957
 7491SOL     OW23371   6.145   2.864   5.990
 7491SOL    HW123372   6.130   2.770   6.023
 7491SOL    HW223373   6.202   2.913   6.056
 7492SOL     OW23374   1.981   0.778   3.629
 7492SOL    HW123375   2.077   0.763   3.655
 7492SOL    HW223376   1.925   0.787   3.711
 7493SOL     OW23377   6.852   3.406   6.951
 7493SOL    HW123378   6.828   3.309   6.949
 7493SOL    HW223379   6.948   3.415   6.978
 7494SOL     OW23380   4.946   1.038   2.567
 7494SOL    HW123381   5.028   0.988   2.594
 7494SOL    HW223382   4.865   0.990   2.600
 7495SOL     OW23383   1.442   1.294   0.275
 7495SOL    HW123384   1.391   1.346   0.344
 7495SOL    HW223385   1.394   1.298   0.187
 7496SOL     OW23386   6.669   3.356   6.392
 7496SOL    HW123387   6.715   3.374   6.305
 7496SOL    HW223388   6.730   3.380   6.468
 7497SOL     OW23389   2.281   4.774   0.593
 7497SOL    HW123390   2.319   4.845   0.653
 7497SOL    HW223391   2.201   4.810   0.546
 7498SOL     OW23392   2.424   1.249   5.517
 7498SOL    HW123393   2.361   1.266   5.441
 7498SOL    HW223394   2.453   1.336   5.556
 7499SOL     OW23395   3.555   1.931   2.814
 7499SOL    HW123396   3.473   1.988   2.811
 7499SOL    HW223397   3.594   1.933   2.906
 7500SOL     OW23398   3.172   5.285   3.565
 7500SOL    HW123399   3.241   5.336   3.615
 7500SOL    HW223400   3.082   5.301   3.604
 7501SOL     OW23401   5.711   4.229   4.511
 7501SOL    HW123402   5.724   4.206   4.607
 7501SOL    HW223403   5.679   4.149   4.461
 7502SOL     OW23404   1.473   6.791   4.314
 7502SOL    HW123405   1.573   6.783   4.305
 7502SOL    HW223406   1.434   6.701   4.333
 7503SOL     OW23407   3.311   1.503   0.919
 7503SOL    HW123408   3.215   1.532   0.918
 7503SOL    HW223409   3.370   1.583   0.934
 7504SOL     OW23410   1.657   0.338   2.924
 7504SOL    HW123411   1.640   0.275   3.000
 7504SOL    HW223412   1.621   0.428   2.947
 7505SOL     OW23413   1.610   1.767   5.711
 7505SOL    HW123414   1.694   1.751   5.763
 7505SOL    HW223415   1.623   1.844   5.648
 7506SOL     OW23416   5.498   0.598   2.918
 7506SOL    HW123417   5.573   0.567   2.861
 7506SOL    HW223418   5.494   0.543   3.002
 7507SOL     OW23419   1.199   0.528   2.180
 7507SOL    HW123420   1.123   0.471   2.148
 7507SOL    HW223421   1.236   0.581   2.103
 7508SOL     OW23422   0.906   6.195   2.080
 7508SOL    HW123423   0.830   6.144   2.040
 7508SOL    HW223424   0.982   6.133   2.098
 7509SOL     OW23425   5.227   4.760   0.313
 7509SOL    HW123426   5.316   4.788   0.349
 7509SOL    HW223427   5.177   4.841   0.281
 7510SOL     OW23428   3.831   4.208   5.619
 7510SOL    HW123429   3.731   4.201   5.617
 7510SOL    HW223430   3.871   4.124   5.582
 7511SOL     OW23431   2.679   6.981   3.799
 7511SOL    HW123432   2.726   6.892   3.799
 7511SOL    HW223433   2.743   0.028   3.773
 7512SOL     OW23434   3.117   6.021   6.451
 7512SOL    HW123435   3.148   6.105   6.496
 7512SOL    HW223436   3.021   6.006   6.473
 7513SOL     OW23437   2.193   0.623   1.631
 7513SOL    HW123438   2.106   0.673   1.625
 7513SOL    HW223439   2.260   0.679   1.679
 7514SOL     OW23440   2.502   5.603   1.441
 7514SOL    HW123441   2.437   5.556   1.381
 7514SOL    HW223442   2.464   5.691   1.469
 7515SOL     OW23443   6.776   4.909   2.482
 7515SOL    HW123444   6.731   4.827   2.518
 7515SOL    HW223445   6.776   4.980   2.551
 7516SOL     OW23446   6.288   6.253   5.944
 7516SOL    HW123447   6.313   6.158   5.959
 7516SOL    HW223448   6.219   6.259   5.872
 7517SOL     OW23449   7.001   3.320   0.619
 7517SOL    HW123450   6.981   3.229   0.655
 7517SOL    HW223451   6.919   3.357   0.575
 7518SOL     OW23452   4.267   4.952   3.289
 7518SOL    HW123453   4.208   4.888   3.239
 7518SOL    HW223454   4.362   4.936   3.265
 7519SOL     OW23455   7.002   6.810   3.822
 7519SOL    HW123456   0.010   6.743   3.754
 7519SOL    HW223457   6.950   6.764   3.893
 7520SOL     OW23458   2.988   0.869   2.302
 7520SOL    HW123459   3.033   0.819   2.228
 7520SOL    HW223460   2.941   0.805   2.362
 7521SOL     OW23461   5.131   4.010   6.157
 7521SOL    HW123462   5.058   3.996   6.090
 7521SOL    HW223463   5.094   4.058   6.237
 7522SOL     OW23464   2.483   0.801   6.329
 7522SOL    HW123465   2.482   0.726   6.396
 7522SOL    HW223466   2.488   0.889   6.377
 7523SOL     OW23467   5.823   0.125   5.814
 7523SOL    HW123468   5.873   0.203   5.776
 7523SOL    HW223469   5.748   0.158   5.871
 7524SOL     OW23470   2.221   2.265   5.533
 7524SOL    HW123471   2.159   2.286   5.609
 7524SOL    HW223472   2.300   2.214   5.568
 7525SOL     OW23473   3.859   0.950   6.271
 7525SOL    HW123474   3.849   0.940   6.370
 7525SOL    HW223475   3.772   0.982   6.232
 7526SOL     OW23476   2.686   3.202   1.682
 7526SOL    HW123477   2.587   3.211   1.698
 7526SOL    HW223478   2.711   3.105   1.679
 7527SOL     OW23479   3.994   5.787   3.299
 7527SOL    HW123480   3.926   5.804   3.228
 7527SOL    HW223481   3.948   5.772   3.387
 7528SOL     OW23482   5.350   1.271   6.841
 7528SOL    HW123483   5.312   1.327   6.914
 7528SOL    HW223484   5.279   1.253   6.772
 7529SOL     OW23485   5.082   0.774   4.426
 7529SOL    HW123486   4.991   0.814   4.422
 7529SOL    HW223487   5.129   0.806   4.509
 7530SOL     OW23488   0.714   3.626   2.831
 7530SOL    HW123489   0.711   3.725   2.816
 7530SOL    HW223490   0.625   3.586   2.810
 7531SOL     OW23491   4.793   2.835   4.303
 7531SOL    HW123492   4.887   2.810   4.280
 7531SOL    HW223493   4.787   2.855   4.401
 7532SOL     OW23494   5.882   5.070   0.506
 7532SOL    HW123495   5.879   5.085   0.408
 7532SOL    HW223496   5.798   5.025   0.536
 7533SOL     OW23497   2.282   1.902   2.518
 7533SOL    HW123498   2.196   1.893   2.470
 7533SOL    HW223499   2.265   1.919   2.615
 7534SOL     OW23500   4.209   6.117   5.279
 7534SOL    HW123501   4.258   6.116   5.192
 7534SOL    HW223502   4.113   6.140   5.262
 7535SOL     OW23503   1.809   6.898   5.225
 7535SOL    HW123504   1.751   6.962   5.175
 7535SOL    HW223505   1.758   6.813   5.242
 7536SOL     OW23506   4.628   4.382   4.554
 7536SOL    HW123507   4.574   4.446   4.608
 7536SOL    HW223508   4.710   4.356   4.604
 7537SOL     OW23509   3.566   5.668   2.478
 7537SOL    HW123510   3.494   5.598   2.480
 7537SOL    HW223511   3.568   5.710   2.387
 7538SOL     OW23512   2.302   3.008   1.708
 7538SOL    HW123513   2.349   3.096   1.700
 7538SOL    HW223514   2.252   3.006   1.795
 7539SOL     OW23515   0.808   3.464   3.825
 7539SOL    HW123516   0.878   3.413   3.775
 7539SOL    HW223517   0.718   3.431   3.798
 7540SOL     OW23518   4.323   0.579   5.299
 7540SOL    HW123519   4.400   0.621   5.252
 7540SOL    HW223520   4.296   0.636   5.376
 7541SOL     OW23521   0.274   4.419   4.844
 7541SOL    HW123522   0.218   4.336   4.856
 7541SOL    HW223523   0.225   4.484   4.786
 7542SOL     OW23524   0.965   5.173   6.770
 7542SOL    HW123525   0.944   5.096   6.710
 7542SOL    HW223526   0.947   5.258   6.722
 7543SOL     OW23527   3.508   2.118   0.240
 7543SOL    HW123528   3.576   2.129   0.167
 7543SOL    HW223529   3.441   2.049   0.214
 7544SOL     OW23530   0.096   2.138   2.809
 7544SOL    HW123531   0.109   2.167   2.714
 7544SOL    HW223532   0.136   2.206   2.870
 7545SOL     OW23533   6.514   5.523   1.055
 7545SOL    HW123534   6.577   5.597   1.078
 7545SOL    HW223535   6.545   5.438   1.097
 7546SOL     OW23536   3.445   1.696   1.982
 7546SOL    HW123537   3.525   1.752   2.002
 7546SOL    HW223538   3.433   1.628   2.054
 7547SOL     OW23539   5.197   0.605   0.507
 7547SOL    HW123540   5.139   0.682   0.479
 7547SOL    HW223541   5.287   0.640   0.534
 7548SOL     OW23542   3.869   1.913   0.337
 7548SOL    HW123543   3.827   1.923   0.427
 7548SOL    HW223544   3.804   1.871   0.274
 7549SOL     OW23545   5.192   2.263   1.222
 7549SOL    HW123546   5.107   2.316   1.226
 7549SOL    HW223547   5.229   2.250   1.314
 7550SOL     OW23548   2.852   5.259   2.275
 7550SOL    HW123549   2.832   5.189   2.206
 7550SOL    HW223550   2.933   5.231   2.327
 7551SOL     OW23551   5.097   3.961   6.671
 7551SOL    HW123552   5.151   3.911   6.603
 7551SOL    HW223553   5.006   3.980   6.634
 7552SOL     OW23554   1.273   5.550   2.813
 7552SOL    HW123555   1.214   5.577   2.889
 7552SOL    HW223556   1.217   5.516   2.737
 7553SOL     OW23557   4.585   6.344   5.559
 7553SOL    HW123558   4.628   6.266   5.605
 7553SOL    HW223559   4.587   6.330   5.460
 7554SOL     OW23560   4.454   1.545   0.562
 7554SOL    HW123561   4.363   1.581   0.580
 7554SOL    HW223562   4.495   1.512   0.648
 7555SOL     OW23563   1.950   4.614   5.866
 7555SOL    HW123564   1.905   4.553   5.802
 7555SOL    HW223565   2.048   4.594   5.869
 7556SOL     OW23566   1.569   2.764   0.310
 7556SOL    HW123567   1.629   2.704   0.257
 7556SOL    HW223568   1.608   2.777   0.401
 7557SOL     OW23569   5.071   1.851   5.992
 7557SOL    HW123570   5.103   1.943   5.972
 7557SOL    HW223571   5.107   1.788   5.923
 7558SOL     OW23572   1.532   2.875   4.417
 7558SOL    HW123573   1.468   2.946   4.389
 7558SOL    HW223574   1.567   2.895   4.508
 7559SOL     OW23575   5.525   4.743   6.627
 7559SOL    HW123576   5.432   4.718   6.654
 7559SOL    HW223577   5.569   4.667   6.580
 7560SOL     OW23578   4.831   6.360   1.161
 7560SOL    HW123579   4.889   6.413   1.223
 7560SOL    HW223580   4.843   6.395   1.068
 7561SOL     OW23581   1.346   3.304   6.826
 7561SOL    HW123582   1.262   3.350   6.798
 7561SOL    HW223583   1.393   3.360   6.894
 7562SOL     OW23584   6.991   6.530   3.888
 7562SOL    HW123585   6.968   6.451   3.831
 7562SOL    HW223586   0.066   6.533   3.903
 7563SOL     OW23587   2.737   0.011   0.814
 7563SOL    HW123588   2.796   6.976   0.760
 7563SOL    HW223589   2.762   0.005   0.910
 7564SOL     OW23590   4.813   0.738   3.051
 7564SOL    HW123591   4.763   0.821   3.026
 7564SOL    HW223592   4.905   0.762   3.082
 7565SOL     OW23593   5.080   3.199   0.760
 7565SOL    HW123594   5.112   3.109   0.788
 7565SOL    HW223595   5.052   3.251   0.841
 7566SOL     OW23596   5.844   4.799   2.838
 7566SOL    HW123597   5.763   4.742   2.822
 7566SOL    HW223598   5.891   4.767   2.921
 7567SOL     OW23599   1.435   2.299   4.938
 7567SOL    HW123600   1.510   2.237   4.916
 7567SOL    HW223601   1.453   2.343   5.026
 7568SOL     OW23602   5.576   6.066   2.424
 7568SOL    HW123603   5.643   6.048   2.496
 7568SOL    HW223604   5.591   6.002   2.348
 7569SOL     OW23605   3.990   6.012   6.035
 7569SOL    HW123606   3.990   6.068   6.118
 7569SOL    HW223607   4.053   6.051   5.968
 7570SOL     OW23608   5.856   3.609   5.386
 7570SOL    HW123609   5.823   3.581   5.476
 7570SOL    HW223610   5.930   3.676   5.397
 7571SOL     OW23611   4.788   5.350   3.400
 7571SOL    HW123612   4.832   5.396   3.324
 7571SOL    HW223613   4.857   5.318   3.465
 7572SOL     OW23614   4.903   1.111   1.905
 7572SOL    HW123615   4.877   1.167   1.984
 7572SOL    HW223616   4.854   1.144   1.824
 7573SOL     OW23617   0.568   0.044   4.959
 7573SOL    HW123618   0.564   0.075   4.864
 7573SOL    HW223619   0.597   0.120   5.018
 7574SOL     OW23620   5.665   0.895   5.695
 7574SOL    HW123621   5.670   0.890   5.794
 7574SOL    HW223622   5.693   0.986   5.665
 7575SOL     OW23623   4.663   6.953   6.580
 7575SOL    HW123624   4.729   7.003   6.525
 7575SOL    HW223625   4.585   7.012   6.601
 7576SOL     OW23626   5.087   4.681   6.244
 7576SOL    HW123627   5.120   4.594   6.207
 7576SOL    HW223628   5.008   4.665   6.303
 7577SOL     OW23629   0.438   0.022   0.101
 7577SOL    HW123630   0.345   7.022   0.074
 7577SOL    HW223631   0.447   0.015   0.200
 7578SOL     OW23632   2.050   5.301   2.114
 7578SOL    HW123633   2.150   5.303   2.127
 7578SOL    HW223634   2.023   5.378   2.057
 7579SOL     OW23635   6.328   0.957   1.342
 7579SOL    HW123636   6.321   1.047   1.297
 7579SOL    HW223637   6.415   0.951   1.390
 7580SOL     OW23638   0.947   3.922   4.151
 7580SOL    HW123639   0.905   3.859   4.217
 7580SOL    HW223640   0.994   3.995   4.201
 7581SOL     OW23641   6.696   0.603   1.138
 7581SOL    HW123642   6.741   0.575   1.223
 7581SOL    HW223643   6.671   0.700   1.144
 7582SOL     OW23644   3.902   1.096   1.810
 7582SOL    HW123645   3.957   1.145   1.742
 7582SOL    HW223646   3.805   1.111   1.791
 7583SOL     OW23647   6.064   3.057   1.294
 7583SOL    HW123648   5.982   3.047   1.237
 7583SOL    HW223649   6.036   3.069   1.390
 7584SOL     OW23650   2.760   6.673   1.616
 7584SOL    HW123651   2.787   6.588   1.571
 7584SOL    HW223652   2.673   6.704   1.578
 7585SOL     OW23653   1.447   2.703   6.943
 7585SOL    HW123654   1.366   2.674   6.994
 7585SOL    HW223655   1.509   2.752   7.005
 7586SOL     OW23656   2.603   1.187   3.296
 7586SOL    HW123657   2.549   1.136   3.362
 7586SOL    HW223658   2.543   1.248   3.243
 7587SOL     OW23659   2.139   1.815   0.347
 7587SOL    HW123660   2.043   1.827   0.321
 7587SOL    HW223661   2.151   1.846   0.441
 7588SOL     OW23662   1.507   2.753   3.240
 7588SOL    HW123663   1.572   2.823   3.210
 7588SOL    HW223664   1.416   2.792   3.246
 7589SOL     OW23665   0.934   6.926   2.267
 7589SOL    HW123666   0.881   6.847   2.234
 7589SOL    HW223667   0.871   6.994   2.304
 7590SOL     OW23668   4.457   1.882   6.190
 7590SOL    HW123669   4.447   1.915   6.097
 7590SOL    HW223670   4.368   1.848   6.223
 7591SOL     OW23671   0.490   3.336   0.477
 7591SOL    HW123672   0.401   3.329   0.521
 7591SOL    HW223673   0.562   3.317   0.544
 7592SOL     OW23674   6.780   4.596   5.229
 7592SOL    HW123675   6.694   4.643   5.211
 7592SOL    HW223676   6.822   4.633   5.312
 7593SOL     OW23677   5.731   3.265   1.095
 7593SOL    HW123678   5.637   3.298   1.097
 7593SOL    HW223679   5.794   3.342   1.090
 7594SOL     OW23680   0.937   5.043   2.558
 7594SOL    HW123681   0.948   5.138   2.527
 7594SOL    HW223682   0.978   5.034   2.649
 7595SOL     OW23683   7.021   2.692   5.945
 7595SOL    HW123684   7.021   2.595   5.971
 7595SOL    HW223685   6.928   2.728   5.949
 7596SOL     OW23686   4.316   5.651   4.134
 7596SOL    HW123687   4.305   5.639   4.035
 7596SOL    HW223688   4.381   5.725   4.152
 7597SOL     OW23689   3.457   6.376   2.969
 7597SOL    HW123690   3.448   6.471   2.997
 7597SOL    HW223691   3.553   6.348   2.976
 7598SOL     OW23692   6.747   1.530   3.224
 7598SOL    HW123693   6.676   1.601   3.219
 7598SOL    HW223694   6.730   1.471   3.303
 7599SOL     OW23695   5.158   2.089   2.823
 7599SOL    HW123696   5.065   2.075   2.790
 7599SOL    HW223697   5.220   2.030   2.771
 7600SOL     OW23698   2.052   1.926   2.376
 7600SOL    HW123699   1.971   1.889   2.421
 7600SOL    HW223700   2.026   2.003   2.317
 7601SOL     OW23701   1.472   5.314   2.844
 7601SOL    HW123702   1.406   5.389   2.838
 7601SOL    HW223703   1.425   5.227   2.827
 7602SOL     OW23704   1.925   4.118   5.934
 7602SOL    HW123705   1.896   4.105   5.839
 7602SOL    HW223706   2.023   4.140   5.936
 7603SOL     OW23707   1.308   5.756   6.015
 7603SOL    HW123708   1.231   5.738   5.954
 7603SOL    HW223709   1.384   5.793   5.963
 7604SOL     OW23710   1.807   4.346   4.347
 7604SOL    HW123711   1.806   4.421   4.281
 7604SOL    HW223712   1.809   4.259   4.299
 7605SOL     OW23713   0.576   6.903   1.191
 7605SOL    HW123714   0.593   6.915   1.289
 7605SOL    HW223715   0.482   6.928   1.170
 7606SOL     OW23716   5.724   3.688   5.152
 7606SOL    HW123717   5.758   3.653   5.239
 7606SOL    HW223718   5.801   3.723   5.098
 7607SOL     OW23719   3.433   4.580   6.659
 7607SOL    HW123720   3.477   4.648   6.602
 7607SOL    HW223721   3.480   4.493   6.650
 7608SOL     OW23722   4.140   3.666   2.906
 7608SOL    HW123723   4.070   3.735   2.887
 7608SOL    HW223724   4.203   3.659   2.829
 7609SOL     OW23725   1.190   3.566   4.139
 7609SOL    HW123726   1.243   3.582   4.222
 7609SOL    HW223727   1.109   3.512   4.161
 7610SOL     OW23728   4.440   5.413   6.316
 7610SOL    HW123729   4.510   5.357   6.360
 7610SOL    HW223730   4.431   5.501   6.363
 7611SOL     OW23731   6.500   2.451   1.311
 7611SOL    HW123732   6.424   2.513   1.294
 7611SOL    HW223733   6.563   2.493   1.376
 7612SOL     OW23734   4.713   2.830   3.790
 7612SOL    HW123735   4.765   2.827   3.705
 7612SOL    HW223736   4.672   2.920   3.801
 7613SOL     OW23737   6.635   3.467   1.314
 7613SOL    HW123738   6.581   3.407   1.256
 7613SOL    HW223739   6.630   3.561   1.279
 7614SOL     OW23740   4.881   2.987   1.225
 7614SOL    HW123741   4.908   2.895   1.198
 7614SOL    HW223742   4.784   3.001   1.203
 7615SOL     OW23743   3.819   5.441   6.791
 7615SOL    HW123744   3.903   5.388   6.808
 7615SOL    HW223745   3.740   5.386   6.819
 7616SOL     OW23746   6.152   5.792   4.365
 7616SOL    HW123747   6.188   5.820   4.276
 7616SOL    HW223748   6.219   5.734   4.411
 7617SOL     OW23749   3.995   5.147   2.718
 7617SOL    HW123750   3.943   5.173   2.800
 7617SOL    HW223751   4.078   5.098   2.746
 7618SOL     OW23752   0.343   1.186   5.695
 7618SOL    HW123753   0.258   1.152   5.734
 7618SOL    HW223754   0.420   1.159   5.754
 7619SOL     OW23755   6.152   2.852   5.073
 7619SOL    HW123756   6.146   2.806   4.984
 7619SOL    HW223757   6.199   2.939   5.062
 7620SOL     OW23758   3.576   6.017   0.733
 7620SOL    HW123759   3.555   6.089   0.667
 7620SOL    HW223760   3.675   6.004   0.736
 7621SOL     OW23761   0.082   1.519   0.795
 7621SOL    HW123762   0.096   1.600   0.738
 7621SOL    HW223763   7.014   1.483   0.779
 7622SOL     OW23764   4.499   6.187   1.155
 7622SOL    HW123765   4.480   6.122   1.229
 7622SOL    HW223766   4.494   6.280   1.191
 7623SOL     OW23767   4.655   4.935   6.879
 7623SOL    HW123768   4.621   4.945   6.973
 7623SOL    HW223769   4.706   4.849   6.872
 7624SOL     OW23770   6.676   3.623   5.197
 7624SOL    HW123771   6.745   3.666   5.256
 7624SOL    HW223772   6.601   3.686   5.182
 7625SOL     OW23773   4.811   0.491   1.513
 7625SOL    HW123774   4.715   0.482   1.485
 7625SOL    HW223775   4.839   0.586   1.506
 7626SOL     OW23776   5.775   6.771   4.519
 7626SOL    HW123777   5.768   6.798   4.615
 7626SOL    HW223778   5.684   6.775   4.477
 7627SOL     OW23779   4.943   3.205   0.190
 7627SOL    HW123780   4.971   3.242   0.102
 7627SOL    HW223781   4.876   3.132   0.175
 7628SOL     OW23782   3.687   1.814   2.006
 7628SOL    HW123783   3.679   1.907   2.042
 7628SOL    HW223784   3.777   1.777   2.028
 7629SOL     OW23785   0.136   6.272   3.187
 7629SOL    HW123786   0.106   6.257   3.093
 7629SOL    HW223787   0.229   6.238   3.199
 7630SOL     OW23788   6.987   6.810   1.054
 7630SOL    HW123789   6.925   6.752   1.001
 7630SOL    HW223790   0.048   6.761   1.071
 7631SOL     OW23791   0.872   1.642   6.443
 7631SOL    HW123792   0.858   1.741   6.451
 7631SOL    HW223793   0.832   1.610   6.357
 7632SOL     OW23794   3.490   2.899   1.713
 7632SOL    HW123795   3.572   2.858   1.754
 7632SOL    HW223796   3.409   2.852   1.745
 7633SOL     OW23797   5.379   0.518   1.326
 7633SOL    HW123798   5.310   0.590   1.318
 7633SOL    HW223799   5.353   0.441   1.267
 7634SOL     OW23800   1.098   2.179   2.301
 7634SOL    HW123801   1.161   2.234   2.246
 7634SOL    HW223802   1.108   2.203   2.397
 7635SOL     OW23803   3.861   4.986   4.862
 7635SOL    HW123804   3.879   5.050   4.937
 7635SOL    HW223805   3.831   4.898   4.899
 7636SOL     OW23806   1.580   2.652   4.008
 7636SOL    HW123807   1.649   2.697   4.064
 7636SOL    HW223808   1.490   2.668   4.047
 7637SOL     OW23809   2.092   5.104   2.562
 7637SOL    HW123810   2.103   5.054   2.648
 7637SOL    HW223811   2.078   5.201   2.581
 7638SOL     OW23812   2.811   6.320   0.961
 7638SOL    HW123813   2.712   6.317   0.951
 7638SOL    HW223814   2.851   6.235   0.926
 7639SOL     OW23815   1.304   2.363   0.749
 7639SOL    HW123816   1.328   2.268   0.772
 7639SOL    HW223817   1.241   2.363   0.671
 7640SOL     OW23818   3.124   1.297   5.601
 7640SOL    HW123819   3.080   1.381   5.570
 7640SOL    HW223820   3.186   1.317   5.677
 7641SOL     OW23821   1.019   4.212   2.473
 7641SOL    HW123822   1.090   4.178   2.534
 7641SOL    HW223823   1.025   4.164   2.385
 7642SOL     OW23824   3.220   1.053   3.026
 7642SOL    HW123825   3.194   1.142   2.988
 7642SOL    HW223826   3.225   0.985   2.953
 7643SOL     OW23827   5.031   2.786   4.178
 7643SOL    HW123828   5.018   2.747   4.087
 7643SOL    HW223829   5.035   2.886   4.170
 7644SOL     OW23830   5.774   2.287   2.666
 7644SOL    HW123831   5.758   2.265   2.570
 7644SOL    HW223832   5.811   2.380   2.674
 7645SOL     OW23833   4.360   3.473   5.540
 7645SOL    HW123834   4.380   3.537   5.466
 7645SOL    HW223835   4.418   3.493   5.619
 7646SOL     OW23836   1.148   3.722   3.131
 7646SOL    HW123837   1.099   3.741   3.216
 7646SOL    HW223838   1.232   3.673   3.150
 7647SOL     OW23839   6.698   3.331   3.163
 7647SOL    HW123840   6.755   3.394   3.214
 7647SOL    HW223841   6.755   3.259   3.123
 7648SOL     OW23842   2.794   1.571   2.692
 7648SOL    HW123843   2.838   1.561   2.603
 7648SOL    HW223844   2.699   1.602   2.679
 7649SOL     OW23845   1.419   0.847   2.467
 7649SOL    HW123846   1.369   0.869   2.551
 7649SOL    HW223847   1.501   0.795   2.489
 7650SOL     OW23848   4.299   1.947   0.629
 7650SOL    HW123849   4.330   1.927   0.722
 7650SOL    HW223850   4.323   2.041   0.605
 7651SOL     OW23851   2.143   0.881   3.891
 7651SOL    HW123852   2.200   0.915   3.966
 7651SOL    HW223853   2.196   0.817   3.836
 7652SOL     OW23854   5.820   3.827   5.651
 7652SOL    HW123855   5.842   3.754   5.716
 7652SOL    HW223856   5.900   3.845   5.594
 7653SOL     OW23857   1.069   1.737   6.748
 7653SOL    HW123858   1.097   1.812   6.807
 7653SOL    HW223859   0.976   1.752   6.715
 7654SOL     OW23860   4.636   2.725   4.049
 7654SOL    HW123861   4.643   2.793   4.123
 7654SOL    HW223862   4.663   2.768   3.963
 7655SOL     OW23863   4.492   0.036   2.901
 7655SOL    HW123864   4.448   7.003   2.832
 7655SOL    HW223865   4.580   7.020   2.927
 7656SOL     OW23866   2.798   3.838   5.871
 7656SOL    HW123867   2.796   3.931   5.909
 7656SOL    HW223868   2.848   3.839   5.784
 7657SOL     OW23869   1.165   2.855   4.021
 7657SOL    HW123870   1.229   2.827   3.949
 7657SOL    HW223871   1.156   2.783   4.089
 7658SOL     OW23872   4.073   0.015   6.093
 7658SOL    HW123873   4.025   6.952   6.102
 7658SOL    HW223874   4.046   0.075   6.168
 7659SOL     OW23875   6.348   5.301   6.355
 7659SOL    HW123876   6.399   5.386   6.371
 7659SOL    HW223877   6.250   5.323   6.351
 7660SOL     OW23878   0.743   6.056   4.350
 7660SOL    HW123879   0.690   6.113   4.413
 7660SOL    HW223880   0.691   6.040   4.266
 7661SOL     OW23881   6.138   2.661   4.849
 7661SOL    HW123882   6.153   2.645   4.751
 7661SOL    HW223883   6.226   2.659   4.897
 7662SOL     OW23884   1.361   2.975   3.452
 7662SOL    HW123885   1.424   3.047   3.481
 7662SOL    HW223886   1.393   2.887   3.488
 7663SOL     OW23887   0.441   5.488   5.285
 7663SOL    HW123888   0.464   5.494   5.383
 7663SOL    HW223889   0.343   5.504   5.273
 7664SOL     OW23890   3.714   6.841   1.601
 7664SOL    HW123891   3.625   6.807   1.570
 7664SOL    HW223892   3.702   6.931   1.642
 7665SOL     OW23893   6.041   6.976   4.863
 7665SOL    HW123894   6.088   6.905   4.810
 7665SOL    HW223895   6.081   0.041   4.841
 7666SOL     OW23896   0.428   5.582   1.698
 7666SOL    HW123897   0.419   5.483   1.694
 7666SOL    HW223898   0.525   5.607   1.696
 7667SOL     OW23899   4.863   6.582   2.257
 7667SOL    HW123900   4.870   6.580   2.356
 7667SOL    HW223901   4.772   6.615   2.230
 7668SOL     OW23902   3.517   4.580   0.108
 7668SOL    HW123903   3.484   4.651   0.171
 7668SOL    HW223904   3.467   4.495   0.125
 7669SOL     OW23905   4.809   1.915   5.150
 7669SOL    HW123906   4.818   1.896   5.247
 7669SOL    HW223907   4.721   1.957   5.131
 7670SOL     OW23908   0.701   5.208   6.484
 7670SOL    HW123909   0.770   5.254   6.539
 7670SOL    HW223910   0.733   5.116   6.460
 7671SOL     OW23911   4.569   1.044   2.655
 7671SOL    HW123912   4.493   1.109   2.652
 7671SOL    HW223913   4.608   1.035   2.563
 7672SOL     OW23914   0.422   6.624   2.755
 7672SOL    HW123915   0.465   6.640   2.666
 7672SOL    HW223916   0.360   6.546   2.748
 7673SOL     OW23917   1.458   6.117   0.406
 7673SOL    HW123918   1.549   6.135   0.370
 7673SOL    HW223919   1.431   6.023   0.385
 7674SOL     OW23920   5.433   1.372   2.904
 7674SOL    HW123921   5.462   1.367   3.000
 7674SOL    HW223922   5.343   1.330   2.894
 7675SOL     OW23923   6.420   6.722   2.573
 7675SOL    HW123924   6.478   6.738   2.493
 7675SOL    HW223925   6.425   6.625   2.599
 7676SOL     OW23926   2.432   2.083   0.733
 7676SOL    HW123927   2.481   2.003   0.766
 7676SOL    HW223928   2.353   2.101   0.791
 7677SOL     OW23929   0.213   4.830   1.492
 7677SOL    HW123930   0.285   4.827   1.422
 7677SOL    HW223931   0.251   4.863   1.578
 7678SOL     OW23932   1.911   2.978   4.714
 7678SOL    HW123933   1.913   3.073   4.744
 7678SOL    HW223934   1.982   2.926   4.761
 7679SOL     OW23935   3.044   5.463   6.107
 7679SOL    HW123936   3.039   5.561   6.124
 7679SOL    HW223937   2.997   5.441   6.022
 7680SOL     OW23938   1.552   0.856   0.649
 7680SOL    HW123939   1.544   0.955   0.635
 7680SOL    HW223940   1.629   0.821   0.597
 7681SOL     OW23941   2.452   0.523   0.336
 7681SOL    HW123942   2.507   0.561   0.410
 7681SOL    HW223943   2.427   0.595   0.272
 7682SOL     OW23944   3.388   0.310   2.367
 7682SOL    HW123945   3.461   0.254   2.328
 7682SOL    HW223946   3.404   0.406   2.347
 7683SOL     OW23947   4.981   1.387   4.265
 7683SOL    HW123948   5.034   1.470   4.250
 7683SOL    HW223949   4.891   1.410   4.303
 7684SOL     OW23950   3.389   1.933   1.224
 7684SOL    HW123951   3.470   1.990   1.221
 7684SOL    HW223952   3.307   1.991   1.222
 7685SOL     OW23953   2.833   1.964   5.847
 7685SOL    HW123954   2.889   1.889   5.811
 7685SOL    HW223955   2.884   2.049   5.844
 7686SOL     OW23956   6.743   6.299   2.606
 7686SOL    HW123957   6.820   6.249   2.646
 7686SOL    HW223958   6.778   6.377   2.553
 7687SOL     OW23959   5.885   5.355   3.789
 7687SOL    HW123960   5.823   5.405   3.728
 7687SOL    HW223961   5.954   5.417   3.825
 7688SOL     OW23962   0.781   5.881   6.083
 7688SOL    HW123963   0.786   5.804   6.019
 7688SOL    HW223964   0.705   5.866   6.147
 7689SOL     OW23965   6.038   6.190   2.570
 7689SOL    HW123966   6.129   6.149   2.569
 7689SOL    HW223967   6.041   6.276   2.621
 7690SOL     OW23968   5.473   5.178   0.356
 7690SOL    HW123969   5.526   5.261   0.341
 7690SOL    HW223970   5.441   5.142   0.268
 7691SOL     OW23971   5.137   4.118   4.045
 7691SOL    HW123972   5.226   4.128   4.000
 7691SOL    HW223973   5.135   4.031   4.094
 7692SOL     OW23974   0.708   6.036   1.954
 7692SOL    HW123975   0.649   6.067   1.879
 7692SOL    HW223976   0.656   6.036   2.039
 7693SOL     OW23977   3.838   6.546   1.077
 7693SOL    HW123978   3.792   6.526   1.164
 7693SOL    HW223979   3.874   6.640   1.080
 7694SOL     OW23980   6.592   4.578   4.794
 7694SOL    HW123981   6.631   4.609   4.707
 7694SOL    HW223982   6.493   4.575   4.787
 7695SOL     OW23983   4.982   0.757   1.094
 7695SOL    HW123984   5.005   0.772   0.997
 7695SOL    HW223985   4.980   0.845   1.141
 7696SOL     OW23986   0.221   0.192   5.355
 7696SOL    HW123987   0.319   0.208   5.370
 7696SOL    HW223988   0.187   0.257   5.288
 7697SOL     OW23989   2.540   6.666   2.308
 7697SOL    HW123990   2.515   6.580   2.354
 7697SOL    HW223991   2.639   6.673   2.303
 7698SOL     OW23992   6.050   1.200   3.959
 7698SOL    HW123993   6.074   1.235   3.868
 7698SOL    HW223994   5.973   1.253   3.995
 7699SOL     OW23995   3.355   5.797   6.232
 7699SOL    HW123996   3.455   5.796   6.229
 7699SOL    HW223997   3.325   5.784   6.327
 7700SOL     OW23998   4.700   5.944   3.763
 7700SOL    HW123999   4.738   5.879   3.830
 7700SOL    HW224000   4.747   6.031   3.770
 7701SOL     OW24001   6.768   2.047   6.831
 7701SOL    HW124002   6.744   2.143   6.846
 7701SOL    HW224003   6.686   1.991   6.839
 7702SOL     OW24004   3.347   6.825   5.412
 7702SOL    HW124005   3.377   6.818   5.317
 7702SOL    HW224006   3.320   6.735   5.446
 7703SOL     OW24007   6.862   6.720   6.528
 7703SOL    HW124008   6.775   6.757   6.560
 7703SOL    HW224009   6.898   6.655   6.595
 7704SOL     OW24010   5.623   5.555   4.679
 7704SOL    HW124011   5.698   5.569   4.615
 7704SOL    HW224012   5.606   5.457   4.690
 7705SOL     OW24013   3.494   5.545   6.840
 7705SOL    HW124014   3.412   5.559   6.784
 7705SOL    HW224015   3.470   5.497   6.924
 7706SOL     OW24016   4.796   3.143   5.256
 7706SOL    HW124017   4.733   3.215   5.288
 7706SOL    HW224018   4.768   3.055   5.294
 7707SOL     OW24019   6.445   5.308   5.467
 7707SOL    HW124020   6.493   5.363   5.398
 7707SOL    HW224021   6.465   5.346   5.558
 7708SOL     OW24022   0.442   6.732   6.031
 7708SOL    HW124023   0.536   6.721   6.065
 7708SOL    HW224024   0.437   6.812   5.972
 7709SOL     OW24025   6.182   4.610   2.108
 7709SOL    HW124026   6.276   4.645   2.107
 7709SOL    HW224027   6.132   4.651   2.184
 7710SOL     OW24028   2.907   1.503   0.451
 7710SOL    HW124029   2.997   1.499   0.407
 7710SOL    HW224030   2.901   1.585   0.508
 7711SOL     OW24031   5.957   6.917   5.862
 7711SOL    HW124032   5.935   7.014   5.854
 7711SOL    HW224033   5.875   6.867   5.892
 7712SOL     OW24034   6.215   5.309   1.951
 7712SOL    HW124035   6.165   5.338   1.870
 7712SOL    HW224036   6.157   5.317   2.032
 7713SOL     OW24037   1.700   4.218   1.096
 7713SOL    HW124038   1.618   4.185   1.050
 7713SOL    HW224039   1.688   4.209   1.195
 7714SOL     OW24040   6.628   3.846   5.511
 7714SOL    HW124041   6.574   3.765   5.535
 7714SOL    HW224042   6.706   3.853   5.573
 7715SOL     OW24043   3.589   1.774   0.606
 7715SOL    HW124044   3.599   1.694   0.546
 7715SOL    HW224045   3.609   1.747   0.700
 7716SOL     OW24046   6.551   4.090   2.730
 7716SOL    HW124047   6.476   4.063   2.670
 7716SOL    HW224048   6.618   4.016   2.736
 7717SOL     OW24049   1.785   1.048   5.329
 7717SOL    HW124050   1.696   1.079   5.295
 7717SOL    HW224051   1.841   1.127   5.352
 7718SOL     OW24052   1.018   3.261   3.825
 7718SOL    HW124053   0.950   3.195   3.858
 7718SOL    HW224054   1.109   3.223   3.837
 7719SOL     OW24055   6.453   4.381   5.054
 7719SOL    HW124056   6.517   4.320   5.006
 7719SOL    HW224057   6.459   4.364   5.152
 7720SOL     OW24058   0.206   1.614   0.382
 7720SOL    HW124059   0.212   1.594   0.285
 7720SOL    HW224060   0.242   1.537   0.435
 7721SOL     OW24061   0.453   5.297   2.671
 7721SOL    HW124062   0.392   5.244   2.613
 7721SOL    HW224063   0.502   5.236   2.734
 7722SOL     OW24064   1.153   4.574   3.881
 7722SOL    HW124065   1.116   4.481   3.871
 7722SOL    HW224066   1.099   4.624   3.948
 7723SOL     OW24067   4.665   3.385   6.386
 7723SOL    HW124068   4.695   3.476   6.415
 7723SOL    HW224069   4.584   3.358   6.439
 7724SOL     OW24070   3.249   3.903   1.176
 7724SOL    HW124071   3.258   3.912   1.077
 7724SOL    HW224072   3.340   3.904   1.218
 7725SOL     OW24073   6.667   0.844   2.739
 7725SOL    HW124074   6.597   0.913   2.719
 7725SOL    HW224075   6.735   0.845   2.666
 7726SOL     OW24076   1.632   5.709   5.150
 7726SOL    HW124077   1.597   5.730   5.241
 7726SOL    HW224078   1.620   5.788   5.090
 7727SOL     OW24079   0.554   1.281   2.691
 7727SOL    HW124080   0.572   1.216   2.618
 7727SOL    HW224081   0.481   1.247   2.750
 7728SOL     OW24082   1.196   4.543   4.380
 7728SOL    HW124083   1.219   4.621   4.321
 7728SOL    HW224084   1.174   4.575   4.471
 7729SOL     OW24085   5.645   2.756   0.712
 7729SOL    HW124086   5.581   2.701   0.659
 7729SOL    HW224087   5.726   2.777   0.656
 7730SOL     OW24088   5.805   6.080   0.221
 7730SOL    HW124089   5.810   6.019   0.142
 7730SOL    HW224090   5.883   6.064   0.281
 7731SOL     OW24091   6.489   1.488   0.648
 7731SOL    HW124092   6.561   1.515   0.584
 7731SOL    HW224093   6.531   1.446   0.729
 7732SOL     OW24094   4.849   6.491   0.897
 7732SOL    HW124095   4.895   6.512   0.811
 7732SOL    HW224096   4.804   6.572   0.932
 7733SOL     OW24097   4.847   6.471   3.124
 7733SOL    HW124098   4.930   6.502   3.169
 7733SOL    HW224099   4.806   6.547   3.073
 7734SOL     OW24100   1.962   4.683   2.778
 7734SOL    HW124101   1.945   4.763   2.836
 7734SOL    HW224102   1.876   4.636   2.760
 7735SOL     OW24103   4.602   6.438   6.865
 7735SOL    HW124104   4.615   6.405   6.771
 7735SOL    HW224105   4.507   6.467   6.877
 7736SOL     OW24106   3.524   3.489   6.684
 7736SOL    HW124107   3.536   3.582   6.648
 7736SOL    HW224108   3.439   3.450   6.648
 7737SOL     OW24109   3.234   6.898   2.517
 7737SOL    HW124110   3.293   6.818   2.525
 7737SOL    HW224111   3.281   6.978   2.553
 7738SOL     OW24112   3.237   5.593   6.736
 7738SOL    HW124113   3.256   5.686   6.703
 7738SOL    HW224114   3.172   5.548   6.675
 7739SOL     OW24115   0.377   2.681   1.276
 7739SOL    HW124116   0.281   2.703   1.293
 7739SOL    HW224117   0.382   2.600   1.218
 7740SOL     OW24118   2.123   1.374   2.804
 7740SOL    HW124119   2.153   1.379   2.709
 7740SOL    HW224120   2.052   1.444   2.819
 7741SOL     OW24121   0.927   5.011   5.873
 7741SOL    HW124122   0.895   4.945   5.805
 7741SOL    HW224123   0.884   4.990   5.961
 7742SOL     OW24124   4.125   1.966   3.429
 7742SOL    HW124125   4.038   2.006   3.457
 7742SOL    HW224126   4.180   2.034   3.380
 7743SOL     OW24127   5.980   1.357   6.493
 7743SOL    HW124128   5.929   1.359   6.407
 7743SOL    HW224129   5.945   1.427   6.555
 7744SOL     OW24130   0.775   6.834   4.019
 7744SOL    HW124131   0.821   6.893   4.085
 7744SOL    HW224132   0.776   6.878   3.929
 7745SOL     OW24133   3.596   1.340   6.718
 7745SOL    HW124134   3.501   1.312   6.733
 7745SOL    HW224135   3.614   1.425   6.768
 7746SOL     OW24136   1.704   0.263   0.370
 7746SOL    HW124137   1.655   0.180   0.399
 7746SOL    HW224138   1.659   0.343   0.409
 7747SOL     OW24139   5.430   5.851   1.521
 7747SOL    HW124140   5.456   5.813   1.609
 7747SOL    HW224141   5.344   5.902   1.530
 7748SOL     OW24142   3.086   3.958   4.830
 7748SOL    HW124143   3.156   4.019   4.867
 7748SOL    HW224144   3.085   3.873   4.882
 7749SOL     OW24145   2.848   3.324   6.211
 7749SOL    HW124146   2.802   3.258   6.152
 7749SOL    HW224147   2.855   3.287   6.304
 7750SOL     OW24148   0.252   6.078   1.326
 7750SOL    HW124149   0.209   6.091   1.237
 7750SOL    HW224150   0.312   5.999   1.323
 7751SOL     OW24151   1.732   2.767   2.050
 7751SOL    HW124152   1.751   2.857   2.012
 7751SOL    HW224153   1.661   2.774   2.120
 7752SOL     OW24154   5.398   6.627   5.783
 7752SOL    HW124155   5.309   6.584   5.798
 7752SOL    HW224156   5.466   6.585   5.842
 7753SOL     OW24157   2.489   0.823   3.662
 7753SOL    HW124158   2.475   0.921   3.647
 7753SOL    HW224159   2.567   0.792   3.608
 7754SOL     OW24160   3.273   6.772   2.215
 7754SOL    HW124161   3.225   6.700   2.267
 7754SOL    HW224162   3.210   6.847   2.196
 7755SOL     OW24163   1.906   2.076   5.273
 7755SOL    HW124164   1.938   2.059   5.180
 7755SOL    HW224165   1.806   2.079   5.273
 7756SOL     OW24166   2.758   6.364   2.743
 7756SOL    HW124167   2.716   6.433   2.684
 7756SOL    HW224168   2.853   6.388   2.761
 7757SOL     OW24169   5.729   4.903   0.204
 7757SOL    HW124170   5.635   4.912   0.170
 7757SOL    HW224171   5.732   4.830   0.273
 7758SOL     OW24172   2.126   0.888   5.557
 7758SOL    HW124173   2.190   0.866   5.631
 7758SOL    HW224174   2.036   0.907   5.595
 7759SOL     OW24175   1.642   2.020   5.642
 7759SOL    HW124176   1.737   2.037   5.669
 7759SOL    HW224177   1.584   2.021   5.724
 7760SOL     OW24178   5.975   3.010   2.769
 7760SOL    HW124179   6.070   2.982   2.757
 7760SOL    HW224180   5.943   3.057   2.686
 7761SOL     OW24181   0.406   0.554   4.648
 7761SOL    HW124182   0.352   0.603   4.580
 7761SOL    HW224183   0.476   0.615   4.686
 7762SOL     OW24184   2.829   0.138   4.025
 7762SOL    HW124185   2.768   0.166   4.099
 7762SOL    HW224186   2.902   0.081   4.062
 7763SOL     OW24187   1.950   0.679   6.212
 7763SOL    HW124188   1.945   0.618   6.133
 7763SOL    HW224189   1.873   0.661   6.273
 7764SOL     OW24190   3.395   3.292   4.189
 7764SOL    HW124191   3.343   3.332   4.114
 7764SOL    HW224192   3.351   3.313   4.276
 7765SOL     OW24193   6.230   3.912   5.021
 7765SOL    HW124194   6.274   3.928   5.110
 7765SOL    HW224195   6.230   3.997   4.968
 7766SOL     OW24196   6.999   3.809   0.133
 7766SOL    HW124197   7.014   3.712   0.147
 7766SOL    HW224198   6.939   3.823   0.055
 7767SOL     OW24199   5.078   6.411   2.515
 7767SOL    HW124200   5.115   6.468   2.442
 7767SOL    HW224201   5.153   6.363   2.561
 7768SOL     OW24202   4.206   4.697   2.599
 7768SOL    HW124203   4.174   4.739   2.684
 7768SOL    HW224204   4.139   4.711   2.527
 7769SOL     OW24205   3.944   1.612   3.283
 7769SOL    HW124206   3.901   1.659   3.360
 7769SOL    HW224207   3.989   1.679   3.224
 7770SOL     OW24208   1.596   4.134   3.864
 7770SOL    HW124209   1.659   4.211   3.877
 7770SOL    HW224210   1.540   4.150   3.782
 7771SOL     OW24211   3.735   1.968   5.347
 7771SOL    HW124212   3.702   1.901   5.414
 7771SOL    HW224213   3.824   1.939   5.311
 7772SOL     OW24214   4.426   0.323   2.979
 7772SOL    HW124215   4.501   0.387   2.960
 7772SOL    HW224216   4.455   0.230   2.957
 7773SOL     OW24217   2.639   5.765   5.179
 7773SOL    HW124218   2.692   5.781   5.263
 7773SOL    HW224219   2.543   5.748   5.202
 7774SOL     OW24220   5.106   2.242   4.458
 7774SOL    HW124221   5.199   2.246   4.421
 7774SOL    HW224222   5.096   2.310   4.531
 7775SOL     OW24223   4.378   6.100   0.918
 7775SOL    HW124224   4.281   6.077   0.927
 7775SOL    HW224225   4.407   6.149   1.000
 7776SOL     OW24226   0.387   5.624   6.272
 7776SOL    HW124227   0.470   5.673   6.299
 7776SOL    HW224228   0.384   5.535   6.318
 7777SOL     OW24229   5.755   6.203   3.930
 7777SOL    HW124230   5.827   6.262   3.967
 7777SOL    HW224231   5.693   6.257   3.873
 7778SOL     OW24232   5.498   4.735   0.422
 7778SOL    HW124233   5.471   4.642   0.445
 7778SOL    HW224234   5.558   4.733   0.341
 7779SOL     OW24235   2.697   1.849   1.477
 7779SOL    HW124236   2.710   1.865   1.379
 7779SOL    HW224237   2.787   1.846   1.521
 7780SOL     OW24238   1.084   4.958   5.510
 7780SOL    HW124239   1.115   5.005   5.427
 7780SOL    HW224240   1.136   4.990   5.589
 7781SOL     OW24241   2.773   4.819   1.210
 7781SOL    HW124242   2.778   4.720   1.221
 7781SOL    HW224243   2.779   4.863   1.300
 7782SOL     OW24244   4.956   5.069   4.274
 7782SOL    HW124245   5.015   5.130   4.328
 7782SOL    HW224246   5.009   4.990   4.244
 7783SOL     OW24247   0.891   6.316   5.164
 7783SOL    HW124248   0.919   6.406   5.197
 7783SOL    HW224249   0.808   6.287   5.213
 7784SOL     OW24250   3.702   2.851   1.938
 7784SOL    HW124251   3.747   2.765   1.911
 7784SOL    HW224252   3.612   2.830   1.976
 7785SOL     OW24253   1.782   6.424   4.575
 7785SOL    HW124254   1.747   6.341   4.532
 7785SOL    HW224255   1.788   6.409   4.674
 7786SOL     OW24256   3.599   6.659   0.850
 7786SOL    HW124257   3.648   6.573   0.852
 7786SOL    HW224258   3.556   6.675   0.939
 7787SOL     OW24259   1.766   3.030   6.301
 7787SOL    HW124260   1.729   2.988   6.384
 7787SOL    HW224261   1.690   3.066   6.245
 7788SOL     OW24262   2.077   5.013   1.317
 7788SOL    HW124263   2.071   5.043   1.412
 7788SOL    HW224264   2.173   4.998   1.293
 7789SOL     OW24265   2.464   0.011   6.145
 7789SOL    HW124266   2.415   0.084   6.194
 7789SOL    HW224267   2.559   0.009   6.177
 7790SOL     OW24268   5.283   5.426   3.104
 7790SOL    HW124269   5.308   5.373   3.023
 7790SOL    HW224270   5.364   5.472   3.140
 7791SOL     OW24271   2.707   5.451   2.785
 7791SOL    HW124272   2.678   5.486   2.874
 7791SOL    HW224273   2.742   5.526   2.729
 7792SOL     OW24274   1.964   5.661   4.605
 7792SOL    HW124275   1.973   5.624   4.697
 7792SOL    HW224276   1.873   5.640   4.569
 7793SOL     OW24277   4.393   1.203   0.936
 7793SOL    HW124278   4.410   1.176   1.030
 7793SOL    HW224279   4.338   1.287   0.935
 7794SOL     OW24280   6.321   3.896   2.609
 7794SOL    HW124281   6.227   3.922   2.632
 7794SOL    HW224282   6.350   3.944   2.527
 7795SOL     OW24283   1.874   4.071   5.099
 7795SOL    HW124284   1.886   3.979   5.061
 7795SOL    HW224285   1.825   4.065   5.186
 7796SOL     OW24286   3.599   3.090   4.653
 7796SOL    HW124287   3.573   3.179   4.691
 7796SOL    HW224288   3.564   3.018   4.712
 7797SOL     OW24289   1.493   6.938   1.927
 7797SOL    HW124290   1.505   6.849   1.971
 7797SOL    HW224291   1.491   6.926   1.827
 7798SOL     OW24292   1.346   3.480   3.906
 7798SOL    HW124293   1.304   3.543   3.970
 7798SOL    HW224294   1.381   3.400   3.955
 7799SOL     OW24295   1.904   5.874   3.028
 7799SOL    HW124296   1.911   5.873   2.928
 7799SOL    HW224297   1.874   5.784   3.060
 7800SOL     OW24298   1.157   5.785   2.549
 7800SOL    HW124299   1.168   5.686   2.550
 7800SOL    HW224300   1.113   5.814   2.634
 7801SOL     OW24301   1.982   1.752   1.236
 7801SOL    HW124302   2.041   1.798   1.303
 7801SOL    HW224303   1.895   1.730   1.278
 7802SOL     OW24304   5.668   2.796   1.371
 7802SOL    HW124305   5.611   2.847   1.435
 7802SOL    HW224306   5.672   2.700   1.398
 7803SOL     OW24307   4.191   2.435   5.938
 7803SOL    HW124308   4.207   2.346   5.981
 7803SOL    HW224309   4.093   2.455   5.938
 7804SOL     OW24310   4.347   2.217   5.300
 7804SOL    HW124311   4.327   2.238   5.396
 7804SOL    HW224312   4.445   2.207   5.287
 7805SOL     OW24313   5.263   3.053   1.565
 7805SOL    HW124314   5.182   3.011   1.607
 7805SOL    HW224315   5.248   3.151   1.555
 7806SOL     OW24316   6.396   2.122   6.594
 7806SOL    HW124317   6.442   2.033   6.606
 7806SOL    HW224318   6.404   2.174   6.679
 7807SOL     OW24319   1.401   4.608   6.204
 7807SOL    HW124320   1.450   4.647   6.127
 7807SOL    HW224321   1.417   4.663   6.286
 7808SOL     OW24322   6.312   3.515   4.502
 7808SOL    HW124323   6.300   3.522   4.601
 7808SOL    HW224324   6.261   3.436   4.467
 7809SOL     OW24325   4.102   5.106   4.545
 7809SOL    HW124326   4.187   5.136   4.501
 7809SOL    HW224327   4.114   5.014   4.581
 7810SOL     OW24328   3.489   7.011   4.602
 7810SOL    HW124329   3.450   6.991   4.512
 7810SOL    HW224330   3.559   6.943   4.624
 7811SOL     OW24331   1.426   5.418   2.157
 7811SOL    HW124332   1.350   5.392   2.097
 7811SOL    HW224333   1.509   5.369   2.129
 7812SOL     OW24334   0.084   2.166   4.610
 7812SOL    HW124335   0.167   2.221   4.597
 7812SOL    HW224336   0.110   2.071   4.628
 7813SOL     OW24337   3.987   2.134   0.215
 7813SOL    HW124338   3.965   2.052   0.267
 7813SOL    HW224339   4.042   2.196   0.271
 7814SOL     OW24340   0.143   3.107   2.986
 7814SOL    HW124341   0.181   3.079   2.898
 7814SOL    HW224342   0.217   3.139   3.045
 7815SOL     OW24343   6.188   1.725   4.492
 7815SOL    HW124344   6.111   1.769   4.537
 7815SOL    HW224345   6.156   1.647   4.438
 7816SOL     OW24346   1.468   2.255   6.468
 7816SOL    HW124347   1.453   2.350   6.493
 7816SOL    HW224348   1.384   2.203   6.481
 7817SOL     OW24349   4.848   3.912   4.128
 7817SOL    HW124350   4.825   3.881   4.220
 7817SOL    HW224351   4.943   3.891   4.108
 7818SOL     OW24352   5.019   0.103   2.417
 7818SOL    HW124353   5.088   0.062   2.357
 7818SOL    HW224354   5.064   0.139   2.499
 7819SOL     OW24355   6.731   4.010   4.038
 7819SOL    HW124356   6.763   3.998   4.132
 7819SOL    HW224357   6.663   4.083   4.035
 7820SOL     OW24358   1.699   1.418   5.211
 7820SOL    HW124359   1.719   1.487   5.280
 7820SOL    HW224360   1.600   1.405   5.205
 7821SOL     OW24361   5.391   5.591   6.738
 7821SOL    HW124362   5.383   5.681   6.781
 7821SOL    HW224363   5.488   5.565   6.734
 7822SOL     OW24364   0.743   1.261   0.442
 7822SOL    HW124365   0.730   1.277   0.540
 7822SOL    HW224366   0.836   1.230   0.425
 7823SOL     OW24367   2.983   3.561   6.251
 7823SOL    HW124368   2.925   3.488   6.214
 7823SOL    HW224369   2.981   3.640   6.189
 7824SOL     OW24370   5.338   1.367   3.814
 7824SOL    HW124371   5.310   1.342   3.907
 7824SOL    HW224372   5.437   1.381   3.811
 7825SOL     OW24373   1.003   3.249   1.073
 7825SOL    HW124374   1.095   3.259   1.034
 7825SOL    HW224375   1.007   3.265   1.171
 7826SOL     OW24376   6.058   1.942   0.146
 7826SOL    HW124377   6.050   2.000   0.065
 7826SOL    HW224378   6.003   1.859   0.133
 7827SOL     OW24379   3.263   4.905   1.476
 7827SOL    HW124380   3.328   4.940   1.408
 7827SOL    HW224381   3.283   4.944   1.565
 7828SOL     OW24382   0.745   5.229   6.972
 7828SOL    HW124383   0.776   5.195   0.037
 7828SOL    HW224384   0.780   5.170   6.900
 7829SOL     OW24385   1.927   2.966   6.813
 7829SOL    HW124386   1.838   2.997   6.779
 7829SOL    HW224387   1.982   3.046   6.838
 7830SOL     OW24388   4.153   3.763   5.747
 7830SOL    HW124389   4.076   3.741   5.687
 7830SOL    HW224390   4.137   3.851   5.791
 7831SOL     OW24391   1.437   5.269   1.139
 7831SOL    HW124392   1.494   5.273   1.220
 7831SOL    HW224393   1.382   5.186   1.141
 7832SOL     OW24394   3.903   1.189   4.080
 7832SOL    HW124395   3.886   1.156   3.987
 7832SOL    HW224396   3.948   1.279   4.075
 7833SOL     OW24397   0.354   1.686   6.921
 7833SOL    HW124398   0.441   1.639   6.919
 7833SOL    HW224399   0.293   1.643   6.988
 7834SOL     OW24400   0.032   0.611   3.815
 7834SOL    HW124401   0.035   0.704   3.779
 7834SOL    HW224402   7.001   0.554   3.755
 7835SOL     OW24403   2.344   1.940   5.027
 7835SOL    HW124404   2.358   1.981   5.117
 7835SOL    HW224405   2.431   1.941   4.977
 7836SOL     OW24406   2.930   2.729   5.325
 7836SOL    HW124407   3.009   2.668   5.330
 7836SOL    HW224408   2.956   2.813   5.277
 7837SOL     OW24409   6.764   5.623   1.132
 7837SOL    HW124410   6.776   5.651   1.227
 7837SOL    HW224411   6.821   5.544   1.112
 7838SOL     OW24412   4.476   6.288   0.275
 7838SOL    HW124413   4.414   6.288   0.196
 7838SOL    HW224414   4.422   6.286   0.359
 7839SOL     OW24415   6.234   4.121   5.211
 7839SOL    HW124416   6.143   4.080   5.209
 7839SOL    HW224417   6.262   4.146   5.119
 7840SOL     OW24418   5.473   3.350   4.533
 7840SOL    HW124419   5.428   3.321   4.449
 7840SOL    HW224420   5.475   3.273   4.598
 7841SOL     OW24421   4.535   1.695   6.740
 7841SOL    HW124422   4.508   1.769   6.800
 7841SOL    HW224423   4.596   1.632   6.788
 7842SOL     OW24424   1.546   2.089   2.908
 7842SOL    HW124425   1.577   2.104   2.815
 7842SOL    HW224426   1.598   2.148   2.971
 7843SOL     OW24427   5.366   4.670   2.100
 7843SOL    HW124428   5.464   4.657   2.090
 7843SOL    HW224429   5.317   4.606   2.040
 7844SOL     OW24430   4.285   6.895   3.354
 7844SOL    HW124431   4.350   6.951   3.302
 7844SOL    HW224432   4.205   6.950   3.378
 7845SOL     OW24433   5.701   1.695   3.924
 7845SOL    HW124434   5.782   1.647   3.891
 7845SOL    HW224435   5.691   1.681   4.022
 7846SOL     OW24436   0.860   1.057   2.475
 7846SOL    HW124437   0.909   1.040   2.389
 7846SOL    HW224438   0.926   1.070   2.549
 7847SOL     OW24439   6.873   1.867   2.437
 7847SOL    HW124440   6.864   1.932   2.513
 7847SOL    HW224441   6.938   1.795   2.462
 7848SOL     OW24442   2.584   2.766   0.792
 7848SOL    HW124443   2.675   2.743   0.825
 7848SOL    HW224444   2.523   2.687   0.804
 7849SOL     OW24445   5.312   3.774   2.854
 7849SOL    HW124446   5.354   3.683   2.855
 7849SOL    HW224447   5.381   3.843   2.873
 7850SOL     OW24448   0.996   1.924   4.454
 7850SOL    HW124449   1.040   1.986   4.389
 7850SOL    HW224450   0.900   1.949   4.463
 7851SOL     OW24451   6.266   1.007   1.924
 7851SOL    HW124452   6.183   1.017   1.867
 7851SOL    HW224453   6.347   1.018   1.866
 7852SOL     OW24454   2.580   0.725   5.927
 7852SOL    HW124455   2.531   0.744   5.841
 7852SOL    HW224456   2.540   0.781   6.000
 7853SOL     OW24457   4.495   1.801   1.808
 7853SOL    HW124458   4.565   1.865   1.776
 7853SOL    HW224459   4.430   1.849   1.867
 7854SOL     OW24460   3.093   3.255   0.592
 7854SOL    HW124461   3.010   3.275   0.541
 7854SOL    HW224462   3.113   3.158   0.587
 7855SOL     OW24463   3.260   5.429   5.205
 7855SOL    HW124464   3.303   5.493   5.269
 7855SOL    HW224465   3.331   5.376   5.159
 7856SOL     OW24466   5.791   4.617   5.089
 7856SOL    HW124467   5.786   4.565   5.174
 7856SOL    HW224468   5.754   4.709   5.105
 7857SOL     OW24469   6.041   3.114   5.544
 7857SOL    HW124470   6.108   3.047   5.575
 7857SOL    HW224471   6.019   3.098   5.448
 7858SOL     OW24472   5.452   4.747   3.249
 7858SOL    HW124473   5.422   4.659   3.214
 7858SOL    HW224474   5.406   4.765   3.336
 7859SOL     OW24475   5.617   3.079   6.709
 7859SOL    HW124476   5.610   2.999   6.650
 7859SOL    HW224477   5.628   3.049   6.804
 7860SOL     OW24478   4.651   0.498   2.959
 7860SOL    HW124479   4.592   0.575   2.937
 7860SOL    HW224480   4.671   0.498   3.057
 7861SOL     OW24481   3.970   5.154   1.864
 7861SOL    HW124482   3.993   5.203   1.948
 7861SOL    HW224483   3.880   5.113   1.873
 7862SOL     OW24484   3.127   4.301   1.612
 7862SOL    HW124485   3.071   4.219   1.602
 7862SOL    HW224486   3.075   4.372   1.658
 7863SOL     OW24487   6.981   5.674   3.905
 7863SOL    HW124488   6.910   5.616   3.865
 7863SOL    HW224489   0.039   5.620   3.921
 7864SOL     OW24490   0.438   5.911   5.194
 7864SOL    HW124491   0.416   5.991   5.138
 7864SOL    HW224492   0.519   5.867   5.158
 7865SOL     OW24493   5.665   0.092   4.186
 7865SOL    HW124494   5.764   0.107   4.177
 7865SOL    HW224495   5.616   0.170   4.150
 7866SOL     OW24496   2.397   2.278   6.387
 7866SOL    HW124497   2.422   2.268   6.291
 7866SOL    HW224498   2.315   2.225   6.406
 7867SOL     OW24499   5.228   6.983   2.793
 7867SOL    HW124500   5.185   6.944   2.711
 7867SOL    HW224501   5.309   6.929   2.817
 7868SOL     OW24502   5.873   0.288   2.297
 7868SOL    HW124503   5.888   0.364   2.234
 7868SOL    HW224504   5.855   0.204   2.244
 7869SOL     OW24505   5.512   3.868   6.945
 7869SOL    HW124506   5.541   3.839   0.012
 7869SOL    HW224507   5.526   3.967   6.935
 7870SOL     OW24508   4.138   5.261   4.066
 7870SOL    HW124509   4.150   5.178   4.011
 7870SOL    HW224510   4.153   5.342   4.008
 7871SOL     OW24511   5.222   3.427   2.732
 7871SOL    HW124512   5.131   3.467   2.735
 7871SOL    HW224513   5.263   3.429   2.824
 7872SOL     OW24514   2.280   4.141   2.971
 7872SOL    HW124515   2.278   4.092   3.059
 7872SOL    HW224516   2.308   4.235   2.987
 7873SOL     OW24517   5.978   0.890   5.794
 7873SOL    HW124518   6.057   0.926   5.843
 7873SOL    HW224519   5.927   0.828   5.855
 7874SOL     OW24520   4.958   1.591   0.600
 7874SOL    HW124521   4.886   1.529   0.569
 7874SOL    HW224522   5.032   1.592   0.533
 7875SOL     OW24523   5.144   1.958   6.412
 7875SOL    HW124524   5.096   2.005   6.486
 7875SOL    HW224525   5.083   1.891   6.371
 7876SOL     OW24526   0.339   6.519   5.151
 7876SOL    HW124527   0.364   6.495   5.057
 7876SOL    HW224528   0.398   6.593   5.183
 7877SOL     OW24529   0.451   2.682   2.837
 7877SOL    HW124530   0.469   2.769   2.792
 7877SOL    HW224531   0.534   2.651   2.884
 7878SOL     OW24532   5.516   4.932   4.039
 7878SOL    HW124533   5.575   4.958   3.963
 7878SOL    HW224534   5.447   5.002   4.055
 7879SOL     OW24535   4.355   5.443   3.394
 7879SOL    HW124536   4.446   5.473   3.420
 7879SOL    HW224537   4.292   5.456   3.471
 7880SOL     OW24538   2.016   5.098   1.943
 7880SOL    HW124539   2.020   5.170   2.012
 7880SOL    HW224540   2.095   5.105   1.882
 7881SOL     OW24541   5.704   4.118   5.127
 7881SOL    HW124542   5.626   4.175   5.104
 7881SOL    HW224543   5.691   4.027   5.088
 7882SOL     OW24544   0.962   3.551   2.944
 7882SOL    HW124545   0.990   3.626   3.004
 7882SOL    HW224546   0.868   3.566   2.914
 7883SOL     OW24547   1.582   0.232   0.680
 7883SOL    HW124548   1.560   0.171   0.603
 7883SOL    HW224549   1.501   0.243   0.737
 7884SOL     OW24550   2.057   4.092   3.940
 7884SOL    HW124551   2.119   4.171   3.950
 7884SOL    HW224552   2.101   4.011   3.977
 7885SOL     OW24553   6.397   5.800   1.195
 7885SOL    HW124554   6.433   5.800   1.289
 7885SOL    HW224555   6.330   5.726   1.186
 7886SOL     OW24556   3.855   5.956   0.608
 7886SOL    HW124557   3.947   5.985   0.633
 7886SOL    HW224558   3.840   5.862   0.638
 7887SOL     OW24559   3.128   2.521   5.401
 7887SOL    HW124560   3.132   2.461   5.321
 7887SOL    HW224561   3.214   2.571   5.411
 7888SOL     OW24562   6.716   6.761   5.104
 7888SOL    HW124563   6.627   6.794   5.072
 7888SOL    HW224564   6.703   6.708   5.188
 7889SOL     OW24565   1.143   4.960   0.107
 7889SOL    HW124566   1.084   4.921   0.036
 7889SOL    HW224567   1.236   4.924   0.097
 7890SOL     OW24568   0.389   2.981   3.278
 7890SOL    HW124569   0.455   3.030   3.334
 7890SOL    HW224570   0.308   2.959   3.332
 7891SOL     OW24571   1.967   4.223   4.602
 7891SOL    HW124572   1.984   4.225   4.700
 7891SOL    HW224573   1.892   4.284   4.579
 7892SOL     OW24574   1.727   2.120   4.314
 7892SOL    HW124575   1.647   2.096   4.369
 7892SOL    HW224576   1.752   2.043   4.256
 7893SOL     OW24577   6.474   6.633   1.790
 7893SOL    HW124578   6.531   6.552   1.783
 7893SOL    HW224579   6.514   6.697   1.855
 7894SOL     OW24580   3.431   0.274   0.986
 7894SOL    HW124581   3.402   0.197   1.044
 7894SOL    HW224582   3.522   0.255   0.950
 7895SOL     OW24583   5.088   0.720   4.996
 7895SOL    HW124584   5.068   0.627   5.025
 7895SOL    HW224585   5.182   0.744   5.023
 7896SOL     OW24586   4.037   3.015   0.731
 7896SOL    HW124587   4.067   3.093   0.786
 7896SOL    HW224588   3.942   3.029   0.702
 7897SOL     OW24589   3.285   2.763   1.228
 7897SOL    HW124590   3.374   2.770   1.182
 7897SOL    HW224591   3.216   2.813   1.175
 7898SOL     OW24592   3.551   0.657   3.831
 7898SOL    HW124593   3.649   0.654   3.811
 7898SOL    HW224594   3.505   0.720   3.769
 7899SOL     OW24595   6.146   0.430   1.121
 7899SOL    HW124596   6.093   0.488   1.183
 7899SOL    HW224597   6.084   0.372   1.068
 7900SOL     OW24598   1.626   5.251   2.039
 7900SOL    HW124599   1.676   5.300   1.967
 7900SOL    HW224600   1.648   5.154   2.034
 7901SOL     OW24601   4.044   1.287   6.296
 7901SOL    HW124602   3.983   1.257   6.370
 7901SOL    HW224603   3.989   1.321   6.220
 7902SOL     OW24604   6.331   6.852   1.748
 7902SOL    HW124605   6.250   6.818   1.701
 7902SOL    HW224606   6.399   6.779   1.756
 7903SOL     OW24607   4.273   1.492   3.043
 7903SOL    HW124608   4.275   1.480   3.143
 7903SOL    HW224609   4.184   1.464   3.008
 7904SOL     OW24610   5.544   6.252   2.709
 7904SOL    HW124611   5.506   6.338   2.675
 7904SOL    HW224612   5.623   6.226   2.654
 7905SOL     OW24613   5.554   2.111   0.628
 7905SOL    HW124614   5.507   2.156   0.553
 7905SOL    HW224615   5.637   2.066   0.593
 7906SOL     OW24616   0.792   5.209   0.240
 7906SOL    HW124617   0.749   5.295   0.268
 7906SOL    HW224618   0.873   5.192   0.296
 7907SOL     OW24619   5.415   2.422   3.303
 7907SOL    HW124620   5.384   2.345   3.248
 7907SOL    HW224621   5.477   2.389   3.374
 7908SOL     OW24622   1.536   1.086   5.932
 7908SOL    HW124623   1.496   1.006   5.977
 7908SOL    HW224624   1.511   1.169   5.982
 7909SOL     OW24625   4.702   4.217   4.307
 7909SOL    HW124626   4.773   4.150   4.330
 7909SOL    HW224627   4.667   4.258   4.391
 7910SOL     OW24628   2.734   3.418   6.745
 7910SOL    HW124629   2.768   3.492   6.803
 7910SOL    HW224630   2.776   3.332   6.772
 7911SOL     OW24631   1.010   4.029   0.219
 7911SOL    HW124632   1.093   3.985   0.184
 7911SOL    HW224633   1.034   4.117   0.261
 7912SOL     OW24634   6.139   4.747   0.650
 7912SOL    HW124635   6.123   4.651   0.626
 7912SOL    HW224636   6.192   4.791   0.578
 7913SOL     OW24637   1.227   4.243   1.992
 7913SOL    HW124638   1.215   4.292   1.906
 7913SOL    HW224639   1.324   4.228   2.009
 7914SOL     OW24640   0.662   4.825   0.020
 7914SOL    HW124641   0.708   4.756   6.989
 7914SOL    HW224642   0.730   4.872   0.077
 7915SOL     OW24643   4.802   2.401   1.850
 7915SOL    HW124644   4.769   2.476   1.907
 7915SOL    HW224645   4.726   2.337   1.833
 7916SOL     OW24646   0.260   5.806   5.384
 7916SOL    HW124647   0.192   5.747   5.341
 7916SOL    HW224648   0.327   5.836   5.316
 7917SOL     OW24649   3.099   2.941   5.240
 7917SOL    HW124650   3.026   2.993   5.284
 7917SOL    HW224651   3.163   2.908   5.310
 7918SOL     OW24652   0.695   0.562   4.863
 7918SOL    HW124653   0.620   0.499   4.882
 7918SOL    HW224654   0.744   0.532   4.780
 7919SOL     OW24655   1.168   4.337   3.514
 7919SOL    HW124656   1.180   4.347   3.415
 7919SOL    HW224657   1.081   4.290   3.532
 7920SOL     OW24658   0.317   0.225   0.463
 7920SOL    HW124659   0.349   0.259   0.552
 7920SOL    HW224660   0.285   0.302   0.408
 7921SOL     OW24661   5.136   6.150   2.110
 7921SOL    HW124662   5.083   6.230   2.083
 7921SOL    HW224663   5.175   6.165   2.201
 7922SOL     OW24664   6.918   6.416   0.872
 7922SOL    HW124665   7.013   6.388   0.888
 7922SOL    HW224666   6.869   6.342   0.826
 7923SOL     OW24667   3.921   0.273   6.624
 7923SOL    HW124668   3.874   0.330   6.692
 7923SOL    HW224669   3.870   0.276   6.538
 7924SOL     OW24670   5.453   7.023   2.476
 7924SOL    HW124671   5.428   6.980   2.562
 7924SOL    HW224672   5.437   0.098   2.482
 7925SOL     OW24673   0.794   0.605   6.807
 7925SOL    HW124674   0.845   0.662   6.871
 7925SOL    HW224675   0.808   0.508   6.829
 7926SOL     OW24676   4.702   1.341   5.710
 7926SOL    HW124677   4.771   1.365   5.779
 7926SOL    HW224678   4.630   1.286   5.752
 7927SOL     OW24679   4.389   6.122   3.261
 7927SOL    HW124680   4.459   6.107   3.331
 7927SOL    HW224681   4.344   6.035   3.240
 7928SOL     OW24682   1.464   1.547   4.881
 7928SOL    HW124683   1.460   1.508   4.789
 7928SOL    HW224684   1.438   1.643   4.878
 7929SOL     OW24685   4.624   4.409   5.625
 7929SOL    HW124686   4.714   4.452   5.610
 7929SOL    HW224687   4.637   4.322   5.671
 7930SOL     OW24688   4.165   5.534   4.491
 7930SOL    HW124689   4.233   5.473   4.530
 7930SOL    HW224690   4.074   5.495   4.504
 7931SOL     OW24691   3.349   2.757   0.234
 7931SOL    HW124692   3.442   2.792   0.237
 7931SOL    HW224693   3.336   2.704   0.150
 7932SOL     OW24694   1.418   6.556   7.000
 7932SOL    HW124695   1.430   6.467   6.956
 7932SOL    HW224696   1.501   6.610   6.988
 7933SOL     OW24697   0.102   6.295   6.676
 7933SOL    HW124698   0.104   6.315   6.578
 7933SOL    HW224699   0.126   6.199   6.692
 7934SOL     OW24700   1.725   4.963   6.561
 7934SOL    HW124701   1.625   4.964   6.565
 7934SOL    HW224702   1.756   4.868   6.555
 7935SOL     OW24703   5.852   6.622   1.414
 7935SOL    HW124704   5.805   6.536   1.431
 7935SOL    HW224705   5.826   6.689   1.483
 7936SOL     OW24706   3.720   5.366   1.917
 7936SOL    HW124707   3.663   5.448   1.919
 7936SOL    HW224708   3.777   5.366   1.835
 7937SOL     OW24709   6.549   6.055   3.562
 7937SOL    HW124710   6.477   6.103   3.613
 7937SOL    HW224711   6.633   6.055   3.615
 7938SOL     OW24712   6.791   6.006   4.101
 7938SOL    HW124713   6.805   6.104   4.120
 7938SOL    HW224714   6.695   5.983   4.116
 7939SOL     OW24715   1.353   2.624   4.405
 7939SOL    HW124716   1.441   2.663   4.432
 7939SOL    HW224717   1.287   2.635   4.480
 7940SOL     OW24718   1.884   3.558   1.542
 7940SOL    HW124719   1.806   3.603   1.585
 7940SOL    HW224720   1.925   3.620   1.475
 7941SOL     OW24721   6.258   0.280   1.333
 7941SOL    HW124722   6.319   0.318   1.404
 7941SOL    HW224723   6.224   0.354   1.276
 7942SOL     OW24724   6.860   5.062   2.685
 7942SOL    HW124725   6.858   5.153   2.644
 7942SOL    HW224726   6.852   5.070   2.785
 7943SOL     OW24727   6.906   3.447   6.488
 7943SOL    HW124728   6.967   3.504   6.544
 7943SOL    HW224729   6.922   3.351   6.508
 7944SOL     OW24730   0.713   2.297   0.832
 7944SOL    HW124731   0.717   2.302   0.732
 7944SOL    HW224732   0.709   2.202   0.860
 7945SOL     OW24733   6.260   5.000   1.427
 7945SOL    HW124734   6.297   5.076   1.482
 7945SOL    HW224735   6.164   4.986   1.451
 7946SOL     OW24736   3.732   0.433   6.073
 7946SOL    HW124737   3.663   0.369   6.108
 7946SOL    HW224738   3.698   0.527   6.080
 7947SOL     OW24739   3.705   2.072   6.373
 7947SOL    HW124740   3.619   2.034   6.409
 7947SOL    HW224741   3.743   2.137   6.439
 7948SOL     OW24742   1.397   6.856   1.341
 7948SOL    HW124743   1.322   6.791   1.326
 7948SOL    HW224744   1.466   6.844   1.269
 7949SOL     OW24745   4.621   4.526   5.034
 7949SOL    HW124746   4.540   4.529   4.975
 7949SOL    HW224747   4.621   4.440   5.085
 7950SOL     OW24748   4.905   5.152   3.594
 7950SOL    HW124749   4.992   5.122   3.633
 7950SOL    HW224750   4.853   5.072   3.564
 7951SOL     OW24751   2.102   4.343   2.004
 7951SOL    HW124752   2.115   4.343   1.905
 7951SOL    HW224753   2.009   4.373   2.024
 7952SOL     OW24754   6.742   3.616   6.775
 7952SOL    HW124755   6.762   3.531   6.823
 7952SOL    HW224756   6.675   3.599   6.703
 7953SOL     OW24757   3.141   2.077   3.403
 7953SOL    HW124758   3.217   2.047   3.346
 7953SOL    HW224759   3.112   2.003   3.464
 7954SOL     OW24760   3.303   4.417   6.193
 7954SOL    HW124761   3.378   4.356   6.168
 7954SOL    HW224762   3.287   4.482   6.118
 7955SOL     OW24763   2.023   0.852   6.442
 7955SOL    HW124764   1.997   0.862   6.538
 7955SOL    HW224765   2.074   0.767   6.429
 7956SOL     OW24766   4.346   6.822   2.485
 7956SOL    HW124767   4.331   6.823   2.386
 7956SOL    HW224768   4.258   6.819   2.533
 7957SOL     OW24769   1.055   0.858   1.372
 7957SOL    HW124770   1.091   0.821   1.287
 7957SOL    HW224771   1.077   0.796   1.448
 7958SOL     OW24772   3.962   4.889   5.358
 7958SOL    HW124773   3.998   4.962   5.417
 7958SOL    HW224774   3.930   4.813   5.414
 7959SOL     OW24775   4.352   6.027   0.458
 7959SOL    HW124776   4.404   6.025   0.372
 7959SOL    HW224777   4.415   6.038   0.535
 7960SOL     OW24778   2.383   1.795   5.959
 7960SOL    HW124779   2.479   1.775   5.976
 7960SOL    HW224780   2.326   1.744   6.024
 7961SOL     OW24781   6.649   0.905   0.953
 7961SOL    HW124782   6.571   0.844   0.938
 7961SOL    HW224783   6.616   0.999   0.963
 7962SOL     OW24784   1.294   0.609   6.280
 7962SOL    HW124785   1.366   0.659   6.327
 7962SOL    HW224786   1.310   0.612   6.181
 7963SOL     OW24787   6.547   6.526   4.009
 7963SOL    HW124788   6.461   6.551   3.963
 7963SOL    HW224789   6.554   6.576   4.095
 7964SOL     OW24790   6.914   4.387   2.804
 7964SOL    HW124791   6.863   4.341   2.731
 7964SOL    HW224792   6.874   4.364   2.892
 7965SOL     OW24793   4.491   2.680   5.648
 7965SOL    HW124794   4.399   2.642   5.648
 7965SOL    HW224795   4.487   2.776   5.620
 7966SOL     OW24796   2.023   3.309   5.745
 7966SOL    HW124797   1.959   3.232   5.742
 7966SOL    HW224798   2.114   3.276   5.772
 7967SOL     OW24799   3.455   6.704   2.542
 7967SOL    HW124800   3.494   6.765   2.473
 7967SOL    HW224801   3.513   6.623   2.552
 7968SOL     OW24802   1.567   2.567   3.727
 7968SOL    HW124803   1.628   2.490   3.705
 7968SOL    HW224804   1.555   2.572   3.826
 7969SOL     OW24805   4.057   6.121   0.068
 7969SOL    HW124806   4.000   6.195   0.033
 7969SOL    HW224807   4.099   6.149   0.155
 7970SOL     OW24808   6.645   2.886   2.563
 7970SOL    HW124809   6.576   2.957   2.553
 7970SOL    HW224810   6.723   2.906   2.503
 7971SOL     OW24811   2.912   1.810   0.490
 7971SOL    HW124812   2.831   1.865   0.513
 7971SOL    HW224813   2.941   1.759   0.571
 7972SOL     OW24814   2.301   3.137   6.755
 7972SOL    HW124815   2.331   3.061   6.812
 7972SOL    HW224816   2.377   3.199   6.740
 7973SOL     OW24817   4.286   4.771   4.373
 7973SOL    HW124818   4.309   4.675   4.357
 7973SOL    HW224819   4.204   4.777   4.429
 7974SOL     OW24820   6.140   0.500   5.534
 7974SOL    HW124821   6.216   0.511   5.599
 7974SOL    HW224822   6.065   0.561   5.561
 7975SOL     OW24823   6.509   1.555   2.312
 7975SOL    HW124824   6.587   1.578   2.253
 7975SOL    HW224825   6.426   1.551   2.257
 7976SOL     OW24826   0.370   0.422   6.114
 7976SOL    HW124827   0.321   0.353   6.167
 7976SOL    HW224828   0.442   0.378   6.060
 7977SOL     OW24829   4.969   6.035   2.722
 7977SOL    HW124830   4.871   6.015   2.732
 7977SOL    HW224831   5.006   5.977   2.649
 7978SOL     OW24832   5.491   3.813   6.662
 7978SOL    HW124833   5.477   3.804   6.761
 7978SOL    HW224834   5.586   3.790   6.640
 7979SOL     OW24835   4.309   6.095   5.037
 7979SOL    HW124836   4.321   6.162   4.963
 7979SOL    HW224837   4.320   6.003   5.000
 7980SOL     OW24838   3.450   5.367   0.047
 7980SOL    HW124839   3.468   5.295   0.114
 7980SOL    HW224840   3.354   5.393   0.051
 7981SOL     OW24841   0.517   5.179   1.167
 7981SOL    HW124842   0.585   5.144   1.232
 7981SOL    HW224843   0.485   5.104   1.109
 7982SOL     OW24844   1.657   1.321   6.825
 7982SOL    HW124845   1.630   1.386   6.895
 7982SOL    HW224846   1.605   1.339   6.741
 7983SOL     OW24847   5.822   2.265   1.723
 7983SOL    HW124848   5.847   2.251   1.627
 7983SOL    HW224849   5.857   2.188   1.777
 7984SOL     OW24850   0.850   1.320   0.768
 7984SOL    HW124851   0.799   1.294   0.850
 7984SOL    HW224852   0.862   1.419   0.767
 7985SOL     OW24853   2.953   1.041   4.566
 7985SOL    HW124854   2.896   1.069   4.642
 7985SOL    HW224855   3.050   1.050   4.591
 7986SOL     OW24856   3.235   1.228   6.163
 7986SOL    HW124857   3.163   1.236   6.232
 7986SOL    HW224858   3.316   1.279   6.193
 7987SOL     OW24859   1.545   2.690   6.684
 7987SOL    HW124860   1.490   2.619   6.641
 7987SOL    HW224861   1.514   2.704   6.779
 7988SOL     OW24862   0.456   2.003   3.860
 7988SOL    HW124863   0.491   1.928   3.805
 7988SOL    HW224864   0.529   2.037   3.920
 7989SOL     OW24865   2.890   2.715   6.514
 7989SOL    HW124866   2.844   2.681   6.596
 7989SOL    HW224867   2.847   2.800   6.484
 7990SOL     OW24868   0.655   4.098   4.783
 7990SOL    HW124869   0.580   4.146   4.827
 7990SOL    HW224870   0.717   4.062   4.852
 7991SOL     OW24871   5.573   6.755   3.516
 7991SOL    HW124872   5.551   6.658   3.511
 7991SOL    HW224873   5.497   6.809   3.479
 7992SOL     OW24874   1.073   0.187   0.890
 7992SOL    HW124875   1.116   0.097   0.881
 7992SOL    HW224876   1.034   0.196   0.982
 7993SOL     OW24877   0.926   6.891   0.464
 7993SOL    HW124878   0.974   6.852   0.542
 7993SOL    HW224879   0.837   6.847   0.454
 7994SOL     OW24880   4.286   0.251   3.543
 7994SOL    HW124881   4.345   0.261   3.463
 7994SOL    HW224882   4.323   0.305   3.618
 7995SOL     OW24883   5.333   5.915   3.801
 7995SOL    HW124884   5.368   5.981   3.867
 7995SOL    HW224885   5.298   5.964   3.721
 7996SOL     OW24886   2.640   6.705   4.976
 7996SOL    HW124887   2.711   6.755   4.926
 7996SOL    HW224888   2.550   6.730   4.940
 7997SOL     OW24889   0.014   1.562   1.059
 7997SOL    HW124890   0.042   1.541   0.965
 7997SOL    HW224891   6.977   1.490   1.092
 7998SOL     OW24892   3.035   0.057   0.583
 7998SOL    HW124893   3.126   0.054   0.540
 7998SOL    HW224894   2.980   0.127   0.538
 7999SOL     OW24895   0.920   0.507   5.954
 7999SOL    HW124896   0.858   0.582   5.980
 7999SOL    HW224897   1.011   0.544   5.935
 8000SOL     OW24898   4.732   0.228   6.726
 8000SOL    HW124899   4.783   0.311   6.749
 8000SOL    HW224900   4.684   0.195   6.807
 8001SOL     OW24901   4.330   6.562   1.269
 8001SOL    HW124902   4.415   6.513   1.250
 8001SOL    HW224903   4.264   6.501   1.312
 8002SOL     OW24904   1.484   1.435   5.821
 8002SOL    HW124905   1.528   1.414   5.733
 8002SOL    HW224906   1.417   1.508   5.807
 8003SOL     OW24907   3.325   5.482   2.226
 8003SOL    HW124908   3.254   5.451   2.164
 8003SOL    HW224909   3.395   5.411   2.234
 8004SOL     OW24910   1.955   3.160   2.812
 8004SOL    HW124911   1.923   3.071   2.846
 8004SOL    HW224912   1.891   3.194   2.743
 8005SOL     OW24913   2.831   0.939   1.567
 8005SOL    HW124914   2.925   0.922   1.537
 8005SOL    HW224915   2.782   0.987   1.494
 8006SOL     OW24916   2.376   6.402   5.842
 8006SOL    HW124917   2.433   6.435   5.917
 8006SOL    HW224918   2.333   6.479   5.796
 8007SOL     OW24919   6.602   0.695   4.324
 8007SOL    HW124920   6.685   0.701   4.380
 8007SOL    HW224921   6.537   0.765   4.354
 8008SOL     OW24922   4.121   5.188   6.182
 8008SOL    HW124923   4.087   5.113   6.239
 8008SOL    HW224924   4.058   5.266   6.189
 8009SOL     OW24925   5.982   1.084   2.375
 8009SOL    HW124926   5.907   1.095   2.441
 8009SOL    HW224927   6.060   1.139   2.405
 8010SOL     OW24928   1.371   1.682   5.814
 8010SOL    HW124929   1.452   1.712   5.762
 8010SOL    HW224930   1.291   1.733   5.782
 8011SOL     OW24931   2.837   2.450   1.075
 8011SOL    HW124932   2.855   2.482   1.168
 8011SOL    HW224933   2.917   2.399   1.041
 8012SOL     OW24934   1.860   3.727   1.220
 8012SOL    HW124935   1.937   3.701   1.279
 8012SOL    HW224936   1.816   3.809   1.257
 8013SOL     OW24937   1.390   5.405   3.270
 8013SOL    HW124938   1.413   5.401   3.367
 8013SOL    HW224939   1.454   5.349   3.218
 8014SOL     OW24940   0.997   5.974   5.684
 8014SOL    HW124941   0.898   5.982   5.695
 8014SOL    HW224942   1.032   6.052   5.632
 8015SOL     OW24943   3.341   0.686   6.073
 8015SOL    HW124944   3.324   0.755   6.143
 8015SOL    HW224945   3.254   0.658   6.031
 8016SOL     OW24946   4.614   0.565   5.496
 8016SOL    HW124947   4.621   0.486   5.436
 8016SOL    HW224948   4.536   0.553   5.558
 8017SOL     OW24949   5.875   0.497   0.529
 8017SOL    HW124950   5.904   0.493   0.625
 8017SOL    HW224951   5.933   0.561   0.479
 8018SOL     OW24952   3.484   1.956   6.475
 8018SOL    HW124953   3.395   1.994   6.449
 8018SOL    HW224954   3.498   1.869   6.429
 8019SOL     OW24955   2.443   4.553   0.240
 8019SOL    HW124956   2.419   4.578   0.334
 8019SOL    HW224957   2.475   4.635   0.191
 8020SOL     OW24958   5.801   0.835   1.184
 8020SOL    HW124959   5.802   0.893   1.265
 8020SOL    HW224960   5.710   0.793   1.174
 8021SOL     OW24961   1.326   2.650   1.092
 8021SOL    HW124962   1.245   2.636   1.035
 8021SOL    HW224963   1.359   2.744   1.082
 8022SOL     OW24964   5.459   6.782   3.074
 8022SOL    HW124965   5.428   6.791   2.979
 8022SOL    HW224966   5.386   6.810   3.136
 8023SOL     OW24967   5.814   5.154   2.294
 8023SOL    HW124968   5.766   5.210   2.227
 8023SOL    HW224969   5.792   5.057   2.279
 8024SOL     OW24970   1.678   4.739   6.334
 8024SOL    HW124971   1.743   4.742   6.410
 8024SOL    HW224972   1.728   4.731   6.247
 8025SOL     OW24973   1.979   6.314   6.750
 8025SOL    HW124974   1.898   6.275   6.794
 8025SOL    HW224975   2.039   6.241   6.718
 8026SOL     OW24976   0.404   4.301   0.012
 8026SOL    HW124977   0.460   4.382   0.031
 8026SOL    HW224978   0.334   4.323   6.969
 8027SOL     OW24979   4.848   0.905   4.693
 8027SOL    HW124980   4.813   0.967   4.763
 8027SOL    HW224981   4.878   0.958   4.613
 8028SOL     OW24982   3.772   5.452   5.479
 8028SOL    HW124983   3.813   5.374   5.528
 8028SOL    HW224984   3.678   5.464   5.509
 8029SOL     OW24985   4.564   3.250   0.976
 8029SOL    HW124986   4.537   3.264   1.071
 8029SOL    HW224987   4.611   3.162   0.968
 8030SOL     OW24988   4.264   4.682   0.664
 8030SOL    HW124989   4.241   4.655   0.571
 8030SOL    HW224990   4.202   4.636   0.728
 8031SOL     OW24991   6.464   6.515   2.212
 8031SOL    HW124992   6.549   6.474   2.179
 8031SOL    HW224993   6.485   6.591   2.272
 8032SOL     OW24994   6.385   4.352   1.399
 8032SOL    HW124995   6.374   4.432   1.340
 8032SOL    HW224996   6.427   4.381   1.485
 8033SOL     OW24997   4.865   1.491   5.858
 8033SOL    HW124998   4.860   1.570   5.797
 8033SOL    HW224999   4.961   1.464   5.871
 8034SOL     OW25000   4.973   0.271   4.328
 8034SOL    HW125001   5.015   0.310   4.410
 8034SOL    HW225002   5.014   0.311   4.247
 8035SOL     OW25003   4.913   1.760   4.333
 8035SOL    HW125004   4.828   1.754   4.386
 8035SOL    HW225005   4.970   1.834   4.370
 8036SOL     OW25006   6.854   3.853   3.558
 8036SOL    HW125007   6.918   3.916   3.515
 8036SOL    HW225008   6.859   3.863   3.657
 8037SOL     OW25009   1.657   3.083   0.326
 8037SOL    HW125010   1.706   3.168   0.308
 8037SOL    HW225011   1.704   3.007   0.282
 8038SOL     OW25012   4.433   0.043   2.565
 8038SOL    HW125013   4.384   0.085   2.489
 8038SOL    HW225014   4.426   6.968   2.558
 8039SOL     OW25015   0.819   1.710   4.730
 8039SOL    HW125016   0.860   1.653   4.659
 8039SOL    HW225017   0.720   1.714   4.717
 8040SOL     OW25018   1.644   5.170   6.793
 8040SOL    HW125019   1.590   5.116   6.728
 8040SOL    HW225020   1.697   5.239   6.744
 8041SOL     OW25021   2.508   1.659   2.667
 8041SOL    HW125022   2.460   1.637   2.582
 8041SOL    HW225023   2.481   1.593   2.738
 8042SOL     OW25024   3.139   3.055   4.018
 8042SOL    HW125025   3.185   3.065   3.930
 8042SOL    HW225026   3.080   3.134   4.035
 8043SOL     OW25027   3.491   6.355   1.490
 8043SOL    HW125028   3.434   6.424   1.445
 8043SOL    HW225029   3.478   6.359   1.589
 8044SOL     OW25030   3.895   2.211   1.155
 8044SOL    HW125031   3.879   2.113   1.156
 8044SOL    HW225032   3.808   2.259   1.171
 8045SOL     OW25033   5.322   2.599   3.074
 8045SOL    HW125034   5.358   2.571   2.985
 8045SOL    HW225035   5.357   2.539   3.145
 8046SOL     OW25036   0.747   5.116   1.349
 8046SOL    HW125037   0.781   5.043   1.408
 8046SOL    HW225038   0.736   5.199   1.402
 8047SOL     OW25039   4.272   5.794   4.416
 8047SOL    HW125040   4.211   5.869   4.393
 8047SOL    HW225041   4.220   5.709   4.424
 8048SOL     OW25042   5.138   1.363   5.882
 8048SOL    HW125043   5.217   1.347   5.942
 8048SOL    HW225044   5.164   1.345   5.787
 8049SOL     OW25045   0.830   0.294   0.441
 8049SOL    HW125046   0.736   0.275   0.414
 8049SOL    HW225047   0.893   0.244   0.381
 8050SOL     OW25048   1.479   3.694   3.481
 8050SOL    HW125049   1.528   3.781   3.473
 8050SOL    HW225050   1.504   3.649   3.567
 8051SOL     OW25051   4.621   5.774   3.393
 8051SOL    HW125052   4.704   5.824   3.418
 8051SOL    HW225053   4.624   5.682   3.433
 8052SOL     OW25054   4.121   1.309   1.294
 8052SOL    HW125055   4.076   1.398   1.307
 8052SOL    HW225056   4.053   1.240   1.273
 8053SOL     OW25057   2.925   3.777   3.879
 8053SOL    HW125058   2.873   3.852   3.838
 8053SOL    HW225059   3.020   3.806   3.894
 8054SOL     OW25060   5.653   6.211   4.370
 8054SOL    HW125061   5.629   6.134   4.311
 8054SOL    HW225062   5.750   6.233   4.358
 8055SOL     OW25063   0.506   0.243   5.369
 8055SOL    HW125064   0.572   0.174   5.338
 8055SOL    HW225065   0.556   0.324   5.400
 8056SOL     OW25066   2.520   1.103   3.686
 8056SOL    HW125067   2.620   1.103   3.679
 8056SOL    HW225068   2.484   1.183   3.638
 8057SOL     OW25069   3.057   2.148   2.730
 8057SOL    HW125070   2.973   2.176   2.684
 8057SOL    HW225071   3.084   2.057   2.699
 8058SOL     OW25072   3.684   0.061   2.859
 8058SOL    HW125073   3.757   0.032   2.921
 8058SOL    HW225074   3.712   0.144   2.811
 8059SOL     OW25075   3.159   1.744   5.080
 8059SOL    HW125076   3.210   1.802   5.017
 8059SOL    HW225077   3.170   1.648   5.053
 8060SOL     OW25078   6.055   1.982   5.186
 8060SOL    HW125079   6.023   1.945   5.273
 8060SOL    HW225080   6.111   1.913   5.140
 8061SOL     OW25081   0.329   0.850   3.144
 8061SOL    HW125082   0.234   0.876   3.162
 8061SOL    HW225083   0.385   0.932   3.135
 8062SOL     OW25084   3.794   4.930   3.657
 8062SOL    HW125085   3.698   4.953   3.642
 8062SOL    HW225086   3.812   4.919   3.755
 8063SOL     OW25087   1.693   2.279   1.871
 8063SOL    HW125088   1.773   2.334   1.897
 8063SOL    HW225089   1.723   2.187   1.848
 8064SOL     OW25090   6.917   3.271   1.681
 8064SOL    HW125091   7.007   3.226   1.683
 8064SOL    HW225092   6.914   3.341   1.753
 8065SOL     OW25093   2.552   5.415   3.786
 8065SOL    HW125094   2.626   5.433   3.720
 8065SOL    HW225095   2.581   5.345   3.851
 8066SOL     OW25096   0.874   1.858   5.307
 8066SOL    HW125097   0.876   1.911   5.392
 8066SOL    HW225098   0.880   1.919   5.229
 8067SOL     OW25099   4.706   2.782   2.199
 8067SOL    HW125100   4.682   2.872   2.161
 8067SOL    HW225101   4.795   2.789   2.245
 8068SOL     OW25102   0.217   3.752   1.567
 8068SOL    HW125103   0.135   3.798   1.532
 8068SOL    HW225104   0.255   3.693   1.496
 8069SOL     OW25105   2.895   6.100   1.411
 8069SOL    HW125106   2.860   6.021   1.461
 8069SOL    HW225107   2.976   6.135   1.458
 8070SOL     OW25108   4.407   3.445   0.304
 8070SOL    HW125109   4.395   3.426   0.206
 8070SOL    HW225110   4.486   3.505   0.315
 8071SOL     OW25111   3.210   6.315   4.692
 8071SOL    HW125112   3.140   6.367   4.644
 8071SOL    HW225113   3.294   6.370   4.697
 8072SOL     OW25114   4.070   1.972   0.906
 8072SOL    HW125115   4.167   1.946   0.911
 8072SOL    HW225116   4.061   2.059   0.858
 8073SOL     OW25117   3.142   5.224   4.926
 8073SOL    HW125118   3.191   5.137   4.927
 8073SOL    HW225119   3.196   5.292   4.877
 8074SOL     OW25120   3.379   2.783   0.691
 8074SOL    HW125121   3.390   2.855   0.760
 8074SOL    HW225122   3.314   2.715   0.724
 8075SOL     OW25123   6.883   0.321   0.815
 8075SOL    HW125124   6.813   0.325   0.744
 8075SOL    HW225125   6.873   0.235   0.866
 8076SOL     OW25126   6.408   1.379   5.316
 8076SOL    HW125127   6.371   1.465   5.350
 8076SOL    HW225128   6.500   1.395   5.279
 8077SOL     OW25129   3.096   6.508   2.557
 8077SOL    HW125130   3.190   6.474   2.558
 8077SOL    HW225131   3.057   6.503   2.649
 8078SOL     OW25132   0.222   2.008   0.529
 8078SOL    HW125133   0.234   2.005   0.429
 8078SOL    HW225134   0.312   2.016   0.572
 8079SOL     OW25135   5.185   2.247   3.646
 8079SOL    HW125136   5.264   2.189   3.627
 8079SOL    HW225137   5.206   2.309   3.722
 8080SOL     OW25138   1.401   2.381   1.053
 8080SOL    HW125139   1.368   2.392   0.959
 8080SOL    HW225140   1.419   2.471   1.093
 8081SOL     OW25141   6.138   5.971   5.719
 8081SOL    HW125142   6.051   5.988   5.674
 8081SOL    HW225143   6.125   5.908   5.796
 8082SOL     OW25144   4.639   0.207   2.655
 8082SOL    HW125145   4.562   0.155   2.618
 8082SOL    HW225146   4.708   0.144   2.691
 8083SOL     OW25147   4.915   2.887   3.278
 8083SOL    HW125148   4.896   2.984   3.264
 8083SOL    HW225149   4.947   2.847   3.192
 8084SOL     OW25150   3.853   6.727   0.174
 8084SOL    HW125151   3.892   6.802   0.122
 8084SOL    HW225152   3.755   6.742   0.185
 8085SOL     OW25153   0.048   6.394   2.141
 8085SOL    HW125154   0.061   6.466   2.072
 8085SOL    HW225155   0.028   6.308   2.095
 8086SOL     OW25156   5.857   0.170   2.748
 8086SOL    HW125157   5.956   0.171   2.733
 8086SOL    HW225158   5.816   0.248   2.701
 8087SOL     OW25159   2.747   0.906   6.943
 8087SOL    HW125160   2.694   0.847   6.882
 8087SOL    HW225161   2.727   0.881   0.014
 8088SOL     OW25162   5.598   2.239   1.390
 8088SOL    HW125163   5.536   2.306   1.350
 8088SOL    HW225164   5.693   2.269   1.376
 8089SOL     OW25165   5.478   2.568   0.592
 8089SOL    HW125166   5.424   2.485   0.609
 8089SOL    HW225167   5.576   2.546   0.598
 8090SOL     OW25168   4.545   2.080   0.300
 8090SOL    HW125169   4.498   1.997   0.331
 8090SOL    HW225170   4.482   2.136   0.246
 8091SOL     OW25171   2.118   3.588   5.138
 8091SOL    HW125172   2.136   3.685   5.156
 8091SOL    HW225173   2.102   3.574   5.040
 8092SOL     OW25174   5.489   1.789   4.640
 8092SOL    HW125175   5.408   1.813   4.694
 8092SOL    HW225176   5.537   1.872   4.612
 8093SOL     OW25177   4.020   5.525   2.541
 8093SOL    HW125178   4.089   5.598   2.545
 8093SOL    HW225179   4.061   5.443   2.502
 8094SOL     OW25180   1.185   3.619   4.632
 8094SOL    HW125181   1.116   3.621   4.560
 8094SOL    HW225182   1.265   3.672   4.604
 8095SOL     OW25183   0.461   4.388   4.579
 8095SOL    HW125184   0.430   4.480   4.602
 8095SOL    HW225185   0.528   4.357   4.646
 8096SOL     OW25186   2.329   6.438   3.262
 8096SOL    HW125187   2.375   6.521   3.294
 8096SOL    HW225188   2.294   6.453   3.169
 8097SOL     OW25189   4.054   0.296   4.231
 8097SOL    HW125190   4.064   0.250   4.319
 8097SOL    HW225191   4.143   0.301   4.185
 8098SOL     OW25192   1.595   0.040   3.146
 8098SOL    HW125193   1.577   6.972   3.181
 8098SOL    HW225194   1.661   0.085   3.206
 8099SOL     OW25195   3.916   6.960   4.683
 8099SOL    HW125196   3.952   6.955   4.776
 8099SOL    HW225197   3.816   6.960   4.686
 8100SOL     OW25198   6.084   1.070   0.857
 8100SOL    HW125199   6.159   1.116   0.809
 8100SOL    HW225200   6.003   1.067   0.799
 8101SOL     OW25201   2.017   6.211   2.126
 8101SOL    HW125202   2.086   6.207   2.199
 8101SOL    HW225203   1.993   6.307   2.109
 8102SOL     OW25204   0.806   4.287   3.978
 8102SOL    HW125205   0.814   4.280   4.077
 8102SOL    HW225206   0.894   4.316   3.940
 8103SOL     OW25207   3.186   7.018   1.080
 8103SOL    HW125208   3.089   0.011   1.067
 8103SOL    HW225209   3.238   0.036   1.005
 8104SOL     OW25210   3.741   0.739   5.868
 8104SOL    HW125211   3.763   0.818   5.925
 8104SOL    HW225212   3.769   0.758   5.773
 8105SOL     OW25213   1.040   3.017   3.152
 8105SOL    HW125214   1.037   3.070   3.237
 8105SOL    HW225215   1.005   3.072   3.077
 8106SOL     OW25216   2.396   6.121   2.955
 8106SOL    HW125217   2.322   6.079   3.006
 8106SOL    HW225218   2.400   6.082   2.863
 8107SOL     OW25219   0.537   5.015   4.433
 8107SOL    HW125220   0.524   4.924   4.394
 8107SOL    HW225221   0.471   5.030   4.507
 8108SOL     OW25222   6.117   2.717   5.570
 8108SOL    HW125223   6.209   2.684   5.546
 8108SOL    HW225224   6.125   2.794   5.633
 8109SOL     OW25225   0.891   3.926   4.958
 8109SOL    HW125226   0.909   3.833   4.925
 8109SOL    HW225227   0.974   3.963   4.999
 8110SOL     OW25228   3.157   6.229   1.206
 8110SOL    HW125229   3.185   6.318   1.169
 8110SOL    HW225230   3.149   6.236   1.305
 8111SOL     OW25231   5.047   0.706   4.716
 8111SOL    HW125232   5.062   0.713   4.815
 8111SOL    HW225233   4.982   0.777   4.688
 8112SOL     OW25234   1.793   2.391   4.353
 8112SOL    HW125235   1.796   2.291   4.348
 8112SOL    HW225236   1.883   2.429   4.332
 8113SOL     OW25237   2.456   3.258   0.696
 8113SOL    HW125238   2.525   3.328   0.717
 8113SOL    HW225239   2.433   3.209   0.780
 8114SOL     OW25240   1.406   3.873   2.646
 8114SOL    HW125241   1.443   3.898   2.557
 8114SOL    HW225242   1.480   3.876   2.714
 8115SOL     OW25243   3.842   0.552   0.286
 8115SOL    HW125244   3.879   0.504   0.206
 8115SOL    HW225245   3.746   0.576   0.270
 8116SOL     OW25246   4.856   5.069   5.955
 8116SOL    HW125247   4.945   5.103   5.983
 8116SOL    HW225248   4.847   5.074   5.856
 8117SOL     OW25249   1.335   0.721   3.431
 8117SOL    HW125250   1.323   0.676   3.343
 8117SOL    HW225251   1.249   0.718   3.482
 8118SOL     OW25252   5.578   4.321   5.338
 8118SOL    HW125253   5.516   4.283   5.406
 8118SOL    HW225254   5.546   4.298   5.246
 8119SOL     OW25255   5.382   5.213   5.930
 8119SOL    HW125256   5.453   5.276   5.899
 8119SOL    HW225257   5.370   5.140   5.863
 8120SOL     OW25258   2.908   5.177   0.760
 8120SOL    HW125259   2.888   5.134   0.848
 8120SOL    HW225260   2.823   5.185   0.707
 8121SOL     OW25261   0.278   4.867   1.748
 8121SOL    HW125262   0.268   4.788   1.808
 8121SOL    HW225263   0.221   4.941   1.781
 8122SOL     OW25264   1.025   5.096   2.831
 8122SOL    HW125265   0.937   5.093   2.879
 8122SOL    HW225266   1.070   5.183   2.850
 8123SOL     OW25267   6.498   0.920   6.367
 8123SOL    HW125268   6.582   0.910   6.314
 8123SOL    HW225269   6.518   0.967   6.453
 8124SOL     OW25270   5.843   6.959   1.360
 8124SOL    HW125271   5.761   6.904   1.345
 8124SOL    HW225272   5.883   6.985   1.272
 8125SOL     OW25273   1.174   1.680   3.497
 8125SOL    HW125274   1.245   1.739   3.535
 8125SOL    HW225275   1.142   1.719   3.411
 8126SOL     OW25276   4.974   4.701   2.622
 8126SOL    HW125277   5.007   4.780   2.674
 8126SOL    HW225278   5.024   4.694   2.536
 8127SOL     OW25279   2.532   4.981   6.072
 8127SOL    HW125280   2.563   4.979   6.167
 8127SOL    HW225281   2.611   4.991   6.012
 8128SOL     OW25282   2.663   1.253   2.183
 8128SOL    HW125283   2.566   1.230   2.176
 8128SOL    HW225284   2.716   1.169   2.191
 8129SOL     OW25285   4.543   0.876   6.481
 8129SOL    HW125286   4.520   0.825   6.398
 8129SOL    HW225287   4.642   0.880   6.492
 8130SOL     OW25288   6.930   3.173   6.617
 8130SOL    HW125289   6.832   3.185   6.627
 8130SOL    HW225290   6.971   3.152   6.706
 8131SOL     OW25291   3.186   1.896   0.801
 8131SOL    HW125292   3.179   1.936   0.709
 8131SOL    HW225293   3.120   1.941   0.862
 8132SOL     OW25294   5.927   0.135   6.199
 8132SOL    HW125295   5.845   0.161   6.148
 8132SOL    HW225296   5.935   0.035   6.201
 8133SOL     OW25297   2.779   4.930   1.776
 8133SOL    HW125298   2.725   4.846   1.780
 8133SOL    HW225299   2.865   4.917   1.826
 8134SOL     OW25300   6.953   2.728   5.654
 8134SOL    HW125301   6.962   2.817   5.611
 8134SOL    HW225302   6.976   2.735   5.751
 8135SOL     OW25303   2.992   6.025   1.954
 8135SOL    HW125304   2.945   5.938   1.940
 8135SOL    HW225305   3.066   6.012   2.020
 8136SOL     OW25306   4.417   5.701   2.763
 8136SOL    HW125307   4.377   5.610   2.764
 8136SOL    HW225308   4.348   5.769   2.789
 8137SOL     OW25309   3.444   1.652   5.351
 8137SOL    HW125310   3.472   1.712   5.275
 8137SOL    HW225311   3.460   1.556   5.325
 8138SOL     OW25312   6.114   1.459   6.956
 8138SOL    HW125313   6.060   1.377   6.939
 8138SOL    HW225314   6.144   1.460   0.027
 8139SOL     OW25315   0.071   1.002   2.854
 8139SOL    HW125316   0.041   1.085   2.902
 8139SOL    HW225317   0.039   0.922   2.904
 8140SOL     OW25318   4.679   0.342   1.076
 8140SOL    HW125319   4.703   0.295   0.991
 8140SOL    HW225320   4.674   0.441   1.059
 8141SOL     OW25321   4.942   6.760   5.593
 8141SOL    HW125322   4.886   6.694   5.643
 8141SOL    HW225323   4.990   6.713   5.520
 8142SOL     OW25324   1.233   5.155   6.775
 8142SOL    HW125325   1.134   5.144   6.767
 8142SOL    HW225326   1.262   5.125   6.866
 8143SOL     OW25327   6.978   4.428   1.088
 8143SOL    HW125328   6.880   4.411   1.101
 8143SOL    HW225329   7.001   4.519   1.122
 8144SOL     OW25330   6.483   6.765   6.382
 8144SOL    HW125331   6.534   6.697   6.329
 8144SOL    HW225332   6.529   6.780   6.470
 8145SOL     OW25333   5.603   5.507   1.568
 8145SOL    HW125334   5.639   5.423   1.609
 8145SOL    HW225335   5.672   5.579   1.576
 8146SOL     OW25336   4.652   0.714   4.705
 8146SOL    HW125337   4.581   0.731   4.774
 8146SOL    HW225338   4.717   0.790   4.705
 8147SOL     OW25339   6.425   1.787   1.828
 8147SOL    HW125340   6.424   1.861   1.895
 8147SOL    HW225341   6.399   1.824   1.738
 8148SOL     OW25342   4.725   4.254   0.247
 8148SOL    HW125343   4.702   4.157   0.242
 8148SOL    HW225344   4.769   4.283   0.162
 8149SOL     OW25345   3.072   6.563   2.300
 8149SOL    HW125346   3.060   6.470   2.265
 8149SOL    HW225347   3.112   6.560   2.391
 8150SOL     OW25348   2.499   4.146   1.161
 8150SOL    HW125349   2.543   4.092   1.089
 8150SOL    HW225350   2.570   4.189   1.218
 8151SOL     OW25351   5.597   3.774   1.893
 8151SOL    HW125352   5.695   3.794   1.887
 8151SOL    HW225353   5.557   3.776   1.801
 8152SOL     OW25354   6.520   2.529   2.662
 8152SOL    HW125355   6.479   2.543   2.572
 8152SOL    HW225356   6.578   2.607   2.685
 8153SOL     OW25357   1.699   0.248   3.503
 8153SOL    HW125358   1.668   0.154   3.510
 8153SOL    HW225359   1.649   0.305   3.568
 8154SOL     OW25360   3.584   5.548   2.057
 8154SOL    HW125361   3.584   5.461   2.107
 8154SOL    HW225362   3.551   5.621   2.117
 8155SOL     OW25363   1.850   3.249   2.140
 8155SOL    HW125364   1.807   3.225   2.227
 8155SOL    HW225365   1.819   3.340   2.112
 8156SOL     OW25366   5.837   6.422   0.743
 8156SOL    HW125367   5.898   6.446   0.668
 8156SOL    HW225368   5.773   6.497   0.759
 8157SOL     OW25369   6.774   4.875   6.192
 8157SOL    HW125370   6.774   4.800   6.258
 8157SOL    HW225371   6.767   4.837   6.099
 8158SOL     OW25372   5.044   4.874   0.576
 8158SOL    HW125373   5.051   4.819   0.492
 8158SOL    HW225374   5.134   4.878   0.620
 8159SOL     OW25375   3.079   6.090   3.092
 8159SOL    HW125376   3.083   6.149   3.173
 8159SOL    HW225377   2.986   6.091   3.054
 8160SOL     OW25378   5.319   0.834   3.222
 8160SOL    HW125379   5.311   0.911   3.285
 8160SOL    HW225380   5.391   0.773   3.253
 8161SOL     OW25381   5.857   2.334   6.381
 8161SOL    HW125382   5.813   2.325   6.470
 8161SOL    HW225383   5.788   2.336   6.308
 8162SOL     OW25384   5.532   6.510   6.788
 8162SOL    HW125385   5.614   6.472   6.832
 8162SOL    HW225386   5.483   6.437   6.742
 8163SOL     OW25387   2.635   4.024   5.300
 8163SOL    HW125388   2.674   4.115   5.283
 8163SOL    HW225389   2.549   4.015   5.249
 8164SOL     OW25390   5.233   2.734   0.683
 8164SOL    HW125391   5.320   2.685   0.696
 8164SOL    HW225392   5.158   2.678   0.717
 8165SOL     OW25393   0.541   3.555   6.626
 8165SOL    HW125394   0.488   3.475   6.655
 8165SOL    HW225395   0.603   3.529   6.553
 8166SOL     OW25396   1.358   0.452   2.945
 8166SOL    HW125397   1.285   0.386   2.963
 8166SOL    HW225398   1.351   0.484   2.851
 8167SOL     OW25399   6.600   6.749   4.395
 8167SOL    HW125400   6.526   6.817   4.399
 8167SOL    HW225401   6.646   6.756   4.307
 8168SOL     OW25402   1.721   1.739   3.414
 8168SOL    HW125403   1.807   1.714   3.369
 8168SOL    HW225404   1.733   1.825   3.463
 8169SOL     OW25405   4.754   1.897   1.269
 8169SOL    HW125406   4.801   1.945   1.343
 8169SOL    HW225407   4.665   1.940   1.252
 8170SOL     OW25408   1.190   4.748   2.655
 8170SOL    HW125409   1.094   4.774   2.645
 8170SOL    HW225410   1.203   4.654   2.625
 8171SOL     OW25411   1.451   1.831   6.496
 8171SOL    HW125412   1.359   1.868   6.484
 8171SOL    HW225413   1.455   1.781   6.583
 8172SOL     OW25414   1.013   1.899   2.384
 8172SOL    HW125415   1.077   1.965   2.344
 8172SOL    HW225416   1.064   1.824   2.426
 8173SOL     OW25417   5.338   1.280   2.153
 8173SOL    HW125418   5.366   1.294   2.058
 8173SOL    HW225419   5.366   1.188   2.182
 8174SOL     OW25420   6.048   2.828   0.832
 8174SOL    HW125421   6.035   2.918   0.875
 8174SOL    HW225422   5.966   2.773   0.844
 8175SOL     OW25423   6.918   2.468   5.564
 8175SOL    HW125424   6.829   2.428   5.588
 8175SOL    HW225425   6.919   2.564   5.591
 8176SOL     OW25426   2.803   5.503   1.992
 8176SOL    HW125427   2.901   5.486   2.005
 8176SOL    HW225428   2.756   5.496   2.080
 8177SOL     OW25429   3.506   6.507   3.876
 8177SOL    HW125430   3.593   6.509   3.924
 8177SOL    HW225431   3.433   6.479   3.938
 8178SOL     OW25432   2.868   5.997   6.508
 8178SOL    HW125433   2.873   5.904   6.544
 8178SOL    HW225434   2.785   6.007   6.453
 8179SOL     OW25435   5.174   1.997   5.433
 8179SOL    HW125436   5.172   1.907   5.477
 8179SOL    HW225437   5.213   2.064   5.497
 8180SOL     OW25438   6.751   0.190   4.870
 8180SOL    HW125439   6.695   0.266   4.903
 8180SOL    HW225440   6.738   0.180   4.771
 8181SOL     OW25441   1.812   1.512   0.665
 8181SOL    HW125442   1.835   1.435   0.605
 8181SOL    HW225443   1.865   1.506   0.749
 8182SOL     OW25444   3.910   3.298   5.706
 8182SOL    HW125445   3.991   3.343   5.670
 8182SOL    HW225446   3.888   3.334   5.797
 8183SOL     OW25447   6.799   2.303   4.962
 8183SOL    HW125448   6.874   2.320   4.897
 8183SOL    HW225449   6.786   2.384   5.019
 8184SOL     OW25450   6.030   1.741   6.801
 8184SOL    HW125451   6.102   1.687   6.845
 8184SOL    HW225452   5.992   1.805   6.867
 8185SOL     OW25453   2.547   6.383   0.444
 8185SOL    HW125454   2.563   6.352   0.537
 8185SOL    HW225455   2.479   6.325   0.400
 8186SOL     OW25456   3.655   5.777   5.291
 8186SOL    HW125457   3.571   5.724   5.295
 8186SOL    HW225458   3.654   5.835   5.209
 8187SOL     OW25459   1.409   2.524   5.228
 8187SOL    HW125460   1.489   2.477   5.266
 8187SOL    HW225461   1.428   2.622   5.222
 8188SOL     OW25462   5.445   3.197   2.976
 8188SOL    HW125463   5.388   3.246   3.042
 8188SOL    HW225464   5.541   3.218   2.993
 8189SOL     OW25465   4.757   4.875   2.583
 8189SOL    HW125466   4.778   4.874   2.485
 8189SOL    HW225467   4.819   4.813   2.631
 8190SOL     OW25468   4.441   4.984   4.054
 8190SOL    HW125469   4.468   5.033   3.971
 8190SOL    HW225470   4.341   4.981   4.060
 8191SOL     OW25471   3.859   6.609   1.953
 8191SOL    HW125472   3.789   6.540   1.972
 8191SOL    HW225473   3.878   6.611   1.855
 8192SOL     OW25474   4.097   5.033   0.506
 8192SOL    HW125475   4.013   5.066   0.550
 8192SOL    HW225476   4.176   5.067   0.556
 8193SOL     OW25477   6.969   6.468   4.366
 8193SOL    HW125478   6.963   6.552   4.421
 8193SOL    HW225479   6.982   6.390   4.426
 8194SOL     OW25480   5.639   2.497   1.031
 8194SOL    HW125481   5.556   2.485   1.087
 8194SOL    HW225482   5.678   2.408   1.009
 8195SOL     OW25483   1.261   0.013   1.832
 8195SOL    HW125484   1.204   6.991   1.764
 8195SOL    HW225485   1.310   6.970   1.887
 8196SOL     OW25486   3.766   6.422   5.950
 8196SOL    HW125487   3.730   6.508   5.913
 8196SOL    HW225488   3.778   6.356   5.876
 8197SOL     OW25489   4.422   1.902   6.885
 8197SOL    HW125490   4.330   1.924   6.915
 8197SOL    HW225491   4.484   1.905   6.963
 8198SOL     OW25492   3.599   6.862   3.513
 8198SOL    HW125493   3.598   6.770   3.552
 8198SOL    HW225494   3.648   6.923   3.575
 8199SOL     OW25495   5.551   2.869   6.532
 8199SOL    HW125496   5.461   2.844   6.568
 8199SOL    HW225497   5.541   2.897   6.436
 8200SOL     OW25498   4.828   3.952   1.588
 8200SOL    HW125499   4.802   3.882   1.523
 8200SOL    HW225500   4.887   4.019   1.543
 8201SOL     OW25501   5.724   0.332   3.617
 8201SOL    HW125502   5.649   0.298   3.560
 8201SOL    HW225503   5.810   0.289   3.589
 8202SOL     OW25504   6.912   5.998   4.802
 8202SOL    HW125505   6.889   6.094   4.785
 8202SOL    HW225506   6.956   5.989   4.891
 8203SOL     OW25507   4.568   2.291   0.114
 8203SOL    HW125508   4.603   2.384   0.107
 8203SOL    HW225509   4.633   2.227   0.073
 8204SOL     OW25510   3.205   5.280   6.833
 8204SOL    HW125511   3.138   5.336   6.883
 8204SOL    HW225512   3.246   5.335   6.761
 8205SOL     OW25513   0.423   4.693   0.904
 8205SOL    HW125514   0.347   4.658   0.848
 8205SOL    HW225515   0.506   4.642   0.883
 8206SOL     OW25516   4.897   2.618   6.206
 8206SOL    HW125517   4.961   2.557   6.251
 8206SOL    HW225518   4.814   2.567   6.181
 8207SOL     OW25519   3.743   3.733   5.369
 8207SOL    HW125520   3.788   3.733   5.280
 8207SOL    HW225521   3.662   3.792   5.365
 8208SOL     OW25522   1.825   0.008   1.416
 8208SOL    HW125523   1.879   6.993   1.490
 8208SOL    HW225524   1.819   0.107   1.428
 8209SOL     OW25525   0.715   1.455   5.884
 8209SOL    HW125526   0.630   1.506   5.875
 8209SOL    HW225527   0.783   1.511   5.932
 8210SOL     OW25528   2.470   0.534   1.035
 8210SOL    HW125529   2.471   0.518   1.133
 8210SOL    HW225530   2.543   0.480   0.992
 8211SOL     OW25531   3.907   3.733   2.519
 8211SOL    HW125532   3.873   3.673   2.447
 8211SOL    HW225533   3.919   3.826   2.482
 8212SOL     OW25534   2.971   1.459   1.098
 8212SOL    HW125535   2.952   1.420   1.007
 8212SOL    HW225536   2.934   1.551   1.103
 8213SOL     OW25537   5.815   4.601   2.296
 8213SOL    HW125538   5.906   4.640   2.309
 8213SOL    HW225539   5.806   4.518   2.352
 8214SOL     OW25540   0.236   5.860   4.482
 8214SOL    HW125541   0.160   5.832   4.423
 8214SOL    HW225542   0.200   5.891   4.570
 8215SOL     OW25543   2.863   5.546   6.362
 8215SOL    HW125544   2.889   5.613   6.292
 8215SOL    HW225545   2.797   5.482   6.323
 8216SOL     OW25546   5.205   5.999   3.565
 8216SOL    HW125547   5.200   6.072   3.496
 8216SOL    HW225548   5.135   5.930   3.546
 8217SOL     OW25549   2.364   4.140   2.051
 8217SOL    HW125550   2.313   4.071   2.001
 8217SOL    HW225551   2.462   4.119   2.047
 8218SOL     OW25552   1.101   6.742   5.110
 8218SOL    HW125553   1.071   6.693   5.192
 8218SOL    HW225554   1.091   6.682   5.030
 8219SOL     OW25555   3.762   2.917   0.956
 8219SOL    HW125556   3.758   2.947   0.860
 8219SOL    HW225557   3.834   2.848   0.966
 8220SOL     OW25558   3.465   3.534   4.950
 8220SOL    HW125559   3.479   3.445   4.906
 8220SOL    HW225560   3.393   3.584   4.901
 8221SOL     OW25561   6.374   5.593   3.111
 8221SOL    HW125562   6.299   5.585   3.045
 8221SOL    HW225563   6.450   5.642   3.068
 8222SOL     OW25564   5.098   1.781   1.550
 8222SOL    HW125565   5.021   1.767   1.612
 8222SOL    HW225566   5.127   1.693   1.513
 8223SOL     OW25567   0.973   4.380   5.186
 8223SOL    HW125568   1.054   4.335   5.225
 8223SOL    HW225569   0.918   4.312   5.139
 8224SOL     OW25570   5.692   2.667   1.898
 8224SOL    HW125571   5.678   2.667   1.997
 8224SOL    HW225572   5.684   2.760   1.863
 8225SOL     OW25573   4.027   1.292   1.672
 8225SOL    HW125574   3.969   1.287   1.590
 8225SOL    HW225575   4.122   1.276   1.645
 8226SOL     OW25576   3.306   0.029   0.498
 8226SOL    HW125577   3.325   0.061   0.405
 8226SOL    HW225578   3.361   0.081   0.563
 8227SOL     OW25579   7.009   0.909   2.584
 8227SOL    HW125580   7.005   0.858   2.670
 8227SOL    HW225581   6.917   0.917   2.546
 8228SOL     OW25582   0.562   1.407   6.505
 8228SOL    HW125583   0.491   1.344   6.536
 8228SOL    HW225584   0.522   1.474   6.442
 8229SOL     OW25585   3.611   4.109   1.246
 8229SOL    HW125586   3.689   4.148   1.294
 8229SOL    HW225587   3.579   4.172   1.176
 8230SOL     OW25588   3.909   6.652   5.193
 8230SOL    HW125589   3.931   6.745   5.164
 8230SOL    HW225590   3.991   6.606   5.227
 8231SOL     OW25591   3.015   2.872   1.380
 8231SOL    HW125592   3.028   2.969   1.402
 8231SOL    HW225593   3.034   2.817   1.461
 8232SOL     OW25594   5.907   1.741   2.463
 8232SOL    HW125595   5.844   1.717   2.389
 8232SOL    HW225596   5.855   1.771   2.543
 8233SOL     OW25597   1.819   6.951   6.732
 8233SOL    HW125598   1.787   6.857   6.747
 8233SOL    HW225599   1.769   7.013   6.793
 8234SOL     OW25600   3.070   3.986   0.024
 8234SOL    HW125601   3.108   3.917   0.086
 8234SOL    HW225602   2.970   3.977   0.021
 8235SOL     OW25603   0.259   3.706   6.933
 8235SOL    HW125604   0.308   3.748   6.857
 8235SOL    HW225605   0.230   3.777   6.997
 8236SOL     OW25606   6.822   4.575   6.908
 8236SOL    HW125607   6.806   4.672   6.888
 8236SOL    HW225608   6.906   4.566   6.962
 8237SOL     OW25609   4.628   6.367   6.006
 8237SOL    HW125610   4.597   6.461   6.019
 8237SOL    HW225611   4.727   6.362   6.017
 8238SOL     OW25612   0.597   5.450   6.914
 8238SOL    HW125613   0.611   5.457   6.815
 8238SOL    HW225614   0.664   5.387   6.953
 8239SOL     OW25615   0.612   0.805   5.210
 8239SOL    HW125616   0.518   0.781   5.237
 8239SOL    HW225617   0.631   0.899   5.238
 8240SOL     OW25618   3.177   4.106   2.983
 8240SOL    HW125619   3.190   4.052   3.066
 8240SOL    HW225620   3.265   4.122   2.938
 8241SOL     OW25621   2.718   4.862   5.718
 8241SOL    HW125622   2.624   4.887   5.694
 8241SOL    HW225623   2.753   4.927   5.785
 8242SOL     OW25624   0.662   3.629   5.349
 8242SOL    HW125625   0.725   3.551   5.354
 8242SOL    HW225626   0.674   3.675   5.261
 8243SOL     OW25627   0.059   3.468   1.268
 8243SOL    HW125628   0.025   3.553   1.308
 8243SOL    HW225629   7.008   3.402   1.260
 8244SOL     OW25630   0.475   0.092   3.338
 8244SOL    HW125631   0.525   0.114   3.254
 8244SOL    HW225632   0.435   0.176   3.375
 8245SOL     OW25633   3.338   2.058   2.634
 8245SOL    HW125634   3.344   2.099   2.725
 8245SOL    HW225635   3.266   2.105   2.582
 8246SOL     OW25636   0.338   3.731   6.580
 8246SOL    HW125637   0.337   3.806   6.646
 8246SOL    HW225638   0.420   3.675   6.594
 8247SOL     OW25639   2.073   6.837   3.366
 8247SOL    HW125640   2.144   6.874   3.307
 8247SOL    HW225641   2.052   6.902   3.439
 8248SOL     OW25642   0.747   4.402   4.848
 8248SOL    HW125643   0.791   4.334   4.906
 8248SOL    HW225644   0.779   4.494   4.874
 8249SOL     OW25645   2.108   1.434   5.873
 8249SOL    HW125646   2.167   1.384   5.937
 8249SOL    HW225647   2.166   1.484   5.808
 8250SOL     OW25648   2.367   1.969   1.283
 8250SOL    HW125649   2.398   1.963   1.378
 8250SOL    HW225650   2.374   1.879   1.239
 8251SOL     OW25651   5.442   2.572   4.084
 8251SOL    HW125652   5.445   2.475   4.059
 8251SOL    HW225653   5.492   2.587   4.169
 8252SOL     OW25654   4.115   1.939   6.739
 8252SOL    HW125655   4.058   1.863   6.769
 8252SOL    HW225656   4.117   2.010   6.810
 8253SOL     OW25657   3.818   5.592   5.891
 8253SOL    HW125658   3.877   5.638   5.957
 8253SOL    HW225659   3.872   5.556   5.816
 8254SOL     OW25660   5.041   4.870   5.672
 8254SOL    HW125661   5.076   4.874   5.765
 8254SOL    HW225662   5.115   4.842   5.610
 8255SOL     OW25663   1.143   6.475   5.462
 8255SOL    HW125664   1.128   6.528   5.379
 8255SOL    HW225665   1.062   6.421   5.482
 8256SOL     OW25666   6.933   6.158   2.715
 8256SOL    HW125667   6.919   6.077   2.771
 8256SOL    HW225668   7.018   6.148   2.663
 8257SOL     OW25669   5.551   4.030   3.273
 8257SOL    HW125670   5.489   4.026   3.352
 8257SOL    HW225671   5.502   4.068   3.195
 8258SOL     OW25672   4.681   2.603   1.998
 8258SOL    HW125673   4.693   2.660   1.916
 8258SOL    HW225674   4.687   2.660   2.080
 8259SOL     OW25675   3.505   2.031   5.587
 8259SOL    HW125676   3.432   2.094   5.609
 8259SOL    HW225677   3.491   1.995   5.495
 8260SOL     OW25678   2.544   7.009   1.704
 8260SOL    HW125679   2.501   6.977   1.789
 8260SOL    HW225680   2.482   0.048   1.658
 8261SOL     OW25681   5.169   6.515   3.128
 8261SOL    HW125682   5.150   6.532   3.032
 8261SOL    HW225683   5.262   6.479   3.138
 8262SOL     OW25684   1.048   4.669   0.353
 8262SOL    HW125685   1.029   4.635   0.446
 8262SOL    HW225686   1.046   4.769   0.353
 8263SOL     OW25687   0.023   3.069   6.848
 8263SOL    HW125688   0.036   3.105   6.941
 8263SOL    HW225689   0.077   2.986   6.836
 8264SOL     OW25690   1.143   6.673   1.402
 8264SOL    HW125691   1.129   6.749   1.466
 8264SOL    HW225692   1.181   6.595   1.451
 8265SOL     OW25693   5.481   0.193   2.107
 8265SOL    HW125694   5.509   0.207   2.012
 8265SOL    HW225695   5.493   0.278   2.159
 8266SOL     OW25696   2.165   1.101   4.094
 8266SOL    HW125697   2.088   1.107   4.031
 8266SOL    HW225698   2.251   1.110   4.043
 8267SOL     OW25699   1.245   3.991   1.758
 8267SOL    HW125700   1.246   4.026   1.852
 8267SOL    HW225701   1.151   3.997   1.722
 8268SOL     OW25702   3.119   5.980   6.193
 8268SOL    HW125703   3.206   5.994   6.146
 8268SOL    HW225704   3.127   6.010   6.288
 8269SOL     OW25705   4.828   2.973   3.009
 8269SOL    HW125706   4.877   2.888   3.028
 8269SOL    HW225707   4.764   2.992   3.084
 8270SOL     OW25708   3.086   5.732   4.930
 8270SOL    HW125709   3.066   5.659   4.864
 8270SOL    HW225710   3.003   5.784   4.948
 8271SOL     OW25711   6.665   6.969   3.133
 8271SOL    HW125712   6.608   6.958   3.215
 8271SOL    HW225713   6.648   0.034   3.092
 8272SOL     OW25714   6.556   1.373   2.748
 8272SOL    HW125715   6.492   1.437   2.706
 8272SOL    HW225716   6.615   1.334   2.677
 8273SOL     OW25717   3.342   0.816   0.778
 8273SOL    HW125718   3.276   0.852   0.843
 8273SOL    HW225719   3.397   0.891   0.740
 8274SOL     OW25720   4.367   5.343   4.899
 8274SOL    HW125721   4.293   5.345   4.967
 8274SOL    HW225722   4.410   5.253   4.899
 8275SOL     OW25723   5.573   0.517   3.908
 8275SOL    HW125724   5.671   0.510   3.889
 8275SOL    HW225725   5.546   0.445   3.972
 8276SOL     OW25726   0.139   2.528   5.475
 8276SOL    HW125727   0.045   2.496   5.483
 8276SOL    HW225728   0.202   2.452   5.492
 8277SOL     OW25729   1.387   6.095   6.513
 8277SOL    HW125730   1.456   6.067   6.579
 8277SOL    HW225731   1.347   6.015   6.469
 8278SOL     OW25732   3.331   1.524   6.894
 8278SOL    HW125733   3.418   1.502   6.939
 8278SOL    HW225734   3.343   1.606   6.838
 8279SOL     OW25735   6.686   6.576   5.279
 8279SOL    HW125736   6.724   6.519   5.352
 8279SOL    HW225737   6.594   6.544   5.256
 8280SOL     OW25738   3.591   2.388   0.688
 8280SOL    HW125739   3.571   2.384   0.590
 8280SOL    HW225740   3.505   2.383   0.739
 8281SOL     OW25741   2.226   4.596   1.879
 8281SOL    HW125742   2.308   4.571   1.931
 8281SOL    HW225743   2.188   4.515   1.836
 8282SOL     OW25744   3.923   4.134   0.441
 8282SOL    HW125745   4.002   4.105   0.387
 8282SOL    HW225746   3.907   4.068   0.514
 8283SOL     OW25747   1.666   4.752   4.441
 8283SOL    HW125748   1.670   4.846   4.408
 8283SOL    HW225749   1.574   4.731   4.473
 8284SOL     OW25750   1.872   4.089   2.150
 8284SOL    HW125751   1.897   4.075   2.054
 8284SOL    HW225752   1.954   4.116   2.202
 8285SOL     OW25753   4.405   3.979   5.368
 8285SOL    HW125754   4.349   3.951   5.290
 8285SOL    HW225755   4.396   4.078   5.382
 8286SOL     OW25756   5.218   1.777   4.744
 8286SOL    HW125757   5.268   1.700   4.785
 8286SOL    HW225758   5.231   1.859   4.800
 8287SOL     OW25759   0.872   5.120   4.467
 8287SOL    HW125760   0.774   5.110   4.480
 8287SOL    HW225761   0.913   5.165   4.546
 8288SOL     OW25762   2.064   2.567   2.521
 8288SOL    HW125763   2.054   2.661   2.553
 8288SOL    HW225764   2.161   2.543   2.517
 8289SOL     OW25765   6.671   0.194   6.459
 8289SOL    HW125766   6.619   0.140   6.392
 8289SOL    HW225767   6.634   0.178   6.550
 8290SOL     OW25768   4.725   1.706   1.070
 8290SOL    HW125769   4.741   1.797   1.110
 8290SOL    HW225770   4.755   1.705   0.975
 8291SOL     OW25771   6.098   5.398   6.332
 8291SOL    HW125772   6.075   5.436   6.242
 8291SOL    HW225773   6.013   5.378   6.382
 8292SOL     OW25774   2.685   5.182   6.707
 8292SOL    HW125775   2.723   5.123   6.778
 8292SOL    HW225776   2.691   5.278   6.736
 8293SOL     OW25777   2.045   5.131   1.561
 8293SOL    HW125778   1.952   5.129   1.598
 8293SOL    HW225779   2.099   5.199   1.610
 8294SOL     OW25780   6.725   3.440   5.008
 8294SOL    HW125781   6.667   3.484   4.939
 8294SOL    HW225782   6.731   3.500   5.089
 8295SOL     OW25783   4.955   3.594   2.871
 8295SOL    HW125784   4.961   3.691   2.893
 8295SOL    HW225785   4.933   3.582   2.774
 8296SOL     OW25786   2.872   5.883   0.154
 8296SOL    HW125787   2.886   5.785   0.159
 8296SOL    HW225788   2.835   5.916   0.241
 8297SOL     OW25789   6.454   3.072   2.601
 8297SOL    HW125790   6.451   3.060   2.700
 8297SOL    HW225791   6.393   3.146   2.574
 8298SOL     OW25792   6.757   0.585   0.852
 8298SOL    HW125793   6.730   0.596   0.947
 8298SOL    HW225794   6.788   0.491   0.837
 8299SOL     OW25795   0.206   3.017   2.285
 8299SOL    HW125796   0.134   2.963   2.240
 8299SOL    HW225797   0.293   2.966   2.280
 8300SOL     OW25798   0.420   6.715   4.583
 8300SOL    HW125799   0.337   6.687   4.632
 8300SOL    HW225800   0.488   6.747   4.649
 8301SOL     OW25801   4.935   1.211   0.122
 8301SOL    HW125802   4.912   1.226   0.025
 8301SOL    HW225803   5.022   1.164   0.129
 8302SOL     OW25804   5.186   6.857   5.897
 8302SOL    HW125805   5.227   6.837   5.807
 8302SOL    HW225806   5.096   6.814   5.902
 8303SOL     OW25807   6.249   0.462   3.163
 8303SOL    HW125808   6.298   0.547   3.146
 8303SOL    HW225809   6.216   0.424   3.076
 8304SOL     OW25810   5.655   4.752   1.453
 8304SOL    HW125811   5.669   4.846   1.484
 8304SOL    HW225812   5.633   4.752   1.355
 8305SOL     OW25813   4.495   4.931   4.303
 8305SOL    HW125814   4.474   4.955   4.208
 8305SOL    HW225815   4.434   4.858   4.334
 8306SOL     OW25816   5.756   1.526   3.633
 8306SOL    HW125817   5.735   1.583   3.554
 8306SOL    HW225818   5.787   1.436   3.602
 8307SOL     OW25819   3.490   5.707   1.573
 8307SOL    HW125820   3.504   5.787   1.515
 8307SOL    HW225821   3.392   5.688   1.580
 8308SOL     OW25822   2.418   5.814   0.214
 8308SOL    HW125823   2.418   5.875   0.293
 8308SOL    HW225824   2.473   5.855   0.141
 8309SOL     OW25825   6.144   5.568   2.996
 8309SOL    HW125826   6.057   5.598   3.037
 8309SOL    HW225827   6.126   5.497   2.929
 8310SOL     OW25828   1.345   4.936   1.453
 8310SOL    HW125829   1.338   4.929   1.552
 8310SOL    HW225830   1.437   4.908   1.424
 8311SOL     OW25831   6.198   1.068   4.460
 8311SOL    HW125832   6.233   0.987   4.508
 8311SOL    HW225833   6.104   1.050   4.430
 8312SOL     OW25834   5.832   0.507   6.186
 8312SOL    HW125835   5.871   0.504   6.278
 8312SOL    HW225836   5.739   0.470   6.188
 8313SOL     OW25837   5.713   0.430   5.868
 8313SOL    HW125838   5.722   0.365   5.943
 8313SOL    HW225839   5.791   0.491   5.867
 8314SOL     OW25840   6.501   0.022   6.290
 8314SOL    HW125841   6.436   0.005   6.216
 8314SOL    HW225842   6.551   6.962   6.311
 8315SOL     OW25843   3.858   2.948   2.862
 8315SOL    HW125844   3.821   2.932   2.954
 8315SOL    HW225845   3.951   2.985   2.869
 8316SOL     OW25846   1.882   3.152   1.501
 8316SOL    HW125847   1.949   3.112   1.439
 8316SOL    HW225848   1.792   3.153   1.458
 8317SOL     OW25849   1.488   2.387   2.802
 8317SOL    HW125850   1.444   2.360   2.716
 8317SOL    HW225851   1.429   2.362   2.879
 8318SOL     OW25852   4.256   1.704   6.332
 8318SOL    HW125853   4.197   1.631   6.367
 8318SOL    HW225854   4.301   1.749   6.409
 8319SOL     OW25855   1.435   0.599   0.711
 8319SOL    HW125856   1.462   0.558   0.798
 8319SOL    HW225857   1.474   0.691   0.704
 8320SOL     OW25858   3.272   3.945   3.186
 8320SOL    HW125859   3.213   3.917   3.262
 8320SOL    HW225860   3.349   3.997   3.221
 8321SOL     OW25861   0.149   7.003   6.982
 8321SOL    HW125862   0.143   0.077   6.963
 8321SOL    HW225863   0.060   6.961   6.965
 8322SOL     OW25864   6.286   1.203   1.190
 8322SOL    HW125865   6.301   1.300   1.171
 8322SOL    HW225866   6.197   1.175   1.152
 8323SOL     OW25867   3.930   4.845   1.632
 8323SOL    HW125868   3.971   4.820   1.544
 8323SOL    HW225869   3.838   4.879   1.617
 8324SOL     OW25870   5.416   0.590   0.693
 8324SOL    HW125871   5.389   0.686   0.688
 8324SOL    HW225872   5.352   0.540   0.750
 8325SOL     OW25873   0.999   3.659   5.218
 8325SOL    HW125874   0.981   3.696   5.309
 8325SOL    HW225875   1.064   3.718   5.171
 8326SOL     OW25876   4.086   3.944   5.980
 8326SOL    HW125877   4.067   4.025   6.036
 8326SOL    HW225878   4.054   3.862   6.028
 8327SOL     OW25879   0.450   0.922   5.556
 8327SOL    HW125880   0.443   0.999   5.619
 8327SOL    HW225881   0.533   0.931   5.501
 8328SOL     OW25882   2.876   6.403   6.444
 8328SOL    HW125883   2.941   6.344   6.396
 8328SOL    HW225884   2.925   6.482   6.481
 8329SOL     OW25885   0.636   2.193   4.652
 8329SOL    HW125886   0.723   2.240   4.665
 8329SOL    HW225887   0.604   2.208   4.559
 8330SOL     OW25888   3.328   1.278   6.766
 8330SOL    HW125889   3.230   1.261   6.753
 8330SOL    HW225890   3.341   1.369   6.805
 8331SOL     OW25891   3.610   0.654   0.590
 8331SOL    HW125892   3.602   0.674   0.688
 8331SOL    HW225893   3.519   0.640   0.551
 8332SOL     OW25894   6.054   5.303   2.178
 8332SOL    HW125895   5.996   5.243   2.233
 8332SOL    HW225896   6.057   5.394   2.220
 8333SOL     OW25897   1.377   4.923   6.967
 8333SOL    HW125898   1.461   4.975   6.985
 8333SOL    HW225899   1.400   4.838   6.919
 8334SOL     OW25900   3.230   1.909   5.620
 8334SOL    HW125901   3.306   1.936   5.679
 8334SOL    HW225902   3.248   1.940   5.526
 8335SOL     OW25903   4.556   1.363   0.332
 8335SOL    HW125904   4.538   1.427   0.407
 8335SOL    HW225905   4.623   1.295   0.362
 8336SOL     OW25906   0.567   4.006   2.909
 8336SOL    HW125907   0.652   3.957   2.890
 8336SOL    HW225908   0.580   4.069   2.985
 8337SOL     OW25909   0.122   6.702   4.223
 8337SOL    HW125910   0.100   6.687   4.126
 8337SOL    HW225911   0.037   6.714   4.274
 8338SOL     OW25912   3.573   5.391   0.979
 8338SOL    HW125913   3.530   5.398   0.889
 8338SOL    HW225914   3.624   5.305   0.985
 8339SOL     OW25915   7.000   0.731   1.809
 8339SOL    HW125916   0.036   0.748   1.887
 8339SOL    HW225917   7.011   0.637   1.777
 8340SOL     OW25918   4.870   3.785   1.028
 8340SOL    HW125919   4.782   3.829   1.044
 8340SOL    HW225920   4.859   3.713   0.959
 8341SOL     OW25921   3.115   0.307   6.821
 8341SOL    HW125922   3.093   0.227   6.765
 8341SOL    HW225923   3.157   0.378   6.764
 8342SOL     OW25924   4.431   6.663   0.140
 8342SOL    HW125925   4.517   6.703   0.107
 8342SOL    HW225926   4.420   6.682   0.237
 8343SOL     OW25927   6.918   5.500   3.445
 8343SOL    HW125928   6.937   5.583   3.391
 8343SOL    HW225929   6.820   5.481   3.443
 8344SOL     OW25930   6.472   5.861   4.794
 8344SOL    HW125931   6.419   5.906   4.866
 8344SOL    HW225932   6.456   5.907   4.707
 8345SOL     OW25933   3.473   1.985   2.403
 8345SOL    HW125934   3.450   1.993   2.500
 8345SOL    HW225935   3.570   2.005   2.390
 8346SOL     OW25936   3.648   4.732   0.385
 8346SOL    HW125937   3.622   4.636   0.395
 8346SOL    HW225938   3.748   4.739   0.379
 8347SOL     OW25939   2.970   6.415   5.719
 8347SOL    HW125940   3.023   6.424   5.635
 8347SOL    HW225941   2.969   6.503   5.768
 8348SOL     OW25942   1.732   0.745   1.343
 8348SOL    HW125943   1.777   0.835   1.346
 8348SOL    HW225944   1.709   0.717   1.437
 8349SOL     OW25945   1.193   6.459   2.181
 8349SOL    HW125946   1.241   6.381   2.222
 8349SOL    HW225947   1.255   6.537   2.174
 8350SOL     OW25948   3.049   6.889   6.289
 8350SOL    HW125949   3.110   6.963   6.259
 8350SOL    HW225950   3.092   6.839   6.364
 8351SOL     OW25951   4.911   5.225   4.564
 8351SOL    HW125952   4.994   5.215   4.511
 8351SOL    HW225953   4.834   5.183   4.515
 8352SOL     OW25954   1.046   0.180   3.589
 8352SOL    HW125955   1.127   0.125   3.607
 8352SOL    HW225956   0.973   0.122   3.553
 8353SOL     OW25957   1.149   3.880   0.861
 8353SOL    HW125958   1.086   3.839   0.928
 8353SOL    HW225959   1.157   3.820   0.782
 8354SOL     OW25960   3.141   0.230   4.275
 8354SOL    HW125961   3.193   0.211   4.358
 8354SOL    HW225962   3.071   0.298   4.294
 8355SOL     OW25963   2.155   1.369   4.892
 8355SOL    HW125964   2.067   1.340   4.854
 8355SOL    HW225965   2.140   1.447   4.953
 8356SOL     OW25966   1.321   6.669   1.762
 8356SOL    HW125967   1.388   6.615   1.813
 8356SOL    HW225968   1.259   6.715   1.826
 8357SOL     OW25969   3.794   6.936   5.376
 8357SOL    HW125970   3.793   6.836   5.386
 8357SOL    HW225971   3.885   6.966   5.349
 8358SOL     OW25972   1.360   3.536   4.346
 8358SOL    HW125973   1.380   3.448   4.388
 8358SOL    HW225974   1.402   3.609   4.400
 8359SOL     OW25975   2.832   1.259   5.004
 8359SOL    HW125976   2.922   1.255   5.046
 8359SOL    HW225977   2.800   1.354   5.001
 8360SOL     OW25978   4.163   0.371   0.102
 8360SOL    HW125979   4.213   0.417   0.176
 8360SOL    HW225980   4.225   0.311   0.052
 8361SOL     OW25981   3.747   0.543   1.270
 8361SOL    HW125982   3.650   0.567   1.269
 8361SOL    HW225983   3.757   0.444   1.257
 8362SOL     OW25984   5.052   1.981   1.315
 8362SOL    HW125985   5.092   2.058   1.364
 8362SOL    HW225986   5.081   1.895   1.358
 8363SOL     OW25987   4.807   2.652   0.189
 8363SOL    HW125988   4.746   2.674   0.114
 8363SOL    HW225989   4.857   2.568   0.169
 8364SOL     OW25990   6.763   1.535   4.113
 8364SOL    HW125991   6.818   1.513   4.194
 8364SOL    HW225992   6.760   1.634   4.101
 8365SOL     OW25993   1.663   2.250   2.476
 8365SOL    HW125994   1.721   2.322   2.514
 8365SOL    HW225995   1.651   2.266   2.378
 8366SOL     OW25996   2.805   5.020   1.000
 8366SOL    HW125997   2.790   4.947   1.067
 8366SOL    HW225998   2.721   5.071   0.987
 8367SOL     OW25999   3.665   5.794   4.752
 8367SOL    HW126000   3.743   5.763   4.698
 8367SOL    HW226001   3.627   5.717   4.804
 8368SOL     OW26002   1.130   6.153   0.010
 8368SOL    HW126003   1.049   6.148   0.070
 8368SOL    HW226004   1.125   6.237   6.980
 8369SOL     OW26005   0.547   0.313   6.486
 8369SOL    HW126006   0.526   0.407   6.512
 8369SOL    HW226007   0.627   0.281   6.536
 8370SOL     OW26008   2.685   1.429   5.834
 8370SOL    HW126009   2.625   1.425   5.754
 8370SOL    HW226010   2.778   1.451   5.805
 8371SOL     OW26011   2.508   4.207   0.790
 8371SOL    HW126012   2.557   4.292   0.771
 8371SOL    HW226013   2.454   4.181   0.710
 8372SOL     OW26014   1.899   5.830   1.662
 8372SOL    HW126015   1.976   5.770   1.683
 8372SOL    HW226016   1.827   5.818   1.731
 8373SOL     OW26017   1.529   6.489   4.025
 8373SOL    HW126018   1.534   6.393   3.997
 8373SOL    HW226019   1.595   6.542   3.972
 8374SOL     OW26020   0.336   6.971   5.047
 8374SOL    HW126021   0.324   6.904   4.973
 8374SOL    HW226022   0.420   7.023   5.031
 8375SOL     OW26023   3.947   6.261   5.306
 8375SOL    HW126024   3.911   6.170   5.327
 8375SOL    HW226025   3.961   6.312   5.391
 8376SOL     OW26026   1.317   1.324   4.339
 8376SOL    HW126027   1.231   1.295   4.381
 8376SOL    HW226028   1.388   1.257   4.361
 8377SOL     OW26029   5.776   6.147   0.671
 8377SOL    HW126030   5.758   6.238   0.708
 8377SOL    HW226031   5.860   6.149   0.617
 8378SOL     OW26032   3.573   4.943   3.133
 8378SOL    HW126033   3.552   5.041   3.137
 8378SOL    HW226034   3.510   4.893   3.192
 8379SOL     OW26035   4.933   2.869   1.925
 8379SOL    HW126036   4.858   2.831   1.871
 8379SOL    HW226037   4.897   2.939   1.987
 8380SOL     OW26038   0.426   0.328   0.698
 8380SOL    HW126039   0.338   0.375   0.709
 8380SOL    HW226040   0.446   0.276   0.781
 8381SOL     OW26041   0.506   2.254   4.396
 8381SOL    HW126042   0.483   2.186   4.327
 8381SOL    HW226043   0.559   2.328   4.355
 8382SOL     OW26044   2.339   6.693   1.842
 8382SOL    HW126045   2.425   6.694   1.893
 8382SOL    HW226046   2.265   6.724   1.901
 8383SOL     OW26047   3.308   6.850   6.011
 8383SOL    HW126048   3.399   6.823   5.977
 8383SOL    HW226049   3.241   6.837   5.939
 8384SOL     OW26050   6.041   1.844   1.669
 8384SOL    HW126051   6.114   1.904   1.638
 8384SOL    HW226052   6.026   1.771   1.601
 8385SOL     OW26053   5.028   2.576   6.815
 8385SOL    HW126054   4.974   2.511   6.868
 8385SOL    HW226055   5.075   2.639   6.877
 8386SOL     OW26056   1.923   6.133   1.696
 8386SOL    HW126057   1.888   6.137   1.603
 8386SOL    HW226058   1.940   6.038   1.721
 8387SOL     OW26059   0.956   1.333   1.227
 8387SOL    HW126060   0.862   1.304   1.207
 8387SOL    HW226061   1.020   1.269   1.186
 8388SOL     OW26062   2.237   6.702   0.624
 8388SOL    HW126063   2.188   6.736   0.544
 8388SOL    HW226064   2.201   6.745   0.707
 8389SOL     OW26065   0.002   3.255   3.831
 8389SOL    HW126066   0.053   3.336   3.863
 8389SOL    HW226067   0.041   3.223   3.745
 8390SOL     OW26068   3.591   6.703   0.312
 8390SOL    HW126069   3.599   6.662   0.404
 8390SOL    HW226070   3.589   6.630   0.244
 8391SOL     OW26071   5.321   5.419   1.199
 8391SOL    HW126072   5.417   5.402   1.223
 8391SOL    HW226073   5.278   5.476   1.269
 8392SOL     OW26074   6.883   5.284   5.411
 8392SOL    HW126075   6.830   5.225   5.472
 8392SOL    HW226076   6.928   5.355   5.465
 8393SOL     OW26077   0.389   6.911   2.790
 8393SOL    HW126078   0.304   6.932   2.838
 8393SOL    HW226079   0.407   6.813   2.795
 8394SOL     OW26080   0.492   3.321   1.873
 8394SOL    HW126081   0.555   3.393   1.845
 8394SOL    HW226082   0.542   3.251   1.924
 8395SOL     OW26083   1.853   6.051   4.524
 8395SOL    HW126084   1.935   5.996   4.511
 8395SOL    HW226085   1.852   6.087   4.618
 8396SOL     OW26086   4.091   5.277   2.497
 8396SOL    HW126087   4.059   5.267   2.591
 8396SOL    HW226088   4.088   5.189   2.450
 8397SOL     OW26089   2.324   0.900   3.164
 8397SOL    HW126090   2.359   0.853   3.083
 8397SOL    HW226091   2.244   0.851   3.199
 8398SOL     OW26092   4.505   2.591   6.618
 8398SOL    HW126093   4.570   2.516   6.631
 8398SOL    HW226094   4.549   2.663   6.563
 8399SOL     OW26095   5.916   0.113   0.687
 8399SOL    HW126096   5.938   0.156   0.599
 8399SOL    HW226097   5.988   0.049   0.711
 8400SOL     OW26098   1.529   0.857   4.270
 8400SOL    HW126099   1.518   0.952   4.241
 8400SOL    HW226100   1.606   0.850   4.334
 8401SOL     OW26101   3.037   1.900   6.148
 8401SOL    HW126102   2.982   1.820   6.124
 8401SOL    HW226103   3.069   1.945   6.065
 8402SOL     OW26104   4.039   1.975   6.025
 8402SOL    HW126105   3.974   1.953   5.952
 8402SOL    HW226106   4.103   1.899   6.037
 8403SOL     OW26107   0.682   2.086   4.047
 8403SOL    HW126108   0.718   2.156   3.985
 8403SOL    HW226109   0.735   2.086   4.131
 8404SOL     OW26110   4.026   6.766   5.955
 8404SOL    HW126111   3.992   6.781   6.048
 8404SOL    HW226112   3.951   6.781   5.890
 8405SOL     OW26113   2.460   0.917   6.089
 8405SOL    HW126114   2.469   0.876   6.179
 8405SOL    HW226115   2.373   0.967   6.084
 8406SOL     OW26116   5.485   6.990   0.743
 8406SOL    HW126117   5.506   0.014   0.658
 8406SOL    HW226118   5.553   6.917   0.758
 8407SOL     OW26119   4.108   6.230   3.754
 8407SOL    HW126120   4.047   6.163   3.710
 8407SOL    HW226121   4.067   6.320   3.750
 8408SOL     OW26122   5.536   2.953   2.017
 8408SOL    HW126123   5.603   3.021   2.045
 8408SOL    HW226124   5.501   2.976   1.926
 8409SOL     OW26125   5.784   3.160   3.732
 8409SOL    HW126126   5.766   3.258   3.721
 8409SOL    HW226127   5.738   3.127   3.814
 8410SOL     OW26128   5.077   0.186   1.851
 8410SOL    HW126129   5.170   0.222   1.863
 8410SOL    HW226130   5.015   0.261   1.827
 8411SOL     OW26131   0.329   5.362   6.880
 8411SOL    HW126132   0.338   5.288   6.814
 8411SOL    HW226133   0.420   5.398   6.901
 8412SOL     OW26134   3.780   2.092   1.732
 8412SOL    HW126135   3.796   2.125   1.639
 8412SOL    HW226136   3.754   2.168   1.791
 8413SOL     OW26137   3.799   5.976   0.031
 8413SOL    HW126138   3.726   5.934   7.000
 8413SOL    HW226139   3.886   5.967   7.007
 8414SOL     OW26140   4.196   5.262   3.090
 8414SOL    HW126141   4.156   5.342   3.044
 8414SOL    HW226142   4.180   5.180   3.035
 8415SOL     OW26143   6.696   5.994   3.294
 8415SOL    HW126144   6.770   5.958   3.352
 8415SOL    HW226145   6.608   5.974   3.338
 8416SOL     OW26146   5.598   3.321   2.735
 8416SOL    HW126147   5.636   3.365   2.816
 8416SOL    HW226148   5.567   3.229   2.759
 8417SOL     OW26149   1.396   5.212   6.016
 8417SOL    HW126150   1.299   5.194   6.030
 8417SOL    HW226151   1.443   5.127   5.993
 8418SOL     OW26152   5.835   5.334   1.222
 8418SOL    HW126153   5.873   5.398   1.155
 8418SOL    HW226154   5.878   5.348   1.311
 8419SOL     OW26155   5.154   0.871   2.588
 8419SOL    HW126156   5.155   0.793   2.651
 8419SOL    HW226157   5.177   0.840   2.496
 8420SOL     OW26158   4.103   6.878   0.378
 8420SOL    HW126159   4.017   6.832   0.403
 8420SOL    HW226160   4.085   6.975   0.362
 8421SOL     OW26161   2.968   5.618   6.819
 8421SOL    HW126162   3.064   5.625   6.846
 8421SOL    HW226163   2.928   5.535   6.858
 8422SOL     OW26164   4.409   1.156   1.190
 8422SOL    HW126165   4.489   1.172   1.247
 8422SOL    HW226166   4.331   1.208   1.226
 8423SOL     OW26167   4.032   4.777   5.692
 8423SOL    HW126168   3.968   4.850   5.715
 8423SOL    HW226169   4.103   4.771   5.762
 8424SOL     OW26170   1.894   2.311   3.086
 8424SOL    HW126171   1.810   2.295   3.035
 8424SOL    HW226172   1.892   2.402   3.128
 8425SOL     OW26173   5.162   6.016   0.441
 8425SOL    HW126174   5.176   6.074   0.361
 8425SOL    HW226175   5.064   5.998   0.453
 8426SOL     OW26176   3.129   3.702   4.335
 8426SOL    HW126177   3.064   3.635   4.370
 8426SOL    HW226178   3.214   3.697   4.387
 8427SOL     OW26179   3.336   3.226   4.942
 8427SOL    HW126180   3.239   3.229   4.965
 8427SOL    HW226181   3.376   3.141   4.975
 8428SOL     OW26182   0.355   4.153   1.721
 8428SOL    HW126183   0.265   4.150   1.764
 8428SOL    HW226184   0.422   4.110   1.781
 8429SOL     OW26185   1.837   4.422   3.683
 8429SOL    HW126186   1.847   4.375   3.771
 8429SOL    HW226187   1.775   4.500   3.694
 8430SOL     OW26188   3.475   5.246   4.617
 8430SOL    HW126189   3.391   5.215   4.573
 8430SOL    HW226190   3.455   5.325   4.675
 8431SOL     OW26191   2.988   5.433   0.803
 8431SOL    HW126192   2.950   5.340   0.798
 8431SOL    HW226193   2.980   5.477   0.714
 8432SOL     OW26194   5.642   6.529   5.893
 8432SOL    HW126195   5.650   6.447   5.949
 8432SOL    HW226196   5.727   6.582   5.897
 8433SOL     OW26197   5.664   1.714   0.310
 8433SOL    HW126198   5.763   1.702   0.317
 8433SOL    HW226199   5.641   1.811   0.316
 8434SOL     OW26200   3.439   6.642   4.694
 8434SOL    HW126201   3.376   6.638   4.772
 8434SOL    HW226202   3.498   6.562   4.695
 8435SOL     OW26203   5.749   0.917   1.466
 8435SOL    HW126204   5.732   0.970   1.549
 8435SOL    HW226205   5.789   0.828   1.490
 8436SOL     OW26206   3.419   0.271   4.191
 8436SOL    HW126207   3.422   0.371   4.188
 8436SOL    HW226208   3.323   0.241   4.198
 8437SOL     OW26209   2.153   0.234   3.774
 8437SOL    HW126210   2.067   0.184   3.787
 8437SOL    HW226211   2.156   0.312   3.836
 8438SOL     OW26212   2.638   4.883   2.214
 8438SOL    HW126213   2.692   4.820   2.270
 8438SOL    HW226214   2.542   4.876   2.240
 8439SOL     OW26215   6.470   5.228   2.277
 8439SOL    HW126216   6.459   5.291   2.354
 8439SOL    HW226217   6.423   5.142   2.299
 8440SOL     OW26218   0.846   2.041   3.256
 8440SOL    HW126219   0.753   2.029   3.289
 8440SOL    HW226220   0.850   2.119   3.194
 8441SOL     OW26221   6.054   0.220   0.175
 8441SOL    HW126222   6.044   0.195   0.272
 8441SOL    HW226223   5.975   0.275   0.148
 8442SOL     OW26224   3.261   2.014   5.373
 8442SOL    HW126225   3.278   2.106   5.338
 8442SOL    HW226226   3.306   1.947   5.315
 8443SOL     OW26227   1.621   5.357   3.706
 8443SOL    HW126228   1.635   5.455   3.690
 8443SOL    HW226229   1.691   5.323   3.768
 8444SOL     OW26230   2.997   6.087   3.786
 8444SOL    HW126231   2.905   6.099   3.823
 8444SOL    HW226232   3.048   6.023   3.845
 8445SOL     OW26233   3.836   6.088   0.982
 8445SOL    HW126234   3.934   6.091   0.961
 8445SOL    HW226235   3.821   6.043   1.069
 8446SOL     OW26236   4.947   5.228   6.528
 8446SOL    HW126237   4.859   5.271   6.551
 8446SOL    HW226238   4.931   5.152   6.464
 8447SOL     OW26239   4.761   2.370   2.284
 8447SOL    HW126240   4.787   2.311   2.360
 8447SOL    HW226241   4.699   2.441   2.318
 8448SOL     OW26242   4.818   6.230   3.775
 8448SOL    HW126243   4.805   6.248   3.873
 8448SOL    HW226244   4.914   6.246   3.750
 8449SOL     OW26245   6.687   2.025   4.076
 8449SOL    HW126246   6.699   1.936   4.121
 8449SOL    HW226247   6.768   2.081   4.091
 8450SOL     OW26248   1.448   5.726   1.414
 8450SOL    HW126249   1.398   5.805   1.450
 8450SOL    HW226250   1.384   5.654   1.388
 8451SOL     OW26251   4.216   2.444   7.019
 8451SOL    HW126252   4.151   2.508   0.036
 8451SOL    HW226253   4.283   2.415   0.063
 8452SOL     OW26254   6.492   1.085   3.107
 8452SOL    HW126255   6.563   1.086   3.037
 8452SOL    HW226256   6.496   1.169   3.161
 8453SOL     OW26257   6.832   4.219   6.188
 8453SOL    HW126258   6.769   4.214   6.110
 8453SOL    HW226259   6.894   4.141   6.186
 8454SOL     OW26260   6.961   6.595   0.683
 8454SOL    HW126261   6.945   6.528   0.755
 8454SOL    HW226262   6.926   6.684   0.711
 8455SOL     OW26263   5.641   2.541   1.485
 8455SOL    HW126264   5.736   2.526   1.513
 8455SOL    HW226265   5.582   2.537   1.565
 8456SOL     OW26266   4.956   6.015   3.080
 8456SOL    HW126267   4.954   6.068   3.164
 8456SOL    HW226268   4.960   6.077   3.001
 8457SOL     OW26269   6.450   6.467   4.397
 8457SOL    HW126270   6.526   6.410   4.428
 8457SOL    HW226271   6.483   6.559   4.377
 8458SOL     OW26272   2.657   1.500   6.363
 8458SOL    HW126273   2.752   1.503   6.395
 8458SOL    HW226274   2.606   1.575   6.405
 8459SOL     OW26275   2.952   6.694   2.083
 8459SOL    HW126276   3.015   6.759   2.040
 8459SOL    HW226277   3.002   6.639   2.149
 8460SOL     OW26278   4.613   3.681   5.437
 8460SOL    HW126279   4.616   3.624   5.355
 8460SOL    HW226280   4.526   3.730   5.441
 8461SOL     OW26281   6.894   3.894   3.848
 8461SOL    HW126282   6.852   3.955   3.915
 8461SOL    HW226283   6.979   3.856   3.886
 8462SOL     OW26284   3.380   2.472   0.087
 8462SOL    HW126285   3.313   2.530   0.040
 8462SOL    HW226286   3.450   2.443   0.022
 8463SOL     OW26287   6.180   6.879   0.384
 8463SOL    HW126288   6.219   6.789   0.402
 8463SOL    HW226289   6.112   6.872   0.311
 8464SOL     OW26290   5.459   3.607   5.705
 8464SOL    HW126291   5.401   3.557   5.640
 8464SOL    HW226292   5.429   3.702   5.710
 8465SOL     OW26293   1.656   2.677   1.013
 8465SOL    HW126294   1.557   2.669   1.024
 8465SOL    HW226295   1.693   2.590   0.978
 8466SOL     OW26296   0.888   6.569   5.276
 8466SOL    HW126297   0.820   6.603   5.212
 8466SOL    HW226298   0.928   6.646   5.327
 8467SOL     OW26299   4.330   0.214   1.491
 8467SOL    HW126300   4.287   0.208   1.401
 8467SOL    HW226301   4.419   0.168   1.488
 8468SOL     OW26302   4.383   2.612   6.867
 8468SOL    HW126303   4.415   2.608   6.772
 8468SOL    HW226304   4.318   2.538   6.884
 8469SOL     OW26305   3.979   1.503   5.681
 8469SOL    HW126306   3.949   1.409   5.669
 8469SOL    HW226307   4.060   1.519   5.624
 8470SOL     OW26308   1.504   4.552   0.086
 8470SOL    HW126309   1.452   4.580   0.005
 8470SOL    HW226310   1.498   4.624   0.155
 8471SOL     OW26311   3.703   0.794   4.244
 8471SOL    HW126312   3.648   0.761   4.168
 8471SOL    HW226313   3.786   0.739   4.252
 8472SOL     OW26314   6.521   0.425   5.510
 8472SOL    HW126315   6.500   0.397   5.603
 8472SOL    HW226316   6.456   0.495   5.480
 8473SOL     OW26317   6.874   5.975   0.899
 8473SOL    HW126318   6.819   5.892   0.892
 8473SOL    HW226319   6.965   5.952   0.933
 8474SOL     OW26320   3.288   3.292   2.570
 8474SOL    HW126321   3.250   3.281   2.662
 8474SOL    HW226322   3.345   3.213   2.548
 8475SOL     OW26323   0.144   2.263   3.605
 8475SOL    HW126324   0.053   2.279   3.643
 8475SOL    HW226325   0.178   2.347   3.564
 8476SOL     OW26326   6.665   2.086   0.821
 8476SOL    HW126327   6.620   2.175   0.821
 8476SOL    HW226328   6.621   2.027   0.888
 8477SOL     OW26329   4.840   6.799   1.715
 8477SOL    HW126330   4.764   6.858   1.744
 8477SOL    HW226331   4.837   6.713   1.767
 8478SOL     OW26332   1.799   0.233   6.268
 8478SOL    HW126333   1.723   0.206   6.209
 8478SOL    HW226334   1.835   0.153   6.316
 8479SOL     OW26335   0.524   2.944   0.781
 8479SOL    HW126336   0.585   2.992   0.718
 8479SOL    HW226337   0.572   2.927   0.867
 8480SOL     OW26338   4.633   2.368   6.611
 8480SOL    HW126339   4.720   2.325   6.637
 8480SOL    HW226340   4.616   2.354   6.514
 8481SOL     OW26341   4.460   2.484   4.635
 8481SOL    HW126342   4.401   2.406   4.613
 8481SOL    HW226343   4.442   2.515   4.728
 8482SOL     OW26344   4.683   5.671   2.295
 8482SOL    HW126345   4.635   5.696   2.380
 8482SOL    HW226346   4.635   5.711   2.217
 8483SOL     OW26347   4.222   6.540   2.130
 8483SOL    HW126348   4.281   6.462   2.150
 8483SOL    HW226349   4.256   6.621   2.178
 8484SOL     OW26350   0.044   6.310   2.894
 8484SOL    HW126351   7.003   6.269   2.831
 8484SOL    HW226352   0.001   6.387   2.941
 8485SOL     OW26353   3.652   2.837   0.651
 8485SOL    HW126354   3.669   2.796   0.561
 8485SOL    HW226355   3.553   2.841   0.668
 8486SOL     OW26356   2.341   1.613   2.457
 8486SOL    HW126357   2.283   1.541   2.495
 8486SOL    HW226358   2.306   1.702   2.484
 8487SOL     OW26359   5.929   1.370   5.966
 8487SOL    HW126360   6.015   1.349   5.919
 8487SOL    HW226361   5.852   1.347   5.907
 8488SOL     OW26362   4.962   5.925   0.806
 8488SOL    HW126363   4.975   6.021   0.833
 8488SOL    HW226364   4.997   5.865   0.879
 8489SOL     OW26365   6.216   2.027   1.611
 8489SOL    HW126366   6.234   2.035   1.513
 8489SOL    HW226367   6.239   2.113   1.656
 8490SOL     OW26368   4.730   6.900   3.963
 8490SOL    HW126369   4.795   6.839   3.918
 8490SOL    HW226370   4.771   6.939   4.046
 8491SOL     OW26371   3.208   5.860   1.309
 8491SOL    HW126372   3.147   5.856   1.388
 8491SOL    HW226373   3.197   5.948   1.263
 8492SOL     OW26374   4.915   3.995   5.534
 8492SOL    HW126375   4.979   3.919   5.545
 8492SOL    HW226376   4.848   3.973   5.462
 8493SOL     OW26377   2.316   2.889   6.543
 8493SOL    HW126378   2.357   2.815   6.490
 8493SOL    HW226379   2.385   2.957   6.565
 8494SOL     OW26380   4.102   5.673   1.343
 8494SOL    HW126381   4.163   5.746   1.375
 8494SOL    HW226382   4.008   5.695   1.368
 8495SOL     OW26383   6.067   4.643   2.761
 8495SOL    HW126384   6.103   4.636   2.854
 8495SOL    HW226385   5.975   4.683   2.763
 8496SOL     OW26386   1.556   1.884   1.960
 8496SOL    HW126387   1.625   1.951   1.933
 8496SOL    HW226388   1.465   1.924   1.951
 8497SOL     OW26389   6.820   0.753   3.530
 8497SOL    HW126390   6.855   0.660   3.530
 8497SOL    HW226391   6.780   0.775   3.441
 8498SOL     OW26392   6.479   5.956   3.000
 8498SOL    HW126393   6.545   6.027   2.977
 8498SOL    HW226394   6.433   5.979   3.086
 8499SOL     OW26395   2.290   4.615   6.639
 8499SOL    HW126396   2.234   4.660   6.708
 8499SOL    HW226397   2.253   4.523   6.622
 8500SOL     OW26398   1.394   6.338   5.516
 8500SOL    HW126399   1.460   6.332   5.441
 8500SOL    HW226400   1.315   6.392   5.486
 8501SOL     OW26401   0.000   2.436   0.091
 8501SOL    HW126402   6.978   2.505   0.036
 8501SOL    HW226403   0.099   2.452   0.089
 8502SOL     OW26404   0.720   3.193   1.114
 8502SOL    HW126405   0.796   3.134   1.086
 8502SOL    HW226406   0.756   3.280   1.146
 8503SOL     OW26407   0.464   6.569   4.106
 8503SOL    HW126408   0.477   6.640   4.175
 8503SOL    HW226409   0.474   6.479   4.147
 8504SOL     OW26410   2.317   4.789   2.768
 8504SOL    HW126411   2.245   4.856   2.785
 8504SOL    HW226412   2.298   4.705   2.818
 8505SOL     OW26413   5.445   3.607   3.402
 8505SOL    HW126414   5.474   3.535   3.339
 8505SOL    HW226415   5.486   3.593   3.492
 8506SOL     OW26416   0.590   0.599   6.483
 8506SOL    HW126417   0.604   0.683   6.535
 8506SOL    HW226418   0.679   0.566   6.451
 8507SOL     OW26419   3.344   0.527   5.051
 8507SOL    HW126420   3.339   0.558   5.146
 8507SOL    HW226421   3.252   0.526   5.012
 8508SOL     OW26422   5.132   1.541   4.556
 8508SOL    HW126423   5.141   1.628   4.604
 8508SOL    HW226424   5.147   1.555   4.458
 8509SOL     OW26425   4.550   1.495   4.181
 8509SOL    HW126426   4.485   1.569   4.163
 8509SOL    HW226427   4.588   1.463   4.094
 8510SOL     OW26428   5.799   4.094   2.632
 8510SOL    HW126429   5.872   4.143   2.584
 8510SOL    HW226430   5.809   4.108   2.730
 8511SOL     OW26431   6.439   4.006   2.349
 8511SOL    HW126432   6.505   4.078   2.326
 8511SOL    HW226433   6.447   3.931   2.284
 8512SOL     OW26434   2.711   1.910   1.778
 8512SOL    HW126435   2.797   1.913   1.727
 8512SOL    HW226436   2.664   1.998   1.768
 8513SOL     OW26437   6.005   5.427   1.020
 8513SOL    HW126438   5.951   5.393   0.943
 8513SOL    HW226439   6.075   5.360   1.044
 8514SOL     OW26440   2.433   2.554   4.208
 8514SOL    HW126441   2.346   2.508   4.194
 8514SOL    HW226442   2.508   2.493   4.181
 8515SOL     OW26443   4.521   2.603   0.761
 8515SOL    HW126444   4.583   2.681   0.771
 8515SOL    HW226445   4.562   2.536   0.699
 8516SOL     OW26446   6.087   2.070   1.987
 8516SOL    HW126447   6.054   2.113   2.071
 8516SOL    HW226448   6.010   2.053   1.925
 8517SOL     OW26449   0.907   2.837   6.556
 8517SOL    HW126450   0.939   2.773   6.626
 8517SOL    HW226451   0.951   2.815   6.469
 8518SOL     OW26452   4.283   4.554   6.957
 8518SOL    HW126453   4.222   4.538   0.010
 8518SOL    HW226454   4.360   4.611   6.986
 8519SOL     OW26455   1.623   4.751   1.810
 8519SOL    HW126456   1.720   4.759   1.831
 8519SOL    HW226457   1.591   4.835   1.765
 8520SOL     OW26458   2.942   2.334   0.286
 8520SOL    HW126459   3.042   2.340   0.288
 8520SOL    HW226460   2.905   2.355   0.376
 8521SOL     OW26461   1.599   5.275   6.217
 8521SOL    HW126462   1.537   5.273   6.139
 8521SOL    HW226463   1.638   5.184   6.230
 8522SOL     OW26464   1.204   5.840   1.539
 8522SOL    HW126465   1.123   5.787   1.513
 8522SOL    HW226466   1.235   5.810   1.630
 8523SOL     OW26467   3.267   0.052   6.192
 8523SOL    HW126468   3.299   7.022   6.114
 8523SOL    HW226469   3.190   0.109   6.164
 8524SOL     OW26470   0.830   2.174   4.987
 8524SOL    HW126471   0.788   2.104   4.930
 8524SOL    HW226472   0.781   2.261   4.974
 8525SOL     OW26473   6.460   4.143   3.105
 8525SOL    HW126474   6.423   4.200   3.178
 8525SOL    HW226475   6.549   4.107   3.133
 8526SOL     OW26476   3.857   5.313   0.193
 8526SOL    HW126477   3.831   5.219   0.171
 8526SOL    HW226478   3.871   5.321   0.292
 8527SOL     OW26479   2.839   0.468   5.736
 8527SOL    HW126480   2.760   0.447   5.794
 8527SOL    HW226481   2.807   0.491   5.644
 8528SOL     OW26482   4.708   2.830   5.922
 8528SOL    HW126483   4.725   2.731   5.927
 8528SOL    HW226484   4.789   2.876   5.886
 8529SOL     OW26485   0.527   6.937   0.859
 8529SOL    HW126486   0.507   6.926   0.957
 8529SOL    HW226487   0.570   0.002   0.844
 8530SOL     OW26488   2.623   3.460   5.278
 8530SOL    HW126489   2.615   3.360   5.281
 8530SOL    HW226490   2.715   3.487   5.308
 8531SOL     OW26491   6.410   4.740   2.144
 8531SOL    HW126492   6.450   4.674   2.080
 8531SOL    HW226493   6.482   4.802   2.177
 8532SOL     OW26494   4.115   4.811   4.570
 8532SOL    HW126495   4.101   4.795   4.667
 8532SOL    HW226496   4.026   4.831   4.527
 8533SOL     OW26497   1.868   0.141   5.676
 8533SOL    HW126498   1.886   0.216   5.613
 8533SOL    HW226499   1.771   0.117   5.672
 8534SOL     OW26500   6.146   3.138   4.560
 8534SOL    HW126501   6.245   3.129   4.574
 8534SOL    HW226502   6.101   3.052   4.585
 8535SOL     OW26503   6.968   1.854   5.198
 8535SOL    HW126504   0.013   1.856   5.126
 8535SOL    HW226505   6.882   1.889   5.163
 8536SOL     OW26506   5.452   2.432   4.898
 8536SOL    HW126507   5.546   2.395   4.898
 8536SOL    HW226508   5.393   2.371   4.951
 8537SOL     OW26509   5.524   1.766   2.593
 8537SOL    HW126510   5.555   1.840   2.534
 8537SOL    HW226511   5.541   1.678   2.549
 8538SOL     OW26512   0.513   1.569   6.258
 8538SOL    HW126513   0.612   1.577   6.254
 8538SOL    HW226514   0.472   1.648   6.211
 8539SOL     OW26515   6.551   1.346   1.803
 8539SOL    HW126516   6.577   1.436   1.838
 8539SOL    HW226517   6.565   1.277   1.874
 8540SOL     OW26518   4.786   1.388   0.549
 8540SOL    HW126519   4.776   1.316   0.480
 8540SOL    HW226520   4.728   1.365   0.628
 8541SOL     OW26521   2.937   2.220   4.185
 8541SOL    HW126522   2.893   2.275   4.256
 8541SOL    HW226523   2.942   2.125   4.214
 8542SOL     OW26524   2.609   4.682   6.964
 8542SOL    HW126525   2.571   4.773   6.980
 8542SOL    HW226526   2.692   4.690   6.909
 8543SOL     OW26527   3.340   1.360   0.121
 8543SOL    HW126528   3.336   1.336   0.218
 8543SOL    HW226529   3.258   1.328   0.075
 8544SOL     OW26530   5.421   2.878   4.691
 8544SOL    HW126531   5.390   2.854   4.783
 8544SOL    HW226532   5.390   2.809   4.626
 8545SOL     OW26533   4.446   0.117   4.315
 8545SOL    HW126534   4.489   0.092   4.402
 8545SOL    HW226535   4.438   0.036   4.257
 8546SOL     OW26536   0.700   0.174   2.812
 8546SOL    HW126537   0.667   0.149   2.721
 8546SOL    HW226538   0.782   0.230   2.804
 8547SOL     OW26539   0.923   6.541   6.818
 8547SOL    HW126540   0.904   6.633   6.853
 8547SOL    HW226541   0.875   6.528   6.732
 8548SOL     OW26542   0.089   3.201   5.577
 8548SOL    HW126543   0.085   3.102   5.591
 8548SOL    HW226544   0.023   3.228   5.508
 8549SOL     OW26545   0.975   2.873   4.577
 8549SOL    HW126546   0.966   2.952   4.638
 8549SOL    HW226547   0.942   2.898   4.486
 8550SOL     OW26548   1.213   5.371   0.189
 8550SOL    HW126549   1.145   5.348   0.120
 8550SOL    HW226550   1.295   5.409   0.146
 8551SOL     OW26551   2.657   2.916   6.973
 8551SOL    HW126552   2.709   2.830   6.968
 8551SOL    HW226553   2.710   2.984   7.023
 8552SOL     OW26554   2.349   6.932   2.692
 8552SOL    HW126555   2.255   6.963   2.677
 8552SOL    HW226556   2.411   6.988   2.636
 8553SOL     OW26557   4.330   5.258   6.951
 8553SOL    HW126558   4.426   5.282   6.938
 8553SOL    HW226559   4.299   5.198   6.877
 8554SOL     OW26560   0.622   4.831   0.486
 8554SOL    HW126561   0.536   4.807   0.532
 8554SOL    HW226562   0.610   4.825   0.387
 8555SOL     OW26563   3.044   0.672   3.239
 8555SOL    HW126564   3.132   0.639   3.205
 8555SOL    HW226565   3.059   0.731   3.319
 8556SOL     OW26566   1.977   6.365   5.111
 8556SOL    HW126567   1.993   6.454   5.154
 8556SOL    HW226568   2.063   6.327   5.078
 8557SOL     OW26569   6.840   6.701   2.458
 8557SOL    HW126570   6.816   6.698   2.555
 8557SOL    HW226571   6.908   6.772   2.442
 8558SOL     OW26572   2.867   5.221   2.808
 8558SOL    HW126573   2.819   5.307   2.793
 8558SOL    HW226574   2.888   5.211   2.905
 8559SOL     OW26575   1.882   0.114   2.527
 8559SOL    HW126576   1.928   0.029   2.553
 8559SOL    HW226577   1.788   0.094   2.499
 8560SOL     OW26578   0.872   6.066   1.616
 8560SOL    HW126579   0.885   6.052   1.518
 8560SOL    HW226580   0.775   6.083   1.635
 8561SOL     OW26581   3.529   0.491   2.940
 8561SOL    HW126582   3.489   0.401   2.951
 8561SOL    HW226583   3.606   0.486   2.876
 8562SOL     OW26584   4.145   6.415   6.143
 8562SOL    HW126585   4.102   6.441   6.057
 8562SOL    HW226586   4.240   6.446   6.144
 8563SOL     OW26587   1.001   4.940   1.147
 8563SOL    HW126588   1.078   4.880   1.169
 8563SOL    HW226589   1.006   4.967   1.051
 8564SOL     OW26590   2.980   0.287   5.105
 8564SOL    HW126591   3.017   0.211   5.052
 8564SOL    HW226592   3.038   0.303   5.185
 8565SOL     OW26593   3.698   5.152   1.062
 8565SOL    HW126594   3.602   5.133   1.082
 8565SOL    HW226595   3.742   5.069   1.029
 8566SOL     OW26596   0.954   6.729   1.224
 8566SOL    HW126597   0.967   6.701   1.129
 8566SOL    HW226598   1.033   6.700   1.279
 8567SOL     OW26599   0.265   1.792   3.161
 8567SOL    HW126600   0.302   1.785   3.069
 8567SOL    HW226601   0.167   1.773   3.160
 8568SOL     OW26602   5.872   1.564   6.661
 8568SOL    HW126603   5.820   1.633   6.611
 8568SOL    HW226604   5.942   1.610   6.716
 8569SOL     OW26605   4.361   1.682   5.570
 8569SOL    HW126606   4.432   1.667   5.638
 8569SOL    HW226607   4.402   1.716   5.485
 8570SOL     OW26608   1.735   1.616   4.879
 8570SOL    HW126609   1.768   1.667   4.799
 8570SOL    HW226610   1.638   1.598   4.868
 8571SOL     OW26611   0.135   6.087   5.732
 8571SOL    HW126612   0.168   6.179   5.710
 8571SOL    HW226613   0.181   6.020   5.674
 8572SOL     OW26614   2.533   4.711   6.041
 8572SOL    HW126615   2.528   4.808   6.067
 8572SOL    HW226616   2.518   4.654   6.122
 8573SOL     OW26617   3.402   6.060   6.171
 8573SOL    HW126618   3.394   5.960   6.172
 8573SOL    HW226619   3.463   6.088   6.097
 8574SOL     OW26620   6.934   6.719   6.247
 8574SOL    HW126621   6.915   6.695   6.342
 8574SOL    HW226622   7.009   6.785   6.244
 8575SOL     OW26623   2.235   2.408   3.351
 8575SOL    HW126624   2.165   2.337   3.345
 8575SOL    HW226625   2.290   2.394   3.433
 8576SOL     OW26626   1.201   4.241   5.239
 8576SOL    HW126627   1.255   4.223   5.321
 8576SOL    HW226628   1.252   4.212   5.158
 8577SOL     OW26629   1.529   6.565   4.633
 8577SOL    HW126630   1.577   6.516   4.561
 8577SOL    HW226631   1.435   6.531   4.640
 8578SOL     OW26632   6.063   6.217   4.665
 8578SOL    HW126633   6.057   6.128   4.619
 8578SOL    HW226634   5.975   6.264   4.658
 8579SOL     OW26635   2.074   0.327   2.070
 8579SOL    HW126636   2.046   0.311   2.164
 8579SOL    HW226637   2.002   0.295   2.008
 8580SOL     OW26638   2.338   5.869   1.170
 8580SOL    HW126639   2.245   5.894   1.145
 8580SOL    HW226640   2.382   5.821   1.095
 8581SOL     OW26641   3.365   3.616   1.637
 8581SOL    HW126642   3.406   3.551   1.573
 8581SOL    HW226643   3.420   3.619   1.721
 8582SOL     OW26644   4.770   4.207   4.878
 8582SOL    HW126645   4.809   4.297   4.859
 8582SOL    HW226646   4.724   4.208   4.966
 8583SOL     OW26647   4.558   0.826   4.405
 8583SOL    HW126648   4.571   0.752   4.472
 8583SOL    HW226649   4.641   0.837   4.351
 8584SOL     OW26650   0.451   5.745   6.683
 8584SOL    HW126651   0.438   5.765   6.586
 8584SOL    HW226652   0.363   5.749   6.731
 8585SOL     OW26653   6.741   0.590   6.882
 8585SOL    HW126654   6.779   0.626   6.797
 8585SOL    HW226655   6.643   0.572   6.871
 8586SOL     OW26656   3.120   6.999   2.109
 8586SOL    HW126657   3.134   0.038   2.185
 8586SOL    HW226658   3.023   6.996   2.085
 8587SOL     OW26659   1.222   0.521   4.254
 8587SOL    HW126660   1.309   0.488   4.218
 8587SOL    HW226661   1.217   0.620   4.243
 8588SOL     OW26662   4.220   0.867   0.364
 8588SOL    HW126663   4.201   0.892   0.268
 8588SOL    HW226664   4.166   0.787   0.388
 8589SOL     OW26665   5.293   2.884   5.561
 8589SOL    HW126666   5.288   2.897   5.462
 8589SOL    HW226667   5.388   2.885   5.590
 8590SOL     OW26668   0.029   6.692   2.852
 8590SOL    HW126669   0.097   6.674   2.781
 8590SOL    HW226670   0.074   6.733   2.932
 8591SOL     OW26671   0.485   4.391   0.379
 8591SOL    HW126672   0.453   4.309   0.426
 8591SOL    HW226673   0.426   4.468   0.403
 8592SOL     OW26674   5.803   2.511   7.021
 8592SOL    HW126675   5.704   2.513   7.003
 8592SOL    HW226676   5.841   2.602   7.005
 8593SOL     OW26677   2.675   1.136   0.631
 8593SOL    HW126678   2.752   1.130   0.568
 8593SOL    HW226679   2.706   1.121   0.725
 8594SOL     OW26680   4.452   2.529   4.903
 8594SOL    HW126681   4.515   2.599   4.938
 8594SOL    HW226682   4.373   2.521   4.964
 8595SOL     OW26683   0.506   1.286   3.216
 8595SOL    HW126684   0.573   1.337   3.162
 8595SOL    HW226685   0.449   1.349   3.268
 8596SOL     OW26686   1.143   4.306   2.967
 8596SOL    HW126687   1.225   4.251   2.950
 8596SOL    HW226688   1.147   4.390   2.913
 8597SOL     OW26689   4.569   2.003   1.076
 8597SOL    HW126690   4.514   2.086   1.070
 8597SOL    HW226691   4.518   1.932   1.125
 8598SOL     OW26692   5.986   0.258   0.463
 8598SOL    HW126693   5.910   0.323   0.461
 8598SOL    HW226694   6.071   0.307   0.485
 8599SOL     OW26695   1.689   2.630   5.004
 8599SOL    HW126696   1.606   2.612   4.950
 8599SOL    HW226697   1.711   2.550   5.059
 8600SOL     OW26698   5.411   4.499   6.428
 8600SOL    HW126699   5.345   4.428   6.453
 8600SOL    HW226700   5.407   4.516   6.330
 8601SOL     OW26701   1.118   1.656   4.982
 8601SOL    HW126702   1.129   1.602   5.066
 8601SOL    HW226703   1.120   1.595   4.903
 8602SOL     OW26704   3.364   6.419   2.390
 8602SOL    HW126705   3.451   6.391   2.350
 8602SOL    HW226706   3.367   6.406   2.489
 8603SOL     OW26707   5.181   6.147   1.071
 8603SOL    HW126708   5.257   6.089   1.042
 8603SOL    HW226709   5.125   6.170   0.992
 8604SOL     OW26710   0.680   2.709   4.949
 8604SOL    HW126711   0.637   2.670   5.031
 8604SOL    HW226712   0.652   2.804   4.938
 8605SOL     OW26713   2.472   5.347   4.153
 8605SOL    HW126714   2.504   5.442   4.146
 8605SOL    HW226715   2.407   5.340   4.229
 8606SOL     OW26716   1.365   3.336   6.507
 8606SOL    HW126717   1.295   3.399   6.472
 8606SOL    HW226718   1.338   3.304   6.598
 8607SOL     OW26719   3.374   4.930   6.314
 8607SOL    HW126720   3.446   4.863   6.299
 8607SOL    HW226721   3.412   5.023   6.306
 8608SOL     OW26722   3.114   4.824   2.426
 8608SOL    HW126723   3.205   4.819   2.467
 8608SOL    HW226724   3.090   4.920   2.410
 8609SOL     OW26725   5.183   0.961   2.847
 8609SOL    HW126726   5.176   0.924   2.754
 8609SOL    HW226727   5.261   0.919   2.894
 8610SOL     OW26728   0.782   2.250   3.049
 8610SOL    HW126729   0.695   2.214   3.081
 8610SOL    HW226730   0.767   2.313   2.972
 8611SOL     OW26731   3.175   2.128   4.778
 8611SOL    HW126732   3.108   2.140   4.705
 8611SOL    HW226733   3.137   2.157   4.865
 8612SOL     OW26734   2.720   3.344   0.056
 8612SOL    HW126735   2.623   3.348   0.079
 8612SOL    HW226736   2.770   3.416   0.105
 8613SOL     OW26737   2.920   1.353   1.772
 8613SOL    HW126738   2.924   1.421   1.845
 8613SOL    HW226739   2.895   1.264   1.811
 8614SOL     OW26740   1.066   2.982   3.582
 8614SOL    HW126741   1.017   2.908   3.628
 8614SOL    HW226742   1.121   3.032   3.648
 8615SOL     OW26743   4.215   1.672   4.954
 8615SOL    HW126744   4.167   1.654   4.869
 8615SOL    HW226745   4.286   1.602   4.968
 8616SOL     OW26746   3.083   4.585   1.679
 8616SOL    HW126747   2.994   4.569   1.723
 8616SOL    HW226748   3.136   4.649   1.735
 8617SOL     OW26749   6.564   1.284   5.681
 8617SOL    HW126750   6.607   1.374   5.692
 8617SOL    HW226751   6.570   1.256   5.586
 8618SOL     OW26752   6.148   4.720   1.032
 8618SOL    HW126753   6.244   4.711   1.059
 8618SOL    HW226754   6.126   4.650   0.964
 8619SOL     OW26755   3.722   4.852   2.242
 8619SOL    HW126756   3.680   4.791   2.175
 8619SOL    HW226757   3.654   4.876   2.311
 8620SOL     OW26758   1.159   0.066   3.288
 8620SOL    HW126759   1.217   0.144   3.309
 8620SOL    HW226760   1.216   7.010   3.268
 8621SOL     OW26761   5.862   1.896   2.867
 8621SOL    HW126762   5.923   1.881   2.944
 8621SOL    HW226763   5.784   1.951   2.896
 8622SOL     OW26764   5.391   3.595   1.277
 8622SOL    HW126765   5.450   3.662   1.232
 8622SOL    HW226766   5.368   3.628   1.369
 8623SOL     OW26767   0.900   3.677   4.817
 8623SOL    HW126768   0.883   3.725   4.731
 8623SOL    HW226769   0.992   3.639   4.817
 8624SOL     OW26770   1.818   3.989   4.811
 8624SOL    HW126771   1.886   3.936   4.862
 8624SOL    HW226772   1.846   4.085   4.808
 8625SOL     OW26773   4.316   0.852   6.010
 8625SOL    HW126774   4.290   0.783   5.942
 8625SOL    HW226775   4.234   0.894   6.049
 8626SOL     OW26776   3.045   3.047   6.478
 8626SOL    HW126777   3.052   3.057   6.577
 8626SOL    HW226778   3.124   2.996   6.444
 8627SOL     OW26779   0.672   1.735   3.331
 8627SOL    HW126780   0.717   1.802   3.389
 8627SOL    HW226781   0.676   1.645   3.374
 8628SOL     OW26782   6.788   6.474   0.490
 8628SOL    HW126783   6.693   6.505   0.496
 8628SOL    HW226784   6.846   6.531   0.548
 8629SOL     OW26785   2.082   5.769   5.196
 8629SOL    HW126786   2.013   5.835   5.222
 8629SOL    HW226787   2.048   5.676   5.212
 8630SOL     OW26788   5.284   4.497   4.280
 8630SOL    HW126789   5.210   4.554   4.244
 8630SOL    HW226790   5.371   4.547   4.274
 8631SOL     OW26791   0.516   5.396   6.482
 8631SOL    HW126792   0.582   5.322   6.470
 8631SOL    HW226793   0.426   5.357   6.501
 8632SOL     OW26794   4.088   4.850   4.850
 8632SOL    HW126795   4.012   4.914   4.848
 8632SOL    HW226796   4.091   4.804   4.939
 8633SOL     OW26797   5.512   2.482   5.718
 8633SOL    HW126798   5.482   2.540   5.794
 8633SOL    HW226799   5.586   2.528   5.669
 8634SOL     OW26800   4.674   3.986   0.178
 8634SOL    HW126801   4.582   3.946   0.174
 8634SOL    HW226802   4.730   3.945   0.106
 8635SOL     OW26803   5.094   3.360   6.535
 8635SOL    HW126804   5.061   3.326   6.447
 8635SOL    HW226805   5.188   3.393   6.526
 8636SOL     OW26806   5.736   5.977   0.903
 8636SOL    HW126807   5.749   6.046   0.832
 8636SOL    HW226808   5.723   5.887   0.860
 8637SOL     OW26809   2.605   0.767   6.746
 8637SOL    HW126810   2.532   0.718   6.698
 8637SOL    HW226811   2.673   0.799   6.681
 8638SOL     OW26812   3.476   2.152   5.071
 8638SOL    HW126813   3.439   2.089   5.003
 8638SOL    HW226814   3.469   2.246   5.039
 8639SOL     OW26815   5.085   2.446   0.375
 8639SOL    HW126816   5.066   2.478   0.282
 8639SOL    HW226817   5.036   2.503   0.441
 8640SOL     OW26818   4.242   4.170   6.943
 8640SOL    HW126819   4.163   4.202   6.995
 8640SOL    HW226820   4.283   4.247   6.894
 8641SOL     OW26821   4.523   4.558   3.879
 8641SOL    HW126822   4.522   4.650   3.840
 8641SOL    HW226823   4.577   4.497   3.821
 8642SOL     OW26824   1.246   6.339   3.627
 8642SOL    HW126825   1.320   6.284   3.588
 8642SOL    HW226826   1.236   6.318   3.724
 8643SOL     OW26827   3.094   0.771   6.260
 8643SOL    HW126828   3.035   0.813   6.191
 8643SOL    HW226829   3.112   0.837   6.332
 8644SOL     OW26830   5.169   2.281   5.431
 8644SOL    HW126831   5.127   2.192   5.418
 8644SOL    HW226832   5.097   2.350   5.442
 8645SOL     OW26833   4.333   4.584   1.125
 8645SOL    HW126834   4.432   4.570   1.118
 8645SOL    HW226835   4.286   4.505   1.087
 8646SOL     OW26836   6.970   2.001   7.024
 8646SOL    HW126837   6.919   2.006   6.938
 8646SOL    HW226838   6.907   2.014   0.076
 8647SOL     OW26839   2.793   5.215   6.469
 8647SOL    HW126840   2.737   5.209   6.552
 8647SOL    HW226841   2.887   5.190   6.492
 8648SOL     OW26842   6.925   0.192   2.760
 8648SOL    HW126843   6.853   0.124   2.749
 8648SOL    HW226844   6.896   0.279   2.720
 8649SOL     OW26845   5.503   5.811   6.112
 8649SOL    HW126846   5.556   5.874   6.170
 8649SOL    HW226847   5.405   5.825   6.129
 8650SOL     OW26848   2.178   5.044   4.252
 8650SOL    HW126849   2.275   5.029   4.272
 8650SOL    HW226850   2.124   4.974   4.298
 8651SOL     OW26851   4.499   0.813   0.385
 8651SOL    HW126852   4.517   0.728   0.434
 8651SOL    HW226853   4.401   0.827   0.378
 8652SOL     OW26854   1.636   5.143   3.554
 8652SOL    HW126855   1.626   5.227   3.609
 8652SOL    HW226856   1.589   5.068   3.601
 8653SOL     OW26857   6.895   1.147   6.364
 8653SOL    HW126858   6.923   1.226   6.309
 8653SOL    HW226859   6.960   1.134   6.439
 8654SOL     OW26860   0.704   4.723   2.213
 8654SOL    HW126861   0.714   4.754   2.119
 8654SOL    HW226862   0.794   4.725   2.258
 8655SOL     OW26863   6.102   0.940   3.998
 8655SOL    HW126864   6.020   0.887   4.022
 8655SOL    HW226865   6.076   1.035   3.979
 8656SOL     OW26866   6.603   6.707   1.063
 8656SOL    HW126867   6.568   6.798   1.083
 8656SOL    HW226868   6.541   6.638   1.101
 8657SOL     OW26869   4.726   5.527   0.030
 8657SOL    HW126870   4.817   5.532   7.014
 8657SOL    HW226871   4.734   5.504   0.127
 8658SOL     OW26872   6.642   6.422   0.079
 8658SOL    HW126873   6.692   6.335   0.076
 8658SOL    HW226874   6.707   6.498   0.082
 8659SOL     OW26875   4.604   1.966   2.518
 8659SOL    HW126876   4.634   1.955   2.423
 8659SOL    HW226877   4.684   1.958   2.579
 8660SOL     OW26878   0.156   3.202   1.726
 8660SOL    HW126879   0.221   3.127   1.732
 8660SOL    HW226880   0.205   3.289   1.736
 8661SOL     OW26881   6.900   3.683   1.322
 8661SOL    HW126882   6.950   3.764   1.290
 8661SOL    HW226883   6.807   3.685   1.286
 8662SOL     OW26884   4.095   5.694   1.083
 8662SOL    HW126885   4.166   5.638   1.040
 8662SOL    HW226886   4.104   5.689   1.183
 8663SOL     OW26887   3.066   5.703   2.104
 8663SOL    HW126888   3.125   5.764   2.156
 8663SOL    HW226889   2.970   5.730   2.116
 8664SOL     OW26890   1.635   6.417   1.402
 8664SOL    HW126891   1.714   6.474   1.424
 8664SOL    HW226892   1.590   6.452   1.320
 8665SOL     OW26893   6.004   5.690   5.224
 8665SOL    HW126894   6.026   5.787   5.215
 8665SOL    HW226895   5.937   5.664   5.154
 8666SOL     OW26896   5.627   1.113   3.746
 8666SOL    HW126897   5.601   1.081   3.655
 8666SOL    HW226898   5.558   1.085   3.812
 8667SOL     OW26899   3.730   1.897   3.855
 8667SOL    HW126900   3.772   1.974   3.904
 8667SOL    HW226901   3.802   1.839   3.816
 8668SOL     OW26902   4.937   3.355   3.493
 8668SOL    HW126903   4.877   3.278   3.516
 8668SOL    HW226904   4.903   3.400   3.410
 8669SOL     OW26905   1.312   6.306   6.336
 8669SOL    HW126906   1.332   6.295   6.238
 8669SOL    HW226907   1.358   6.235   6.388
 8670SOL     OW26908   4.586   4.954   6.221
 8670SOL    HW126909   4.669   4.901   6.205
 8670SOL    HW226910   4.586   5.035   6.161
 8671SOL     OW26911   5.013   2.116   3.389
 8671SOL    HW126912   4.984   2.205   3.354
 8671SOL    HW226913   4.948   2.046   3.357
 8672SOL     OW26914   1.240   5.330   3.857
 8672SOL    HW126915   1.185   5.301   3.935
 8672SOL    HW226916   1.180   5.352   3.780
 8673SOL     OW26917   5.098   2.748   0.002
 8673SOL    HW126918   5.061   2.663   0.040
 8673SOL    HW226919   5.167   2.785   0.064
 8674SOL     OW26920   4.940   6.270   2.968
 8674SOL    HW126921   4.922   6.345   3.031
 8674SOL    HW226922   4.867   6.265   2.900
 8675SOL     OW26923   4.004   1.957   4.837
 8675SOL    HW126924   4.036   2.033   4.781
 8675SOL    HW226925   4.022   1.976   4.933
 8676SOL     OW26926   5.677   6.664   3.171
 8676SOL    HW126927   5.715   6.731   3.236
 8676SOL    HW226928   5.608   6.708   3.115
 8677SOL     OW26929   2.226   5.485   6.123
 8677SOL    HW126930   2.223   5.385   6.113
 8677SOL    HW226931   2.321   5.515   6.132
 8678SOL     OW26932   0.015   0.469   1.687
 8678SOL    HW126933   6.963   0.411   1.657
 8678SOL    HW226934   0.057   0.513   1.608
 8679SOL     OW26935   0.578   2.160   3.247
 8679SOL    HW126936   0.511   2.093   3.278
 8679SOL    HW226937   0.556   2.250   3.286
 8680SOL     OW26938   6.752   3.114   6.986
 8680SOL    HW126939   6.729   3.113   0.059
 8680SOL    HW226940   6.841   3.072   6.973
 8681SOL     OW26941   4.854   5.473   1.141
 8681SOL    HW126942   4.782   5.423   1.188
 8681SOL    HW226943   4.931   5.412   1.121
 8682SOL     OW26944   5.624   6.792   2.491
 8682SOL    HW126945   5.598   6.888   2.477
 8682SOL    HW226946   5.705   6.788   2.550
 8683SOL     OW26947   1.508   2.383   4.460
 8683SOL    HW126948   1.490   2.469   4.508
 8683SOL    HW226949   1.595   2.389   4.412
 8684SOL     OW26950   6.391   2.683   4.937
 8684SOL    HW126951   6.463   2.748   4.961
 8684SOL    HW226952   6.424   2.589   4.950
 8685SOL     OW26953   6.680   1.869   6.426
 8685SOL    HW126954   6.767   1.877   6.475
 8685SOL    HW226955   6.604   1.880   6.490
 8686SOL     OW26956   0.085   0.917   3.273
 8686SOL    HW126957   0.055   1.012   3.267
 8686SOL    HW226958   0.146   0.905   3.351
 8687SOL     OW26959   4.747   5.415   2.104
 8687SOL    HW126960   4.706   5.398   2.193
 8687SOL    HW226961   4.704   5.356   2.036
 8688SOL     OW26962   0.421   5.361   6.102
 8688SOL    HW126963   0.379   5.429   6.041
 8688SOL    HW226964   0.518   5.351   6.079
 8689SOL     OW26965   3.505   3.498   1.378
 8689SOL    HW126966   3.496   3.572   1.311
 8689SOL    HW226967   3.424   3.439   1.374
 8690SOL     OW26968   1.577   3.862   3.841
 8690SOL    HW126969   1.510   3.824   3.905
 8690SOL    HW226970   1.567   3.961   3.836
 8691SOL     OW26971   3.982   2.287   6.228
 8691SOL    HW126972   4.021   2.373   6.261
 8691SOL    HW226973   3.949   2.233   6.306
 8692SOL     OW26974   2.625   1.424   4.543
 8692SOL    HW126975   2.722   1.423   4.567
 8692SOL    HW226976   2.614   1.441   4.445
 8693SOL     OW26977   5.184   6.985   0.711
 8693SOL    HW126978   5.271   7.004   0.756
 8693SOL    HW226979   5.202   6.943   0.622
 8694SOL     OW26980   5.367   0.918   4.834
 8694SOL    HW126981   5.356   0.838   4.893
 8694SOL    HW226982   5.438   0.900   4.766
 8695SOL     OW26983   4.671   2.956   5.647
 8695SOL    HW126984   4.660   2.910   5.735
 8695SOL    HW226985   4.651   3.053   5.657
 8696SOL     OW26986   2.162   5.213   5.326
 8696SOL    HW126987   2.192   5.306   5.304
 8696SOL    HW226988   2.233   5.148   5.301
 8697SOL     OW26989   0.424   3.765   5.994
 8697SOL    HW126990   0.355   3.728   6.055
 8697SOL    HW226991   0.455   3.854   6.028
 8698SOL     OW26992   4.893   6.176   4.893
 8698SOL    HW126993   4.986   6.138   4.888
 8698SOL    HW226994   4.899   6.273   4.919
 8699SOL     OW26995   0.813   3.081   5.087
 8699SOL    HW126996   0.860   3.131   5.015
 8699SOL    HW226997   0.730   3.039   5.050
 8700SOL     OW26998   1.045   0.141   4.968
 8700SOL    HW126999   1.136   0.172   4.996
 8700SOL    HW227000   1.007   0.206   4.902
 8701SOL     OW27001   1.514   1.082   6.600
 8701SOL    HW127002   1.440   1.043   6.545
 8701SOL    HW227003   1.489   1.175   6.627
 8702SOL     OW27004   5.598   4.664   1.734
 8702SOL    HW127005   5.561   4.574   1.757
 8702SOL    HW227006   5.559   4.696   1.648
 8703SOL     OW27007   2.944   5.129   0.186
 8703SOL    HW127008   2.862   5.090   0.228
 8703SOL    HW227009   2.997   5.056   0.143
 8704SOL     OW27010   0.452   4.026   3.412
 8704SOL    HW127011   0.356   4.028   3.384
 8704SOL    HW227012   0.468   4.096   3.482
 8705SOL     OW27013   5.262   0.816   6.470
 8705SOL    HW127014   5.204   0.890   6.434
 8705SOL    HW227015   5.304   0.845   6.556
 8706SOL     OW27016   5.150   2.405   6.625
 8706SOL    HW127017   5.247   2.393   6.643
 8706SOL    HW227018   5.114   2.476   6.685
 8707SOL     OW27019   0.342   1.661   5.877
 8707SOL    HW127020   0.267   1.720   5.905
 8707SOL    HW227021   0.323   1.624   5.786
 8708SOL     OW27022   3.935   1.360   3.161
 8708SOL    HW127023   3.934   1.440   3.221
 8708SOL    HW227024   3.938   1.391   3.066
 8709SOL     OW27025   6.824   6.796   0.439
 8709SOL    HW127026   6.909   6.827   0.395
 8709SOL    HW227027   6.819   6.833   0.531
 8710SOL     OW27028   1.586   2.941   3.789
 8710SOL    HW127029   1.504   2.887   3.806
 8710SOL    HW227030   1.651   2.929   3.864
 8711SOL     OW27031   1.533   6.539   2.805
 8711SOL    HW127032   1.602   6.567   2.738
 8711SOL    HW227033   1.574   6.540   2.897
 8712SOL     OW27034   3.803   1.604   4.601
 8712SOL    HW127035   3.811   1.698   4.567
 8712SOL    HW227036   3.773   1.544   4.526
 8713SOL     OW27037   6.449   3.253   3.041
 8713SOL    HW127038   6.526   3.300   3.084
 8713SOL    HW227039   6.404   3.314   2.976
 8714SOL     OW27040   1.134   0.006   5.776
 8714SOL    HW127041   1.070   0.073   5.740
 8714SOL    HW227042   1.084   6.953   5.815
 8715SOL     OW27043   4.192   1.035   0.855
 8715SOL    HW127044   4.169   1.013   0.761
 8715SOL    HW227045   4.272   1.096   0.857
 8716SOL     OW27046   0.014   0.201   1.341
 8716SOL    HW127047   0.112   0.182   1.334
 8716SOL    HW227048   7.006   0.243   1.256
 8717SOL     OW27049   3.065   4.032   5.190
 8717SOL    HW127050   3.004   3.954   5.181
 8717SOL    HW227051   3.111   4.048   5.102
 8718SOL     OW27052   1.236   3.182   5.634
 8718SOL    HW127053   1.260   3.275   5.604
 8718SOL    HW227054   1.175   3.141   5.566
 8719SOL     OW27055   4.235   6.924   0.151
 8719SOL    HW127056   4.178   6.885   0.224
 8719SOL    HW227057   4.309   6.860   0.128
 8720SOL     OW27058   0.203   5.752   6.467
 8720SOL    HW127059   0.156   5.839   6.455
 8720SOL    HW227060   0.248   5.726   6.381
 8721SOL     OW27061   6.414   2.671   1.973
 8721SOL    HW127062   6.329   2.662   2.025
 8721SOL    HW227063   6.490   2.690   2.035
 8722SOL     OW27064   3.954   1.072   1.273
 8722SOL    HW127065   3.965   1.022   1.188
 8722SOL    HW227066   3.897   1.020   1.336
 8723SOL     OW27067   4.522   6.799   1.948
 8723SOL    HW127068   4.554   6.855   1.872
 8723SOL    HW227069   4.505   6.706   1.915
 8724SOL     OW27070   5.554   0.023   4.445
 8724SOL    HW127071   5.486   6.974   4.444
 8724SOL    HW227072   5.595   0.031   4.354
 8725SOL     OW27073   1.942   5.839   5.579
 8725SOL    HW127074   1.965   5.828   5.676
 8725SOL    HW227075   1.992   5.917   5.541
 8726SOL     OW27076   0.002   0.587   3.364
 8726SOL    HW127077   0.050   0.500   3.368
 8726SOL    HW227078   0.061   0.659   3.400
 8727SOL     OW27079   5.426   0.505   2.231
 8727SOL    HW127080   5.492   0.539   2.298
 8727SOL    HW227081   5.348   0.464   2.279
 8728SOL     OW27082   6.466   0.847   2.278
 8728SOL    HW127083   6.564   0.861   2.267
 8728SOL    HW227084   6.429   0.920   2.336
 8729SOL     OW27085   3.557   4.828   5.799
 8729SOL    HW127086   3.565   4.922   5.832
 8729SOL    HW227087   3.530   4.768   5.876
 8730SOL     OW27088   5.440   4.128   2.345
 8730SOL    HW127089   5.513   4.061   2.363
 8730SOL    HW227090   5.482   4.218   2.329
 8731SOL     OW27091   1.169   3.137   2.511
 8731SOL    HW127092   1.162   3.094   2.421
 8731SOL    HW227093   1.112   3.087   2.577
 8732SOL     OW27094   5.852   5.104   1.807
 8732SOL    HW127095   5.833   5.008   1.788
 8732SOL    HW227096   5.950   5.122   1.797
 8733SOL     OW27097   1.757   5.923   1.417
 8733SOL    HW127098   1.726   5.853   1.353
 8733SOL    HW227099   1.791   5.879   1.501
 8734SOL     OW27100   0.819   3.444   2.613
 8734SOL    HW127101   0.814   3.543   2.630
 8734SOL    HW227102   0.750   3.398   2.668
 8735SOL     OW27103   0.954   2.715   6.823
 8735SOL    HW127104   0.930   2.769   6.904
 8735SOL    HW227105   1.039   2.666   6.839
 8736SOL     OW27106   0.179   5.025   0.998
 8736SOL    HW127107   0.228   5.098   0.949
 8736SOL    HW227108   0.137   5.063   1.080
 8737SOL     OW27109   1.796   6.370   0.371
 8737SOL    HW127110   1.774   6.447   0.311
 8737SOL    HW227111   1.722   6.356   0.437
 8738SOL     OW27112   2.794   5.707   4.021
 8738SOL    HW127113   2.797   5.807   4.009
 8738SOL    HW227114   2.777   5.686   4.117
 8739SOL     OW27115   5.642   5.656   6.633
 8739SOL    HW127116   5.694   5.598   6.571
 8739SOL    HW227117   5.681   5.748   6.632
 8740SOL     OW27118   3.873   1.350   4.725
 8740SOL    HW127119   3.814   1.425   4.694
 8740SOL    HW227120   3.909   1.300   4.646
 8741SOL     OW27121   2.146   1.417   2.533
 8741SOL    HW127122   2.049   1.441   2.535
 8741SOL    HW227123   2.155   1.322   2.502
 8742SOL     OW27124   4.707   6.547   1.748
 8742SOL    HW127125   4.638   6.588   1.688
 8742SOL    HW227126   4.672   6.541   1.841
 8743SOL     OW27127   1.531   6.671   2.032
 8743SOL    HW127128   1.456   6.639   2.090
 8743SOL    HW227129   1.548   6.604   1.960
 8744SOL     OW27130   3.867   2.880   0.152
 8744SOL    HW127131   3.913   2.968   0.165
 8744SOL    HW227132   3.848   2.867   0.054
 8745SOL     OW27133   6.463   1.747   5.857
 8745SOL    HW127134   6.441   1.752   5.954
 8745SOL    HW227135   6.520   1.824   5.831
 8746SOL     OW27136   4.478   5.498   4.421
 8746SOL    HW127137   4.439   5.452   4.501
 8746SOL    HW227138   4.404   5.526   4.360
 8747SOL     OW27139   6.861   2.107   3.433
 8747SOL    HW127140   6.954   2.143   3.435
 8747SOL    HW227141   6.856   2.030   3.369
 8748SOL     OW27142   0.387   1.371   4.113
 8748SOL    HW127143   0.468   1.318   4.138
 8748SOL    HW227144   0.414   1.465   4.093
 8749SOL     OW27145   2.407   0.592   5.060
 8749SOL    HW127146   2.441   0.668   5.005
 8749SOL    HW227147   2.326   0.620   5.111
 8750SOL     OW27148   3.322   4.201   5.241
 8750SOL    HW127149   3.387   4.235   5.309
 8750SOL    HW227150   3.232   4.243   5.256
 8751SOL     OW27151   6.309   2.002   2.282
 8751SOL    HW127152   6.363   2.042   2.356
 8751SOL    HW227153   6.235   1.947   2.322
 8752SOL     OW27154   3.464   2.932   6.287
 8752SOL    HW127155   3.481   2.854   6.348
 8752SOL    HW227156   3.386   2.910   6.227
 8753SOL     OW27157   3.208   1.958   6.417
 8753SOL    HW127158   3.173   1.938   6.326
 8753SOL    HW227159   3.204   1.875   6.473
 8754SOL     OW27160   1.631   3.798   5.880
 8754SOL    HW127161   1.717   3.749   5.897
 8754SOL    HW227162   1.615   3.863   5.954
 8755SOL     OW27163   2.557   1.107   1.024
 8755SOL    HW127164   2.561   1.030   1.087
 8755SOL    HW227165   2.504   1.082   0.943
 8756SOL     OW27166   1.711   3.180   4.462
 8756SOL    HW127167   1.759   3.139   4.384
 8756SOL    HW227168   1.724   3.124   4.543
 8757SOL     OW27169   3.726   6.122   6.541
 8757SOL    HW127170   3.685   6.163   6.460
 8757SOL    HW227171   3.666   6.050   6.576
 8758SOL     OW27172   5.159   6.247   2.730
 8758SOL    HW127173   5.118   6.157   2.716
 8758SOL    HW227174   5.093   6.307   2.776
 8759SOL     OW27175   4.597   3.269   6.728
 8759SOL    HW127176   4.681   3.291   6.679
 8759SOL    HW227177   4.610   3.185   6.781
 8760SOL     OW27178   2.878   1.020   5.342
 8760SOL    HW127179   2.833   1.042   5.429
 8760SOL    HW227180   2.814   1.038   5.267
 8761SOL     OW27181   6.127   2.361   1.562
 8761SOL    HW127182   6.145   2.335   1.657
 8761SOL    HW227183   6.182   2.440   1.538
 8762SOL     OW27184   0.697   4.764   3.571
 8762SOL    HW127185   0.687   4.683   3.629
 8762SOL    HW227186   0.674   4.846   3.625
 8763SOL     OW27187   6.204   6.785   6.387
 8763SOL    HW127188   6.299   6.790   6.356
 8763SOL    HW227189   6.162   6.876   6.380
 8764SOL     OW27190   4.643   0.275   5.362
 8764SOL    HW127191   4.605   0.185   5.339
 8764SOL    HW227192   4.603   0.344   5.303
 8765SOL     OW27193   4.989   0.337   4.050
 8765SOL    HW127194   5.046   0.347   3.969
 8765SOL    HW227195   4.961   0.428   4.082
 8766SOL     OW27196   4.447   4.572   4.688
 8766SOL    HW127197   4.421   4.536   4.777
 8766SOL    HW227198   4.451   4.672   4.692
 8767SOL     OW27199   5.262   6.080   2.356
 8767SOL    HW127200   5.333   6.016   2.327
 8767SOL    HW227201   5.301   6.149   2.416
 8768SOL     OW27202   1.321   2.486   0.361
 8768SOL    HW127203   1.366   2.529   0.440
 8768SOL    HW227204   1.363   2.397   0.343
 8769SOL     OW27205   6.793   0.739   3.225
 8769SOL    HW127206   6.864   0.678   3.261
 8769SOL    HW227207   6.730   0.687   3.168
 8770SOL     OW27208   4.411   4.585   2.083
 8770SOL    HW127209   4.440   4.493   2.060
 8770SOL    HW227210   4.406   4.641   2.000
 8771SOL     OW27211   1.351   1.708   6.738
 8771SOL    HW127212   1.377   1.743   6.828
 8771SOL    HW227213   1.252   1.698   6.734
 8772SOL     OW27214   4.487   0.742   6.931
 8772SOL    HW127215   4.517   0.669   6.870
 8772SOL    HW227216   4.457   0.821   6.877
 8773SOL     OW27217   5.715   2.751   4.175
 8773SOL    HW127218   5.806   2.790   4.164
 8773SOL    HW227219   5.663   2.763   4.090
 8774SOL     OW27220   1.650   0.766   0.229
 8774SOL    HW127221   1.684   0.779   0.136
 8774SOL    HW227222   1.600   0.848   0.257
 8775SOL     OW27223   5.447   0.697   5.630
 8775SOL    HW127224   5.492   0.608   5.624
 8775SOL    HW227225   5.515   0.768   5.649
 8776SOL     OW27226   4.674   3.127   0.543
 8776SOL    HW127227   4.596   3.173   0.501
 8776SOL    HW227228   4.756   3.183   0.531
 8777SOL     OW27229   6.047   4.100   3.670
 8777SOL    HW127230   6.093   4.187   3.684
 8777SOL    HW227231   6.103   4.026   3.706
 8778SOL     OW27232   5.491   3.142   6.177
 8778SOL    HW127233   5.456   3.194   6.098
 8778SOL    HW227234   5.590   3.136   6.171
 8779SOL     OW27235   2.859   5.053   2.587
 8779SOL    HW127236   2.855   5.125   2.657
 8779SOL    HW227237   2.941   5.065   2.532
 8780SOL     OW27238   0.570   6.628   2.533
 8780SOL    HW127239   0.528   6.545   2.497
 8780SOL    HW227240   0.588   6.692   2.458
 8781SOL     OW27241   4.971   0.979   3.991
 8781SOL    HW127242   4.919   0.908   3.944
 8781SOL    HW227243   4.927   1.000   4.078
 8782SOL     OW27244   6.577   6.733   2.355
 8782SOL    HW127245   6.613   6.813   2.306
 8782SOL    HW227246   6.651   6.686   2.402
 8783SOL     OW27247   6.426   4.061   3.422
 8783SOL    HW127248   6.340   4.108   3.402
 8783SOL    HW227249   6.448   4.074   3.519
 8784SOL     OW27250   0.002   5.534   5.636
 8784SOL    HW127251   6.949   5.485   5.676
 8784SOL    HW227252   0.087   5.503   5.680
 8785SOL     OW27253   5.110   5.005   0.268
 8785SOL    HW127254   5.146   5.034   0.180
 8785SOL    HW227255   5.089   5.085   0.324
 8786SOL     OW27256   2.950   0.939   0.341
 8786SOL    HW127257   2.956   1.031   0.381
 8786SOL    HW227258   2.865   0.931   0.289
 8787SOL     OW27259   3.119   1.068   1.913
 8787SOL    HW127260   3.110   1.110   2.003
 8787SOL    HW227261   3.033   1.075   1.863
 8788SOL     OW27262   6.748   0.115   5.627
 8788SOL    HW127263   6.746   0.182   5.553
 8788SOL    HW227264   6.837   0.069   5.627
 8789SOL     OW27265   6.078   5.788   4.862
 8789SOL    HW127266   5.985   5.824   4.871
 8789SOL    HW227267   6.077   5.709   4.800
 8790SOL     OW27268   6.636   0.432   6.321
 8790SOL    HW127269   6.662   0.357   6.381
 8790SOL    HW227270   6.652   0.406   6.226
 8791SOL     OW27271   5.332   6.683   5.004
 8791SOL    HW127272   5.287   6.770   4.986
 8791SOL    HW227273   5.403   6.668   4.935
 8792SOL     OW27274   2.940   5.426   3.249
 8792SOL    HW127275   2.849   5.393   3.275
 8792SOL    HW227276   2.931   5.498   3.180
 8793SOL     OW27277   0.925   4.448   2.593
 8793SOL    HW127278   0.919   4.379   2.666
 8793SOL    HW227279   0.920   4.403   2.504
 8794SOL     OW27280   5.226   0.373   2.825
 8794SOL    HW127281   5.169   0.404   2.901
 8794SOL    HW227282   5.293   0.307   2.858
 8795SOL     OW27283   0.945   4.020   5.931
 8795SOL    HW127284   0.956   3.951   5.859
 8795SOL    HW227285   0.894   4.098   5.895
 8796SOL     OW27286   4.651   2.245   3.977
 8796SOL    HW127287   4.611   2.156   3.997
 8796SOL    HW227288   4.604   2.316   4.030
 8797SOL     OW27289   0.198   0.424   0.324
 8797SOL    HW127290   0.222   0.511   0.366
 8797SOL    HW227291   0.179   0.438   0.227
 8798SOL     OW27292   4.940   6.120   6.114
 8798SOL    HW127293   5.017   6.069   6.153
 8798SOL    HW227294   4.855   6.072   6.134
 8799SOL     OW27295   2.892   4.822   3.389
 8799SOL    HW127296   2.911   4.817   3.291
 8799SOL    HW227297   2.821   4.756   3.413
 8800SOL     OW27298   6.127   4.393   6.542
 8800SOL    HW127299   6.080   4.420   6.457
 8800SOL    HW227300   6.097   4.301   6.568
 8801SOL     OW27301   0.187   0.870   4.284
 8801SOL    HW127302   0.265   0.822   4.244
 8801SOL    HW227303   0.187   0.965   4.252
 8802SOL     OW27304   2.159   0.039   6.384
 8802SOL    HW127305   2.109   0.111   6.431
 8802SOL    HW227306   2.151   0.051   6.285
 8803SOL     OW27307   0.237   6.328   0.201
 8803SOL    HW127308   0.245   6.264   0.124
 8803SOL    HW227309   0.228   6.421   0.166
 8804SOL     OW27310   2.458   6.296   1.804
 8804SOL    HW127311   2.453   6.322   1.708
 8804SOL    HW227312   2.554   6.278   1.828
 8805SOL     OW27313   3.713   6.303   3.727
 8805SOL    HW127314   3.669   6.256   3.651
 8805SOL    HW227315   3.644   6.336   3.791
 8806SOL     OW27316   3.305   4.751   1.760
 8806SOL    HW127317   3.313   4.840   1.713
 8806SOL    HW227318   3.396   4.710   1.768
 8807SOL     OW27319   5.167   0.477   0.258
 8807SOL    HW127320   5.237   0.407   0.272
 8807SOL    HW227321   5.188   0.557   0.314
 8808SOL     OW27322   6.107   3.178   6.689
 8808SOL    HW127323   6.015   3.192   6.725
 8808SOL    HW227324   6.164   3.137   6.760
 8809SOL     OW27325   3.577   5.109   3.429
 8809SOL    HW127326   3.510   5.044   3.393
 8809SOL    HW227327   3.669   5.081   3.403
 8810SOL     OW27328   6.058   0.627   4.922
 8810SOL    HW127329   6.071   0.668   5.013
 8810SOL    HW227330   5.990   0.553   4.928
 8811SOL     OW27331   3.669   1.480   2.785
 8811SOL    HW127332   3.626   1.418   2.851
 8811SOL    HW227333   3.604   1.551   2.759
 8812SOL     OW27334   2.247   0.710   0.201
 8812SOL    HW127335   2.234   0.749   0.293
 8812SOL    HW227336   2.161   0.671   0.170
 8813SOL     OW27337   2.630   5.625   2.985
 8813SOL    HW127338   2.592   5.711   2.951
 8813SOL    HW227339   2.560   5.574   3.035
 8814SOL     OW27340   6.548   0.209   0.812
 8814SOL    HW127341   6.518   0.228   0.906
 8814SOL    HW227342   6.499   0.269   0.749
 8815SOL     OW27343   5.575   6.886   1.259
 8815SOL    HW127344   5.624   6.817   1.207
 8815SOL    HW227345   5.523   6.842   1.332
 8816SOL     OW27346   1.329   6.107   0.866
 8816SOL    HW127347   1.309   6.205   0.879
 8816SOL    HW227348   1.284   6.075   0.783
 8817SOL     OW27349   0.097   4.697   4.004
 8817SOL    HW127350   0.132   4.775   4.056
 8817SOL    HW227351   0.114   4.613   4.055
 8818SOL     OW27352   0.724   4.810   4.182
 8818SOL    HW127353   0.631   4.792   4.214
 8818SOL    HW227354   0.744   4.908   4.191
 8819SOL     OW27355   5.326   5.123   5.580
 8819SOL    HW127356   5.394   5.196   5.580
 8819SOL    HW227357   5.339   5.065   5.500
 8820SOL     OW27358   2.396   0.877   5.132
 8820SOL    HW127359   2.484   0.845   5.098
 8820SOL    HW227360   2.384   0.974   5.108
 8821SOL     OW27361   1.934   6.050   1.056
 8821SOL    HW127362   1.948   6.076   1.152
 8821SOL    HW227363   1.837   6.033   1.040
 8822SOL     OW27364   0.834   0.653   4.448
 8822SOL    HW127365   0.926   0.670   4.482
 8822SOL    HW227366   0.787   0.588   4.508
 8823SOL     OW27367   1.877   1.070   2.644
 8823SOL    HW127368   1.950   1.075   2.713
 8823SOL    HW227369   1.911   1.022   2.563
 8824SOL     OW27370   1.368   1.837   0.258
 8824SOL    HW127371   1.449   1.895   0.250
 8824SOL    HW227372   1.361   1.801   0.350
 8825SOL     OW27373   1.749   0.860   1.733
 8825SOL    HW127374   1.797   0.929   1.788
 8825SOL    HW227375   1.659   0.895   1.707
 8826SOL     OW27376   1.049   3.741   0.372
 8826SOL    HW127377   0.979   3.799   0.412
 8826SOL    HW227378   1.096   3.790   0.298
 8827SOL     OW27379   4.203   0.796   3.346
 8827SOL    HW127380   4.233   0.817   3.439
 8827SOL    HW227381   4.111   0.756   3.349
 8828SOL     OW27382   4.056   5.663   6.386
 8828SOL    HW127383   4.133   5.656   6.449
 8828SOL    HW227384   4.026   5.571   6.360
 8829SOL     OW27385   5.059   2.390   1.711
 8829SOL    HW127386   5.098   2.297   1.710
 8829SOL    HW227387   4.974   2.389   1.762
 8830SOL     OW27388   1.571   2.025   2.554
 8830SOL    HW127389   1.572   2.124   2.542
 8830SOL    HW227390   1.476   1.993   2.554
 8831SOL     OW27391   4.859   2.479   3.275
 8831SOL    HW127392   4.888   2.510   3.366
 8831SOL    HW227393   4.938   2.473   3.214
 8832SOL     OW27394   6.967   6.513   3.029
 8832SOL    HW127395   7.009   6.590   2.983
 8832SOL    HW227396   6.980   6.521   3.128
 8833SOL     OW27397   2.745   5.439   6.616
 8833SOL    HW127398   2.770   5.343   6.605
 8833SOL    HW227399   2.732   5.480   6.526
 8834SOL     OW27400   5.956   3.965   4.807
 8834SOL    HW127401   5.888   3.892   4.802
 8834SOL    HW227402   5.998   3.965   4.898
 8835SOL     OW27403   4.827   0.721   5.635
 8835SOL    HW127404   4.903   0.718   5.570
 8835SOL    HW227405   4.754   0.660   5.603
 8836SOL     OW27406   4.834   2.121   0.317
 8836SOL    HW127407   4.860   2.144   0.410
 8836SOL    HW227408   4.735   2.103   0.314
 8837SOL     OW27409   0.334   6.870   2.324
 8837SOL    HW127410   0.314   6.957   2.278
 8837SOL    HW227411   0.365   6.889   2.418
 8838SOL     OW27412   2.136   4.793   3.565
 8838SOL    HW127413   2.167   4.699   3.580
 8838SOL    HW227414   2.066   4.794   3.494
 8839SOL     OW27415   4.857   5.829   1.498
 8839SOL    HW127416   4.826   5.912   1.546
 8839SOL    HW227417   4.799   5.814   1.417
 8840SOL     OW27418   0.268   1.393   2.981
 8840SOL    HW127419   0.168   1.394   2.976
 8840SOL    HW227420   0.303   1.308   2.944
 8841SOL     OW27421   0.564   0.769   4.585
 8841SOL    HW127422   0.644   0.717   4.615
 8841SOL    HW227423   0.578   0.801   4.492
 8842SOL     OW27424   3.251   3.143   3.073
 8842SOL    HW127425   3.169   3.185   3.035
 8842SOL    HW227426   3.304   3.211   3.122
 8843SOL     OW27427   1.699   3.583   5.366
 8843SOL    HW127428   1.764   3.541   5.302
 8843SOL    HW227429   1.736   3.575   5.459
 8844SOL     OW27430   0.539   1.465   5.458
 8844SOL    HW127431   0.450   1.422   5.472
 8844SOL    HW227432   0.571   1.446   5.365
 8845SOL     OW27433   3.095   3.672   1.089
 8845SOL    HW127434   3.060   3.758   1.125
 8845SOL    HW227435   3.060   3.658   0.996
 8846SOL     OW27436   3.921   4.827   4.331
 8846SOL    HW127437   3.902   4.756   4.263
 8846SOL    HW227438   3.835   4.868   4.361
 8847SOL     OW27439   2.415   1.400   2.807
 8847SOL    HW127440   2.318   1.418   2.822
 8847SOL    HW227441   2.428   1.305   2.778
 8848SOL     OW27442   2.510   1.867   2.371
 8848SOL    HW127443   2.417   1.882   2.404
 8848SOL    HW227444   2.512   1.788   2.310
 8849SOL     OW27445   3.449   5.780   3.682
 8849SOL    HW127446   3.449   5.749   3.777
 8849SOL    HW227447   3.457   5.880   3.679
 8850SOL     OW27448   1.907   1.208   6.709
 8850SOL    HW127449   1.890   1.229   6.613
 8850SOL    HW227450   1.845   1.261   6.767
 8851SOL     OW27451   0.629   5.234   2.114
 8851SOL    HW127452   0.696   5.162   2.093
 8851SOL    HW227453   0.546   5.193   2.152
 8852SOL     OW27454   4.996   3.729   5.826
 8852SOL    HW127455   5.023   3.825   5.826
 8852SOL    HW227456   4.920   3.716   5.762
 8853SOL     OW27457   2.726   0.985   6.576
 8853SOL    HW127458   2.629   0.966   6.559
 8853SOL    HW227459   2.763   1.039   6.501
 8854SOL     OW27460   3.335   1.795   6.058
 8854SOL    HW127461   3.261   1.739   6.020
 8854SOL    HW227462   3.329   1.888   6.022
 8855SOL     OW27463   0.643   5.788   0.631
 8855SOL    HW127464   0.628   5.749   0.722
 8855SOL    HW227465   0.578   5.747   0.566
 8856SOL     OW27466   0.099   0.363   6.516
 8856SOL    HW127467   0.083   0.461   6.505
 8856SOL    HW227468   0.026   0.312   6.470
 8857SOL     OW27469   7.009   1.171   4.003
 8857SOL    HW127470   6.923   1.131   3.973
 8857SOL    HW227471   7.013   1.169   4.103
 8858SOL     OW27472   1.183   2.488   5.447
 8858SOL    HW127473   1.141   2.449   5.365
 8858SOL    HW227474   1.282   2.493   5.435
 8859SOL     OW27475   6.609   0.418   3.962
 8859SOL    HW127476   6.623   0.349   3.891
 8859SOL    HW227477   6.642   0.383   4.050
 8860SOL     OW27478   0.611   3.152   2.435
 8860SOL    HW127479   0.696   3.203   2.420
 8860SOL    HW227480   0.555   3.200   2.502
 8861SOL     OW27481   4.196   1.761   6.076
 8861SOL    HW127482   4.129   1.694   6.044
 8861SOL    HW227483   4.215   1.745   6.173
 8862SOL     OW27484   5.797   1.059   3.356
 8862SOL    HW127485   5.882   1.027   3.315
 8862SOL    HW227486   5.789   1.021   3.448
 8863SOL     OW27487   1.654   4.995   4.316
 8863SOL    HW127488   1.746   4.980   4.280
 8863SOL    HW227489   1.648   5.086   4.355
 8864SOL     OW27490   3.355   3.721   5.811
 8864SOL    HW127491   3.337   3.819   5.801
 8864SOL    HW227492   3.450   3.702   5.784
 8865SOL     OW27493   3.180   1.175   5.915
 8865SOL    HW127494   3.191   1.200   6.011
 8865SOL    HW227495   3.082   1.167   5.894
 8866SOL     OW27496   5.175   0.199   3.103
 8866SOL    HW127497   5.148   0.291   3.133
 8866SOL    HW227498   5.266   0.203   3.060
 8867SOL     OW27499   5.710   3.423   2.196
 8867SOL    HW127500   5.626   3.369   2.193
 8867SOL    HW227501   5.688   3.520   2.183
 8868SOL     OW27502   6.642   2.617   0.712
 8868SOL    HW127503   6.573   2.677   0.752
 8868SOL    HW227504   6.666   2.545   0.778
 8869SOL     OW27505   4.504   6.092   4.481
 8869SOL    HW127506   4.572   6.057   4.546
 8869SOL    HW227507   4.437   6.148   4.530
 8870SOL     OW27508   3.784   0.527   6.687
 8870SOL    HW127509   3.835   0.560   6.608
 8870SOL    HW227510   3.700   0.580   6.698
 8871SOL     OW27511   1.868   0.860   3.862
 8871SOL    HW127512   1.800   0.921   3.902
 8871SOL    HW227513   1.959   0.898   3.878
 8872SOL     OW27514   1.529   4.354   4.717
 8872SOL    HW127515   1.456   4.337   4.652
 8872SOL    HW227516   1.494   4.407   4.794
 8873SOL     OW27517   1.064   5.920   1.793
 8873SOL    HW127518   1.009   5.838   1.807
 8873SOL    HW227519   1.017   5.981   1.729
 8874SOL     OW27520   2.417   5.492   2.283
 8874SOL    HW127521   2.376   5.579   2.256
 8874SOL    HW227522   2.354   5.417   2.260
 8875SOL     OW27523   6.822   3.280   5.188
 8875SOL    HW127524   6.884   3.212   5.150
 8875SOL    HW227525   6.778   3.331   5.113
 8876SOL     OW27526   1.924   0.101   4.693
 8876SOL    HW127527   1.934   0.036   4.768
 8876SOL    HW227528   1.957   0.191   4.722
 8877SOL     OW27529   2.902   0.930   3.862
 8877SOL    HW127530   2.828   0.894   3.918
 8877SOL    HW227531   2.924   0.865   3.789
 8878SOL     OW27532   6.601   5.177   0.112
 8878SOL    HW127533   6.544   5.135   0.042
 8878SOL    HW227534   6.575   5.140   0.202
 8879SOL     OW27535   4.959   4.295   1.793
 8879SOL    HW127536   4.885   4.230   1.811
 8879SOL    HW227537   5.031   4.249   1.740
 8880SOL     OW27538   5.163   6.053   4.749
 8880SOL    HW127539   5.189   5.957   4.743
 8880SOL    HW227540   5.073   6.066   4.707
 8881SOL     OW27541   6.191   6.821   3.644
 8881SOL    HW127542   6.121   6.765   3.600
 8881SOL    HW227543   6.282   6.783   3.626
 8882SOL     OW27544   5.352   1.643   1.189
 8882SOL    HW127545   5.358   1.716   1.257
 8882SOL    HW227546   5.415   1.661   1.113
 8883SOL     OW27547   1.776   6.125   6.164
 8883SOL    HW127548   1.728   6.211   6.181
 8883SOL    HW227549   1.723   6.049   6.201
 8884SOL     OW27550   6.285   4.025   6.301
 8884SOL    HW127551   6.201   3.978   6.272
 8884SOL    HW227552   6.269   4.123   6.301
 8885SOL     OW27553   0.098   3.628   1.032
 8885SOL    HW127554   0.086   3.569   1.112
 8885SOL    HW227555   0.047   3.591   0.955
 8886SOL     OW27556   3.227   6.646   4.871
 8886SOL    HW127557   3.252   6.557   4.910
 8886SOL    HW227558   3.132   6.666   4.894
 8887SOL     OW27559   3.191   1.482   1.261
 8887SOL    HW127560   3.109   1.506   1.210
 8887SOL    HW227561   3.241   1.565   1.287
 8888SOL     OW27562   1.897   1.749   6.404
 8888SOL    HW127563   1.889   1.837   6.356
 8888SOL    HW227564   1.942   1.763   6.492
 8889SOL     OW27565   6.771   0.242   6.134
 8889SOL    HW127566   6.860   0.238   6.088
 8889SOL    HW227567   6.736   0.150   6.147
 8890SOL     OW27568   6.602   5.873   3.820
 8890SOL    HW127569   6.658   5.940   3.772
 8890SOL    HW227570   6.656   5.832   3.895
 8891SOL     OW27571   4.990   3.808   6.421
 8891SOL    HW127572   5.088   3.794   6.408
 8891SOL    HW227573   4.953   3.733   6.477
 8892SOL     OW27574   3.792   5.727   3.509
 8892SOL    HW127575   3.834   5.637   3.506
 8892SOL    HW227576   3.703   5.724   3.462
 8893SOL     OW27577   0.725   5.703   3.378
 8893SOL    HW127578   0.684   5.746   3.299
 8893SOL    HW227579   0.787   5.630   3.348
 8894SOL     OW27580   4.290   2.909   6.605
 8894SOL    HW127581   4.209   2.916   6.663
 8894SOL    HW227582   4.264   2.871   6.516
 8895SOL     OW27583   6.415   2.543   2.403
 8895SOL    HW127584   6.343   2.612   2.405
 8895SOL    HW227585   6.374   2.452   2.395
 8896SOL     OW27586   2.302   3.426   5.644
 8896SOL    HW127587   2.328   3.513   5.604
 8896SOL    HW227588   2.215   3.436   5.694
 8897SOL     OW27589   1.834   2.567   3.204
 8897SOL    HW127590   1.915   2.619   3.233
 8897SOL    HW227591   1.758   2.590   3.264
 8898SOL     OW27592   5.082   3.405   3.014
 8898SOL    HW127593   5.037   3.478   2.962
 8898SOL    HW227594   5.070   3.318   2.967
 8899SOL     OW27595   1.910   5.706   0.747
 8899SOL    HW127596   1.872   5.728   0.837
 8899SOL    HW227597   1.908   5.788   0.690
 8900SOL     OW27598   6.169   3.342   2.694
 8900SOL    HW127599   6.199   3.315   2.603
 8900SOL    HW227600   6.078   3.304   2.712
 8901SOL     OW27601   1.961   0.919   4.534
 8901SOL    HW127602   1.992   0.824   4.523
 8901SOL    HW227603   2.033   0.972   4.578
 8902SOL     OW27604   1.945   0.296   0.252
 8902SOL    HW127605   1.941   0.307   0.153
 8902SOL    HW227606   1.852   0.297   0.289
 8903SOL     OW27607   1.122   1.513   5.225
 8903SOL    HW127608   1.217   1.485   5.208
 8903SOL    HW227609   1.112   1.538   5.322
 8904SOL     OW27610   5.971   6.353   4.021
 8904SOL    HW127611   6.041   6.283   4.033
 8904SOL    HW227612   5.983   6.425   4.090
 8905SOL     OW27613   1.201   4.362   4.184
 8905SOL    HW127614   1.172   4.427   4.255
 8905SOL    HW227615   1.285   4.395   4.142
 8906SOL     OW27616   0.543   6.131   0.195
 8906SOL    HW127617   0.545   6.221   0.240
 8906SOL    HW227618   0.623   6.124   0.135
 8907SOL     OW27619   2.652   2.377   5.064
 8907SOL    HW127620   2.672   2.462   5.112
 8907SOL    HW227621   2.568   2.337   5.101
 8908SOL     OW27622   1.225   3.807   6.391
 8908SOL    HW127623   1.184   3.896   6.413
 8908SOL    HW227624   1.254   3.806   6.296
 8909SOL     OW27625   2.840   0.711   5.823
 8909SOL    HW127626   2.842   0.626   5.770
 8909SOL    HW227627   2.752   0.719   5.870
 8910SOL     OW27628   0.262   2.533   6.072
 8910SOL    HW127629   0.244   2.624   6.035
 8910SOL    HW227630   0.283   2.471   5.997
 8911SOL     OW27631   3.784   1.860   4.494
 8911SOL    HW127632   3.733   1.843   4.409
 8911SOL    HW227633   3.730   1.918   4.554
 8912SOL     OW27634   3.256   3.287   0.386
 8912SOL    HW127635   3.216   3.283   0.477
 8912SOL    HW227636   3.193   3.331   0.323
 8913SOL     OW27637   5.103   5.166   5.751
 8913SOL    HW127638   5.179   5.149   5.688
 8913SOL    HW227639   5.057   5.251   5.725
 8914SOL     OW27640   4.534   0.304   4.902
 8914SOL    HW127641   4.607   0.362   4.865
 8914SOL    HW227642   4.456   0.307   4.840
 8915SOL     OW27643   0.714   2.898   3.891
 8915SOL    HW127644   0.634   2.932   3.843
 8915SOL    HW227645   0.686   2.851   3.975
 8916SOL     OW27646   0.296   3.916   0.816
 8916SOL    HW127647   0.331   4.007   0.837
 8916SOL    HW227648   0.305   3.857   0.896
 8917SOL     OW27649   6.871   3.630   0.385
 8917SOL    HW127650   6.925   3.666   0.460
 8917SOL    HW227651   6.931   3.583   0.320
 8918SOL     OW27652   6.434   4.025   1.150
 8918SOL    HW127653   6.372   4.025   1.072
 8918SOL    HW227654   6.382   4.007   1.234
 8919SOL     OW27655   3.925   4.698   0.442
 8919SOL    HW127656   3.959   4.738   0.527
 8919SOL    HW227657   3.995   4.706   0.371
 8920SOL     OW27658   0.428   0.359   6.821
 8920SOL    HW127659   0.524   0.337   6.801
 8920SOL    HW227660   0.368   0.301   6.766
 8921SOL     OW27661   1.999   2.326   2.726
 8921SOL    HW127662   2.000   2.415   2.773
 8921SOL    HW227663   2.081   2.275   2.751
 8922SOL     OW27664   3.831   5.237   1.433
 8922SOL    HW127665   3.843   5.278   1.343
 8922SOL    HW227666   3.757   5.169   1.430
 8923SOL     OW27667   1.833   3.331   6.407
 8923SOL    HW127668   1.745   3.286   6.421
 8923SOL    HW227669   1.882   3.286   6.332
 8924SOL     OW27670   4.041   5.129   5.510
 8924SOL    HW127671   3.971   5.199   5.493
 8924SOL    HW227672   4.130   5.173   5.515
 8925SOL     OW27673   0.768   1.441   2.745
 8925SOL    HW127674   0.785   1.516   2.682
 8925SOL    HW227675   0.698   1.380   2.706
 8926SOL     OW27676   6.473   3.504   5.824
 8926SOL    HW127677   6.409   3.440   5.866
 8926SOL    HW227678   6.470   3.592   5.873
 8927SOL     OW27679   0.586   1.352   4.569
 8927SOL    HW127680   0.523   1.281   4.539
 8927SOL    HW227681   0.652   1.313   4.634
 8928SOL     OW27682   0.299   0.230   6.320
 8928SOL    HW127683   0.397   0.217   6.338
 8928SOL    HW227684   0.254   0.260   6.404
 8929SOL     OW27685   6.278   2.949   4.313
 8929SOL    HW127686   6.248   2.855   4.333
 8929SOL    HW227687   6.204   3.013   4.333
 8930SOL     OW27688   1.618   3.632   4.159
 8930SOL    HW127689   1.678   3.704   4.123
 8930SOL    HW227690   1.525   3.667   4.168
 8931SOL     OW27691   2.803   3.086   0.687
 8931SOL    HW127692   2.776   3.149   0.759
 8931SOL    HW227693   2.722   3.040   0.651
 8932SOL     OW27694   5.893   0.648   0.957
 8932SOL    HW127695   5.808   0.660   0.906
 8932SOL    HW227696   5.883   0.687   1.049
 8933SOL     OW27697   1.627   3.115   5.926
 8933SOL    HW127698   1.715   3.145   5.887
 8933SOL    HW227699   1.559   3.186   5.911
 8934SOL     OW27700   3.671   5.194   4.452
 8934SOL    HW127701   3.591   5.200   4.511
 8934SOL    HW227702   3.750   5.163   4.506
 8935SOL     OW27703   6.356   4.486   0.812
 8935SOL    HW127704   6.400   4.488   0.902
 8935SOL    HW227705   6.422   4.454   0.744
 8936SOL     OW27706   1.136   3.186   2.160
 8936SOL    HW127707   1.177   3.273   2.133
 8936SOL    HW227708   1.207   3.124   2.193
 8937SOL     OW27709   0.012   6.699   4.512
 8937SOL    HW127710   0.008   6.694   4.612
 8937SOL    HW227711   0.103   6.730   4.485
 8938SOL     OW27712   0.404   0.763   0.349
 8938SOL    HW127713   0.381   0.858   0.325
 8938SOL    HW227714   0.422   0.711   0.266
 8939SOL     OW27715   5.662   4.894   4.650
 8939SOL    HW127716   5.749   4.908   4.605
 8939SOL    HW227717   5.674   4.835   4.730
 8940SOL     OW27718   5.822   1.501   1.982
 8940SOL    HW127719   5.909   1.504   1.932
 8940SOL    HW227720   5.837   1.463   2.074
 8941SOL     OW27721   6.043   2.506   4.565
 8941SOL    HW127722   5.968   2.440   4.572
 8941SOL    HW227723   6.008   2.598   4.579
 8942SOL     OW27724   6.387   5.686   5.724
 8942SOL    HW127725   6.321   5.710   5.654
 8942SOL    HW227726   6.439   5.768   5.751
 8943SOL     OW27727   3.847   5.695   0.690
 8943SOL    HW127728   3.835   5.674   0.788
 8943SOL    HW227729   3.804   5.623   0.636
 8944SOL     OW27730   5.262   6.022   4.366
 8944SOL    HW127731   5.178   5.993   4.411
 8944SOL    HW227732   5.288   5.954   4.297
 8945SOL     OW27733   0.707   1.540   3.920
 8945SOL    HW127734   0.704   1.441   3.909
 8945SOL    HW227735   0.790   1.565   3.971
 8946SOL     OW27736   3.100   0.863   3.402
 8946SOL    HW127737   3.061   0.841   3.491
 8946SOL    HW227738   3.197   0.883   3.412
 8947SOL     OW27739   2.462   3.496   5.885
 8947SOL    HW127740   2.485   3.593   5.876
 8947SOL    HW227741   2.486   3.449   5.801
 8948SOL     OW27742   6.009   5.752   3.523
 8948SOL    HW127743   5.986   5.765   3.619
 8948SOL    HW227744   6.075   5.822   3.494
 8949SOL     OW27745   3.971   6.381   0.942
 8949SOL    HW127746   3.922   6.435   1.010
 8949SOL    HW227747   4.067   6.374   0.969
 8950SOL     OW27748   3.774   3.718   0.436
 8950SOL    HW127749   3.856   3.711   0.494
 8950SOL    HW227750   3.797   3.767   0.352
 8951SOL     OW27751   2.142   1.136   4.600
 8951SOL    HW127752   2.221   1.185   4.637
 8951SOL    HW227753   2.088   1.199   4.543
 8952SOL     OW27754   1.020   5.182   3.463
 8952SOL    HW127755   0.948   5.197   3.531
 8952SOL    HW227756   1.054   5.271   3.431
 8953SOL     OW27757   1.358   4.362   0.529
 8953SOL    HW127758   1.334   4.426   0.456
 8953SOL    HW227759   1.457   4.357   0.538
 8954SOL     OW27760   6.773   6.970   4.480
 8954SOL    HW127761   6.856   6.968   4.425
 8954SOL    HW227762   6.712   6.897   4.450
 8955SOL     OW27763   6.841   4.750   3.071
 8955SOL    HW127764   6.864   4.813   3.145
 8955SOL    HW227765   6.873   4.658   3.095
 8956SOL     OW27766   1.858   1.767   5.830
 8956SOL    HW127767   1.900   1.698   5.890
 8956SOL    HW227768   1.923   1.841   5.813
 8957SOL     OW27769   1.855   4.785   1.535
 8957SOL    HW127770   1.921   4.850   1.572
 8957SOL    HW227771   1.766   4.830   1.525
 8958SOL     OW27772   0.424   2.346   5.018
 8958SOL    HW127773   0.375   2.427   5.049
 8958SOL    HW227774   0.396   2.267   5.074
 8959SOL     OW27775   1.657   4.446   2.188
 8959SOL    HW127776   1.605   4.361   2.201
 8959SOL    HW227777   1.656   4.499   2.272
 8960SOL     OW27778   4.618   5.539   3.522
 8960SOL    HW127779   4.628   5.511   3.617
 8960SOL    HW227780   4.659   5.469   3.462
 8961SOL     OW27781   3.162   1.362   3.484
 8961SOL    HW127782   3.217   1.444   3.468
 8961SOL    HW227783   3.174   1.332   3.578
 8962SOL     OW27784   6.090   5.576   2.228
 8962SOL    HW127785   6.105   5.601   2.132
 8962SOL    HW227786   6.014   5.630   2.265
 8963SOL     OW27787   3.541   0.353   4.965
 8963SOL    HW127788   3.467   0.410   5.001
 8963SOL    HW227789   3.550   0.368   4.867
 8964SOL     OW27790   5.823   3.034   3.280
 8964SOL    HW127791   5.893   3.063   3.214
 8964SOL    HW227792   5.739   3.011   3.232
 8965SOL     OW27793   2.368   5.545   0.249
 8965SOL    HW127794   2.390   5.641   0.238
 8965SOL    HW227795   2.362   5.523   0.346
 8966SOL     OW27796   6.771   3.816   6.993
 8966SOL    HW127797   6.784   3.763   6.909
 8966SOL    HW227798   6.725   3.902   6.970
 8967SOL     OW27799   3.771   0.588   1.724
 8967SOL    HW127800   3.675   0.567   1.707
 8967SOL    HW227801   3.815   0.616   1.639
 8968SOL     OW27802   4.552   5.767   2.544
 8968SOL    HW127803   4.498   5.736   2.622
 8968SOL    HW227804   4.497   5.827   2.487
 8969SOL     OW27805   6.635   0.022   3.556
 8969SOL    HW127806   6.595   0.021   3.464
 8969SOL    HW227807   6.610   6.962   3.603
 8970SOL     OW27808   2.477   3.339   6.735
 8970SOL    HW127809   2.434   3.422   6.698
 8970SOL    HW227810   2.573   3.358   6.756
 8971SOL     OW27811   5.990   4.954   1.476
 8971SOL    HW127812   5.970   4.936   1.573
 8971SOL    HW227813   5.910   4.996   1.433
 8972SOL     OW27814   4.249   3.806   0.336
 8972SOL    HW127815   4.344   3.775   0.336
 8972SOL    HW227816   4.213   3.802   0.243
 8973SOL     OW27817   0.186   3.719   3.382
 8973SOL    HW127818   0.132   3.803   3.393
 8973SOL    HW227819   0.125   3.641   3.369
 8974SOL     OW27820   1.392   3.207   3.990
 8974SOL    HW127821   1.487   3.234   4.005
 8974SOL    HW227822   1.339   3.225   4.072
 8975SOL     OW27823   1.006   6.183   0.366
 8975SOL    HW127824   0.940   6.234   0.311
 8975SOL    HW227825   1.098   6.218   0.350
 8976SOL     OW27826   0.472   5.269   0.424
 8976SOL    HW127827   0.440   5.337   0.358
 8976SOL    HW227828   0.566   5.289   0.450
 8977SOL     OW27829   6.679   3.201   6.741
 8977SOL    HW127830   6.697   3.167   6.833
 8977SOL    HW227831   6.600   3.263   6.743
 8978SOL     OW27832   5.092   7.021   4.429
 8978SOL    HW127833   5.121   0.034   4.340
 8978SOL    HW227834   5.089   0.071   4.496
 8979SOL     OW27835   0.708   4.677   5.506
 8979SOL    HW127836   0.676   4.644   5.417
 8979SOL    HW227837   0.794   4.631   5.531
 8980SOL     OW27838   4.608   2.755   5.038
 8980SOL    HW127839   4.691   2.804   5.062
 8980SOL    HW227840   4.535   2.780   5.102
 8981SOL     OW27841   4.297   1.879   4.789
 8981SOL    HW127842   4.236   1.825   4.847
 8981SOL    HW227843   4.243   1.947   4.738
 8982SOL     OW27844   1.867   1.448   1.816
 8982SOL    HW127845   1.937   1.377   1.812
 8982SOL    HW227846   1.909   1.537   1.799
 8983SOL     OW27847   0.885   5.556   0.665
 8983SOL    HW127848   0.957   5.613   0.705
 8983SOL    HW227849   0.832   5.610   0.600
 8984SOL     OW27850   6.098   6.326   3.767
 8984SOL    HW127851   6.032   6.355   3.837
 8984SOL    HW227852   6.049   6.306   3.682
 8985SOL     OW27853   2.158   1.349   0.757
 8985SOL    HW127854   2.082   1.387   0.809
 8985SOL    HW227855   2.236   1.411   0.760
 8986SOL     OW27856   4.246   5.023   1.990
 8986SOL    HW127857   4.333   4.986   1.960
 8986SOL    HW227858   4.256   5.062   2.082
 8987SOL     OW27859   3.967   0.161   0.802
 8987SOL    HW127860   3.869   0.143   0.815
 8987SOL    HW227861   3.979   0.247   0.752
 8988SOL     OW27862   1.979   4.360   0.545
 8988SOL    HW127863   2.008   4.428   0.477
 8988SOL    HW227864   1.938   4.282   0.498
 8989SOL     OW27865   4.856   4.054   1.954
 8989SOL    HW127866   4.917   4.028   2.029
 8989SOL    HW227867   4.771   4.092   1.992
 8990SOL     OW27868   2.362   6.035   2.698
 8990SOL    HW127869   2.427   6.029   2.622
 8990SOL    HW227870   2.283   6.089   2.669
 8991SOL     OW27871   1.634   1.628   6.671
 8991SOL    HW127872   1.596   1.632   6.763
 8991SOL    HW227873   1.732   1.648   6.674
 8992SOL     OW27874   6.549   2.467   6.513
 8992SOL    HW127875   6.590   2.499   6.598
 8992SOL    HW227876   6.556   2.367   6.508
 8993SOL     OW27877   5.214   2.930   2.803
 8993SOL    HW127878   5.172   3.009   2.847
 8993SOL    HW227879   5.144   2.860   2.787
 8994SOL     OW27880   0.767   5.059   4.795
 8994SOL    HW127881   0.669   5.059   4.815
 8994SOL    HW227882   0.798   4.964   4.786
 8995SOL     OW27883   1.192   2.573   6.787
 8995SOL    HW127884   1.156   2.535   6.701
 8995SOL    HW227885   1.291   2.555   6.792
 8996SOL     OW27886   6.731   5.254   1.774
 8996SOL    HW127887   6.760   5.342   1.814
 8996SOL    HW227888   6.664   5.211   1.834
 8997SOL     OW27889   3.915   1.751   6.465
 8997SOL    HW127890   3.976   1.671   6.464
 8997SOL    HW227891   3.930   1.805   6.383
 8998SOL     OW27892   0.178   3.380   5.374
 8998SOL    HW127893   0.166   3.356   5.471
 8998SOL    HW227894   0.227   3.307   5.328
 8999SOL     OW27895   5.266   0.116   0.404
 8999SOL    HW127896   5.185   0.118   0.462
 8999SOL    HW227897   5.249   0.058   0.324
 9000SOL     OW27898   2.485   4.494   6.815
 9000SOL    HW127899   2.539   4.563   6.865
 9000SOL    HW227900   2.442   4.537   6.736
 9001SOL     OW27901   0.815   5.373   2.725
 9001SOL    HW127902   0.790   5.449   2.666
 9001SOL    HW227903   0.811   5.401   2.820
 9002SOL     OW27904   6.752   5.003   4.894
 9002SOL    HW127905   6.801   4.937   4.952
 9002SOL    HW227906   6.683   4.955   4.841
 9003SOL     OW27907   5.111   2.660   1.028
 9003SOL    HW127908   5.196   2.712   1.024
 9003SOL    HW227909   5.093   2.616   0.940
 9004SOL     OW27910   4.910   6.652   1.993
 9004SOL    HW127911   4.878   6.746   2.005
 9004SOL    HW227912   4.902   6.603   2.080
 9005SOL     OW27913   5.144   2.033   5.151
 9005SOL    HW127914   5.208   2.016   5.226
 9005SOL    HW227915   5.051   2.039   5.189
 9006SOL     OW27916   2.253   6.142   0.534
 9006SOL    HW127917   2.161   6.166   0.505
 9006SOL    HW227918   2.315   6.147   0.455
 9007SOL     OW27919   3.539   6.773   3.914
 9007SOL    HW127920   3.531   6.800   4.010
 9007SOL    HW227921   3.485   6.690   3.899
 9008SOL     OW27922   6.844   5.131   2.986
 9008SOL    HW127923   6.767   5.067   2.995
 9008SOL    HW227924   6.811   5.224   3.001
 9009SOL     OW27925   2.581   0.254   0.182
 9009SOL    HW127926   2.527   0.174   0.157
 9009SOL    HW227927   2.521   0.331   0.201
 9010SOL     OW27928   0.982   6.897   4.912
 9010SOL    HW127929   1.029   6.847   4.984
 9010SOL    HW227930   1.007   6.994   4.917
 9011SOL     OW27931   4.109   2.187   1.559
 9011SOL    HW127932   4.051   2.119   1.514
 9011SOL    HW227933   4.055   2.236   1.627
 9012SOL     OW27934   3.529   4.421   1.154
 9012SOL    HW127935   3.628   4.408   1.153
 9012SOL    HW227936   3.509   4.519   1.148
 9013SOL     OW27937   0.258   6.272   4.024
 9013SOL    HW127938   0.327   6.211   3.985
 9013SOL    HW227939   0.263   6.361   3.978
 9014SOL     OW27940   0.788   0.669   0.083
 9014SOL    HW127941   0.878   0.712   0.091
 9014SOL    HW227942   0.759   0.636   0.173
 9015SOL     OW27943   6.064   1.727   1.145
 9015SOL    HW127944   5.998   1.653   1.131
 9015SOL    HW227945   6.018   1.806   1.185
 9016SOL     OW27946   0.696   6.375   6.701
 9016SOL    HW127947   0.717   6.444   6.632
 9016SOL    HW227948   0.771   6.309   6.706
 9017SOL     OW27949   4.493   2.420   2.010
 9017SOL    HW127950   4.561   2.493   2.001
 9017SOL    HW227951   4.477   2.401   2.107
 9018SOL     OW27952   4.597   1.636   5.708
 9018SOL    HW127953   4.622   1.539   5.710
 9018SOL    HW227954   4.680   1.692   5.707
 9019SOL     OW27955   0.592   0.569   0.975
 9019SOL    HW127956   0.625   0.600   0.886
 9019SOL    HW227957   0.511   0.622   1.002
 9020SOL     OW27958   1.474   3.563   1.686
 9020SOL    HW127959   1.422   3.635   1.640
 9020SOL    HW227960   1.509   3.499   1.617
 9021SOL     OW27961   6.978   7.012   4.011
 9021SOL    HW127962   7.021   0.073   3.981
 9021SOL    HW227963   0.004   6.934   3.973
 9022SOL     OW27964   2.806   1.075   0.889
 9022SOL    HW127965   2.872   1.003   0.911
 9022SOL    HW227966   2.729   1.071   0.952
 9023SOL     OW27967   3.286   3.056   2.356
 9023SOL    HW127968   3.259   3.127   2.290
 9023SOL    HW227969   3.381   3.071   2.383
 9024SOL     OW27970   0.400   5.213   5.271
 9024SOL    HW127971   0.415   5.312   5.278
 9024SOL    HW227972   0.382   5.189   5.175
 9025SOL     OW27973   0.233   5.760   0.354
 9025SOL    HW127974   0.161   5.766   0.284
 9025SOL    HW227975   0.267   5.851   0.375
 9026SOL     OW27976   3.766   3.508   1.843
 9026SOL    HW127977   3.793   3.558   1.925
 9026SOL    HW227978   3.824   3.536   1.766
 9027SOL     OW27979   1.069   1.944   3.841
 9027SOL    HW127980   1.148   1.948   3.901
 9027SOL    HW227981   1.048   2.036   3.807
 9028SOL     OW27982   2.567   3.804   6.663
 9028SOL    HW127983   2.527   3.894   6.647
 9028SOL    HW227984   2.636   3.786   6.593
 9029SOL     OW27985   3.434   5.289   5.075
 9029SOL    HW127986   3.439   5.245   4.985
 9029SOL    HW227987   3.436   5.219   5.147
 9030SOL     OW27988   1.843   1.315   3.352
 9030SOL    HW127989   1.851   1.323   3.452
 9030SOL    HW227990   1.914   1.253   3.318
 9031SOL     OW27991   4.927   6.190   4.342
 9031SOL    HW127992   4.834   6.225   4.357
 9031SOL    HW227993   4.926   6.125   4.266
 9032SOL     OW27994   3.044   2.836   1.116
 9032SOL    HW127995   3.022   2.856   1.212
 9032SOL    HW227996   2.975   2.773   1.079
 9033SOL     OW27997   1.856   4.938   3.908
 9033SOL    HW127998   1.861   4.838   3.910
 9033SOL    HW227999   1.762   4.967   3.927
 9034SOL     OW28000   2.721   0.376   5.129
 9034SOL    HW128001   2.736   0.432   5.047
 9034SOL    HW228002   2.806   0.330   5.153
 9035SOL     OW28003   1.109   5.103   6.032
 9035SOL    HW128004   1.056   5.069   5.955
 9035SOL    HW228005   1.050   5.107   6.113
 9036SOL     OW28006   1.594   1.104   5.650
 9036SOL    HW128007   1.582   1.199   5.623
 9036SOL    HW228008   1.585   1.096   5.750
 9037SOL     OW28009   1.400   3.666   5.873
 9037SOL    HW128010   1.492   3.703   5.871
 9037SOL    HW228011   1.383   3.621   5.961
 9038SOL     OW28012   4.796   6.985   5.879
 9038SOL    HW128013   4.850   0.030   5.926
 9038SOL    HW228014   4.797   7.004   5.780
 9039SOL     OW28015   2.517   4.503   4.282
 9039SOL    HW128016   2.484   4.459   4.366
 9039SOL    HW228017   2.440   4.512   4.218
 9040SOL     OW28018   2.479   2.184   2.608
 9040SOL    HW128019   2.431   2.190   2.521
 9040SOL    HW228020   2.568   2.141   2.594
 9041SOL     OW28021   0.811   2.264   1.931
 9041SOL    HW128022   0.839   2.354   1.897
 9041SOL    HW228023   0.795   2.269   2.030
 9042SOL     OW28024   2.753   6.649   3.843
 9042SOL    HW128025   2.725   6.574   3.902
 9042SOL    HW228026   2.840   6.626   3.799
 9043SOL     OW28027   2.947   1.572   6.305
 9043SOL    HW128028   2.904   1.651   6.350
 9043SOL    HW228029   2.932   1.578   6.206
 9044SOL     OW28030   5.634   1.915   1.717
 9044SOL    HW128031   5.613   2.011   1.696
 9044SOL    HW228032   5.551   1.870   1.749
 9045SOL     OW28033   3.040   1.798   2.409
 9045SOL    HW128034   3.112   1.790   2.340
 9045SOL    HW228035   2.992   1.885   2.398
 9046SOL     OW28036   3.797   3.751   4.745
 9046SOL    HW128037   3.809   3.655   4.717
 9046SOL    HW228038   3.880   3.802   4.725
 9047SOL     OW28039   1.110   3.014   5.451
 9047SOL    HW128040   1.148   2.922   5.440
 9047SOL    HW228041   1.039   3.029   5.382
 9048SOL     OW28042   6.365   2.641   6.184
 9048SOL    HW128043   6.267   2.640   6.167
 9048SOL    HW228044   6.409   2.705   6.120
 9049SOL     OW28045   3.908   0.161   6.272
 9049SOL    HW128046   3.974   0.236   6.269
 9049SOL    HW228047   3.818   0.198   6.295
 9050SOL     OW28048   0.360   4.342   5.785
 9050SOL    HW128049   0.331   4.278   5.856
 9050SOL    HW228050   0.422   4.409   5.824
 9051SOL     OW28051   4.132   5.950   0.980
 9051SOL    HW128052   4.113   5.863   1.024
 9051SOL    HW228053   4.123   5.940   0.881
 9052SOL     OW28054   1.618   2.302   3.105
 9052SOL    HW128055   1.623   2.323   3.202
 9052SOL    HW228056   1.528   2.327   3.070
 9053SOL     OW28057   1.360   1.552   2.958
 9053SOL    HW128058   1.348   1.593   2.867
 9053SOL    HW228059   1.370   1.625   3.025
 9054SOL     OW28060   1.438   7.009   2.216
 9054SOL    HW128061   1.352   0.035   2.209
 9054SOL    HW228062   1.476   6.996   2.124
 9055SOL     OW28063   6.508   3.155   3.867
 9055SOL    HW128064   6.599   3.196   3.879
 9055SOL    HW228065   6.479   3.112   3.952
 9056SOL     OW28066   6.528   0.634   1.471
 9056SOL    HW128067   6.506   0.666   1.379
 9056SOL    HW228068   6.494   0.541   1.483
 9057SOL     OW28069   5.858   5.042   5.852
 9057SOL    HW128070   5.952   5.055   5.820
 9057SOL    HW228071   5.811   4.978   5.791
 9058SOL     OW28072   1.910   1.558   3.638
 9058SOL    HW128073   1.932   1.600   3.550
 9058SOL    HW228074   1.839   1.489   3.627
 9059SOL     OW28075   1.342   1.420   5.101
 9059SOL    HW128076   1.384   1.472   5.027
 9059SOL    HW228077   1.308   1.333   5.066
 9060SOL     OW28078   6.878   2.978   2.408
 9060SOL    HW128079   6.917   3.038   2.478
 9060SOL    HW228080   6.943   2.969   2.332
 9061SOL     OW28081   3.189   6.134   2.315
 9061SOL    HW128082   3.145   6.217   2.281
 9061SOL    HW228083   3.247   6.157   2.394
 9062SOL     OW28084   1.723   5.550   2.084
 9062SOL    HW128085   1.713   5.545   2.183
 9062SOL    HW228086   1.636   5.575   2.043
 9063SOL     OW28087   2.305   6.656   2.664
 9063SOL    HW128088   2.225   6.654   2.604
 9063SOL    HW228089   2.340   6.750   2.669
 9064SOL     OW28090   6.236   3.796   5.647
 9064SOL    HW128091   6.160   3.835   5.595
 9064SOL    HW228092   6.232   3.696   5.641
 9065SOL     OW28093   3.033   6.257   6.252
 9065SOL    HW128094   3.132   6.270   6.251
 9065SOL    HW228095   3.010   6.173   6.203
 9066SOL     OW28096   5.703   0.075   0.314
 9066SOL    HW128097   5.653   0.066   0.227
 9066SOL    HW228098   5.750   7.013   0.334
 9067SOL     OW28099   6.403   0.046   4.018
 9067SOL    HW128100   6.418   0.138   3.982
 9067SOL    HW228101   6.473   7.008   3.981
 9068SOL     OW28102   2.935   0.225   5.716
 9068SOL    HW128103   2.957   0.174   5.800
 9068SOL    HW228104   2.956   0.321   5.730
 9069SOL     OW28105   2.722   2.403   1.749
 9069SOL    HW128106   2.640   2.353   1.777
 9069SOL    HW228107   2.801   2.369   1.801
 9070SOL     OW28108   0.953   3.207   5.877
 9070SOL    HW128109   0.996   3.206   5.966
 9070SOL    HW228110   0.970   3.296   5.833
 9071SOL     OW28111   5.646   0.225   0.753
 9071SOL    HW128112   5.723   0.161   0.750
 9071SOL    HW228113   5.583   0.206   0.678
 9072SOL     OW28114   6.309   1.156   2.306
 9072SOL    HW128115   6.261   1.183   2.222
 9072SOL    HW228116   6.261   1.191   2.385
 9073SOL     OW28117   3.379   6.491   0.483
 9073SOL    HW128118   3.359   6.588   0.498
 9073SOL    HW228119   3.359   6.466   0.388
 9074SOL     OW28120   2.444   1.117   2.119
 9074SOL    HW128121   2.406   1.181   2.053
 9074SOL    HW228122   2.370   1.067   2.164
 9075SOL     OW28123   1.386   1.432   2.404
 9075SOL    HW128124   1.447   1.398   2.476
 9075SOL    HW228125   1.376   1.363   2.333
 9076SOL     OW28126   5.959   1.670   5.182
 9076SOL    HW128127   6.042   1.700   5.133
 9076SOL    HW228128   5.986   1.615   5.261
 9077SOL     OW28129   5.258   6.684   6.755
 9077SOL    HW128130   5.197   6.663   6.831
 9077SOL    HW228131   5.348   6.645   6.772
 9078SOL     OW28132   4.304   3.661   6.633
 9078SOL    HW128133   4.244   3.677   6.555
 9078SOL    HW228134   4.266   3.589   6.691
 9079SOL     OW28135   2.498   6.612   4.076
 9079SOL    HW128136   2.451   6.686   4.027
 9079SOL    HW228137   2.526   6.542   4.010
 9080SOL     OW28138   5.527   1.943   0.247
 9080SOL    HW128139   5.433   1.912   0.261
 9080SOL    HW228140   5.528   2.043   0.238
 9081SOL     OW28141   4.140   6.559   2.643
 9081SOL    HW128142   4.093   6.602   2.566
 9081SOL    HW228143   4.167   6.467   2.618
 9082SOL     OW28144   2.797   6.606   5.186
 9082SOL    HW128145   2.724   6.639   5.127
 9082SOL    HW228146   2.879   6.662   5.172
 9083SOL     OW28147   3.738   4.583   5.882
 9083SOL    HW128148   3.768   4.499   5.836
 9083SOL    HW228149   3.817   4.635   5.912
 9084SOL     OW28150   3.118   3.756   5.659
 9084SOL    HW128151   3.179   3.718   5.729
 9084SOL    HW228152   3.053   3.686   5.629
 9085SOL     OW28153   2.012   4.571   1.189
 9085SOL    HW128154   1.938   4.557   1.124
 9085SOL    HW228155   2.077   4.638   1.153
 9086SOL     OW28156   0.782   4.226   0.452
 9086SOL    HW128157   0.713   4.268   0.393
 9086SOL    HW228158   0.870   4.271   0.437
 9087SOL     OW28159   4.401   2.373   2.293
 9087SOL    HW128160   4.450   2.322   2.363
 9087SOL    HW228161   4.327   2.317   2.256
 9088SOL     OW28162   5.248   6.245   0.611
 9088SOL    HW128163   5.340   6.221   0.642
 9088SOL    HW228164   5.217   6.179   0.542
 9089SOL     OW28165   4.927   6.428   4.974
 9089SOL    HW128166   4.865   6.502   5.000
 9089SOL    HW228167   5.020   6.450   5.003
 9090SOL     OW28168   7.010   6.682   3.277
 9090SOL    HW128169   6.947   6.741   3.327
 9090SOL    HW228170   0.036   6.736   3.209
 9091SOL     OW28171   3.336   3.930   0.904
 9091SOL    HW128172   3.379   3.844   0.878
 9091SOL    HW228173   3.247   3.938   0.859
 9092SOL     OW28174   0.250   1.893   1.003
 9092SOL    HW128175   0.195   1.821   1.045
 9092SOL    HW228176   0.189   1.963   0.964
 9093SOL     OW28177   1.065   6.543   6.194
 9093SOL    HW128178   1.120   6.472   6.150
 9093SOL    HW228179   1.050   6.518   6.290
 9094SOL     OW28180   6.180   5.351   2.776
 9094SOL    HW128181   6.080   5.345   2.771
 9094SOL    HW228182   6.220   5.270   2.733
 9095SOL     OW28183   4.321   3.877   6.086
 9095SOL    HW128184   4.238   3.918   6.048
 9095SOL    HW228185   4.346   3.797   6.032
 9096SOL     OW28186   5.770   3.787   1.536
 9096SOL    HW128187   5.724   3.714   1.487
 9096SOL    HW228188   5.859   3.755   1.569
 9097SOL     OW28189   0.783   1.782   6.733
 9097SOL    HW128190   0.739   1.694   6.715
 9097SOL    HW228191   0.758   1.812   6.826
 9098SOL     OW28192   3.799   2.188   6.054
 9098SOL    HW128193   3.864   2.218   6.123
 9098SOL    HW228194   3.845   2.126   5.990
 9099SOL     OW28195   2.928   2.687   5.819
 9099SOL    HW128196   2.908   2.609   5.759
 9099SOL    HW228197   2.875   2.766   5.789
 9100SOL     OW28198   0.538   3.790   3.957
 9100SOL    HW128199   0.603   3.866   3.967
 9100SOL    HW228200   0.537   3.759   3.862
 9101SOL     OW28201   2.103   2.149   3.017
 9101SOL    HW128202   2.155   2.189   2.943
 9101SOL    HW228203   2.030   2.211   3.045
 9102SOL     OW28204   3.095   0.119   1.630
 9102SOL    HW128205   3.107   0.039   1.689
 9102SOL    HW228206   3.185   0.152   1.602
 9103SOL     OW28207   6.431   3.384   6.738
 9103SOL    HW128208   6.426   3.475   6.696
 9103SOL    HW228209   6.344   3.363   6.781
 9104SOL     OW28210   0.298   6.597   1.791
 9104SOL    HW128211   0.395   6.620   1.789
 9104SOL    HW228212   0.286   6.499   1.777
 9105SOL     OW28213   1.588   1.559   6.951
 9105SOL    HW128214   1.509   1.600   6.997
 9105SOL    HW228215   1.671   1.608   6.978
 9106SOL     OW28216   0.100   2.734   0.482
 9106SOL    HW128217   0.048   2.679   0.547
 9106SOL    HW228218   0.166   2.791   0.531
 9107SOL     OW28219   3.418   0.960   5.540
 9107SOL    HW128220   3.471   1.042   5.520
 9107SOL    HW228221   3.329   0.966   5.495
 9108SOL     OW28222   4.832   4.226   5.691
 9108SOL    HW128223   4.837   4.150   5.626
 9108SOL    HW228224   4.862   4.310   5.647
 9109SOL     OW28225   6.911   2.399   3.366
 9109SOL    HW128226   6.870   2.476   3.415
 9109SOL    HW228227   6.843   2.359   3.304
 9110SOL     OW28228   1.871   4.657   3.969
 9110SOL    HW128229   1.964   4.645   3.935
 9110SOL    HW228230   1.807   4.609   3.908
 9111SOL     OW28231   4.578   1.987   0.773
 9111SOL    HW128232   4.581   1.904   0.717
 9111SOL    HW228233   4.613   1.968   0.864
 9112SOL     OW28234   0.660   5.369   3.406
 9112SOL    HW128235   0.632   5.338   3.497
 9112SOL    HW228236   0.580   5.376   3.347
 9113SOL     OW28237   4.709   1.449   2.563
 9113SOL    HW128238   4.611   1.471   2.568
 9113SOL    HW228239   4.721   1.360   2.519
 9114SOL     OW28240   0.938   4.656   2.310
 9114SOL    HW128241   0.988   4.569   2.308
 9114SOL    HW228242   0.924   4.684   2.404
 9115SOL     OW28243   0.327   6.123   4.371
 9115SOL    HW128244   0.242   6.155   4.328
 9115SOL    HW228245   0.337   6.025   4.355
 9116SOL     OW28246   6.751   1.262   1.612
 9116SOL    HW128247   6.825   1.217   1.661
 9116SOL    HW228248   6.697   1.317   1.676
 9117SOL     OW28249   5.212   2.232   0.494
 9117SOL    HW128250   5.310   2.252   0.489
 9117SOL    HW228251   5.160   2.304   0.448
 9118SOL     OW28252   6.658   3.566   0.062
 9118SOL    HW128253   6.700   3.494   0.008
 9118SOL    HW228254   6.698   3.654   0.038
 9119SOL     OW28255   4.578   0.449   2.556
 9119SOL    HW128256   4.600   0.359   2.593
 9119SOL    HW228257   4.509   0.440   2.484
 9120SOL     OW28258   6.296   2.053   6.102
 9120SOL    HW128259   6.255   2.097   6.022
 9120SOL    HW228260   6.319   2.122   6.170
 9121SOL     OW28261   4.280   0.943   5.078
 9121SOL    HW128262   4.229   1.019   5.117
 9121SOL    HW228263   4.217   0.878   5.037
 9122SOL     OW28264   2.440   4.411   2.330
 9122SOL    HW128265   2.513   4.477   2.313
 9122SOL    HW228266   2.408   4.421   2.424
 9123SOL     OW28267   2.356   0.572   3.170
 9123SOL    HW128268   2.290   0.554   3.243
 9123SOL    HW228269   2.448   0.577   3.209
 9124SOL     OW28270   5.669   6.518   0.325
 9124SOL    HW128271   5.624   6.430   0.332
 9124SOL    HW228272   5.755   6.516   0.377
 9125SOL     OW28273   4.975   4.498   0.283
 9125SOL    HW128274   5.044   4.432   0.311
 9125SOL    HW228275   4.981   4.514   0.185
 9126SOL     OW28276   6.188   3.591   1.292
 9126SOL    HW128277   6.254   3.567   1.363
 9126SOL    HW228278   6.097   3.561   1.321
 9127SOL     OW28279   6.872   1.576   6.324
 9127SOL    HW128280   6.802   1.600   6.256
 9127SOL    HW228281   6.906   1.484   6.306
 9128SOL     OW28282   5.997   2.460   5.519
 9128SOL    HW128283   5.914   2.496   5.561
 9128SOL    HW228284   6.045   2.534   5.471
 9129SOL     OW28285   0.250   2.411   0.375
 9129SOL    HW128286   0.206   2.421   0.464
 9129SOL    HW228287   0.277   2.315   0.362
 9130SOL     OW28288   0.581   3.316   6.175
 9130SOL    HW128289   0.643   3.255   6.223
 9130SOL    HW228290   0.604   3.411   6.196
 9131SOL     OW28291   5.799   2.987   5.613
 9131SOL    HW128292   5.885   3.033   5.592
 9131SOL    HW228293   5.793   2.971   5.712
 9132SOL     OW28294   0.025   5.803   4.288
 9132SOL    HW128295   7.000   5.726   4.328
 9132SOL    HW228296   7.001   5.833   4.205
 9133SOL     OW28297   3.895   6.614   1.677
 9133SOL    HW128298   3.838   6.687   1.640
 9133SOL    HW228299   3.985   6.618   1.633
 9134SOL     OW28300   3.641   5.861   1.227
 9134SOL    HW128301   3.626   5.955   1.259
 9134SOL    HW228302   3.561   5.831   1.174
 9135SOL     OW28303   6.353   6.900   1.355
 9135SOL    HW128304   6.324   6.806   1.368
 9135SOL    HW228305   6.275   6.962   1.370
 9136SOL     OW28306   5.065   6.134   0.079
 9136SOL    HW128307   4.977   6.120   0.125
 9136SOL    HW228308   5.132   6.167   0.145
 9137SOL     OW28309   4.976   1.442   0.830
 9137SOL    HW128310   4.996   1.474   0.738
 9137SOL    HW228311   5.039   1.486   0.895
 9138SOL     OW28312   0.151   5.765   6.735
 9138SOL    HW128313   0.164   5.736   6.641
 9138SOL    HW228314   0.058   5.740   6.765
 9139SOL     OW28315   2.057   2.188   3.310
 9139SOL    HW128316   2.121   2.158   3.240
 9139SOL    HW228317   1.963   2.176   3.278
 9140SOL     OW28318   6.979   3.187   2.563
 9140SOL    HW128319   6.973   3.282   2.534
 9140SOL    HW228320   6.952   3.180   2.659
 9141SOL     OW28321   5.449   0.088   1.351
 9141SOL    HW128322   5.401   0.043   1.425
 9141SOL    HW228323   5.532   0.037   1.328
 9142SOL     OW28324   0.697   2.813   0.960
 9142SOL    HW128325   0.762   2.793   0.887
 9142SOL    HW228326   0.746   2.834   1.044
 9143SOL     OW28327   6.356   2.969   0.610
 9143SOL    HW128328   6.421   2.932   0.544
 9143SOL    HW228329   6.317   3.054   0.576
 9144SOL     OW28330   2.640   5.035   4.795
 9144SOL    HW128331   2.708   5.101   4.826
 9144SOL    HW228332   2.657   5.012   4.700
 9145SOL     OW28333   0.390   5.405   0.180
 9145SOL    HW128334   0.464   5.460   0.142
 9145SOL    HW228335   0.407   5.308   0.158
 9146SOL     OW28336   5.393   3.033   3.591
 9146SOL    HW128337   5.327   3.001   3.524
 9146SOL    HW228338   5.480   3.052   3.546
 9147SOL     OW28339   5.809   6.609   5.040
 9147SOL    HW128340   5.824   6.604   5.139
 9147SOL    HW228341   5.796   6.704   5.013
 9148SOL     OW28342   4.856   6.319   2.157
 9148SOL    HW128343   4.864   6.404   2.210
 9148SOL    HW228344   4.829   6.245   2.218
 9149SOL     OW28345   5.297   4.047   2.600
 9149SOL    HW128346   5.387   4.020   2.566
 9149SOL    HW228347   5.227   3.988   2.560
 9150SOL     OW28348   2.982   5.387   1.243
 9150SOL    HW128349   2.907   5.401   1.178
 9150SOL    HW228350   3.049   5.459   1.232
 9151SOL     OW28351   1.409   4.490   3.847
 9151SOL    HW128352   1.414   4.400   3.804
 9151SOL    HW228353   1.314   4.519   3.854
 9152SOL     OW28354   2.055   4.071   4.381
 9152SOL    HW128355   2.086   3.978   4.404
 9152SOL    HW228356   2.026   4.118   4.464
 9153SOL     OW28357   0.466   3.041   0.352
 9153SOL    HW128358   0.502   3.104   0.284
 9153SOL    HW228359   0.371   3.064   0.373
 9154SOL     OW28360   5.546   4.658   5.720
 9154SOL    HW128361   5.532   4.570   5.677
 9154SOL    HW228362   5.630   4.700   5.685
 9155SOL     OW28363   1.762   4.160   2.836
 9155SOL    HW128364   1.707   4.087   2.877
 9155SOL    HW228365   1.849   4.122   2.805
 9156SOL     OW28366   0.511   1.935   1.133
 9156SOL    HW128367   0.441   1.928   1.062
 9156SOL    HW228368   0.481   1.999   1.203
 9157SOL     OW28369   2.644   4.252   6.779
 9157SOL    HW128370   2.737   4.287   6.788
 9157SOL    HW228371   2.579   4.325   6.798
 9158SOL     OW28372   6.532   3.525   4.312
 9158SOL    HW128373   6.611   3.510   4.371
 9158SOL    HW228374   6.449   3.529   4.368
 9159SOL     OW28375   1.647   0.752   2.575
 9159SOL    HW128376   1.627   0.847   2.601
 9159SOL    HW228377   1.675   0.701   2.656
 9160SOL     OW28378   0.193   6.704   6.200
 9160SOL    HW128379   0.286   6.696   6.164
 9160SOL    HW228380   0.196   6.731   6.296
 9161SOL     OW28381   5.153   5.019   3.681
 9161SOL    HW128382   5.219   5.023   3.607
 9161SOL    HW228383   5.106   4.931   3.679
 9162SOL     OW28384   4.111   0.593   3.606
 9162SOL    HW128385   4.174   0.671   3.614
 9162SOL    HW228386   4.075   0.570   3.697
 9163SOL     OW28387   6.856   2.183   4.522
 9163SOL    HW128388   6.954   2.168   4.526
 9163SOL    HW228389   6.836   2.262   4.464
 9164SOL     OW28390   1.491   0.805   6.791
 9164SOL    HW128391   1.541   0.887   6.819
 9164SOL    HW228392   1.550   0.725   6.798
 9165SOL     OW28393   5.701   1.553   6.014
 9165SOL    HW128394   5.796   1.523   6.023
 9165SOL    HW228395   5.680   1.619   6.086
 9166SOL     OW28396   4.128   6.437   1.377
 9166SOL    HW128397   4.039   6.403   1.347
 9166SOL    HW228398   4.122   6.466   1.473
 9167SOL     OW28399   2.086   2.341   5.748
 9167SOL    HW128400   2.077   2.441   5.743
 9167SOL    HW228401   2.078   2.312   5.844
 9168SOL     OW28402   6.515   6.083   6.483
 9168SOL    HW128403   6.457   6.002   6.497
 9168SOL    HW228404   6.499   6.119   6.391
 9169SOL     OW28405   7.002   6.568   6.733
 9169SOL    HW128406   7.008   6.469   6.742
 9169SOL    HW228407   7.010   6.610   6.823
 9170SOL     OW28408   1.809   0.061   6.487
 9170SOL    HW128409   1.799   0.151   6.528
 9170SOL    HW228410   1.843   7.020   6.555
 9171SOL     OW28411   3.161   6.165   0.498
 9171SOL    HW128412   3.211   6.090   0.541
 9171SOL    HW228413   3.101   6.208   0.565
 9172SOL     OW28414   5.016   1.249   3.926
 9172SOL    HW128415   5.016   1.155   3.959
 9172SOL    HW228416   5.024   1.249   3.826
 9173SOL     OW28417   5.867   4.483   5.659
 9173SOL    HW128418   5.934   4.419   5.620
 9173SOL    HW228419   5.910   4.537   5.732
 9174SOL     OW28420   0.002   5.326   0.286
 9174SOL    HW128421   0.057   5.266   0.227
 9174SOL    HW228422   7.005   5.410   0.236
 9175SOL     OW28423   1.352   6.419   6.755
 9175SOL    HW128424   1.319   6.485   6.687
 9175SOL    HW228425   1.451   6.412   6.750
 9176SOL     OW28426   2.836   0.742   2.023
 9176SOL    HW128427   2.930   0.775   2.014
 9176SOL    HW228428   2.773   0.808   1.982
 9177SOL     OW28429   0.742   3.770   4.243
 9177SOL    HW128430   0.665   3.738   4.299
 9177SOL    HW228431   0.760   3.704   4.170
 9178SOL     OW28432   2.150   4.986   6.881
 9178SOL    HW128433   2.232   5.040   6.902
 9178SOL    HW228434   2.113   5.014   6.793
 9179SOL     OW28435   1.897   5.335   4.037
 9179SOL    HW128436   1.885   5.346   3.939
 9179SOL    HW228437   1.958   5.257   4.055
 9180SOL     OW28438   6.195   2.482   3.419
 9180SOL    HW128439   6.281   2.433   3.404
 9180SOL    HW228440   6.207   2.578   3.392
 9181SOL     OW28441   5.937   2.467   4.885
 9181SOL    HW128442   5.996   2.548   4.885
 9181SOL    HW228443   5.981   2.394   4.936
 9182SOL     OW28444   2.767   6.680   2.945
 9182SOL    HW128445   2.761   6.598   3.002
 9182SOL    HW228446   2.862   6.698   2.921
 9183SOL     OW28447   4.835   4.792   6.543
 9183SOL    HW128448   4.881   4.859   6.485
 9183SOL    HW228449   4.864   4.806   6.638
 9184SOL     OW28450   3.981   2.630   1.249
 9184SOL    HW128451   3.899   2.630   1.192
 9184SOL    HW228452   3.977   2.707   1.314
 9185SOL     OW28453   6.706   6.571   4.601
 9185SOL    HW128454   6.679   6.638   4.532
 9185SOL    HW228455   6.742   6.618   4.682
 9186SOL     OW28456   5.735   7.021   4.656
 9186SOL    HW128457   5.715   0.030   4.749
 9186SOL    HW228458   5.651   7.020   4.602
 9187SOL     OW28459   3.362   1.828   0.169
 9187SOL    HW128460   3.401   1.741   0.198
 9187SOL    HW228461   3.271   1.838   0.209
 9188SOL     OW28462   2.040   0.324   1.277
 9188SOL    HW128463   2.089   0.411   1.288
 9188SOL    HW228464   2.009   0.292   1.366
 9189SOL     OW28465   3.567   6.283   2.499
 9189SOL    HW128466   3.632   6.340   2.549
 9189SOL    HW228467   3.610   6.195   2.477
 9190SOL     OW28468   0.656   2.846   5.414
 9190SOL    HW128469   0.721   2.772   5.393
 9190SOL    HW228470   0.707   2.927   5.444
 9191SOL     OW28471   5.777   1.074   6.326
 9191SOL    HW128472   5.843   0.999   6.322
 9191SOL    HW228473   5.814   1.149   6.382
 9192SOL     OW28474   6.891   2.245   6.336
 9192SOL    HW128475   6.823   2.204   6.275
 9192SOL    HW228476   6.847   2.275   6.420
 9193SOL     OW28477   4.092   3.226   4.325
 9193SOL    HW128478   4.095   3.234   4.226
 9193SOL    HW228479   4.045   3.141   4.350
 9194SOL     OW28480   3.044   0.277   2.534
 9194SOL    HW128481   2.944   0.284   2.526
 9194SOL    HW228482   3.071   0.296   2.628
 9195SOL     OW28483   1.619   3.356   2.960
 9195SOL    HW128484   1.548   3.373   2.891
 9195SOL    HW228485   1.612   3.425   3.032
 9196SOL     OW28486   5.436   6.718   3.973
 9196SOL    HW128487   5.380   6.778   3.916
 9196SOL    HW228488   5.376   6.670   4.037
 9197SOL     OW28489   3.341   5.127   1.107
 9197SOL    HW128490   3.242   5.128   1.118
 9197SOL    HW228491   3.377   5.039   1.138
 9198SOL     OW28492   6.370   4.314   6.695
 9198SOL    HW128493   6.279   4.337   6.730
 9198SOL    HW228494   6.439   4.352   6.755
 9199SOL     OW28495   0.319   2.751   5.616
 9199SOL    HW128496   0.331   2.762   5.715
 9199SOL    HW228497   0.239   2.694   5.599
 9200SOL     OW28498   2.776   6.032   5.484
 9200SOL    HW128499   2.843   6.071   5.548
 9200SOL    HW228500   2.812   5.946   5.446
 9201SOL     OW28501   0.028   2.956   0.319
 9201SOL    HW128502   6.977   2.956   0.254
 9201SOL    HW228503   0.023   2.873   0.375
 9202SOL     OW28504   0.852   5.722   4.383
 9202SOL    HW128505   0.831   5.675   4.297
 9202SOL    HW228506   0.811   5.813   4.382
 9203SOL     OW28507   6.280   2.987   6.217
 9203SOL    HW128508   6.274   2.967   6.315
 9203SOL    HW228509   6.305   3.083   6.204
 9204SOL     OW28510   4.948   3.558   4.342
 9204SOL    HW128511   4.942   3.506   4.427
 9204SOL    HW228512   4.909   3.649   4.356
 9205SOL     OW28513   5.086   5.635   2.807
 9205SOL    HW128514   4.999   5.610   2.850
 9205SOL    HW228515   5.119   5.721   2.846
 9206SOL     OW28516   2.990   6.522   3.769
 9206SOL    HW128517   3.070   6.555   3.719
 9206SOL    HW228518   3.019   6.474   3.852
 9207SOL     OW28519   4.279   5.216   0.207
 9207SOL    HW128520   4.353   5.189   0.268
 9207SOL    HW228521   4.315   5.225   0.114
 9208SOL     OW28522   6.119   3.746   2.164
 9208SOL    HW128523   6.219   3.757   2.159
 9208SOL    HW228524   6.097   3.650   2.178
 9209SOL     OW28525   4.566   0.597   1.330
 9209SOL    HW128526   4.505   0.534   1.378
 9209SOL    HW228527   4.565   0.686   1.375
 9210SOL     OW28528   0.795   0.840   1.303
 9210SOL    HW128529   0.888   0.866   1.330
 9210SOL    HW228530   0.783   0.857   1.205
 9211SOL     OW28531   5.831   3.253   6.736
 9211SOL    HW128532   5.809   3.335   6.789
 9211SOL    HW228533   5.749   3.198   6.724
 9212SOL     OW28534   4.984   4.318   4.115
 9212SOL    HW128535   4.889   4.285   4.117
 9212SOL    HW228536   5.046   4.240   4.114
 9213SOL     OW28537   4.850   5.494   4.380
 9213SOL    HW128538   4.779   5.433   4.343
 9213SOL    HW228539   4.919   5.511   4.310
 9214SOL     OW28540   7.007   3.054   5.171
 9214SOL    HW128541   7.005   2.955   5.182
 9214SOL    HW228542   0.077   3.087   5.171
 9215SOL     OW28543   1.627   4.277   2.635
 9215SOL    HW128544   1.660   4.223   2.713
 9215SOL    HW228545   1.562   4.346   2.667
 9216SOL     OW28546   2.314   6.490   3.596
 9216SOL    HW128547   2.349   6.562   3.537
 9216SOL    HW228548   2.342   6.401   3.561
 9217SOL     OW28549   6.172   2.556   0.148
 9217SOL    HW128550   6.084   2.524   0.183
 9217SOL    HW228551   6.196   2.504   0.066
 9218SOL     OW28552   4.135   0.927   0.118
 9218SOL    HW128553   4.185   0.999   0.069
 9218SOL    HW228554   4.159   0.838   0.080
 9219SOL     OW28555   4.721   3.676   6.229
 9219SOL    HW128556   4.765   3.647   6.314
 9219SOL    HW228557   4.674   3.763   6.244
 9220SOL     OW28558   1.398   6.255   2.335
 9220SOL    HW128559   1.347   6.293   2.412
 9220SOL    HW228560   1.400   6.155   2.342
 9221SOL     OW28561   2.469   0.071   3.918
 9221SOL    HW128562   2.545   0.026   3.872
 9221SOL    HW228563   2.426   0.136   3.856
 9222SOL     OW28564   2.556   5.528   5.057
 9222SOL    HW128565   2.611   5.608   5.081
 9222SOL    HW228566   2.604   5.475   4.987
 9223SOL     OW28567   1.381   3.147   4.407
 9223SOL    HW128568   1.314   3.197   4.351
 9223SOL    HW228569   1.451   3.210   4.439
 9224SOL     OW28570   1.176   4.864   3.704
 9224SOL    HW128571   1.100   4.838   3.763
 9224SOL    HW228572   1.208   4.784   3.653
 9225SOL     OW28573   3.581   6.088   5.917
 9225SOL    HW128574   3.609   6.063   5.825
 9225SOL    HW228575   3.661   6.111   5.972
 9226SOL     OW28576   0.354   6.952   1.505
 9226SOL    HW128577   0.295   6.904   1.440
 9226SOL    HW228578   0.337   0.026   1.500
 9227SOL     OW28579   2.458   6.136   1.174
 9227SOL    HW128580   2.470   6.187   1.089
 9227SOL    HW228581   2.415   6.048   1.154
 9228SOL     OW28582   2.888   1.910   7.013
 9228SOL    HW128583   2.922   1.822   0.022
 9228SOL    HW228584   2.815   1.943   0.049
 9229SOL     OW28585   0.952   4.541   5.560
 9229SOL    HW128586   1.006   4.610   5.511
 9229SOL    HW228587   1.013   4.481   5.611
 9230SOL     OW28588   5.101   3.022   3.745
 9230SOL    HW128589   5.063   3.114   3.736
 9230SOL    HW228590   5.080   2.969   3.662
 9231SOL     OW28591   1.541   3.248   5.515
 9231SOL    HW128592   1.605   3.240   5.440
 9231SOL    HW228593   1.555   3.173   5.579
 9232SOL     OW28594   3.272   5.062   6.985
 9232SOL    HW128595   3.254   5.134   6.919
 9232SOL    HW228596   3.186   5.021   7.014
 9233SOL     OW28597   6.718   6.373   1.070
 9233SOL    HW128598   6.629   6.355   1.027
 9233SOL    HW228599   6.775   6.426   1.007
 9234SOL     OW28600   2.798   5.778   0.624
 9234SOL    HW128601   2.818   5.751   0.718
 9234SOL    HW228602   2.861   5.732   0.562
 9235SOL     OW28603   2.095   2.646   3.260
 9235SOL    HW128604   2.162   2.721   3.258
 9235SOL    HW228605   2.143   2.559   3.274
 9236SOL     OW28606   1.900   4.190   0.344
 9236SOL    HW128607   1.927   4.215   0.251
 9236SOL    HW228608   1.895   4.090   0.352
 9237SOL     OW28609   0.544   5.561   3.052
 9237SOL    HW128610   0.535   5.630   3.124
 9237SOL    HW228611   0.520   5.471   3.089
 9238SOL     OW28612   2.459   2.876   6.057
 9238SOL    HW128613   2.472   2.867   5.958
 9238SOL    HW228614   2.498   2.796   6.103
 9239SOL     OW28615   6.974   3.981   5.934
 9239SOL    HW128616   6.988   3.998   6.031
 9239SOL    HW228617   0.039   3.963   5.891
 9240SOL     OW28618   4.954   3.036   2.217
 9240SOL    HW128619   4.947   2.956   2.277
 9240SOL    HW228620   4.877   3.037   2.153
 9241SOL     OW28621   0.333   5.031   0.525
 9241SOL    HW128622   0.430   5.049   0.536
 9241SOL    HW228623   0.307   5.045   0.429
 9242SOL     OW28624   1.435   4.111   1.039
 9242SOL    HW128625   1.346   4.090   1.079
 9242SOL    HW228626   1.424   4.128   0.941
 9243SOL     OW28627   6.652   0.210   1.450
 9243SOL    HW128628   6.706   0.176   1.372
 9243SOL    HW228629   6.607   0.132   1.495
 9244SOL     OW28630   2.903   5.738   6.167
 9244SOL    HW128631   2.974   5.807   6.182
 9244SOL    HW228632   2.821   5.783   6.132
 9245SOL     OW28633   0.834   5.173   3.662
 9245SOL    HW128634   0.837   5.225   3.747
 9245SOL    HW228635   0.843   5.075   3.682
 9246SOL     OW28636   6.069   6.927   2.866
 9246SOL    HW128637   5.976   6.938   2.832
 9246SOL    HW228638   6.113   6.850   2.818
 9247SOL     OW28639   2.749   6.022   3.443
 9247SOL    HW128640   2.832   6.032   3.388
 9247SOL    HW228641   2.674   6.071   3.398
 9248SOL     OW28642   2.946   1.955   4.230
 9248SOL    HW128643   2.858   1.908   4.237
 9248SOL    HW228644   3.017   1.899   4.273
 9249SOL     OW28645   3.814   4.873   1.306
 9249SOL    HW128646   3.912   4.877   1.323
 9249SOL    HW228647   3.796   4.816   1.226
 9250SOL     OW28648   5.559   3.513   4.850
 9250SOL    HW128649   5.633   3.488   4.787
 9250SOL    HW228650   5.472   3.509   4.802
 9251SOL     OW28651   4.163   1.873   2.815
 9251SOL    HW128652   4.231   1.841   2.882
 9251SOL    HW228653   4.108   1.795   2.785
 9252SOL     OW28654   5.569   0.671   4.555
 9252SOL    HW128655   5.597   0.600   4.490
 9252SOL    HW228656   5.631   0.670   4.633
 9253SOL     OW28657   5.741   5.264   5.471
 9253SOL    HW128658   5.647   5.244   5.498
 9253SOL    HW228659   5.767   5.355   5.503
 9254SOL     OW28660   4.872   5.551   2.961
 9254SOL    HW128661   4.901   5.521   3.051
 9254SOL    HW228662   4.777   5.584   2.966
 9255SOL     OW28663   5.075   3.814   6.936
 9255SOL    HW128664   5.155   3.760   6.964
 9255SOL    HW228665   5.091   3.852   6.844
 9256SOL     OW28666   3.158   0.294   2.774
 9256SOL    HW128667   3.240   0.252   2.814
 9256SOL    HW228668   3.160   0.392   2.791
 9257SOL     OW28669   6.537   4.855   3.579
 9257SOL    HW128670   6.488   4.936   3.610
 9257SOL    HW228671   6.590   4.877   3.497
 9258SOL     OW28672   4.078   3.588   2.289
 9258SOL    HW128673   3.979   3.581   2.276
 9258SOL    HW228674   4.117   3.497   2.299
 9259SOL     OW28675   0.381   1.863   0.766
 9259SOL    HW128676   0.326   1.865   0.850
 9259SOL    HW228677   0.408   1.956   0.742
 9260SOL     OW28678   6.001   1.867   5.428
 9260SOL    HW128679   6.048   1.872   5.516
 9260SOL    HW228680   5.912   1.912   5.435
 9261SOL     OW28681   3.619   1.555   0.445
 9261SOL    HW128682   3.554   1.516   0.510
 9261SOL    HW228683   3.711   1.552   0.484
 9262SOL     OW28684   6.857   5.836   5.237
 9262SOL    HW128685   6.833   5.912   5.297
 9262SOL    HW228686   6.773   5.790   5.207
 9263SOL     OW28687   4.548   0.189   2.235
 9263SOL    HW128688   4.488   0.250   2.287
 9263SOL    HW228689   4.643   0.219   2.245
 9264SOL     OW28690   4.962   4.473   0.644
 9264SOL    HW128691   5.055   4.487   0.679
 9264SOL    HW228692   4.957   4.503   0.549
 9265SOL     OW28693   3.535   2.592   6.797
 9265SOL    HW128694   3.494   2.683   6.799
 9265SOL    HW228695   3.581   2.574   6.883
 9266SOL     OW28696   1.129   6.043   1.046
 9266SOL    HW128697   1.201   6.052   0.978
 9266SOL    HW228698   1.052   5.992   1.007
 9267SOL     OW28699   6.933   1.923   4.804
 9267SOL    HW128700   7.003   1.933   4.733
 9267SOL    HW228701   6.971   1.952   4.892
 9268SOL     OW28702   1.285   6.762   3.050
 9268SOL    HW128703   1.300   6.716   2.962
 9268SOL    HW228704   1.335   6.849   3.050
 9269SOL     OW28705   4.704   1.205   6.338
 9269SOL    HW128706   4.682   1.296   6.373
 9269SOL    HW228707   4.694   1.138   6.411
 9270SOL     OW28708   4.537   6.626   5.963
 9270SOL    HW128709   4.442   6.656   5.971
 9270SOL    HW228710   4.561   6.616   5.867
 9271SOL     OW28711   6.301   0.135   0.972
 9271SOL    HW128712   6.260   0.218   0.935
 9271SOL    HW228713   6.252   0.106   1.054
 9272SOL     OW28714   0.923   5.557   5.442
 9272SOL    HW128715   0.860   5.481   5.451
 9272SOL    HW228716   0.967   5.554   5.352
 9273SOL     OW28717   5.742   5.973   2.895
 9273SOL    HW128718   5.836   5.983   2.926
 9273SOL    HW228719   5.702   5.890   2.935
 9274SOL     OW28720   6.422   1.686   0.385
 9274SOL    HW128721   6.367   1.767   0.406
 9274SOL    HW228722   6.435   1.632   0.468
 9275SOL     OW28723   6.328   0.818   0.079
 9275SOL    HW128724   6.253   0.844   0.019
 9275SOL    HW228725   6.415   0.848   0.040
 9276SOL     OW28726   1.807   4.327   1.470
 9276SOL    HW128727   1.762   4.413   1.447
 9276SOL    HW228728   1.898   4.325   1.428
 9277SOL     OW28729   4.503   4.560   0.810
 9277SOL    HW128730   4.538   4.587   0.900
 9277SOL    HW228731   4.404   4.578   0.806
 9278SOL     OW28732   1.602   0.052   5.460
 9278SOL    HW128733   1.596   6.980   5.487
 9278SOL    HW228734   1.687   0.067   5.409
 9279SOL     OW28735   2.928   0.446   1.340
 9279SOL    HW128736   3.025   0.467   1.326
 9279SOL    HW228737   2.919   0.376   1.411
 9280SOL     OW28738   2.155   1.862   2.137
 9280SOL    HW128739   2.149   1.947   2.085
 9280SOL    HW228740   2.125   1.878   2.231
 9281SOL     OW28741   2.788   3.975   7.007
 9281SOL    HW128742   2.744   3.886   7.019
 9281SOL    HW228743   2.739   4.043   0.038
 9282SOL     OW28744   5.562   0.994   3.170
 9282SOL    HW128745   5.623   1.072   3.187
 9282SOL    HW228746   5.613   0.922   3.122
 9283SOL     OW28747   4.709   0.809   4.110
 9283SOL    HW128748   4.676   0.738   4.047
 9283SOL    HW228749   4.683   0.899   4.074
 9284SOL     OW28750   2.854   3.056   5.270
 9284SOL    HW128751   2.792   3.090   5.340
 9284SOL    HW228752   2.813   3.067   5.180
 9285SOL     OW28753   4.971   3.365   0.986
 9285SOL    HW128754   5.007   3.448   1.027
 9285SOL    HW228755   4.910   3.388   0.910
 9286SOL     OW28756   5.573   5.811   0.747
 9286SOL    HW128757   5.598   5.815   0.650
 9286SOL    HW228758   5.475   5.830   0.756
 9287SOL     OW28759   3.604   4.754   6.507
 9287SOL    HW128760   3.641   4.847   6.516
 9287SOL    HW228761   3.678   4.690   6.488
 9288SOL     OW28762   4.541   1.435   2.959
 9288SOL    HW128763   4.450   1.457   2.995
 9288SOL    HW228764   4.578   1.515   2.912
 9289SOL     OW28765   4.382   0.488   1.519
 9289SOL    HW128766   4.325   0.406   1.528
 9289SOL    HW228767   4.455   0.485   1.587
 9290SOL     OW28768   5.581   0.693   3.359
 9290SOL    HW128769   5.655   0.738   3.310
 9290SOL    HW228770   5.589   0.711   3.457
 9291SOL     OW28771   1.237   5.046   5.724
 9291SOL    HW128772   1.263   5.030   5.819
 9291SOL    HW228773   1.225   5.144   5.708
 9292SOL     OW28774   2.428   2.419   5.751
 9292SOL    HW128775   2.393   2.371   5.832
 9292SOL    HW228776   2.351   2.440   5.691
 9293SOL     OW28777   6.315   3.041   6.861
 9293SOL    HW128778   6.361   3.009   6.778
 9293SOL    HW228779   6.376   3.104   6.910
 9294SOL     OW28780   5.048   0.595   6.121
 9294SOL    HW128781   4.981   0.658   6.082
 9294SOL    HW228782   5.038   0.505   6.081
 9295SOL     OW28783   5.363   0.735   5.016
 9295SOL    HW128784   5.434   0.757   5.083
 9295SOL    HW228785   5.398   0.666   4.952
 9296SOL     OW28786   1.845   5.381   6.713
 9296SOL    HW128787   1.839   5.480   6.704
 9296SOL    HW228788   1.901   5.344   6.639
 9297SOL     OW28789   0.999   6.899   2.960
 9297SOL    HW128790   1.071   6.832   2.942
 9297SOL    HW228791   1.015   6.981   2.904
 9298SOL     OW28792   1.109   6.351   6.862
 9298SOL    HW128793   1.194   6.365   6.813
 9298SOL    HW228794   1.042   6.420   6.833
 9299SOL     OW28795   0.439   2.086   4.195
 9299SOL    HW128796   0.531   2.082   4.157
 9299SOL    HW228797   0.405   1.994   4.211
 9300SOL     OW28798   0.619   4.319   5.976
 9300SOL    HW128799   0.660   4.243   6.027
 9300SOL    HW228800   0.674   4.338   5.894
 9301SOL     OW28801   5.577   5.278   4.753
 9301SOL    HW128802   5.525   5.194   4.739
 9301SOL    HW228803   5.590   5.293   4.851
 9302SOL     OW28804   2.104   3.243   3.890
 9302SOL    HW128805   2.145   3.157   3.919
 9302SOL    HW228806   2.026   3.225   3.830
 9303SOL     OW28807   3.221   4.048   0.573
 9303SOL    HW128808   3.172   4.098   0.501
 9303SOL    HW228809   3.159   4.032   0.650
 9304SOL     OW28810   4.252   4.627   1.621
 9304SOL    HW128811   4.158   4.593   1.614
 9304SOL    HW228812   4.316   4.550   1.618
 9305SOL     OW28813   3.596   1.245   0.769
 9305SOL    HW128814   3.693   1.271   0.771
 9305SOL    HW228815   3.557   1.257   0.861
 9306SOL     OW28816   1.266   3.833   5.394
 9306SOL    HW128817   1.269   3.838   5.294
 9306SOL    HW228818   1.357   3.808   5.428
 9307SOL     OW28819   1.175   4.192   1.172
 9307SOL    HW128820   1.190   4.260   1.100
 9307SOL    HW228821   1.224   4.220   1.255
 9308SOL     OW28822   1.641   3.572   1.105
 9308SOL    HW128823   1.719   3.613   1.152
 9308SOL    HW228824   1.648   3.472   1.108
 9309SOL     OW28825   3.542   5.336   6.150
 9309SOL    HW128826   3.481   5.332   6.071
 9309SOL    HW228827   3.617   5.270   6.138
 9310SOL     OW28828   5.743   5.709   5.673
 9310SOL    HW128829   5.718   5.779   5.606
 9310SOL    HW228830   5.663   5.687   5.729
 9311SOL     OW28831   5.016   4.952   0.959
 9311SOL    HW128832   5.000   5.009   1.039
 9311SOL    HW228833   4.942   4.885   0.950
 9312SOL     OW28834   1.386   3.065   1.453
 9312SOL    HW128835   1.333   3.100   1.530
 9312SOL    HW228836   1.352   2.975   1.427
 9313SOL     OW28837   0.176   0.166   1.663
 9313SOL    HW128838   0.146   0.261   1.667
 9313SOL    HW228839   0.125   0.118   1.592
 9314SOL     OW28840   6.310   4.028   6.901
 9314SOL    HW128841   6.408   4.023   6.916
 9314SOL    HW228842   6.286   4.120   6.870
 9315SOL     OW28843   0.124   6.944   5.348
 9315SOL    HW128844   0.187   7.021   5.344
 9315SOL    HW228845   0.070   6.941   5.264
 9316SOL     OW28846   5.745   6.289   5.700
 9316SOL    HW128847   5.787   6.206   5.666
 9316SOL    HW228848   5.690   6.268   5.781
 9317SOL     OW28849   4.220   5.501   3.890
 9317SOL    HW128850   4.208   5.481   3.793
 9317SOL    HW228851   4.313   5.478   3.918
 9318SOL     OW28852   6.222   0.797   6.308
 9318SOL    HW128853   6.294   0.861   6.337
 9318SOL    HW228854   6.244   0.705   6.341
 9319SOL     OW28855   2.350   3.177   0.948
 9319SOL    HW128856   2.359   3.259   1.005
 9319SOL    HW228857   2.423   3.112   0.971
 9320SOL     OW28858   3.792   0.653   5.231
 9320SOL    HW128859   3.809   0.555   5.217
 9320SOL    HW228860   3.698   0.667   5.261
 9321SOL     OW28861   1.121   0.489   4.754
 9321SOL    HW128862   1.027   0.458   4.773
 9321SOL    HW228863   1.174   0.412   4.719
 9322SOL     OW28864   0.150   3.527   6.603
 9322SOL    HW128865   0.228   3.587   6.587
 9322SOL    HW228866   0.181   3.440   6.640
 9323SOL     OW28867   0.885   1.465   4.850
 9323SOL    HW128868   0.865   1.493   4.944
 9323SOL    HW228869   0.887   1.546   4.791
 9324SOL     OW28870   1.527   4.243   2.356
 9324SOL    HW128871   1.562   4.280   2.442
 9324SOL    HW228872   1.453   4.178   2.375
 9325SOL     OW28873   6.431   0.354   6.793
 9325SOL    HW128874   6.383   0.332   6.878
 9325SOL    HW228875   6.428   0.453   6.777
 9326SOL     OW28876   2.809   4.536   0.454
 9326SOL    HW128877   2.856   4.471   0.514
 9326SOL    HW228878   2.860   4.622   0.452
 9327SOL     OW28879   4.840   0.448   2.523
 9327SOL    HW128880   4.745   0.461   2.552
 9327SOL    HW228881   4.857   0.351   2.506
 9328SOL     OW28882   2.266   0.912   4.253
 9328SOL    HW128883   2.227   0.978   4.189
 9328SOL    HW228884   2.208   0.907   4.334
 9329SOL     OW28885   5.668   4.031   0.993
 9329SOL    HW128886   5.635   4.057   1.083
 9329SOL    HW228887   5.755   4.077   0.975
 9330SOL     OW28888   6.768   0.312   5.440
 9330SOL    HW128889   6.681   0.358   5.454
 9330SOL    HW228890   6.843   0.376   5.460
 9331SOL     OW28891   2.757   1.117   6.356
 9331SOL    HW128892   2.734   1.214   6.365
 9331SOL    HW228893   2.726   1.084   6.266
 9332SOL     OW28894   3.285   4.701   0.499
 9332SOL    HW128895   3.310   4.786   0.545
 9332SOL    HW228896   3.329   4.698   0.409
 9333SOL     OW28897   3.751   5.186   6.118
 9333SOL    HW128898   3.724   5.096   6.152
 9333SOL    HW228899   3.845   5.182   6.083
 9334SOL     OW28900   4.550   6.643   4.543
 9334SOL    HW128901   4.588   6.710   4.606
 9334SOL    HW228902   4.578   6.665   4.450
 9335SOL     OW28903   1.488   1.398   6.633
 9335SOL    HW128904   1.395   1.423   6.604
 9335SOL    HW228905   1.542   1.481   6.645
 9336SOL     OW28906   3.790   0.385   5.048
 9336SOL    HW128907   3.694   0.359   5.038
 9336SOL    HW228908   3.805   0.473   5.003
 9337SOL     OW28909   4.737   1.072   4.884
 9337SOL    HW128910   4.638   1.062   4.880
 9337SOL    HW228911   4.761   1.130   4.962
 9338SOL     OW28912   6.140   0.044   1.161
 9338SOL    HW128913   6.142   0.070   1.258
 9338SOL    HW228914   6.062   0.087   1.117
 9339SOL     OW28915   6.153   6.703   0.122
 9339SOL    HW128916   6.119   6.685   0.030
 9339SOL    HW228917   6.129   6.627   0.182
 9340SOL     OW28918   4.077   4.775   3.220
 9340SOL    HW128919   4.056   4.795   3.316
 9340SOL    HW228920   3.993   4.748   3.173
 9341SOL     OW28921   5.794   5.054   1.324
 9341SOL    HW128922   5.805   5.153   1.316
 9341SOL    HW228923   5.824   5.010   1.239
 9342SOL     OW28924   2.897   6.663   4.457
 9342SOL    HW128925   2.971   6.728   4.476
 9342SOL    HW228926   2.865   6.676   4.364
 9343SOL     OW28927   4.757   4.451   2.057
 9343SOL    HW128928   4.751   4.502   2.143
 9343SOL    HW228929   4.668   4.410   2.037
 9344SOL     OW28930   5.650   6.516   1.815
 9344SOL    HW128931   5.722   6.453   1.787
 9344SOL    HW228932   5.571   6.464   1.848
 9345SOL     OW28933   6.730   4.982   0.883
 9345SOL    HW128934   6.772   5.023   0.802
 9345SOL    HW228935   6.783   4.901   0.909
 9346SOL     OW28936   4.821   0.811   1.912
 9346SOL    HW128937   4.855   0.738   1.852
 9346SOL    HW228938   4.867   0.897   1.888
 9347SOL     OW28939   3.127   5.150   0.549
 9347SOL    HW128940   3.183   5.067   0.539
 9347SOL    HW228941   3.056   5.134   0.617
 9348SOL     OW28942   3.385   5.518   3.019
 9348SOL    HW128943   3.359   5.477   3.107
 9348SOL    HW228944   3.371   5.617   3.023
 9349SOL     OW28945   6.111   5.121   1.760
 9349SOL    HW128946   6.179   5.049   1.776
 9349SOL    HW228947   6.144   5.183   1.688
 9350SOL     OW28948   6.618   1.755   5.117
 9350SOL    HW128949   6.584   1.747   5.211
 9350SOL    HW228950   6.578   1.835   5.073
 9351SOL     OW28951   3.591   6.755   5.943
 9351SOL    HW128952   3.572   6.666   5.901
 9351SOL    HW228953   3.666   6.800   5.894
 9352SOL     OW28954   3.407   1.654   6.277
 9352SOL    HW128955   3.353   1.700   6.206
 9352SOL    HW228956   3.356   1.657   6.364
 9353SOL     OW28957   0.990   4.536   1.074
 9353SOL    HW128958   0.935   4.497   1.148
 9353SOL    HW228959   0.935   4.542   0.991
 9354SOL     OW28960   0.295   1.910   6.148
 9354SOL    HW128961   0.270   1.993   6.098
 9354SOL    HW228962   0.213   1.865   6.183
 9355SOL     OW28963   0.625   1.566   4.405
 9355SOL    HW128964   0.607   1.485   4.461
 9355SOL    HW228965   0.721   1.568   4.380
 9356SOL     OW28966   4.760   6.005   2.330
 9356SOL    HW128967   4.825   6.061   2.382
 9356SOL    HW228968   4.810   5.947   2.265
 9357SOL     OW28969   2.371   3.588   6.647
 9357SOL    HW128970   2.418   3.548   6.568
 9357SOL    HW228971   2.425   3.665   6.682
 9358SOL     OW28972   6.553   3.387   2.567
 9358SOL    HW128973   6.510   3.378   2.477
 9358SOL    HW228974   6.514   3.467   2.614
 9359SOL     OW28975   0.862   3.438   5.499
 9359SOL    HW128976   0.928   3.485   5.441
 9359SOL    HW228977   0.893   3.438   5.594
 9360SOL     OW28978   1.905   5.647   6.695
 9360SOL    HW128979   1.901   5.745   6.713
 9360SOL    HW228980   2.001   5.617   6.695
 9361SOL     OW28981   1.296   6.661   2.786
 9361SOL    HW128982   1.390   6.628   2.788
 9361SOL    HW228983   1.238   6.595   2.737
 9362SOL     OW28984   1.907   3.545   2.700
 9362SOL    HW128985   1.995   3.513   2.665
 9362SOL    HW228986   1.840   3.542   2.626
 9363SOL     OW28987   3.814   6.875   2.120
 9363SOL    HW128988   3.832   6.951   2.059
 9363SOL    HW228989   3.832   6.789   2.072
 9364SOL     OW28990   3.919   3.118   6.360
 9364SOL    HW128991   3.923   3.070   6.448
 9364SOL    HW228992   3.865   3.065   6.295
 9365SOL     OW28993   2.233   2.139   4.642
 9365SOL    HW128994   2.210   2.162   4.737
 9365SOL    HW228995   2.230   2.040   4.630
 9366SOL     OW28996   3.477   6.527   6.265
 9366SOL    HW128997   3.471   6.570   6.354
 9366SOL    HW228998   3.550   6.571   6.212
 9367SOL     OW28999   0.110   6.304   2.418
 9367SOL    HW129000   0.158   6.328   2.334
 9367SOL    HW229001   0.014   6.331   2.409
 9368SOL     OW29002   2.970   1.327   2.768
 9368SOL    HW129003   2.902   1.380   2.717
 9368SOL    HW229004   2.924   1.261   2.827
 9369SOL     OW29005   6.293   6.542   4.941
 9369SOL    HW129006   6.310   6.566   4.845
 9369SOL    HW229007   6.198   6.516   4.952
 9370SOL     OW29008   5.116   0.665   2.821
 9370SOL    HW129009   5.188   0.628   2.762
 9370SOL    HW229010   5.033   0.610   2.810
 9371SOL     OW29011   2.473   5.376   0.468
 9371SOL    HW129012   2.453   5.281   0.444
 9371SOL    HW229013   2.560   5.404   0.427
 9372SOL     OW29014   5.442   6.316   2.360
 9372SOL    HW129015   5.491   6.390   2.314
 9372SOL    HW229016   5.493   6.231   2.350
 9373SOL     OW29017   4.777   2.224   2.993
 9373SOL    HW129018   4.733   2.269   3.071
 9373SOL    HW229019   4.718   2.151   2.959
 9374SOL     OW29020   0.569   3.814   0.271
 9374SOL    HW129021   0.591   3.771   0.359
 9374SOL    HW229022   0.510   3.754   0.218
 9375SOL     OW29023   0.332   1.116   2.438
 9375SOL    HW129024   0.287   1.027   2.436
 9375SOL    HW229025   0.429   1.105   2.458
 9376SOL     OW29026   2.668   4.263   1.329
 9376SOL    HW129027   2.686   4.261   1.428
 9376SOL    HW229028   2.747   4.304   1.283
 9377SOL     OW29029   2.332   5.279   4.384
 9377SOL    HW129030   2.256   5.328   4.428
 9377SOL    HW229031   2.328   5.182   4.409
 9378SOL     OW29032   1.847   1.423   4.280
 9378SOL    HW129033   1.863   1.507   4.229
 9378SOL    HW229034   1.749   1.413   4.299
 9379SOL     OW29035   3.860   6.206   5.800
 9379SOL    HW129036   3.955   6.175   5.809
 9379SOL    HW229037   3.804   6.134   5.760
 9380SOL     OW29038   5.184   5.511   4.694
 9380SOL    HW129039   5.215   5.418   4.676
 9380SOL    HW229040   5.087   5.520   4.670
 9381SOL     OW29041   3.710   2.999   6.197
 9381SOL    HW129042   3.627   2.990   6.251
 9381SOL    HW229043   3.690   2.978   6.101
 9382SOL     OW29044   3.621   0.935   3.486
 9382SOL    HW129045   3.715   0.911   3.512
 9382SOL    HW229046   3.584   1.001   3.552
 9383SOL     OW29047   0.434   5.635   4.474
 9383SOL    HW129048   0.517   5.635   4.530
 9383SOL    HW229049   0.374   5.710   4.503
 9384SOL     OW29050   4.144   0.289   2.290
 9384SOL    HW129051   4.117   0.206   2.339
 9384SOL    HW229052   4.066   0.350   2.282
 9385SOL     OW29053   4.661   1.161   3.744
 9385SOL    HW129054   4.702   1.244   3.706
 9385SOL    HW229055   4.568   1.181   3.774
 9386SOL     OW29056   2.201   6.030   5.127
 9386SOL    HW129057   2.138   5.952   5.129
 9386SOL    HW229058   2.262   6.026   5.205
 9387SOL     OW29059   2.876   1.794   6.475
 9387SOL    HW129060   2.794   1.846   6.450
 9387SOL    HW229061   2.926   1.844   6.546
 9388SOL     OW29062   3.269   5.831   2.748
 9388SOL    HW129063   3.360   5.864   2.722
 9388SOL    HW229064   3.202   5.861   2.679
 9389SOL     OW29065   1.961   0.070   3.447
 9389SOL    HW129066   1.968   0.141   3.377
 9389SOL    HW229067   1.950   0.113   3.537
 9390SOL     OW29068   5.204   4.979   5.919
 9390SOL    HW129069   5.168   5.062   5.877
 9390SOL    HW229070   5.292   4.956   5.876
 9391SOL     OW29071   2.574   1.434   5.134
 9391SOL    HW129072   2.489   1.445   5.185
 9391SOL    HW229073   2.556   1.385   5.049
 9392SOL     OW29074   6.057   6.459   5.041
 9392SOL    HW129075   5.977   6.508   5.007
 9392SOL    HW229076   6.062   6.469   5.140
 9393SOL     OW29077   3.136   6.282   6.587
 9393SOL    HW129078   3.096   6.339   6.658
 9393SOL    HW229079   3.236   6.280   6.597
 9394SOL     OW29080   6.956   1.067   1.712
 9394SOL    HW129081   7.022   1.052   1.786
 9394SOL    HW229082   6.912   0.980   1.689
 9395SOL     OW29083   2.660   1.496   1.374
 9395SOL    HW129084   2.651   1.447   1.288
 9395SOL    HW229085   2.757   1.498   1.401
 9396SOL     OW29086   2.320   4.212   3.939
 9396SOL    HW129087   2.301   4.167   4.026
 9396SOL    HW229088   2.401   4.270   3.949
 9397SOL     OW29089   4.679   0.134   6.232
 9397SOL    HW129090   4.745   0.106   6.301
 9397SOL    HW229091   4.723   0.133   6.142
 9398SOL     OW29092   6.545   0.888   5.143
 9398SOL    HW129093   6.459   0.858   5.185
 9398SOL    HW229094   6.615   0.818   5.157
 9399SOL     OW29095   0.966   2.109   5.932
 9399SOL    HW129096   0.875   2.070   5.916
 9399SOL    HW229097   1.018   2.110   5.847
 9400SOL     OW29098   4.575   0.638   1.759
 9400SOL    HW129099   4.661   0.687   1.741
 9400SOL    HW229100   4.499   0.702   1.755
 9401SOL     OW29101   6.526   0.499   3.702
 9401SOL    HW129102   6.554   0.578   3.648
 9401SOL    HW229103   6.546   0.516   3.799
 9402SOL     OW29104   1.193   5.512   2.523
 9402SOL    HW129105   1.153   5.420   2.529
 9402SOL    HW229106   1.263   5.513   2.452
 9403SOL     OW29107   6.378   1.486   2.918
 9403SOL    HW129108   6.386   1.455   3.013
 9403SOL    HW229109   6.456   1.450   2.866
 9404SOL     OW29110   1.390   2.988   0.254
 9404SOL    HW129111   1.469   3.047   0.240
 9404SOL    HW229112   1.421   2.897   0.282
 9405SOL     OW29113   2.461   4.570   3.697
 9405SOL    HW129114   2.473   4.532   3.605
 9405SOL    HW229115   2.551   4.591   3.736
 9406SOL     OW29116   6.766   2.834   5.973
 9406SOL    HW129117   6.795   2.880   5.889
 9406SOL    HW229118   6.670   2.853   5.990
 9407SOL     OW29119   3.250   5.024   3.560
 9407SOL    HW129120   3.225   5.121   3.557
 9407SOL    HW229121   3.173   4.971   3.594
 9408SOL     OW29122   6.511   2.832   6.066
 9408SOL    HW129123   6.495   2.930   6.058
 9408SOL    HW229124   6.542   2.812   6.159
 9409SOL     OW29125   6.046   6.048   0.372
 9409SOL    HW129126   6.043   6.120   0.442
 9409SOL    HW229127   6.091   5.967   0.410
 9410SOL     OW29128   2.754   0.341   1.014
 9410SOL    HW129129   2.796   0.430   0.997
 9410SOL    HW229130   2.669   0.353   1.064
 9411SOL     OW29131   3.458   2.789   2.087
 9411SOL    HW129132   3.519   2.812   2.163
 9411SOL    HW229133   3.372   2.839   2.095
 9412SOL     OW29134   7.001   1.194   2.649
 9412SOL    HW129135   0.055   1.235   2.602
 9412SOL    HW229136   7.024   1.101   2.678
 9413SOL     OW29137   4.018   5.689   3.646
 9413SOL    HW129138   4.077   5.765   3.674
 9413SOL    HW229139   3.928   5.725   3.619
 9414SOL     OW29140   2.826   1.154   2.975
 9414SOL    HW129141   2.852   1.182   3.068
 9414SOL    HW229142   2.732   1.122   2.975
 9415SOL     OW29143   2.369   6.989   1.997
 9415SOL    HW129144   2.305   6.916   1.973
 9415SOL    HW229145   2.445   6.950   2.050
 9416SOL     OW29146   0.006   2.209   0.465
 9416SOL    HW129147   0.076   2.139   0.456
 9416SOL    HW229148   6.982   2.220   0.378
 9417SOL     OW29149   4.548   0.562   0.484
 9417SOL    HW129150   4.599   0.570   0.570
 9417SOL    HW229151   4.613   0.553   0.408
 9418SOL     OW29152   3.701   0.247   1.194
 9418SOL    HW129153   3.614   0.197   1.192
 9418SOL    HW229154   3.753   0.221   1.275
 9419SOL     OW29155   2.578   4.608   5.803
 9419SOL    HW129156   2.600   4.692   5.752
 9419SOL    HW229157   2.566   4.631   5.899
 9420SOL     OW29158   5.762   4.189   5.723
 9420SOL    HW129159   5.852   4.206   5.682
 9420SOL    HW229160   5.698   4.259   5.691
 9421SOL     OW29161   2.374   6.520   4.291
 9421SOL    HW129162   2.432   6.556   4.218
 9421SOL    HW229163   2.390   6.422   4.303
 9422SOL     OW29164   3.272   5.396   3.244
 9422SOL    HW129165   3.183   5.353   3.235
 9422SOL    HW229166   3.278   5.442   3.333
 9423SOL     OW29167   2.787   6.109   3.953
 9423SOL    HW129168   2.690   6.099   3.975
 9423SOL    HW229169   2.810   6.207   3.948
 9424SOL     OW29170   5.264   2.298   5.059
 9424SOL    HW129171   5.209   2.220   5.088
 9424SOL    HW229172   5.318   2.332   5.136
 9425SOL     OW29173   5.811   3.773   0.865
 9425SOL    HW129174   5.757   3.856   0.880
 9425SOL    HW229175   5.880   3.790   0.796
 9426SOL     OW29176   3.865   1.904   6.235
 9426SOL    HW129177   3.806   1.983   6.249
 9426SOL    HW229178   3.928   1.922   6.160
 9427SOL     OW29179   2.899   5.636   3.073
 9427SOL    HW129180   2.805   5.640   3.039
 9427SOL    HW229181   2.961   5.676   3.005
 9428SOL     OW29182   6.900   0.871   1.085
 9428SOL    HW129183   6.913   0.945   1.150
 9428SOL    HW229184   6.807   0.874   1.048
 9429SOL     OW29185   2.168   3.890   2.874
 9429SOL    HW129186   2.209   3.971   2.917
 9429SOL    HW229187   2.230   3.854   2.804
 9430SOL     OW29188   0.265   3.837   4.323
 9430SOL    HW129189   0.254   3.811   4.419
 9430SOL    HW229190   0.351   3.800   4.288
 9431SOL     OW29191   6.518   3.955   0.700
 9431SOL    HW129192   6.584   3.887   0.667
 9431SOL    HW229193   6.549   3.993   0.787
 9432SOL     OW29194   5.377   0.424   3.665
 9432SOL    HW129195   5.437   0.482   3.720
 9432SOL    HW229196   5.431   0.371   3.600
 9433SOL     OW29197   3.712   6.230   2.888
 9433SOL    HW129198   3.659   6.191   2.813
 9433SOL    HW229199   3.805   6.192   2.885
 9434SOL     OW29200   5.471   5.778   2.896
 9434SOL    HW129201   5.420   5.705   2.851
 9434SOL    HW229202   5.457   5.863   2.846
 9435SOL     OW29203   0.293   2.662   4.694
 9435SOL    HW129204   0.376   2.610   4.714
 9435SOL    HW229205   0.220   2.634   4.755
 9436SOL     OW29206   1.529   2.654   1.469
 9436SOL    HW129207   1.576   2.729   1.515
 9436SOL    HW229208   1.586   2.572   1.473
 9437SOL     OW29209   1.347   5.765   3.151
 9437SOL    HW129210   1.349   5.858   3.114
 9437SOL    HW229211   1.252   5.740   3.172
 9438SOL     OW29212   0.616   0.291   1.222
 9438SOL    HW129213   0.654   0.252   1.306
 9438SOL    HW229214   0.584   0.384   1.241
 9439SOL     OW29215   0.339   3.342   0.902
 9439SOL    HW129216   0.243   3.364   0.920
 9439SOL    HW229217   0.371   3.275   0.969
 9440SOL     OW29218   3.863   5.070   3.335
 9440SOL    HW129219   3.928   5.146   3.331
 9440SOL    HW229220   3.912   4.985   3.353
 9441SOL     OW29221   6.295   4.302   5.903
 9441SOL    HW129222   6.243   4.230   5.858
 9441SOL    HW229223   6.352   4.350   5.836
 9442SOL     OW29224   4.490   3.543   1.188
 9442SOL    HW129225   4.473   3.618   1.252
 9442SOL    HW229226   4.552   3.477   1.230
 9443SOL     OW29227   2.592   5.212   0.997
 9443SOL    HW129228   2.555   5.256   0.915
 9443SOL    HW229229   2.520   5.204   1.066
 9444SOL     OW29230   1.259   3.255   0.987
 9444SOL    HW129231   1.287   3.272   0.892
 9444SOL    HW229232   1.336   3.218   1.038
 9445SOL     OW29233   6.043   2.801   3.035
 9445SOL    HW129234   5.973   2.871   3.022
 9445SOL    HW229235   6.004   2.723   3.083
 9446SOL     OW29236   6.305   5.546   4.090
 9446SOL    HW129237   6.398   5.511   4.075
 9446SOL    HW229238   6.239   5.480   4.054
 9447SOL     OW29239   5.948   4.867   3.347
 9447SOL    HW129240   5.895   4.938   3.392
 9447SOL    HW229241   5.887   4.804   3.299
 9448SOL     OW29242   0.254   6.935   6.735
 9448SOL    HW129243   0.178   6.915   6.673
 9448SOL    HW229244   0.221   6.939   6.829
 9449SOL     OW29245   6.412   6.854   0.061
 9449SOL    HW129246   6.420   6.771   0.117
 9449SOL    HW229247   6.323   6.856   0.017
 9450SOL     OW29248   1.681   5.261   4.421
 9450SOL    HW129249   1.682   5.304   4.330
 9450SOL    HW229250   1.756   5.298   4.476
 9451SOL     OW29251   4.220   0.247   6.154
 9451SOL    HW129252   4.278   0.177   6.113
 9451SOL    HW229253   4.182   0.306   6.083
 9452SOL     OW29254   1.600   3.970   0.616
 9452SOL    HW129255   1.550   3.977   0.702
 9452SOL    HW229256   1.698   3.966   0.634
 9453SOL     OW29257   2.214   4.597   3.318
 9453SOL    HW129258   2.180   4.690   3.331
 9453SOL    HW229259   2.183   4.540   3.394
 9454SOL     OW29260   3.346   3.792   6.501
 9454SOL    HW129261   3.434   3.799   6.549
 9454SOL    HW229262   3.293   3.875   6.517
 9455SOL     OW29263   2.524   1.569   3.794
 9455SOL    HW129264   2.473   1.645   3.753
 9455SOL    HW229265   2.473   1.484   3.782
 9456SOL     OW29266   0.037   3.864   1.167
 9456SOL    HW129267   0.079   3.811   1.093
 9456SOL    HW229268   7.003   3.935   1.128
 9457SOL     OW29269   1.453   3.714   4.753
 9457SOL    HW129270   1.528   3.743   4.813
 9457SOL    HW229271   1.439   3.616   4.763
 9458SOL     OW29272   0.944   2.844   0.077
 9458SOL    HW129273   0.995   2.931   0.078
 9458SOL    HW229274   0.901   2.829   0.166
 9459SOL     OW29275   5.868   4.648   3.849
 9459SOL    HW129276   5.850   4.595   3.766
 9459SOL    HW229277   5.955   4.617   3.889
 9460SOL     OW29278   1.257   3.278   4.227
 9460SOL    HW129279   1.241   3.372   4.199
 9460SOL    HW229280   1.171   3.228   4.227
 9461SOL     OW29281   0.258   1.600   1.545
 9461SOL    HW129282   0.194   1.565   1.613
 9461SOL    HW229283   0.212   1.609   1.457
 9462SOL     OW29284   2.147   3.694   3.194
 9462SOL    HW129285   2.094   3.730   3.271
 9462SOL    HW229286   2.084   3.668   3.120
 9463SOL     OW29287   6.158   0.306   1.668
 9463SOL    HW129288   6.212   0.285   1.749
 9463SOL    HW229289   6.218   0.312   1.588
 9464SOL     OW29290   6.017   0.510   0.760
 9464SOL    HW129291   6.086   0.568   0.715
 9464SOL    HW229292   5.964   0.566   0.824
 9465SOL     OW29293   1.412   4.520   1.964
 9465SOL    HW129294   1.355   4.496   2.042
 9465SOL    HW229295   1.508   4.521   1.993
 9466SOL     OW29296   3.896   4.653   5.499
 9466SOL    HW129297   3.921   4.571   5.448
 9466SOL    HW229298   3.966   4.674   5.567
 9467SOL     OW29299   1.291   2.314   2.082
 9467SOL    HW129300   1.381   2.332   2.044
 9467SOL    HW229301   1.226   2.293   2.009
 9468SOL     OW29302   5.784   3.753   6.594
 9468SOL    HW129303   5.882   3.742   6.582
 9468SOL    HW229304   5.740   3.664   6.592
 9469SOL     OW29305   6.254   5.256   1.574
 9469SOL    HW129306   6.336   5.248   1.631
 9469SOL    HW229307   6.275   5.308   1.492
 9470SOL     OW29308   5.095   3.172   6.120
 9470SOL    HW129309   5.014   3.217   6.156
 9470SOL    HW229310   5.073   3.128   6.033
 9471SOL     OW29311   6.669   1.778   4.479
 9471SOL    HW129312   6.579   1.747   4.449
 9471SOL    HW229313   6.659   1.860   4.535
 9472SOL     OW29314   6.342   2.908   5.472
 9472SOL    HW129315   6.326   2.916   5.571
 9472SOL    HW229316   6.345   2.811   5.447
 9473SOL     OW29317   2.730   5.091   6.980
 9473SOL    HW129318   2.725   4.997   6.946
 9473SOL    HW229319   2.673   5.100   0.037
 9474SOL     OW29320   0.069   3.106   0.107
 9474SOL    HW129321   0.164   3.133   0.120
 9474SOL    HW229322   0.031   3.074   0.194
 9475SOL     OW29323   3.520   3.066   0.077
 9475SOL    HW129324   3.428   3.067   0.116
 9475SOL    HW229325   3.521   3.120   7.017
 9476SOL     OW29326   3.995   3.990   4.755
 9476SOL    HW129327   3.980   3.988   4.656
 9476SOL    HW229328   4.062   4.061   4.777
 9477SOL     OW29329   0.686   2.585   0.722
 9477SOL    HW129330   0.612   2.603   0.657
 9477SOL    HW229331   0.648   2.568   0.813
 9478SOL     OW29332   4.930   3.261   0.527
 9478SOL    HW129333   4.975   3.194   0.468
 9478SOL    HW229334   4.958   3.246   0.622
 9479SOL     OW29335   4.433   5.914   6.556
 9479SOL    HW129336   4.334   5.928   6.564
 9479SOL    HW229337   4.479   5.957   6.634
 9480SOL     OW29338   5.934   5.036   1.057
 9480SOL    HW129339   5.943   5.083   0.969
 9480SOL    HW229340   6.021   4.991   1.079
 9481SOL     OW29341   5.199   2.751   2.280
 9481SOL    HW129342   5.263   2.812   2.328
 9481SOL    HW229343   5.213   2.761   2.181
 9482SOL     OW29344   0.337   1.173   2.862
 9482SOL    HW129345   0.394   1.126   2.929
 9482SOL    HW229346   0.281   1.107   2.813
 9483SOL     OW29347   1.762   1.028   0.915
 9483SOL    HW129348   1.666   1.000   0.915
 9483SOL    HW229349   1.793   1.041   0.820
 9484SOL     OW29350   4.559   0.510   4.190
 9484SOL    HW129351   4.472   0.462   4.192
 9484SOL    HW229352   4.625   0.463   4.249
 9485SOL     OW29353   0.725   0.841   0.437
 9485SOL    HW129354   0.702   0.762   0.380
 9485SOL    HW229355   0.666   0.842   0.518
 9486SOL     OW29356   4.163   6.748   0.929
 9486SOL    HW129357   4.153   6.653   0.901
 9486SOL    HW229358   4.157   6.807   0.848
 9487SOL     OW29359   3.372   3.603   4.430
 9487SOL    HW129360   3.355   3.507   4.452
 9487SOL    HW229361   3.466   3.626   4.453
 9488SOL     OW29362   2.856   6.671   0.936
 9488SOL    HW129363   2.889   6.748   0.881
 9488SOL    HW229364   2.902   6.587   0.907
 9489SOL     OW29365   4.599   4.306   0.982
 9489SOL    HW129366   4.692   4.270   0.973
 9489SOL    HW229367   4.603   4.400   1.014
 9490SOL     OW29368   6.064   4.722   2.330
 9490SOL    HW129369   6.100   4.815   2.326
 9490SOL    HW229370   6.113   4.670   2.399
 9491SOL     OW29371   5.752   5.000   4.214
 9491SOL    HW129372   5.690   4.947   4.272
 9491SOL    HW229373   5.742   4.970   4.119
 9492SOL     OW29374   3.514   2.882   4.006
 9492SOL    HW129375   3.446   2.935   4.055
 9492SOL    HW229376   3.492   2.784   4.012
 9493SOL     OW29377   2.970   5.355   4.474
 9493SOL    HW129378   2.949   5.376   4.569
 9493SOL    HW229379   3.001   5.438   4.427
 9494SOL     OW29380   4.908   3.291   2.440
 9494SOL    HW129381   4.942   3.248   2.357
 9494SOL    HW229382   4.813   3.264   2.455
 9495SOL     OW29383   6.262   1.443   3.668
 9495SOL    HW129384   6.292   1.433   3.763
 9495SOL    HW229385   6.208   1.527   3.660
 9496SOL     OW29386   6.091   3.362   1.600
 9496SOL    HW129387   6.050   3.416   1.526
 9496SOL    HW229388   6.187   3.386   1.610
 9497SOL     OW29389   5.546   6.457   5.598
 9497SOL    HW129390   5.524   6.511   5.678
 9497SOL    HW229391   5.622   6.395   5.619
 9498SOL     OW29392   4.321   6.637   4.386
 9498SOL    HW129393   4.334   6.734   4.370
 9498SOL    HW229394   4.392   6.603   4.448
 9499SOL     OW29395   2.327   5.100   6.444
 9499SOL    HW129396   2.231   5.111   6.418
 9499SOL    HW229397   2.341   5.138   6.536
 9500SOL     OW29398   5.382   0.041   0.997
 9500SOL    HW129399   5.414   7.005   0.924
 9500SOL    HW229400   5.456   0.054   1.064
 9501SOL     OW29401   2.813   1.175   4.751
 9501SOL    HW129402   2.789   1.194   4.847
 9501SOL    HW229403   2.841   1.260   4.706
 9502SOL     OW29404   5.396   3.219   4.937
 9502SOL    HW129405   5.365   3.311   4.961
 9502SOL    HW229406   5.323   3.153   4.955
 9503SOL     OW29407   0.524   1.403   1.593
 9503SOL    HW129408   0.439   1.361   1.625
 9503SOL    HW229409   0.567   1.453   1.668
 9504SOL     OW29410   0.399   2.182   0.284
 9504SOL    HW129411   0.321   2.128   0.250
 9504SOL    HW229412   0.484   2.141   0.253
 9505SOL     OW29413   4.824   4.766   4.137
 9505SOL    HW129414   4.745   4.705   4.132
 9505SOL    HW229415   4.806   4.848   4.083
 9506SOL     OW29416   1.011   1.913   6.217
 9506SOL    HW129417   1.046   1.959   6.135
 9506SOL    HW229418   0.925   1.955   6.244
 9507SOL     OW29419   1.019   2.363   3.057
 9507SOL    HW129420   0.926   2.333   3.073
 9507SOL    HW229421   1.044   2.347   2.961
 9508SOL     OW29422   6.244   2.094   1.361
 9508SOL    HW129423   6.334   2.128   1.390
 9508SOL    HW229424   6.196   2.167   1.311
 9509SOL     OW29425   1.018   1.093   4.185
 9509SOL    HW129426   0.988   1.047   4.269
 9509SOL    HW229427   0.945   1.089   4.117
 9510SOL     OW29428   1.232   3.582   3.452
 9510SOL    HW129429   1.330   3.604   3.449
 9510SOL    HW229430   1.215   3.515   3.524
 9511SOL     OW29431   1.658   0.482   0.541
 9511SOL    HW129432   1.686   0.399   0.588
 9511SOL    HW229433   1.588   0.529   0.596
 9512SOL     OW29434   6.105   1.667   1.455
 9512SOL    HW129435   6.073   1.695   1.364
 9512SOL    HW229436   6.189   1.614   1.445
 9513SOL     OW29437   2.102   3.589   6.707
 9513SOL    HW129438   2.072   3.494   6.701
 9513SOL    HW229439   2.200   3.595   6.688
 9514SOL     OW29440   2.022   5.386   5.934
 9514SOL    HW129441   2.008   5.446   6.013
 9514SOL    HW229442   2.093   5.318   5.956
 9515SOL     OW29443   2.165   5.973   0.987
 9515SOL    HW129444   2.078   6.016   1.011
 9515SOL    HW229445   2.149   5.899   0.922
 9516SOL     OW29446   5.972   4.650   5.842
 9516SOL    HW129447   5.965   4.691   5.933
 9516SOL    HW229448   6.068   4.644   5.816
 9517SOL     OW29449   2.162   4.739   1.039
 9517SOL    HW129450   2.212   4.666   0.992
 9517SOL    HW229451   2.110   4.792   0.973
 9518SOL     OW29452   2.235   2.032   0.559
 9518SOL    HW129453   2.323   2.029   0.606
 9518SOL    HW229454   2.241   2.095   0.482
 9519SOL     OW29455   4.071   3.767   4.929
 9519SOL    HW129456   3.992   3.761   4.989
 9519SOL    HW229457   4.063   3.849   4.872
 9520SOL     OW29458   1.434   1.470   3.688
 9520SOL    HW129459   1.344   1.477   3.644
 9520SOL    HW229460   1.422   1.460   3.786
 9521SOL     OW29461   4.850   5.623   1.691
 9521SOL    HW129462   4.831   5.707   1.639
 9521SOL    HW229463   4.763   5.586   1.725
 9522SOL     OW29464   2.894   5.807   1.134
 9522SOL    HW129465   2.860   5.901   1.139
 9522SOL    HW229466   2.834   5.747   1.189
 9523SOL     OW29467   2.556   4.647   5.060
 9523SOL    HW129468   2.521   4.638   5.153
 9523SOL    HW229469   2.656   4.639   5.061
 9524SOL     OW29470   3.407   2.981   1.409
 9524SOL    HW129471   3.458   2.941   1.485
 9524SOL    HW229472   3.359   2.908   1.360
 9525SOL     OW29473   2.182   2.966   5.644
 9525SOL    HW129474   2.104   2.928   5.695
 9525SOL    HW229475   2.162   2.964   5.546
 9526SOL     OW29476   5.373   5.068   1.358
 9526SOL    HW129477   5.380   5.010   1.438
 9526SOL    HW229478   5.429   5.150   1.371
 9527SOL     OW29479   0.584   0.576   3.683
 9527SOL    HW129480   0.649   0.510   3.646
 9527SOL    HW229481   0.493   0.535   3.689
 9528SOL     OW29482   6.975   1.360   0.498
 9528SOL    HW129483   0.051   1.369   0.502
 9528SOL    HW229484   6.952   1.265   0.474
 9529SOL     OW29485   6.429   3.040   5.744
 9529SOL    HW129486   6.446   3.123   5.692
 9529SOL    HW229487   6.461   3.053   5.838
 9530SOL     OW29488   1.925   4.050   1.883
 9530SOL    HW129489   1.931   4.117   1.809
 9530SOL    HW229490   1.958   3.962   1.851
 9531SOL     OW29491   4.862   5.145   2.724
 9531SOL    HW129492   4.917   5.071   2.684
 9531SOL    HW229493   4.885   5.231   2.680
 9532SOL     OW29494   6.659   6.980   2.246
 9532SOL    HW129495   6.723   7.004   2.320
 9532SOL    HW229496   6.706   6.987   2.158
 9533SOL     OW29497   6.853   6.652   5.816
 9533SOL    HW129498   6.948   6.634   5.842
 9533SOL    HW229499   6.851   6.708   5.734
 9534SOL     OW29500   0.162   3.894   4.875
 9534SOL    HW129501   0.251   3.848   4.879
 9534SOL    HW229502   0.133   3.918   4.968
 9535SOL     OW29503   2.245   1.316   6.047
 9535SOL    HW129504   2.222   1.219   6.057
 9535SOL    HW229505   2.304   1.344   6.123
 9536SOL     OW29506   2.757   4.307   5.334
 9536SOL    HW129507   2.685   4.356   5.382
 9536SOL    HW229508   2.808   4.371   5.276
 9537SOL     OW29509   3.034   6.446   2.822
 9537SOL    HW129510   3.063   6.529   2.870
 9537SOL    HW229511   3.091   6.369   2.851
 9538SOL     OW29512   6.517   1.902   3.499
 9538SOL    HW129513   6.547   1.822   3.552
 9538SOL    HW229514   6.448   1.952   3.551
 9539SOL     OW29515   2.822   3.835   5.225
 9539SOL    HW129516   2.740   3.888   5.205
 9539SOL    HW229517   2.861   3.864   5.313
 9540SOL     OW29518   6.157   4.242   4.478
 9540SOL    HW129519   6.083   4.293   4.521
 9540SOL    HW229520   6.119   4.171   4.419
 9541SOL     OW29521   3.695   0.626   5.508
 9541SOL    HW129522   3.598   0.625   5.533
 9541SOL    HW229523   3.740   0.703   5.554
 9542SOL     OW29524   5.377   4.257   4.428
 9542SOL    HW129525   5.307   4.215   4.485
 9542SOL    HW229526   5.339   4.338   4.383
 9543SOL     OW29527   3.601   1.065   5.073
 9543SOL    HW129528   3.699   1.050   5.088
 9543SOL    HW229529   3.551   0.982   5.096
 9544SOL     OW29530   6.902   1.452   3.909
 9544SOL    HW129531   6.938   1.363   3.937
 9544SOL    HW229532   6.810   1.464   3.949
 9545SOL     OW29533   5.795   5.345   4.040
 9545SOL    HW129534   5.816   5.356   3.943
 9545SOL    HW229535   5.861   5.282   4.082
 9546SOL     OW29536   3.038   2.239   5.701
 9546SOL    HW129537   3.032   2.164   5.635
 9546SOL    HW229538   2.989   2.319   5.665
 9547SOL     OW29539   2.407   6.704   4.530
 9547SOL    HW129540   2.412   6.662   4.439
 9547SOL    HW229541   2.361   6.642   4.593
 9548SOL     OW29542   5.984   6.061   6.448
 9548SOL    HW129543   6.019   6.144   6.405
 9548SOL    HW229544   6.041   5.983   6.423
 9549SOL     OW29545   2.760   3.106   1.122
 9549SOL    HW129546   2.682   3.045   1.108
 9549SOL    HW229547   2.761   3.137   1.217
 9550SOL     OW29548   0.198   1.267   0.706
 9550SOL    HW129549   0.131   1.193   0.699
 9550SOL    HW229550   0.157   1.344   0.756
 9551SOL     OW29551   5.758   1.100   4.136
 9551SOL    HW129552   5.775   1.145   4.224
 9551SOL    HW229553   5.801   1.009   4.137
 9552SOL     OW29554   1.357   6.321   2.891
 9552SOL    HW129555   1.423   6.392   2.871
 9552SOL    HW229556   1.272   6.363   2.925
 9553SOL     OW29557   6.052   3.875   6.973
 9553SOL    HW129558   6.057   3.905   0.044
 9553SOL    HW229559   6.111   3.932   6.916
 9554SOL     OW29560   2.667   0.511   1.503
 9554SOL    HW129561   2.758   0.474   1.483
 9554SOL    HW229562   2.615   0.520   1.417
 9555SOL     OW29563   1.056   0.827   2.770
 9555SOL    HW129564   1.048   0.925   2.752
 9555SOL    HW229565   1.137   0.791   2.725
 9556SOL     OW29566   1.655   1.945   1.302
 9556SOL    HW129567   1.720   1.931   1.377
 9556SOL    HW229568   1.706   1.961   1.217
 9557SOL     OW29569   0.151   0.485   2.631
 9557SOL    HW129570   0.154   0.546   2.710
 9557SOL    HW229571   0.189   0.396   2.657
 9558SOL     OW29572   6.576   6.334   4.744
 9558SOL    HW129573   6.623   6.408   4.697
 9558SOL    HW229574   6.482   6.328   4.711
 9559SOL     OW29575   0.988   4.124   0.768
 9559SOL    HW129576   1.043   4.207   0.772
 9559SOL    HW229577   1.033   4.050   0.818
 9560SOL     OW29578   0.970   1.799   3.310
 9560SOL    HW129579   0.924   1.741   3.243
 9560SOL    HW229580   0.939   1.894   3.299
 9561SOL     OW29581   1.173   6.320   0.632
 9561SOL    HW129582   1.211   6.268   0.555
 9561SOL    HW229583   1.245   6.374   0.675
 9562SOL     OW29584   3.368   0.272   5.556
 9562SOL    HW129585   3.327   0.324   5.631
 9562SOL    HW229586   3.468   0.278   5.562
 9563SOL     OW29587   6.120   6.974   0.785
 9563SOL    HW129588   6.210   7.012   0.769
 9563SOL    HW229589   6.129   6.888   0.835
 9564SOL     OW29590   3.101   0.300   0.105
 9564SOL    HW129591   3.075   0.207   0.079
 9564SOL    HW229592   3.102   0.359   0.024
 9565SOL     OW29593   4.111   5.896   4.867
 9565SOL    HW129594   4.052   5.940   4.935
 9565SOL    HW229595   4.197   5.871   4.910
 9566SOL     OW29596   2.722   4.721   6.660
 9566SOL    HW129597   2.761   4.664   6.587
 9566SOL    HW229598   2.643   4.771   6.624
 9567SOL     OW29599   5.762   4.650   6.801
 9567SOL    HW129600   5.713   4.599   6.871
 9567SOL    HW229601   5.697   4.700   6.744
 9568SOL     OW29602   4.210   2.828   6.932
 9568SOL    HW129603   4.285   2.768   6.903
 9568SOL    HW229604   4.160   2.786   7.008
 9569SOL     OW29605   0.192   0.631   2.868
 9569SOL    HW129606   0.119   0.681   2.914
 9569SOL    HW229607   0.246   0.581   2.935
 9570SOL     OW29608   0.777   2.609   2.609
 9570SOL    HW129609   0.873   2.582   2.597
 9570SOL    HW229610   0.769   2.669   2.689
 9571SOL     OW29611   2.207   3.832   0.193
 9571SOL    HW129612   2.130   3.872   0.243
 9571SOL    HW229613   2.173   3.784   0.113
 9572SOL     OW29614   2.124   5.613   1.544
 9572SOL    HW129615   2.127   5.643   1.639
 9572SOL    HW229616   2.153   5.688   1.485
 9573SOL     OW29617   1.065   1.355   6.714
 9573SOL    HW129618   0.992   1.370   6.647
 9573SOL    HW229619   1.143   1.414   6.691
 9574SOL     OW29620   3.750   3.308   4.000
 9574SOL    HW129621   3.700   3.393   3.984
 9574SOL    HW229622   3.721   3.268   4.087
 9575SOL     OW29623   5.857   1.573   1.086
 9575SOL    HW129624   5.800   1.653   1.068
 9575SOL    HW229625   5.800   1.500   1.123
 9576SOL     OW29626   2.773   0.358   2.567
 9576SOL    HW129627   2.767   0.432   2.634
 9576SOL    HW229628   2.736   0.389   2.479
 9577SOL     OW29629   1.210   0.804   4.212
 9577SOL    HW129630   1.286   0.866   4.192
 9577SOL    HW229631   1.125   0.846   4.180
 9578SOL     OW29632   0.218   4.073   3.667
 9578SOL    HW129633   0.226   4.041   3.761
 9578SOL    HW229634   0.288   4.141   3.648
 9579SOL     OW29635   1.918   5.415   2.780
 9579SOL    HW129636   1.820   5.422   2.760
 9579SOL    HW229637   1.970   5.464   2.710
 9580SOL     OW29638   4.143   3.202   0.891
 9580SOL    HW129639   4.194   3.151   0.961
 9580SOL    HW229640   4.079   3.264   0.935
 9581SOL     OW29641   1.384   5.656   6.273
 9581SOL    HW129642   1.475   5.617   6.287
 9581SOL    HW229643   1.376   5.690   6.180
 9582SOL     OW29644   4.605   4.940   4.729
 9582SOL    HW129645   4.663   4.871   4.686
 9582SOL    HW229646   4.537   4.896   4.787
 9583SOL     OW29647   3.401   4.678   1.112
 9583SOL    HW129648   3.358   4.643   1.195
 9583SOL    HW229649   3.330   4.696   1.044
 9584SOL     OW29650   6.845   6.611   0.151
 9584SOL    HW129651   6.818   6.649   0.239
 9584SOL    HW229652   6.901   6.530   0.165
 9585SOL     OW29653   6.436   0.360   3.397
 9585SOL    HW129654   6.372   0.362   3.474
 9585SOL    HW229655   6.482   0.448   3.389
 9586SOL     OW29656   5.834   3.842   2.305
 9586SOL    HW129657   5.792   3.778   2.241
 9586SOL    HW229658   5.932   3.827   2.308
 9587SOL     OW29659   6.200   0.628   2.307
 9587SOL    HW129660   6.275   0.562   2.314
 9587SOL    HW229661   6.219   0.692   2.233
 9588SOL     OW29662   0.516   1.657   2.182
 9588SOL    HW129663   0.525   1.734   2.245
 9588SOL    HW229664   0.513   1.690   2.088
 9589SOL     OW29665   2.730   5.404   6.164
 9589SOL    HW129666   2.785   5.332   6.205
 9589SOL    HW229667   2.765   5.425   6.072
 9590SOL     OW29668   0.428   4.481   2.056
 9590SOL    HW129669   0.458   4.576   2.065
 9590SOL    HW229670   0.473   4.439   1.977
 9591SOL     OW29671   2.773   6.051   0.397
 9591SOL    HW129672   2.700   6.017   0.456
 9591SOL    HW229673   2.786   6.149   0.412
 9592SOL     OW29674   3.772   4.623   1.665
 9592SOL    HW129675   3.843   4.693   1.655
 9592SOL    HW229676   3.723   4.637   1.751
 9593SOL     OW29677   6.412   0.605   4.709
 9593SOL    HW129678   6.510   0.602   4.690
 9593SOL    HW229679   6.380   0.700   4.708
 9594SOL     OW29680   1.721   6.088   3.616
 9594SOL    HW129681   1.734   6.010   3.555
 9594SOL    HW229682   1.807   6.136   3.628
 9595SOL     OW29683   1.930   4.223   4.864
 9595SOL    HW129684   1.967   4.314   4.881
 9595SOL    HW229685   1.909   4.179   4.951
 9596SOL     OW29686   0.491   5.989   0.423
 9596SOL    HW129687   0.506   6.037   0.337
 9596SOL    HW229688   0.579   5.972   0.468
 9597SOL     OW29689   0.389   4.753   0.603
 9597SOL    HW129690   0.351   4.662   0.620
 9597SOL    HW229691   0.316   4.821   0.607
 9598SOL     OW29692   0.696   3.862   5.195
 9598SOL    HW129693   0.736   3.798   5.129
 9598SOL    HW229694   0.729   3.955   5.175
 9599SOL     OW29695   2.841   0.559   5.436
 9599SOL    HW129696   2.916   0.494   5.418
 9599SOL    HW229697   2.879   0.644   5.472
 9600SOL     OW29698   2.080   0.021   6.823
 9600SOL    HW129699   2.019   6.992   6.764
 9600SOL    HW229700   2.132   6.983   6.881
 9601SOL     OW29701   6.124   4.233   0.090
 9601SOL    HW129702   6.097   4.286   0.170
 9601SOL    HW229703   6.217   4.199   0.102
 9602SOL     OW29704   6.463   5.068   6.947
 9602SOL    HW129705   6.425   4.978   6.964
 9602SOL    HW229706   6.457   5.089   6.849
 9603SOL     OW29707   3.077   0.516   4.916
 9603SOL    HW129708   2.997   0.574   4.926
 9603SOL    HW229709   3.050   0.420   4.924
 9604SOL     OW29710   5.013   0.167   0.579
 9604SOL    HW129711   4.990   0.138   0.672
 9604SOL    HW229712   5.074   0.245   0.583
 9605SOL     OW29713   0.899   5.117   5.171
 9605SOL    HW129714   0.814   5.067   5.188
 9605SOL    HW229715   0.886   5.179   5.094
 9606SOL     OW29716   1.529   6.119   5.061
 9606SOL    HW129717   1.626   6.136   5.044
 9606SOL    HW229718   1.503   6.031   5.022
 9607SOL     OW29719   1.151   1.988   2.124
 9607SOL    HW129720   1.214   1.932   2.178
 9607SOL    HW229721   1.109   2.057   2.183
 9608SOL     OW29722   6.687   6.295   1.938
 9608SOL    HW129723   6.744   6.367   1.898
 9608SOL    HW229724   6.665   6.318   2.032
 9609SOL     OW29725   1.519   3.773   5.479
 9609SOL    HW129726   1.568   3.691   5.448
 9609SOL    HW229727   1.583   3.835   5.525
 9610SOL     OW29728   1.366   4.054   4.096
 9610SOL    HW129729   1.410   4.112   4.027
 9610SOL    HW229730   1.376   4.096   4.186
 9611SOL     OW29731   0.097   6.563   0.464
 9611SOL    HW129732   0.040   6.564   0.547
 9611SOL    HW229733   0.087   6.474   0.418
 9612SOL     OW29734   6.290   3.195   1.406
 9612SOL    HW129735   6.325   3.276   1.359
 9612SOL    HW229736   6.224   3.149   1.347
 9613SOL     OW29737   3.630   6.280   3.315
 9613SOL    HW129738   3.608   6.190   3.276
 9613SOL    HW229739   3.705   6.270   3.381
 9614SOL     OW29740   3.577   3.073   1.181
 9614SOL    HW129741   3.498   3.132   1.170
 9614SOL    HW229742   3.652   3.107   1.124
 9615SOL     OW29743   1.266   6.741   2.209
 9615SOL    HW129744   1.356   6.761   2.246
 9615SOL    HW229745   1.196   6.767   2.276
 9616SOL     OW29746   4.281   3.923   0.625
 9616SOL    HW129747   4.309   4.017   0.604
 9616SOL    HW229748   4.288   3.867   0.543
 9617SOL     OW29749   1.001   3.659   4.398
 9617SOL    HW129750   1.082   3.716   4.382
 9617SOL    HW229751   1.004   3.579   4.338
 9618SOL     OW29752   4.882   0.191   6.027
 9618SOL    HW129753   4.976   0.157   6.033
 9618SOL    HW229754   4.882   0.287   5.999
 9619SOL     OW29755   1.290   0.446   0.530
 9619SOL    HW129756   1.339   0.497   0.602
 9619SOL    HW229757   1.293   0.349   0.551
 9620SOL     OW29758   5.594   1.764   6.482
 9620SOL    HW129759   5.500   1.752   6.452
 9620SOL    HW229760   5.635   1.842   6.434
 9621SOL     OW29761   1.767   1.197   2.933
 9621SOL    HW129762   1.772   1.173   2.836
 9621SOL    HW229763   1.674   1.225   2.956
 9622SOL     OW29764   5.854   1.168   6.730
 9622SOL    HW129765   5.835   1.088   6.674
 9622SOL    HW229766   5.812   1.249   6.689
 9623SOL     OW29767   4.516   5.491   5.566
 9623SOL    HW129768   4.494   5.553   5.491
 9623SOL    HW229769   4.503   5.539   5.653
 9624SOL     OW29770   5.314   4.396   4.012
 9624SOL    HW129771   5.274   4.436   4.094
 9624SOL    HW229772   5.392   4.339   4.037
 9625SOL     OW29773   5.270   4.742   6.918
 9625SOL    HW129774   5.290   4.699   6.829
 9625SOL    HW229775   5.250   4.671   6.985
 9626SOL     OW29776   2.222   5.719   5.610
 9626SOL    HW129777   2.287   5.785   5.648
 9626SOL    HW229778   2.161   5.766   5.546
 9627SOL     OW29779   0.048   3.686   4.733
 9627SOL    HW129780   7.009   3.628   4.783
 9627SOL    HW229781   0.083   3.758   4.793
 9628SOL     OW29782   6.268   4.191   0.674
 9628SOL    HW129783   6.351   4.170   0.622
 9628SOL    HW229784   6.230   4.278   0.643
 9629SOL     OW29785   6.714   5.507   2.400
 9629SOL    HW129786   6.754   5.598   2.390
 9629SOL    HW229787   6.754   5.446   2.332
 9630SOL     OW29788   6.436   6.331   5.680
 9630SOL    HW129789   6.469   6.381   5.760
 9630SOL    HW229790   6.416   6.395   5.606
 9631SOL     OW29791   4.748   2.175   0.967
 9631SOL    HW129792   4.796   2.132   0.891
 9631SOL    HW229793   4.707   2.105   1.026
 9632SOL     OW29794   2.368   5.523   1.894
 9632SOL    HW129795   2.426   5.457   1.942
 9632SOL    HW229796   2.281   5.533   1.943
 9633SOL     OW29797   3.851   4.468   0.550
 9633SOL    HW129798   3.892   4.388   0.505
 9633SOL    HW229799   3.886   4.551   0.507
 9634SOL     OW29800   0.313   5.623   3.618
 9634SOL    HW129801   0.255   5.542   3.610
 9634SOL    HW229802   0.298   5.683   3.540
 9635SOL     OW29803   2.044   4.086   5.429
 9635SOL    HW129804   2.138   4.091   5.396
 9635SOL    HW229805   1.991   4.161   5.391
 9636SOL     OW29806   4.456   1.588   5.958
 9636SOL    HW129807   4.378   1.650   5.950
 9636SOL    HW229808   4.534   1.626   5.908
 9637SOL     OW29809   3.777   2.619   1.088
 9637SOL    HW129810   3.702   2.685   1.088
 9637SOL    HW229811   3.794   2.589   0.994
 9638SOL     OW29812   0.199   3.176   5.846
 9638SOL    HW129813   0.205   3.212   5.753
 9638SOL    HW229814   0.169   3.248   5.908
 9639SOL     OW29815   4.229   2.225   2.105
 9639SOL    HW129816   4.280   2.164   2.165
 9639SOL    HW229817   4.139   2.185   2.085
 9640SOL     OW29818   3.199   0.520   2.875
 9640SOL    HW129819   3.125   0.515   2.941
 9640SOL    HW229820   3.286   0.532   2.923
 9641SOL     OW29821   5.586   5.509   1.886
 9641SOL    HW129822   5.512   5.479   1.947
 9641SOL    HW229823   5.671   5.465   1.913
 9642SOL     OW29824   1.280   5.926   4.607
 9642SOL    HW129825   1.365   5.942   4.556
 9642SOL    HW229826   1.205   5.976   4.564
 9643SOL     OW29827   5.115   3.999   3.497
 9643SOL    HW129828   5.109   4.003   3.597
 9643SOL    HW229829   5.209   4.016   3.468
 9644SOL     OW29830   0.738   5.893   5.719
 9644SOL    HW129831   0.745   5.832   5.798
 9644SOL    HW229832   0.643   5.922   5.707
 9645SOL     OW29833   2.735   4.678   4.223
 9645SOL    HW129834   2.648   4.633   4.243
 9645SOL    HW229835   2.803   4.651   4.292
 9646SOL     OW29836   2.574   5.280   2.028
 9646SOL    HW129837   2.655   5.288   2.087
 9646SOL    HW229838   2.602   5.295   1.933
 9647SOL     OW29839   0.178   6.741   3.072
 9647SOL    HW129840   0.212   6.834   3.061
 9647SOL    HW229841   0.254   6.682   3.102
 9648SOL     OW29842   3.788   2.871   6.813
 9648SOL    HW129843   3.747   2.963   6.809
 9648SOL    HW229844   3.717   2.805   6.837
 9649SOL     OW29845   1.982   4.299   0.091
 9649SOL    HW129846   1.913   4.368   0.073
 9649SOL    HW229847   1.968   4.221   0.029
 9650SOL     OW29848   5.040   4.712   2.953
 9650SOL    HW129849   4.949   4.735   2.917
 9650SOL    HW229850   5.109   4.738   2.885
 9651SOL     OW29851   5.441   1.159   1.080
 9651SOL    HW129852   5.432   1.087   1.149
 9651SOL    HW229853   5.389   1.239   1.109
 9652SOL     OW29854   0.984   4.662   1.821
 9652SOL    HW129855   0.926   4.683   1.742
 9652SOL    HW229856   1.067   4.615   1.790
 9653SOL     OW29857   4.383   5.102   4.501
 9653SOL    HW129858   4.420   5.056   4.581
 9653SOL    HW229859   4.399   5.047   4.419
 9654SOL     OW29860   2.892   3.445   2.878
 9654SOL    HW129861   2.920   3.538   2.858
 9654SOL    HW229862   2.865   3.399   2.794
 9655SOL     OW29863   0.137   2.026   0.255
 9655SOL    HW129864   0.091   1.939   0.272
 9655SOL    HW229865   0.074   2.088   0.206
 9656SOL     OW29866   4.180   3.058   1.304
 9656SOL    HW129867   4.093   3.053   1.254
 9656SOL    HW229868   4.166   3.107   1.390
 9657SOL     OW29869   5.674   3.077   2.298
 9657SOL    HW129870   5.623   3.162   2.285
 9657SOL    HW229871   5.757   3.080   2.241
 9658SOL     OW29872   5.557   1.524   2.484
 9658SOL    HW129873   5.460   1.531   2.463
 9658SOL    HW229874   5.574   1.443   2.539
 9659SOL     OW29875   0.559   3.417   6.963
 9659SOL    HW129876   0.547   3.318   6.968
 9659SOL    HW229877   0.517   3.460   0.019
 9660SOL     OW29878   0.631   6.492   2.865
 9660SOL    HW129879   0.686   6.549   2.927
 9660SOL    HW229880   0.567   6.549   2.814
 9661SOL     OW29881   3.563   6.265   1.742
 9661SOL    HW129882   3.609   6.176   1.740
 9661SOL    HW229883   3.468   6.253   1.773
 9662SOL     OW29884   4.170   3.031   6.265
 9662SOL    HW129885   4.096   3.087   6.302
 9662SOL    HW229886   4.239   3.016   6.336
 9663SOL     OW29887   0.130   5.839   2.669
 9663SOL    HW129888   0.070   5.862   2.747
 9663SOL    HW229889   0.133   5.916   2.606
 9664SOL     OW29890   5.748   5.483   4.425
 9664SOL    HW129891   5.719   5.411   4.363
 9664SOL    HW229892   5.690   5.564   4.413
 9665SOL     OW29893   5.729   6.695   6.515
 9665SOL    HW129894   5.794   6.770   6.521
 9665SOL    HW229895   5.763   6.617   6.567
 9666SOL     OW29896   6.733   4.226   2.032
 9666SOL    HW129897   6.768   4.143   1.988
 9666SOL    HW229898   6.756   4.225   2.129
 9667SOL     OW29899   4.167   3.797   0.058
 9667SOL    HW129900   4.117   3.711   0.052
 9667SOL    HW229901   4.102   3.873   0.066
 9668SOL     OW29902   0.522   0.612   6.215
 9668SOL    HW129903   0.463   0.548   6.168
 9668SOL    HW229904   0.516   0.598   6.314
 9669SOL     OW29905   1.894   0.000   1.736
 9669SOL    HW129906   1.976   6.975   1.709
 9669SOL    HW229907   1.816   6.962   1.737
 9670SOL     OW29908   6.973   4.788   5.991
 9670SOL    HW129909   0.046   4.766   5.994
 9670SOL    HW229910   6.961   4.886   6.009
 9671SOL     OW29911   0.185   4.422   0.447
 9671SOL    HW129912   0.193   4.337   0.394
 9671SOL    HW229913   0.103   4.471   0.419
 9672SOL     OW29914   1.777   5.383   3.266
 9672SOL    HW129915   1.694   5.344   3.227
 9672SOL    HW229916   1.817   5.319   3.331
 9673SOL     OW29917   4.136   3.891   1.370
 9673SOL    HW129918   4.048   3.892   1.322
 9673SOL    HW229919   4.126   3.936   1.459
 9674SOL     OW29920   3.319   6.832   3.537
 9674SOL    HW129921   3.398   6.888   3.559
 9674SOL    HW229922   3.314   6.817   3.438
 9675SOL     OW29923   5.527   2.275   6.326
 9675SOL    HW129924   5.548   2.349   6.262
 9675SOL    HW229925   5.429   2.260   6.330
 9676SOL     OW29926   0.952   2.890   6.039
 9676SOL    HW129927   0.988   2.833   5.966
 9676SOL    HW229928   1.022   2.955   6.069
 9677SOL     OW29929   6.424   5.583   4.742
 9677SOL    HW129930   6.497   5.521   4.768
 9677SOL    HW229931   6.451   5.677   4.761
 9678SOL     OW29932   2.985   3.898   4.180
 9678SOL    HW129933   3.064   3.842   4.205
 9678SOL    HW229934   2.917   3.841   4.134
 9679SOL     OW29935   2.821   0.289   3.273
 9679SOL    HW129936   2.734   0.323   3.310
 9679SOL    HW229937   2.802   0.219   3.204
 9680SOL     OW29938   3.859   0.858   3.556
 9680SOL    HW129939   3.900   0.797   3.488
 9680SOL    HW229940   3.924   0.873   3.631
 9681SOL     OW29941   2.646   1.575   0.578
 9681SOL    HW129942   2.552   1.575   0.546
 9681SOL    HW229943   2.708   1.556   0.502
 9682SOL     OW29944   5.042   4.184   3.175
 9682SOL    HW129945   5.128   4.220   3.140
 9682SOL    HW229946   4.966   4.227   3.127
 9683SOL     OW29947   3.308   6.373   1.727
 9683SOL    HW129948   3.255   6.369   1.811
 9683SOL    HW229949   3.279   6.452   1.672
 9684SOL     OW29950   1.050   3.125   6.514
 9684SOL    HW129951   1.003   3.214   6.517
 9684SOL    HW229952   1.062   3.091   6.608
 9685SOL     OW29953   4.659   4.211   0.525
 9685SOL    HW129954   4.690   4.278   0.592
 9685SOL    HW229955   4.693   4.235   0.435
 9686SOL     OW29956   0.797   3.318   6.486
 9686SOL    HW129957   0.758   3.230   6.514
 9686SOL    HW229958   0.817   3.373   6.567
 9687SOL     OW29959   0.952   0.829   3.983
 9687SOL    HW129960   1.041   0.820   3.938
 9687SOL    HW229961   0.925   0.741   4.022
 9688SOL     OW29962   1.458   3.042   1.050
 9688SOL    HW129963   1.493   3.032   0.957
 9688SOL    HW229964   1.488   2.965   1.105
 9689SOL     OW29965   0.776   4.489   6.273
 9689SOL    HW129966   0.800   4.579   6.235
 9689SOL    HW229967   0.859   4.443   6.303
 9690SOL     OW29968   6.261   5.828   6.828
 9690SOL    HW129969   6.242   5.741   6.874
 9690SOL    HW229970   6.273   5.900   6.897
 9691SOL     OW29971   3.513   4.924   1.158
 9691SOL    HW129972   3.573   4.929   1.238
 9691SOL    HW229973   3.476   4.832   1.149
 9692SOL     OW29974   3.915   6.066   1.900
 9692SOL    HW129975   3.977   6.029   1.830
 9692SOL    HW229976   3.967   6.086   1.983
 9693SOL     OW29977   5.588   3.841   2.685
 9693SOL    HW129978   5.579   3.880   2.594
 9693SOL    HW229979   5.535   3.756   2.691
 9694SOL     OW29980   3.236   1.266   1.697
 9694SOL    HW129981   3.239   1.363   1.718
 9694SOL    HW229982   3.160   1.223   1.746
 9695SOL     OW29983   0.182   2.868   3.423
 9695SOL    HW129984   0.119   2.945   3.430
 9695SOL    HW229985   0.140   2.795   3.370
 9696SOL     OW29986   5.266   2.875   1.357
 9696SOL    HW129987   5.256   2.784   1.397
 9696SOL    HW229988   5.257   2.945   1.429
 9697SOL     OW29989   0.159   5.224   0.092
 9697SOL    HW129990   0.227   5.291   0.062
 9697SOL    HW229991   0.107   5.191   0.014
 9698SOL     OW29992   5.315   2.288   6.046
 9698SOL    HW129993   5.236   2.276   5.986
 9698SOL    HW229994   5.294   2.253   6.137
 9699SOL     OW29995   6.288   6.389   6.615
 9699SOL    HW129996   6.324   6.479   6.639
 9699SOL    HW229997   6.360   6.335   6.571
 9700SOL     OW29998   4.908   5.595   4.918
 9700SOL    HW129999   4.939   5.579   4.824
 9700SOL    HW230000   4.869   5.687   4.925
 9701SOL     OW30001   4.290   5.241   5.325
 9701SOL    HW130002   4.368   5.303   5.313
 9701SOL    HW230003   4.206   5.288   5.300
 9702SOL     OW30004   4.193   1.493   6.662
 9702SOL    HW130005   4.163   1.470   6.755
 9702SOL    HW230006   4.292   1.504   6.661
 9703SOL     OW30007   4.871   3.782   3.566
 9703SOL    HW130008   4.861   3.690   3.605
 9703SOL    HW230009   4.962   3.791   3.526
 9704SOL     OW30010   3.456   6.745   1.503
 9704SOL    HW130011   3.381   6.721   1.565
 9704SOL    HW230012   3.434   6.831   1.456
 9705SOL     OW30013   5.584   3.874   6.039
 9705SOL    HW130014   5.518   3.904   6.107
 9705SOL    HW230015   5.570   3.925   5.954
 9706SOL     OW30016   2.151   2.801   0.988
 9706SOL    HW130017   2.144   2.884   1.044
 9706SOL    HW230018   2.246   2.789   0.959
 9707SOL     OW30019   6.580   4.239   2.308
 9707SOL    HW130020   6.655   4.292   2.349
 9707SOL    HW230021   6.499   4.297   2.300
 9708SOL     OW30022   1.416   1.855   3.647
 9708SOL    HW130023   1.363   1.926   3.694
 9708SOL    HW230024   1.455   1.792   3.715
 9709SOL     OW30025   5.373   6.329   3.209
 9709SOL    HW130026   5.390   6.231   3.198
 9709SOL    HW230027   5.421   6.380   3.137
 9710SOL     OW30028   0.093   1.660   1.305
 9710SOL    HW130029   0.024   1.732   1.309
 9710SOL    HW230030   0.092   1.619   1.213
 9711SOL     OW30031   3.815   5.264   5.655
 9711SOL    HW130032   3.740   5.302   5.710
 9711SOL    HW230033   3.844   5.176   5.694
 9712SOL     OW30034   5.384   4.097   6.790
 9712SOL    HW130035   5.478   4.082   6.759
 9712SOL    HW230036   5.328   4.019   6.764
 9713SOL     OW30037   1.712   4.395   3.445
 9713SOL    HW130038   1.752   4.400   3.537
 9713SOL    HW230039   1.723   4.302   3.409
 9714SOL     OW30040   4.408   6.347   6.276
 9714SOL    HW130041   4.473   6.277   6.304
 9714SOL    HW230042   4.396   6.413   6.350
 9715SOL     OW30043   5.807   4.241   0.189
 9715SOL    HW130044   5.864   4.209   0.265
 9715SOL    HW230045   5.863   4.297   0.127
 9716SOL     OW30046   3.749   4.389   6.480
 9716SOL    HW130047   3.797   4.472   6.453
 9716SOL    HW230048   3.740   4.328   6.401
 9717SOL     OW30049   5.094   6.555   6.059
 9717SOL    HW130050   5.046   6.632   6.018
 9717SOL    HW230051   5.041   6.471   6.045
 9718SOL     OW30052   5.470   3.377   0.361
 9718SOL    HW130053   5.390   3.319   0.348
 9718SOL    HW230054   5.442   3.462   0.407
 9719SOL     OW30055   6.541   0.625   6.067
 9719SOL    HW130056   6.607   0.554   6.044
 9719SOL    HW230057   6.455   0.584   6.095
 9720SOL     OW30058   0.516   4.934   2.351
 9720SOL    HW130059   0.560   4.844   2.347
 9720SOL    HW230060   0.486   4.959   2.259
 9721SOL     OW30061   0.449   2.109   0.656
 9721SOL    HW130062   0.418   2.147   0.743
 9721SOL    HW230063   0.505   2.177   0.608
 9722SOL     OW30064   4.437   1.288   4.333
 9722SOL    HW130065   4.472   1.350   4.263
 9722SOL    HW230066   4.511   1.262   4.395
 9723SOL     OW30067   3.269   6.795   3.268
 9723SOL    HW130068   3.211   6.799   3.186
 9723SOL    HW230069   3.363   6.820   3.243
 9724SOL     OW30070   1.713   4.977   6.976
 9724SOL    HW130071   1.707   5.042   6.900
 9724SOL    HW230072   1.721   5.027   0.038
 9725SOL     OW30073   5.220   5.627   5.754
 9725SOL    HW130074   5.200   5.572   5.672
 9725SOL    HW230075   5.314   5.660   5.749
 9726SOL     OW30076   5.147   1.491   3.673
 9726SOL    HW130077   5.125   1.572   3.727
 9726SOL    HW230078   5.218   1.439   3.720
 9727SOL     OW30079   1.020   2.340   0.079
 9727SOL    HW130080   0.975   2.422   0.115
 9727SOL    HW230081   1.117   2.360   0.063
 9728SOL     OW30082   1.157   0.389   5.407
 9728SOL    HW130083   1.205   0.303   5.390
 9728SOL    HW230084   1.224   0.464   5.410
 9729SOL     OW30085   1.269   4.321   3.237
 9729SOL    HW130086   1.360   4.349   3.206
 9729SOL    HW230087   1.208   4.313   3.158
 9730SOL     OW30088   2.008   3.938   3.699
 9730SOL    HW130089   2.044   4.001   3.630
 9730SOL    HW230090   1.987   3.989   3.782
 9731SOL     OW30091   5.321   4.677   1.048
 9731SOL    HW130092   5.236   4.725   1.070
 9731SOL    HW230093   5.318   4.584   1.084
 9732SOL     OW30094   0.029   5.210   2.432
 9732SOL    HW130095   0.116   5.161   2.441
 9732SOL    HW230096   7.012   5.220   2.523
 9733SOL     OW30097   5.166   5.341   0.157
 9733SOL    HW130098   5.127   5.373   0.243
 9733SOL    HW230099   5.204   5.418   0.106
 9734SOL     OW30100   6.468   1.778   0.768
 9734SOL    HW130101   6.541   1.765   0.702
 9734SOL    HW230102   6.430   1.870   0.758
 9735SOL     OW30103   2.135   3.479   3.557
 9735SOL    HW130104   2.157   3.576   3.549
 9735SOL    HW230105   2.160   3.432   3.472
 9736SOL     OW30106   6.048   1.885   6.137
 9736SOL    HW130107   6.140   1.923   6.140
 9736SOL    HW230108   6.046   1.798   6.186
 9737SOL     OW30109   5.586   2.959   3.157
 9737SOL    HW130110   5.535   2.926   3.077
 9737SOL    HW230111   5.589   2.887   3.226
 9738SOL     OW30112   2.330   0.264   0.328
 9738SOL    HW130113   2.388   0.336   0.366
 9738SOL    HW230114   2.274   0.301   0.254
 9739SOL     OW30115   5.572   5.389   1.299
 9739SOL    HW130116   5.652   5.370   1.243
 9739SOL    HW230117   5.600   5.429   1.386
 9740SOL     OW30118   6.806   1.024   3.301
 9740SOL    HW130119   6.891   1.069   3.276
 9740SOL    HW230120   6.813   0.926   3.279
 9741SOL     OW30121   3.746   1.994   2.372
 9741SOL    HW130122   3.699   2.024   2.289
 9741SOL    HW230123   3.830   1.945   2.347
 9742SOL     OW30124   4.525   1.426   0.793
 9742SOL    HW130125   4.598   1.448   0.857
 9742SOL    HW230126   4.456   1.369   0.839
 9743SOL     OW30127   6.740   3.156   4.446
 9743SOL    HW130128   6.692   3.069   4.446
 9743SOL    HW230129   6.816   3.153   4.511
 9744SOL     OW30130   1.981   6.769   2.217
 9744SOL    HW130131   1.933   6.855   2.237
 9744SOL    HW230132   2.057   6.758   2.282
 9745SOL     OW30133   5.235   2.218   6.306
 9745SOL    HW130134   5.186   2.305   6.303
 9745SOL    HW230135   5.189   2.156   6.370
 9746SOL     OW30136   6.209   0.085   5.541
 9746SOL    HW130137   6.266   0.140   5.602
 9746SOL    HW230138   6.205   7.015   5.575
 9747SOL     OW30139   2.869   1.067   1.812
 9747SOL    HW130140   2.780   1.079   1.854
 9747SOL    HW230141   2.858   1.032   1.719
 9748SOL     OW30142   0.079   0.311   3.427
 9748SOL    HW130143   0.063   0.265   3.340
 9748SOL    HW230144   0.035   0.260   3.501
 9749SOL     OW30145   2.015   0.113   4.127
 9749SOL    HW130146   2.024   0.132   4.029
 9749SOL    HW230147   1.969   0.191   4.171
 9750SOL     OW30148   5.810   3.827   3.513
 9750SOL    HW130149   5.751   3.783   3.445
 9750SOL    HW230150   5.754   3.857   3.591
 9751SOL     OW30151   2.534   0.803   0.387
 9751SOL    HW130152   2.436   0.792   0.405
 9751SOL    HW230153   2.585   0.736   0.441
 9752SOL     OW30154   3.966   2.164   4.626
 9752SOL    HW130155   4.029   2.187   4.551
 9752SOL    HW230156   3.873   2.158   4.590
 9753SOL     OW30157   6.845   5.317   6.016
 9753SOL    HW130158   6.806   5.232   5.981
 9753SOL    HW230159   6.936   5.331   5.977
 9754SOL     OW30160   1.999   0.609   0.103
 9754SOL    HW130161   1.950   0.571   0.025
 9754SOL    HW230162   1.933   0.634   0.174
 9755SOL     OW30163   3.650   3.648   4.446
 9755SOL    HW130164   3.691   3.590   4.376
 9755SOL    HW230165   3.686   3.623   4.536
 9756SOL     OW30166   5.686   3.116   0.126
 9756SOL    HW130167   5.619   3.041   0.125
 9756SOL    HW230168   5.640   3.203   0.111
 9757SOL     OW30169   6.011   4.298   3.949
 9757SOL    HW130170   5.926   4.285   3.898
 9757SOL    HW230171   5.996   4.367   4.020
 9758SOL     OW30172   3.052   0.490   6.604
 9758SOL    HW130173   3.058   0.523   6.510
 9758SOL    HW230174   3.066   0.566   6.667
 9759SOL     OW30175   1.417   0.545   0.292
 9759SOL    HW130176   1.506   0.590   0.299
 9759SOL    HW230177   1.371   0.549   0.381
 9760SOL     OW30178   5.053   2.967   5.679
 9760SOL    HW130179   5.000   2.985   5.597
 9760SOL    HW230180   5.143   2.929   5.654
 9761SOL     OW30181   6.997   1.452   2.340
 9761SOL    HW130182   0.025   1.384   2.391
 9761SOL    HW230183   6.901   1.447   2.367
 9762SOL     OW30184   3.078   1.822   4.661
 9762SOL    HW130185   3.015   1.868   4.724
 9762SOL    HW230186   3.171   1.854   4.677
 9763SOL     OW30187   4.858   1.892   2.610
 9763SOL    HW130188   4.887   1.907   2.515
 9763SOL    HW230189   4.918   1.823   2.652
 9764SOL     OW30190   0.455   2.771   3.106
 9764SOL    HW130191   0.423   2.848   3.162
 9764SOL    HW230192   0.386   2.749   3.037
 9765SOL     OW30193   6.877   6.902   3.425
 9765SOL    HW130194   6.811   6.916   3.498
 9765SOL    HW230195   6.934   6.983   3.415
 9766SOL     OW30196   2.854   6.968   2.032
 9766SOL    HW130197   2.832   6.945   1.937
 9766SOL    HW230198   2.770   6.968   2.086
 9767SOL     OW30199   4.096   1.356   5.346
 9767SOL    HW130200   4.015   1.353   5.405
 9767SOL    HW230201   4.171   1.402   5.393
 9768SOL     OW30202   5.756   1.586   2.287
 9768SOL    HW130203   5.691   1.568   2.361
 9768SOL    HW230204   5.814   1.505   2.274
 9769SOL     OW30205   3.872   1.180   3.571
 9769SOL    HW130206   3.916   1.137   3.492
 9769SOL    HW230207   3.776   1.198   3.550
 9770SOL     OW30208   4.481   1.531   6.256
 9770SOL    HW130209   4.404   1.583   6.293
 9770SOL    HW230210   4.485   1.544   6.157
 9771SOL     OW30211   2.864   6.334   0.302
 9771SOL    HW130212   2.814   6.295   0.225
 9771SOL    HW230213   2.909   6.419   0.274
 9772SOL     OW30214   2.184   6.098   1.541
 9772SOL    HW130215   2.213   6.089   1.637
 9772SOL    HW230216   2.084   6.105   1.537
 9773SOL     OW30217   4.936   5.515   3.635
 9773SOL    HW130218   4.843   5.483   3.651
 9773SOL    HW230219   4.999   5.438   3.639
 9774SOL     OW30220   0.375   5.293   1.657
 9774SOL    HW130221   0.294   5.332   1.613
 9774SOL    HW230222   0.414   5.222   1.598
 9775SOL     OW30223   2.739   0.535   2.990
 9775SOL    HW130224   2.734   0.634   2.983
 9775SOL    HW230225   2.835   0.507   2.987
 9776SOL     OW30226   1.091   4.948   5.046
 9776SOL    HW130227   1.175   5.002   5.044
 9776SOL    HW230228   1.018   5.001   5.091
 9777SOL     OW30229   6.591   5.932   6.847
 9777SOL    HW130230   6.498   5.895   6.849
 9777SOL    HW230231   6.589   6.022   6.801
 9778SOL     OW30232   0.541   0.872   4.334
 9778SOL    HW130233   0.501   0.811   4.266
 9778SOL    HW230234   0.633   0.898   4.305
 9779SOL     OW30235   1.130   1.551   4.323
 9779SOL    HW130236   1.120   1.642   4.285
 9779SOL    HW230237   1.161   1.488   4.252
 9780SOL     OW30238   2.102   2.566   1.100
 9780SOL    HW130239   2.111   2.662   1.076
 9780SOL    HW230240   2.017   2.552   1.152
 9781SOL     OW30241   2.162   3.333   4.464
 9781SOL    HW130242   2.169   3.260   4.395
 9781SOL    HW230243   2.164   3.293   4.555
 9782SOL     OW30244   7.023   0.636   1.207
 9782SOL    HW130245   6.989   0.553   1.163
 9782SOL    HW230246   6.989   0.716   1.157
 9783SOL     OW30247   3.931   2.164   2.885
 9783SOL    HW130248   3.941   2.084   2.826
 9783SOL    HW230249   3.885   2.237   2.835
 9784SOL     OW30250   2.907   1.656   5.182
 9784SOL    HW130251   2.979   1.716   5.145
 9784SOL    HW230252   2.821   1.707   5.187
 9785SOL     OW30253   1.148   2.417   6.569
 9785SOL    HW130254   1.160   2.321   6.595
 9785SOL    HW230255   1.129   2.423   6.472
 9786SOL     OW30256   2.465   3.941   0.279
 9786SOL    HW130257   2.378   3.912   0.239
 9786SOL    HW230258   2.448   3.998   0.359
 9787SOL     OW30259   3.857   3.998   2.415
 9787SOL    HW130260   3.779   3.993   2.353
 9787SOL    HW230261   3.837   4.062   2.489
 9788SOL     OW30262   1.016   1.026   3.623
 9788SOL    HW130263   1.051   0.950   3.678
 9788SOL    HW230264   1.015   0.999   3.527
 9789SOL     OW30265   2.210   5.751   0.804
 9789SOL    HW130266   2.113   5.739   0.784
 9789SOL    HW230267   2.258   5.779   0.721
 9790SOL     OW30268   6.541   4.440   6.899
 9790SOL    HW130269   6.629   4.489   6.899
 9790SOL    HW230270   6.467   4.506   6.914
 9791SOL     OW30271   0.159   1.015   1.169
 9791SOL    HW130272   0.248   0.987   1.205
 9791SOL    HW230273   0.128   0.949   1.101
 9792SOL     OW30274   4.153   4.766   0.262
 9792SOL    HW130275   4.232   4.778   0.322
 9792SOL    HW230276   4.125   4.854   0.225
 9793SOL     OW30277   4.418   6.552   3.017
 9793SOL    HW130278   4.360   6.593   3.088
 9793SOL    HW230279   4.391   6.586   2.927
 9794SOL     OW30280   0.033   4.241   0.055
 9794SOL    HW130281   7.002   4.195   7.009
 9794SOL    HW230282   0.117   4.190   0.070
 9795SOL     OW30283   1.852   2.167   4.664
 9795SOL    HW130284   1.902   2.106   4.602
 9795SOL    HW230285   1.754   2.161   4.645
 9796SOL     OW30286   3.218   2.876   2.164
 9796SOL    HW130287   3.226   2.904   2.260
 9796SOL    HW230288   3.137   2.820   2.152
 9797SOL     OW30289   2.152   5.546   0.037
 9797SOL    HW130290   2.230   5.542   0.100
 9797SOL    HW230291   2.087   5.473   0.060
 9798SOL     OW30292   2.444   0.417   1.857
 9798SOL    HW130293   2.540   0.394   1.842
 9798SOL    HW230294   2.396   0.338   1.895
 9799SOL     OW30295   3.091   3.149   4.989
 9799SOL    HW130296   3.100   3.114   5.082
 9799SOL    HW230297   3.072   3.073   4.927
 9800SOL     OW30298   3.853   5.110   4.631
 9800SOL    HW130299   3.842   5.065   4.720
 9800SOL    HW230300   3.950   5.129   4.616
 9801SOL     OW30301   4.695   4.265   6.931
 9801SOL    HW130302   4.675   4.203   6.855
 9801SOL    HW230303   4.638   4.347   6.923
 9802SOL     OW30304   0.042   3.904   1.432
 9802SOL    HW130305   6.982   3.957   1.444
 9802SOL    HW230306   0.064   3.898   1.334
 9803SOL     OW30307   1.016   2.174   6.884
 9803SOL    HW130308   1.024   2.233   6.965
 9803SOL    HW230309   0.959   2.220   6.816
 9804SOL     OW30310   1.664   6.050   3.069
 9804SOL    HW130311   1.733   5.979   3.069
 9804SOL    HW230312   1.708   6.140   3.078
 9805SOL     OW30313   1.278   6.597   3.950
 9805SOL    HW130314   1.359   6.540   3.961
 9805SOL    HW230315   1.224   6.596   4.034
 9806SOL     OW30316   1.083   1.090   6.632
 9806SOL    HW130317   1.091   1.174   6.686
 9806SOL    HW230318   0.987   1.076   6.607
 9807SOL     OW30319   3.154   4.441   7.022
 9807SOL    HW130320   3.119   4.363   6.971
 9807SOL    HW230321   3.225   4.411   0.061
 9808SOL     OW30322   3.940   0.264   5.231
 9808SOL    HW130323   3.888   0.256   5.316
 9808SOL    HW230324   3.881   0.302   5.160
 9809SOL     OW30325   1.397   2.511   6.541
 9809SOL    HW130326   1.302   2.487   6.559
 9809SOL    HW230327   1.401   2.576   6.465
 9810SOL     OW30328   2.240   2.660   3.556
 9810SOL    HW130329   2.307   2.629   3.489
 9810SOL    HW230330   2.211   2.753   3.533
 9811SOL     OW30331   5.394   4.493   3.119
 9811SOL    HW130332   5.296   4.477   3.107
 9811SOL    HW230333   5.443   4.406   3.112
 9812SOL     OW30334   3.522   2.529   5.897
 9812SOL    HW130335   3.530   2.505   5.800
 9812SOL    HW230336   3.514   2.445   5.952
 9813SOL     OW30337   5.496   1.558   0.674
 9813SOL    HW130338   5.478   1.480   0.614
 9813SOL    HW230339   5.435   1.634   0.649
 9814SOL     OW30340   0.149   0.081   0.266
 9814SOL    HW130341   0.197   0.142   0.329
 9814SOL    HW230342   0.114   0.134   0.189
 9815SOL     OW30343   5.397   4.066   3.489
 9815SOL    HW130344   5.359   4.070   3.581
 9815SOL    HW230345   5.393   4.157   3.448
 9816SOL     OW30346   0.556   1.039   6.325
 9816SOL    HW130347   0.532   1.136   6.321
 9816SOL    HW230348   0.486   0.986   6.276
 9817SOL     OW30349   3.093   6.971   3.422
 9817SOL    HW130350   3.155   6.975   3.343
 9817SOL    HW230351   3.146   6.979   3.506
 9818SOL     OW30352   1.602   0.707   4.608
 9818SOL    HW130353   1.610   0.607   4.618
 9818SOL    HW230354   1.591   0.748   4.698
 9819SOL     OW30355   4.837   3.105   3.859
 9819SOL    HW130356   4.892   3.186   3.879
 9819SOL    HW230357   4.828   3.050   3.941
 9820SOL     OW30358   4.118   3.173   6.734
 9820SOL    HW130359   4.120   3.240   6.660
 9820SOL    HW230360   4.190   3.194   6.800
 9821SOL     OW30361   5.065   0.640   6.850
 9821SOL    HW130362   5.149   0.585   6.853
 9821SOL    HW230363   5.031   0.653   6.943
 9822SOL     OW30364   3.117   5.978   3.562
 9822SOL    HW130365   3.077   5.889   3.543
 9822SOL    HW230366   3.066   6.024   3.634
 9823SOL     OW30367   2.527   1.293   6.516
 9823SOL    HW130368   2.581   1.263   6.595
 9823SOL    HW230369   2.576   1.365   6.467
 9824SOL     OW30370   2.079   4.835   4.447
 9824SOL    HW130371   2.053   4.740   4.429
 9824SOL    HW230372   2.136   4.839   4.530
 9825SOL     OW30373   4.900   5.900   4.481
 9825SOL    HW130374   4.862   5.973   4.538
 9825SOL    HW230375   4.842   5.820   4.487
 9826SOL     OW30376   4.598   5.232   5.684
 9826SOL    HW130377   4.587   5.305   5.617
 9826SOL    HW230378   4.688   5.189   5.672
 9827SOL     OW30379   2.134   3.694   3.900
 9827SOL    HW130380   2.171   3.711   3.809
 9827SOL    HW230381   2.036   3.675   3.893
 9828SOL     OW30382   2.322   2.021   5.286
 9828SOL    HW130383   2.259   2.092   5.318
 9828SOL    HW230384   2.347   1.961   5.362
 9829SOL     OW30385   4.355   5.118   5.981
 9829SOL    HW130386   4.331   5.066   6.063
 9829SOL    HW230387   4.448   5.154   5.989
 9830SOL     OW30388   4.985   2.393   2.119
 9830SOL    HW130389   4.893   2.414   2.153
 9830SOL    HW230390   5.024   2.475   2.076
 9831SOL     OW30391   1.847   5.165   1.733
 9831SOL    HW130392   1.823   5.253   1.773
 9831SOL    HW230393   1.897   5.110   1.800
 9832SOL     OW30394   5.220   5.609   2.246
 9832SOL    HW130395   5.267   5.676   2.303
 9832SOL    HW230396   5.123   5.630   2.243
 9833SOL     OW30397   3.005   3.454   4.845
 9833SOL    HW130398   2.995   3.432   4.942
 9833SOL    HW230399   2.986   3.373   4.790
 9834SOL     OW30400   2.316   4.161   5.346
 9834SOL    HW130401   2.376   4.165   5.425
 9834SOL    HW230402   2.345   4.086   5.286
 9835SOL     OW30403   4.109   3.214   5.375
 9835SOL    HW130404   4.198   3.170   5.373
 9835SOL    HW230405   4.048   3.170   5.310
 9836SOL     OW30406   6.728   4.201   3.522
 9836SOL    HW130407   6.646   4.180   3.574
 9836SOL    HW230408   6.803   4.143   3.553
 9837SOL     OW30409   3.669   0.398   2.502
 9837SOL    HW130410   3.683   0.468   2.433
 9837SOL    HW230411   3.627   0.318   2.460
 9838SOL     OW30412   1.629   6.848   0.541
 9838SOL    HW130413   1.710   6.806   0.581
 9838SOL    HW230414   1.611   6.807   0.451
 9839SOL     OW30415   5.129   0.094   3.753
 9839SOL    HW130416   5.129   0.192   3.737
 9839SOL    HW230417   5.051   0.052   3.706
 9840SOL     OW30418   5.280   1.932   0.914
 9840SOL    HW130419   5.352   1.878   0.871
 9840SOL    HW230420   5.229   1.981   0.843
 9841SOL     OW30421   1.324   4.643   4.763
 9841SOL    HW130422   1.269   4.717   4.800
 9841SOL    HW230423   1.367   4.592   4.838
 9842SOL     OW30424   3.230   3.248   2.183
 9842SOL    HW130425   3.221   3.336   2.229
 9842SOL    HW230426   3.308   3.251   2.120
 9843SOL     OW30427   6.506   0.472   1.796
 9843SOL    HW130428   6.574   0.448   1.865
 9843SOL    HW230429   6.483   0.569   1.804
 9844SOL     OW30430   6.485   0.747   2.895
 9844SOL    HW130431   6.493   0.648   2.898
 9844SOL    HW230432   6.546   0.784   2.825
 9845SOL     OW30433   2.043   2.940   3.142
 9845SOL    HW130434   1.982   2.968   3.068
 9845SOL    HW230435   2.031   2.843   3.161
 9846SOL     OW30436   3.308   2.750   1.842
 9846SOL    HW130437   3.277   2.661   1.808
 9846SOL    HW230438   3.352   2.738   1.931
 9847SOL     OW30439   3.623   2.964   3.478
 9847SOL    HW130440   3.681   2.924   3.408
 9847SOL    HW230441   3.672   2.964   3.566
 9848SOL     OW30442   4.348   2.949   5.597
 9848SOL    HW130443   4.380   3.038   5.565
 9848SOL    HW230444   4.251   2.939   5.576
 9849SOL     OW30445   0.877   6.709   6.283
 9849SOL    HW130446   0.934   6.639   6.242
 9849SOL    HW230447   0.840   6.769   6.212
 9850SOL     OW30448   6.091   0.036   3.737
 9850SOL    HW130449   6.138   6.980   3.701
 9850SOL    HW230450   6.096   0.036   3.837
 9851SOL     OW30451   0.219   0.136   4.828
 9851SOL    HW130452   0.258   0.103   4.914
 9851SOL    HW230453   0.241   0.072   4.754
 9852SOL     OW30454   3.274   1.490   4.111
 9852SOL    HW130455   3.176   1.506   4.096
 9852SOL    HW230456   3.290   1.392   4.124
 9853SOL     OW30457   5.146   4.156   4.598
 9853SOL    HW130458   5.140   4.146   4.697
 9853SOL    HW230459   5.126   4.251   4.572
 9854SOL     OW30460   6.588   6.054   4.557
 9854SOL    HW130461   6.639   6.138   4.537
 9854SOL    HW230462   6.513   6.045   4.492
 9855SOL     OW30463   2.183   3.841   1.195
 9855SOL    HW130464   2.107   3.776   1.195
 9855SOL    HW230465   2.208   3.864   1.289
 9856SOL     OW30466   4.922   4.083   4.449
 9856SOL    HW130467   4.866   4.067   4.530
 9856SOL    HW230468   5.017   4.094   4.476
 9857SOL     OW30469   5.001   3.118   2.627
 9857SOL    HW130470   4.914   3.073   2.607
 9857SOL    HW230471   5.026   3.177   2.551
 9858SOL     OW30472   0.180   0.037   1.919
 9858SOL    HW130473   0.271   7.019   1.928
 9858SOL    HW230474   0.173   0.081   1.830
 9859SOL     OW30475   6.293   6.113   2.512
 9859SOL    HW130476   6.309   6.177   2.437
 9859SOL    HW230477   6.360   6.039   2.509
 9860SOL     OW30478   1.747   2.352   3.710
 9860SOL    HW130479   1.723   2.285   3.779
 9860SOL    HW230480   1.843   2.342   3.685
 9861SOL     OW30481   3.004   0.437   3.095
 9861SOL    HW130482   2.934   0.385   3.144
 9861SOL    HW230483   3.010   0.529   3.132
 9862SOL     OW30484   3.467   2.848   6.891
 9862SOL    HW130485   3.515   2.935   6.878
 9862SOL    HW230486   3.373   2.866   6.919
 9863SOL     OW30487   3.566   6.920   2.268
 9863SOL    HW130488   3.635   6.865   2.222
 9863SOL    HW230489   3.482   6.867   2.278
 9864SOL     OW30490   3.722   6.897   3.759
 9864SOL    HW130491   3.642   6.869   3.814
 9864SOL    HW230492   3.763   6.978   3.800
 9865SOL     OW30493   1.449   6.834   4.610
 9865SOL    HW130494   1.465   6.873   4.519
 9865SOL    HW230495   1.509   6.754   4.622
 9866SOL     OW30496   4.936   4.409   5.941
 9866SOL    HW130497   4.980   4.412   5.851
 9866SOL    HW230498   5.005   4.416   6.013
 9867SOL     OW30499   6.430   1.689   1.026
 9867SOL    HW130500   6.495   1.621   1.060
 9867SOL    HW230501   6.449   1.708   0.930
 9868SOL     OW30502   0.616   3.373   4.755
 9868SOL    HW130503   0.631   3.352   4.658
 9868SOL    HW230504   0.518   3.370   4.775
 9869SOL     OW30505   0.560   2.477   1.425
 9869SOL    HW130506   0.607   2.396   1.393
 9869SOL    HW230507   0.466   2.454   1.452
 9870SOL     OW30508   3.964   5.946   2.295
 9870SOL    HW130509   3.917   5.882   2.235
 9870SOL    HW230510   3.995   5.898   2.378
 9871SOL     OW30511   6.471   4.698   6.068
 9871SOL    HW130512   6.493   4.696   5.971
 9871SOL    HW230513   6.387   4.751   6.082
 9872SOL     OW30514   2.848   5.338   5.165
 9872SOL    HW130515   2.901   5.262   5.203
 9872SOL    HW230516   2.908   5.416   5.150
 9873SOL     OW30517   2.463   2.477   0.816
 9873SOL    HW130518   2.550   2.428   0.821
 9873SOL    HW230519   2.408   2.455   0.896
 9874SOL     OW30520   5.510   3.476   5.108
 9874SOL    HW130521   5.592   3.473   5.165
 9874SOL    HW230522   5.535   3.504   5.015
 9875SOL     OW30523   5.843   5.681   1.618
 9875SOL    HW130524   5.815   5.730   1.701
 9875SOL    HW230525   5.936   5.707   1.593
 9876SOL     OW30526   5.496   0.999   4.042
 9876SOL    HW130527   5.574   1.051   4.079
 9876SOL    HW230528   5.518   0.902   4.042
 9877SOL     OW30529   6.667   4.652   4.527
 9877SOL    HW130530   6.759   4.642   4.488
 9877SOL    HW230531   6.599   4.629   4.457
 9878SOL     OW30532   2.835   4.282   5.583
 9878SOL    HW130533   2.835   4.269   5.484
 9878SOL    HW230534   2.793   4.202   5.626
 9879SOL     OW30535   5.039   6.024   5.253
 9879SOL    HW130536   4.952   6.041   5.207
 9879SOL    HW230537   5.085   6.112   5.271
 9880SOL     OW30538   3.446   0.937   0.239
 9880SOL    HW130539   3.405   0.884   0.165
 9880SOL    HW230540   3.482   1.023   0.203
 9881SOL     OW30541   0.616   1.804   5.033
 9881SOL    HW130542   0.714   1.820   5.039
 9881SOL    HW230543   0.594   1.767   4.943
 9882SOL     OW30544   1.585   4.168   4.899
 9882SOL    HW130545   1.569   4.234   4.826
 9882SOL    HW230546   1.664   4.111   4.875
 9883SOL     OW30547   1.291   6.246   1.168
 9883SOL    HW130548   1.256   6.315   1.105
 9883SOL    HW230549   1.237   6.162   1.158
 9884SOL     OW30550   4.966   2.408   1.118
 9884SOL    HW130551   4.949   2.380   1.024
 9884SOL    HW230552   4.987   2.505   1.121
 9885SOL     OW30553   6.802   2.057   5.058
 9885SOL    HW130554   6.799   2.156   5.044
 9885SOL    HW230555   6.757   2.011   4.981
 9886SOL     OW30556   0.955   5.123   1.967
 9886SOL    HW130557   0.889   5.061   2.009
 9886SOL    HW230558   0.920   5.153   1.878
 9887SOL     OW30559   3.795   0.157   0.154
 9887SOL    HW130560   3.790   0.150   0.254
 9887SOL    HW230561   3.825   0.070   0.116
 9888SOL     OW30562   5.184   5.187   2.641
 9888SOL    HW130563   5.147   5.130   2.568
 9888SOL    HW230564   5.115   5.254   2.669
 9889SOL     OW30565   6.111   4.423   0.696
 9889SOL    HW130566   6.033   4.406   0.756
 9889SOL    HW230567   6.188   4.456   0.750
 9890SOL     OW30568   0.527   2.254   1.152
 9890SOL    HW130569   0.604   2.286   1.208
 9890SOL    HW230570   0.453   2.321   1.155
 9891SOL     OW30571   5.990   3.120   1.595
 9891SOL    HW130572   6.013   3.214   1.621
 9891SOL    HW230573   5.895   3.102   1.618
 9892SOL     OW30574   1.425   5.149   2.514
 9892SOL    HW130575   1.347   5.186   2.464
 9892SOL    HW230576   1.506   5.151   2.455
 9893SOL     OW30577   6.634   0.326   2.590
 9893SOL    HW130578   6.711   0.391   2.593
 9893SOL    HW230579   6.550   0.374   2.612
 9894SOL     OW30580   2.970   2.058   6.572
 9894SOL    HW130581   2.991   2.007   6.656
 9894SOL    HW230582   3.042   2.043   6.505
 9895SOL     OW30583   5.122   3.799   5.366
 9895SOL    HW130584   5.030   3.827   5.340
 9895SOL    HW230585   5.154   3.727   5.305
 9896SOL     OW30586   5.419   1.395   0.424
 9896SOL    HW130587   5.385   1.328   0.490
 9896SOL    HW230588   5.478   1.349   0.358
 9897SOL     OW30589   5.243   0.065   2.253
 9897SOL    HW130590   5.299   0.064   2.170
 9897SOL    HW230591   5.296   0.099   2.330
 9898SOL     OW30592   1.027   4.803   6.129
 9898SOL    HW130593   1.076   4.805   6.216
 9898SOL    HW230594   0.960   4.877   6.126
 9899SOL     OW30595   1.208   5.217   2.344
 9899SOL    HW130596   1.222   5.286   2.274
 9899SOL    HW230597   1.115   5.225   2.382
 9900SOL     OW30598   1.497   3.167   1.993
 9900SOL    HW130599   1.476   3.109   1.915
 9900SOL    HW230600   1.456   3.258   1.979
 9901SOL     OW30601   2.849   0.533   6.827
 9901SOL    HW130602   2.838   0.450   6.880
 9901SOL    HW230603   2.901   0.513   6.744
 9902SOL     OW30604   4.198   4.181   1.242
 9902SOL    HW130605   4.231   4.164   1.148
 9902SOL    HW230606   4.099   4.178   1.243
 9903SOL     OW30607   5.336   1.909   1.682
 9903SOL    HW130608   5.337   1.901   1.781
 9903SOL    HW230609   5.247   1.878   1.647
 9904SOL     OW30610   0.624   3.575   6.245
 9904SOL    HW130611   0.594   3.668   6.264
 9904SOL    HW230612   0.723   3.567   6.263
 9905SOL     OW30613   1.731   0.628   6.022
 9905SOL    HW130614   1.802   0.583   5.969
 9905SOL    HW230615   1.711   0.718   5.981
 9906SOL     OW30616   1.809   3.336   0.485
 9906SOL    HW130617   1.886   3.314   0.545
 9906SOL    HW230618   1.760   3.415   0.522
 9907SOL     OW30619   1.456   0.987   1.977
 9907SOL    HW130620   1.508   0.905   2.001
 9907SOL    HW230621   1.512   1.068   1.993
 9908SOL     OW30622   0.557   2.639   5.584
 9908SOL    HW130623   0.471   2.657   5.633
 9908SOL    HW230624   0.580   2.719   5.528
 9909SOL     OW30625   3.681   0.638   2.664
 9909SOL    HW130626   3.688   0.543   2.633
 9909SOL    HW230627   3.690   0.700   2.586
 9910SOL     OW30628   1.783   5.394   1.859
 9910SOL    HW130629   1.793   5.450   1.941
 9910SOL    HW230630   1.785   5.453   1.778
 9911SOL     OW30631   3.101   5.843   2.467
 9911SOL    HW130632   3.162   5.907   2.421
 9911SOL    HW230633   3.124   5.750   2.441
 9912SOL     OW30634   4.503   1.118   1.736
 9912SOL    HW130635   4.427   1.140   1.675
 9912SOL    HW230636   4.516   1.192   1.802
 9913SOL     OW30637   5.835   3.025   1.099
 9913SOL    HW130638   5.786   2.947   1.137
 9913SOL    HW230639   5.784   3.109   1.116
 9914SOL     OW30640   0.109   6.772   5.571
 9914SOL    HW130641   0.158   6.829   5.505
 9914SOL    HW230642   0.010   6.789   5.564
 9915SOL     OW30643   5.588   1.604   3.243
 9915SOL    HW130644   5.628   1.654   3.165
 9915SOL    HW230645   5.562   1.512   3.213
 9916SOL     OW30646   1.693   1.979   3.550
 9916SOL    HW130647   1.600   1.942   3.548
 9916SOL    HW230648   1.704   2.045   3.475
 9917SOL     OW30649   3.605   3.678   5.744
 9917SOL    HW130650   3.650   3.620   5.678
 9917SOL    HW230651   3.658   3.761   5.758
 9918SOL     OW30652   1.100   2.863   2.366
 9918SOL    HW130653   1.160   2.848   2.288
 9918SOL    HW230654   1.006   2.838   2.341
 9919SOL     OW30655   2.806   5.784   2.132
 9919SOL    HW130656   2.781   5.688   2.144
 9919SOL    HW230657   2.724   5.841   2.137
 9920SOL     OW30658   4.531   0.745   2.932
 9920SOL    HW130659   4.490   0.744   2.841
 9920SOL    HW230660   4.499   0.826   2.982
 9921SOL     OW30661   4.523   0.047   5.009
 9921SOL    HW130662   4.445   0.051   5.071
 9921SOL    HW230663   4.555   0.139   4.988
 9922SOL     OW30664   4.145   4.382   1.007
 9922SOL    HW130665   4.104   4.410   0.920
 9922SOL    HW230666   4.205   4.304   0.991
 9923SOL     OW30667   6.345   3.491   0.421
 9923SOL    HW130668   6.384   3.581   0.403
 9923SOL    HW230669   6.414   3.433   0.464
 9924SOL     OW30670   5.124   1.875   3.126
 9924SOL    HW130671   5.190   1.938   3.083
 9924SOL    HW230672   5.033   1.915   3.123
 9925SOL     OW30673   0.932   4.779   3.845
 9925SOL    HW130674   0.833   4.779   3.831
 9925SOL    HW230675   0.953   4.725   3.926
 9926SOL     OW30676   3.994   3.039   0.376
 9926SOL    HW130677   3.895   3.044   0.359
 9926SOL    HW230678   4.025   3.125   0.416
 9927SOL     OW30679   1.275   1.199   0.779
 9927SOL    HW130680   1.285   1.173   0.875
 9927SOL    HW230681   1.277   1.298   0.770
 9928SOL     OW30682   5.607   3.477   2.976
 9928SOL    HW130683   5.607   3.450   3.072
 9928SOL    HW230684   5.660   3.561   2.965
 9929SOL     OW30685   3.431   3.910   4.758
 9929SOL    HW130686   3.513   3.910   4.702
 9929SOL    HW230687   3.367   3.979   4.723
 9930SOL     OW30688   0.738   0.049   6.450
 9930SOL    HW130689   0.650   0.024   6.492
 9930SOL    HW230690   0.804   0.071   6.522
 9931SOL     OW30691   0.020   5.920   3.997
 9931SOL    HW130692   7.024   5.838   3.943
 9931SOL    HW230693   6.958   5.964   4.024
 9932SOL     OW30694   2.629   2.007   5.654
 9932SOL    HW130695   2.613   2.105   5.654
 9932SOL    HW230696   2.677   1.981   5.737
 9933SOL     OW30697   1.564   6.893   3.983
 9933SOL    HW130698   1.606   6.840   4.057
 9933SOL    HW230699   1.599   6.861   3.896
 9934SOL     OW30700   6.706   1.729   6.186
 9934SOL    HW130701   6.611   1.708   6.161
 9934SOL    HW230702   6.708   1.776   6.274
 9935SOL     OW30703   2.901   0.113   1.064
 9935SOL    HW130704   2.876   0.209   1.066
 9935SOL    HW230705   2.821   0.057   1.089
 9936SOL     OW30706   6.391   4.790   0.734
 9936SOL    HW130707   6.305   4.753   0.699
 9936SOL    HW230708   6.467   4.742   0.691
 9937SOL     OW30709   0.841   1.410   1.878
 9937SOL    HW130710   0.801   1.465   1.806
 9937SOL    HW230711   0.771   1.386   1.945
 9938SOL     OW30712   5.715   5.727   4.127
 9938SOL    HW130713   5.803   5.714   4.173
 9938SOL    HW230714   5.687   5.641   4.085
 9939SOL     OW30715   2.982   3.380   0.821
 9939SOL    HW130716   2.995   3.343   0.729
 9939SOL    HW230717   2.896   3.345   0.859
 9940SOL     OW30718   1.410   0.343   2.382
 9940SOL    HW130719   1.444   0.289   2.305
 9940SOL    HW230720   1.486   0.391   2.426
 9941SOL     OW30721   3.178   4.863   5.915
 9941SOL    HW130722   3.150   4.888   5.823
 9941SOL    HW230723   3.097   4.851   5.972
 9942SOL     OW30724   3.950   5.315   2.083
 9942SOL    HW130725   3.920   5.263   2.162
 9942SOL    HW230726   3.871   5.341   2.028
 9943SOL     OW30727   1.031   4.347   6.356
 9943SOL    HW130728   1.104   4.410   6.381
 9943SOL    HW230729   1.036   4.328   6.257
 9944SOL     OW30730   1.078   4.415   6.794
 9944SOL    HW130731   0.998   4.356   6.804
 9944SOL    HW230732   1.133   4.384   6.717
 9945SOL     OW30733   4.570   5.337   6.891
 9945SOL    HW130734   4.610   5.404   6.954
 9945SOL    HW230735   4.643   5.280   6.853
 9946SOL     OW30736   6.338   0.152   3.226
 9946SOL    HW130737   6.365   0.238   3.270
 9946SOL    HW230738   6.248   0.163   3.184
 9947SOL     OW30739   2.838   2.259   4.917
 9947SOL    HW130740   2.764   2.294   4.974
 9947SOL    HW230741   2.926   2.275   4.962
 9948SOL     OW30742   6.263   5.911   4.996
 9948SOL    HW130743   6.290   6.006   4.979
 9948SOL    HW230744   6.203   5.879   4.923
 9949SOL     OW30745   0.317   4.745   3.650
 9949SOL    HW130746   0.222   4.732   3.679
 9949SOL    HW230747   0.377   4.743   3.731
 9950SOL     OW30748   6.231   6.203   6.821
 9950SOL    HW130749   6.327   6.175   6.834
 9950SOL    HW230750   6.225   6.268   6.746
 9951SOL     OW30751   0.804   2.686   3.430
 9951SOL    HW130752   0.889   2.736   3.416
 9951SOL    HW230753   0.737   2.745   3.474
 9952SOL     OW30754   2.352   3.784   0.989
 9952SOL    HW130755   2.447   3.812   1.003
 9952SOL    HW230756   2.297   3.811   1.068
 9953SOL     OW30757   6.074   1.960   3.639
 9953SOL    HW130758   5.997   2.020   3.616
 9953SOL    HW230759   6.160   2.009   3.627
 9954SOL     OW30760   1.250   0.132   5.324
 9954SOL    HW130761   1.167   0.087   5.290
 9954SOL    HW230762   1.283   0.083   5.404
 9955SOL     OW30763   3.965   3.566   6.457
 9955SOL    HW130764   3.960   3.558   6.556
 9955SOL    HW230765   4.029   3.639   6.432
 9956SOL     OW30766   0.675   4.874   3.825
 9956SOL    HW130767   0.695   4.967   3.858
 9956SOL    HW230768   0.621   4.825   3.893
 9957SOL     OW30769   5.733   0.523   1.889
 9957SOL    HW130770   5.683   0.603   1.923
 9957SOL    HW230771   5.789   0.485   1.963
 9958SOL     OW30772   2.812   6.207   6.708
 9958SOL    HW130773   2.893   6.232   6.761
 9958SOL    HW230774   2.840   6.158   6.625
 9959SOL     OW30775   4.105   3.623   3.483
 9959SOL    HW130776   4.077   3.669   3.398
 9959SOL    HW230777   4.181   3.561   3.464
 9960SOL     OW30778   1.007   6.624   2.327
 9960SOL    HW130779   1.033   6.550   2.265
 9960SOL    HW230780   0.931   6.594   2.385
 9961SOL     OW30781   1.297   5.306   4.316
 9961SOL    HW130782   1.346   5.239   4.372
 9961SOL    HW230783   1.288   5.391   4.368
 9962SOL     OW30784   4.626   0.709   2.500
 9962SOL    HW130785   4.690   0.757   2.560
 9962SOL    HW230786   4.606   0.619   2.539
 9963SOL     OW30787   2.018   2.827   6.066
 9963SOL    HW130788   2.087   2.761   6.035
 9963SOL    HW230789   2.064   2.902   6.114
 9964SOL     OW30790   4.159   4.832   5.968
 9964SOL    HW130791   4.229   4.867   6.031
 9964SOL    HW230792   4.186   4.741   5.937
 9965SOL     OW30793   3.570   4.693   5.324
 9965SOL    HW130794   3.519   4.750   5.259
 9965SOL    HW230795   3.575   4.740   5.412
 9966SOL     OW30796   2.758   5.693   2.653
 9966SOL    HW130797   2.762   5.761   2.727
 9966SOL    HW230798   2.742   5.740   2.566
 9967SOL     OW30799   5.292   5.720   1.980
 9967SOL    HW130800   5.194   5.723   1.960
 9967SOL    HW230801   5.308   5.663   2.061
 9968SOL     OW30802   3.500   5.167   6.389
 9968SOL    HW130803   3.511   5.219   6.474
 9968SOL    HW230804   3.536   5.220   6.312
 9969SOL     OW30805   0.731   2.759   4.110
 9969SOL    HW130806   0.672   2.713   4.176
 9969SOL    HW230807   0.813   2.792   4.155
 9970SOL     OW30808   6.497   4.512   2.351
 9970SOL    HW130809   6.596   4.527   2.353
 9970SOL    HW230810   6.452   4.590   2.309
 9971SOL     OW30811   2.510   4.177   0.482
 9971SOL    HW130812   2.549   4.246   0.421
 9971SOL    HW230813   2.417   4.155   0.453
 9972SOL     OW30814   3.755   4.901   6.904
 9972SOL    HW130815   3.698   4.822   6.929
 9972SOL    HW230816   3.732   4.931   6.812
 9973SOL     OW30817   4.026   1.677   4.733
 9973SOL    HW130818   3.960   1.626   4.678
 9973SOL    HW230819   4.005   1.775   4.727
 9974SOL     OW30820   6.392   3.705   3.048
 9974SOL    HW130821   6.476   3.658   3.018
 9974SOL    HW230822   6.392   3.711   3.148
 9975SOL     OW30823   0.228   4.648   6.986
 9975SOL    HW130824   0.181   4.712   6.925
 9975SOL    HW230825   0.160   4.598   0.016
 9976SOL     OW30826   6.638   5.444   5.314
 9976SOL    HW130827   6.716   5.399   5.359
 9976SOL    HW230828   6.647   5.435   5.215
 9977SOL     OW30829   6.537   5.052   5.817
 9977SOL    HW130830   6.476   5.004   5.754
 9977SOL    HW230831   6.488   5.127   5.861
 9978SOL     OW30832   6.578   2.263   4.181
 9978SOL    HW130833   6.596   2.174   4.139
 9978SOL    HW230834   6.655   2.288   4.239
 9979SOL     OW30835   6.713   4.722   6.420
 9979SOL    HW130836   6.650   4.665   6.367
 9979SOL    HW230837   6.798   4.672   6.436
 9980SOL     OW30838   1.579   1.321   6.353
 9980SOL    HW130839   1.502   1.297   6.413
 9980SOL    HW230840   1.579   1.420   6.337
 9981SOL     OW30841   2.418   1.806   1.057
 9981SOL    HW130842   2.320   1.798   1.044
 9981SOL    HW230843   2.459   1.715   1.059
 9982SOL     OW30844   0.897   2.049   2.882
 9982SOL    HW130845   0.849   2.075   2.798
 9982SOL    HW230846   0.856   2.096   2.960
 9983SOL     OW30847   1.226   1.793   1.625
 9983SOL    HW130848   1.238   1.866   1.692
 9983SOL    HW230849   1.288   1.808   1.548
 9984SOL     OW30850   1.264   0.184   0.573
 9984SOL    HW130851   1.214   0.098   0.568
 9984SOL    HW230852   1.292   0.201   0.667
 9985SOL     OW30853   3.462   0.452   1.323
 9985SOL    HW130854   3.451   0.549   1.343
 9985SOL    HW230855   3.489   0.441   1.227
 9986SOL     OW30856   5.226   4.301   6.505
 9986SOL    HW130857   5.202   4.229   6.569
 9986SOL    HW230858   5.143   4.338   6.463
 9987SOL     OW30859   5.425   2.254   2.812
 9987SOL    HW130860   5.501   2.201   2.775
 9987SOL    HW230861   5.338   2.213   2.784
 9988SOL     OW30862   0.009   5.924   5.040
 9988SOL    HW130863   6.961   5.890   5.100
 9988SOL    HW230864   0.062   5.994   5.088
 9989SOL     OW30865   5.160   3.693   2.572
 9989SOL    HW130866   5.220   3.709   2.651
 9989SOL    HW230867   5.149   3.778   2.521
 9990SOL     OW30868   2.591   6.634   3.341
 9990SOL    HW130869   2.675   6.616   3.391
 9990SOL    HW230870   2.531   6.691   3.396
 9991SOL     OW30871   1.261   3.014   4.613
 9991SOL    HW130872   1.293   3.060   4.530
 9991SOL    HW230873   1.313   2.929   4.626
 9992SOL     OW30874   5.058   3.651   0.619
 9992SOL    HW130875   5.008   3.617   0.540
 9992SOL    HW230876   5.136   3.592   0.639
 9993SOL     OW30877   4.746   6.641   2.516
 9993SOL    HW130878   4.810   6.614   2.587
 9993SOL    HW230879   4.749   6.740   2.504
 9994SOL     OW30880   6.593   3.785   4.251
 9994SOL    HW130881   6.555   3.843   4.323
 9994SOL    HW230882   6.562   3.690   4.265
 9995SOL     OW30883   3.057   6.746   2.896
 9995SOL    HW130884   3.155   6.731   2.884
 9995SOL    HW230885   3.042   6.805   2.975
 9996SOL     OW30886   2.867   1.943   1.230
 9996SOL    HW130887   2.784   1.997   1.236
 9996SOL    HW230888   2.910   1.959   1.141
 9997SOL     OW30889   4.205   2.383   0.932
 9997SOL    HW130890   4.137   2.438   0.883
 9997SOL    HW230891   4.186   2.386   1.030
 9998SOL     OW30892   6.869   3.791   2.115
 9998SOL    HW130893   6.827   3.776   2.204
 9998SOL    HW230894   6.927   3.713   2.092
 9999SOL     OW30895   6.391   4.402   4.511
 9999SOL    HW130896   6.312   4.347   4.484
 9999SOL    HW230897   6.420   4.460   4.435
10000SOL     OW30898   6.058   2.394   6.565
10000SOL    HW130899   6.142   2.432   6.526
10000SOL    HW230900   6.014   2.334   6.497
10001SOL     OW30901   4.989   1.113   1.458
10001SOL    HW130902   4.900   1.135   1.498
10001SOL    HW230903   5.055   1.096   1.531
10002SOL     OW30904   1.337   0.675   1.410
10002SOL    HW130905   1.399   0.716   1.343
10002SOL    HW230906   1.374   0.689   1.502
10003SOL     OW30907   3.963   2.157   3.553
10003SOL    HW130908   4.036   2.225   3.545
10003SOL    HW230909   3.943   2.141   3.650
10004SOL     OW30910   5.196   2.991   4.603
10004SOL    HW130911   5.287   2.961   4.631
10004SOL    HW230912   5.149   2.916   4.556
10005SOL     OW30913   5.005   5.506   3.194
10005SOL    HW130914   5.022   5.577   3.262
10005SOL    HW230915   5.085   5.496   3.135
10006SOL     OW30916   5.505   0.934   4.594
10006SOL    HW130917   5.546   0.843   4.585
10006SOL    HW230918   5.458   0.957   4.508
10007SOL     OW30919   1.115   4.485   4.988
10007SOL    HW130920   1.039   4.448   5.042
10007SOL    HW230921   1.093   4.578   4.958
10008SOL     OW30922   3.842   1.498   3.896
10008SOL    HW130923   3.784   1.552   3.957
10008SOL    HW230924   3.930   1.481   3.940
10009SOL     OW30925   2.222   3.834   1.493
10009SOL    HW130926   2.152   3.857   1.561
10009SOL    HW230927   2.272   3.917   1.469
10010SOL     OW30928   1.934   6.564   6.879
10010SOL    HW130929   2.017   6.603   6.918
10010SOL    HW230930   1.957   6.481   6.828
10011SOL     OW30931   0.226   2.195   5.239
10011SOL    HW130932   0.223   2.235   5.330
10011SOL    HW230933   0.211   2.096   5.246
10012SOL     OW30934   5.083   6.805   2.976
10012SOL    HW130935   5.054   6.887   2.928
10012SOL    HW230936   5.125   6.830   3.063
10013SOL     OW30937   2.123   1.830   4.369
10013SOL    HW130938   2.175   1.751   4.339
10013SOL    HW230939   2.068   1.865   4.293
10014SOL     OW30940   6.584   2.471   0.229
10014SOL    HW130941   6.597   2.473   0.328
10014SOL    HW230942   6.531   2.390   0.205
10015SOL     OW30943   3.078   4.205   0.391
10015SOL    HW130944   3.053   4.294   0.351
10015SOL    HW230945   3.017   4.135   0.355
10016SOL     OW30946   2.410   0.321   4.829
10016SOL    HW130947   2.329   0.312   4.886
10016SOL    HW230948   2.487   0.273   4.871
10017SOL     OW30949   1.775   2.388   2.223
10017SOL    HW130950   1.831   2.312   2.257
10017SOL    HW230951   1.830   2.447   2.164
10018SOL     OW30952   5.643   6.370   6.283
10018SOL    HW130953   5.631   6.329   6.193
10018SOL    HW230954   5.687   6.459   6.274
10019SOL     OW30955   1.224   1.946   3.195
10019SOL    HW130956   1.129   1.921   3.217
10019SOL    HW230957   1.281   1.865   3.198
10020SOL     OW30958   0.019   2.347   1.153
10020SOL    HW130959   0.001   2.250   1.173
10020SOL    HW230960   6.968   2.403   1.187
10021SOL     OW30961   0.929   2.799   1.623
10021SOL    HW130962   1.011   2.825   1.572
10021SOL    HW230963   0.898   2.709   1.593
10022SOL     OW30964   3.422   6.773   1.062
10022SOL    HW130965   3.369   6.812   0.987
10022SOL    HW230966   3.387   6.682   1.084
10023SOL     OW30967   1.827   5.341   5.752
10023SOL    HW130968   1.788   5.430   5.729
10023SOL    HW230969   1.887   5.351   5.833
10024SOL     OW30970   2.147   6.814   1.989
10024SOL    HW130971   2.092   6.805   1.906
10024SOL    HW230972   2.088   6.806   2.069
10025SOL     OW30973   1.346   1.118   1.070
10025SOL    HW130974   1.262   1.083   1.111
10025SOL    HW230975   1.372   1.204   1.115
10026SOL     OW30976   5.059   6.481   3.550
10026SOL    HW130977   4.963   6.510   3.554
10026SOL    HW230978   5.076   6.415   3.623
10027SOL     OW30979   0.788   4.626   4.976
10027SOL    HW130980   0.693   4.630   5.005
10027SOL    HW230981   0.848   4.642   5.054
10028SOL     OW30982   1.612   1.665   1.780
10028SOL    HW130983   1.700   1.622   1.800
10028SOL    HW230984   1.598   1.742   1.843
10029SOL     OW30985   3.103   1.848   3.565
10029SOL    HW130986   3.067   1.913   3.632
10029SOL    HW230987   3.184   1.803   3.603
10030SOL     OW30988   2.341   6.900   4.108
10030SOL    HW130989   2.376   6.958   4.034
10030SOL    HW230990   2.295   6.958   4.176
10031SOL     OW30991   5.943   5.096   3.711
10031SOL    HW130992   5.917   5.184   3.752
10031SOL    HW230993   6.033   5.104   3.668
10032SOL     OW30994   3.109   0.705   5.229
10032SOL    HW130995   3.039   0.647   5.270
10032SOL    HW230996   3.198   0.683   5.267
10033SOL     OW30997   4.767   2.507   4.342
10033SOL    HW130998   4.753   2.589   4.287
10033SOL    HW230999   4.840   2.452   4.301
10034SOL     OW31000   3.084   0.035   4.087
10034SOL    HW131001   3.098   0.091   4.005
10034SOL    HW231002   3.103   0.090   4.168
10035SOL     OW31003   0.175   4.431   2.162
10035SOL    HW131004   0.185   4.438   2.261
10035SOL    HW231005   0.252   4.477   2.117
10036SOL     OW31006   5.126   1.595   0.968
10036SOL    HW131007   5.213   1.558   1.001
10036SOL    HW231008   5.110   1.684   1.010
10037SOL     OW31009   5.481   1.601   0.949
10037SOL    HW131010   5.565   1.643   0.982
10037SOL    HW231011   5.495   1.566   0.856
10038SOL     OW31012   4.070   1.528   6.421
10038SOL    HW131013   4.110   1.516   6.512
10038SOL    HW231014   4.054   1.438   6.380
10039SOL     OW31015   3.283   0.558   3.955
10039SOL    HW131016   3.246   0.468   3.977
10039SOL    HW231017   3.356   0.550   3.888
10040SOL     OW31018   4.173   5.911   6.276
10040SOL    HW131019   4.172   5.819   6.316
10040SOL    HW231020   4.146   5.906   6.180
10041SOL     OW31021   3.986   6.227   6.226
10041SOL    HW131022   4.030   6.169   6.295
10041SOL    HW231023   4.055   6.287   6.184
10042SOL     OW31024   0.984   1.533   4.563
10042SOL    HW131025   1.028   1.561   4.478
10042SOL    HW231026   0.940   1.444   4.550
10043SOL     OW31027   6.524   1.989   4.950
10043SOL    HW131028   6.569   1.955   4.867
10043SOL    HW231029   6.426   1.996   4.934
10044SOL     OW31030   2.701   1.302   5.542
10044SOL    HW131031   2.640   1.223   5.541
10044SOL    HW231032   2.712   1.336   5.448
10045SOL     OW31033   4.165   0.344   3.118
10045SOL    HW131034   4.244   0.346   3.057
10045SOL    HW231035   4.128   0.437   3.127
10046SOL     OW31036   2.575   3.977   0.916
10046SOL    HW131037   2.667   3.950   0.888
10046SOL    HW231038   2.546   4.057   0.862
10047SOL     OW31039   0.655   3.942   5.441
10047SOL    HW131040   0.694   4.034   5.437
10047SOL    HW231041   0.682   3.891   5.359
10048SOL     OW31042   6.155   1.033   2.693
10048SOL    HW131043   6.162   0.963   2.622
10048SOL    HW231044   6.128   0.990   2.780
10049SOL     OW31045   0.447   1.914   6.473
10049SOL    HW131046   0.423   1.820   6.497
10049SOL    HW231047   0.460   1.967   6.557
10050SOL     OW31048   5.534   4.027   4.866
10050SOL    HW131049   5.533   3.957   4.937
10050SOL    HW231050   5.443   4.034   4.825
10051SOL     OW31051   6.167   3.528   5.728
10051SOL    HW131052   6.164   3.599   5.799
10051SOL    HW231053   6.115   3.449   5.759
10052SOL     OW31054   1.878   1.423   3.091
10052SOL    HW131055   1.840   1.418   3.183
10052SOL    HW231056   1.868   1.334   3.046
10053SOL     OW31057   3.912   5.395   3.157
10053SOL    HW131058   3.964   5.471   3.117
10053SOL    HW231059   3.969   5.347   3.224
10054SOL     OW31060   5.634   5.987   6.287
10054SOL    HW131061   5.678   6.062   6.337
10054SOL    HW231062   5.543   5.970   6.326
10055SOL     OW31063   5.908   1.049   4.581
10055SOL    HW131064   5.830   1.081   4.634
10055SOL    HW231065   5.973   1.003   4.641
10056SOL     OW31066   5.239   4.223   2.939
10056SOL    HW131067   5.180   4.299   2.970
10056SOL    HW231068   5.294   4.253   2.861
10057SOL     OW31069   4.245   2.455   5.660
10057SOL    HW131070   4.286   2.373   5.621
10057SOL    HW231071   4.255   2.453   5.760
10058SOL     OW31072   6.583   3.370   5.349
10058SOL    HW131073   6.669   3.320   5.349
10058SOL    HW231074   6.590   3.447   5.285
10059SOL     OW31075   6.779   1.529   0.544
10059SOL    HW131076   6.742   1.520   0.451
10059SOL    HW231077   6.866   1.481   0.550
10060SOL     OW31078   2.003   3.040   2.288
10060SOL    HW131079   1.934   2.986   2.336
10060SOL    HW231080   1.959   3.091   2.213
10061SOL     OW31081   4.625   1.231   4.524
10061SOL    HW131082   4.676   1.281   4.594
10061SOL    HW231083   4.675   1.148   4.500
10062SOL     OW31084   5.604   0.725   3.661
10062SOL    HW131085   5.608   0.646   3.721
10062SOL    HW231086   5.695   0.741   3.622
10063SOL     OW31087   2.702   0.878   4.045
10063SOL    HW131088   2.746   0.885   4.135
10063SOL    HW231089   2.621   0.820   4.052
10064SOL     OW31090   4.921   6.713   0.301
10064SOL    HW131091   4.905   6.653   0.222
10064SOL    HW231092   4.865   6.682   0.378
10065SOL     OW31093   2.881   6.808   2.648
10065SOL    HW131094   2.821   6.733   2.676
10065SOL    HW231095   2.970   6.797   2.690
10066SOL     OW31096   0.384   2.515   4.177
10066SOL    HW131097   0.314   2.586   4.181
10066SOL    HW231098   0.345   2.432   4.138
10067SOL     OW31099   0.426   3.800   5.051
10067SOL    HW131100   0.379   3.818   5.138
10067SOL    HW231101   0.524   3.790   5.068
10068SOL     OW31102   0.151   3.424   3.286
10068SOL    HW131103   0.097   3.455   3.207
10068SOL    HW231104   0.210   3.349   3.258
10069SOL     OW31105   3.332   5.470   1.859
10069SOL    HW131106   3.410   5.491   1.919
10069SOL    HW231107   3.285   5.389   1.892
10070SOL     OW31108   0.138   6.116   5.163
10070SOL    HW131109   0.223   6.113   5.110
10070SOL    HW231110   0.145   6.187   5.233
10071SOL     OW31111   6.433   6.166   4.356
10071SOL    HW131112   6.490   6.231   4.406
10071SOL    HW231113   6.337   6.193   4.364
10072SOL     OW31114   0.370   6.756   4.284
10072SOL    HW131115   0.375   6.755   4.384
10072SOL    HW231116   0.275   6.741   4.255
10073SOL     OW31117   6.508   4.148   4.130
10073SOL    HW131118   6.412   4.177   4.120
10073SOL    HW231119   6.514   4.075   4.198
10074SOL     OW31120   2.271   0.212   5.806
10074SOL    HW131121   2.310   0.219   5.898
10074SOL    HW231122   2.318   0.140   5.755
10075SOL     OW31123   1.549   2.411   2.063
10075SOL    HW131124   1.577   2.372   1.975
10075SOL    HW231125   1.628   2.421   2.122
10076SOL     OW31126   6.122   6.013   3.596
10076SOL    HW131127   6.058   6.084   3.568
10076SOL    HW231128   6.215   6.049   3.596
10077SOL     OW31129   4.465   3.560   0.044
10077SOL    HW131130   4.441   3.512   6.984
10077SOL    HW231131   4.561   3.587   0.041
10078SOL     OW31132   6.418   6.164   3.925
10078SOL    HW131133   6.505   6.210   3.944
10078SOL    HW231134   6.430   6.065   3.940
10079SOL     OW31135   6.076   2.989   3.420
10079SOL    HW131136   6.051   3.016   3.514
10079SOL    HW231137   6.000   3.008   3.359
10080SOL     OW31138   5.286   0.732   5.864
10080SOL    HW131139   5.215   0.802   5.859
10080SOL    HW231140   5.325   0.717   5.773
10081SOL     OW31141   0.592   1.541   0.484
10081SOL    HW131142   0.624   1.635   0.500
10081SOL    HW231143   0.601   1.520   0.386
10082SOL     OW31144   0.793   5.187   1.769
10082SOL    HW131145   0.699   5.209   1.797
10082SOL    HW231146   0.825   5.257   1.705
10083SOL     OW31147   3.823   0.648   3.723
10083SOL    HW131148   3.848   0.716   3.654
10083SOL    HW231149   3.904   0.623   3.776
10084SOL     OW31150   1.370   0.583   6.014
10084SOL    HW131151   1.330   0.566   5.924
10084SOL    HW231152   1.442   0.515   6.031
10085SOL     OW31153   2.956   6.630   0.593
10085SOL    HW131154   3.037   6.631   0.652
10085SOL    HW231155   2.910   6.542   0.602
10086SOL     OW31156   6.230   5.794   2.614
10086SOL    HW131157   6.216   5.820   2.709
10086SOL    HW231158   6.302   5.726   2.607
10087SOL     OW31159   6.429   5.686   3.706
10087SOL    HW131160   6.412   5.722   3.614
10087SOL    HW231161   6.460   5.760   3.766
10088SOL     OW31162   6.979   6.927   2.362
10088SOL    HW131163   7.011   6.897   2.272
10088SOL    HW231164   0.001   7.012   2.387
10089SOL     OW31165   2.744   2.008   3.817
10089SOL    HW131166   2.744   1.992   3.719
10089SOL    HW231167   2.697   1.932   3.863
10090SOL     OW31168   0.077   5.021   1.880
10090SOL    HW131169   0.144   5.037   1.953
10090SOL    HW231170   0.022   4.941   1.902
10091SOL     OW31171   6.619   5.631   6.602
10091SOL    HW131172   6.629   5.616   6.701
10091SOL    HW231173   6.660   5.719   6.578
10092SOL     OW31174   1.972   3.200   6.200
10092SOL    HW131175   1.906   3.126   6.213
10092SOL    HW231176   2.061   3.172   6.235
10093SOL     OW31177   4.643   3.353   5.384
10093SOL    HW131178   4.688   3.392   5.464
10093SOL    HW231179   4.630   3.425   5.315
10094SOL     OW31180   3.008   5.831   1.518
10094SOL    HW131181   2.914   5.839   1.487
10094SOL    HW231182   3.012   5.775   1.601
10095SOL     OW31183   5.424   1.741   4.362
10095SOL    HW131184   5.429   1.650   4.323
10095SOL    HW231185   5.442   1.737   4.460
10096SOL     OW31186   4.738   6.303   2.751
10096SOL    HW131187   4.670   6.318   2.823
10096SOL    HW231188   4.697   6.249   2.678
10097SOL     OW31189   1.668   2.202   0.225
10097SOL    HW131190   1.657   2.103   0.236
10097SOL    HW231191   1.756   2.231   0.262
10098SOL     OW31192   2.915   7.012   5.421
10098SOL    HW131193   2.866   6.925   5.427
10098SOL    HW231194   2.854   0.062   5.447
10099SOL     OW31195   1.185   4.738   1.189
10099SOL    HW131196   1.104   4.692   1.153
10099SOL    HW231197   1.181   4.737   1.289
10100SOL     OW31198   4.859   5.954   5.523
10100SOL    HW131199   4.926   6.004   5.469
10100SOL    HW231200   4.902   5.876   5.567
10101SOL     OW31201   6.932   2.737   1.993
10101SOL    HW131202   6.932   2.638   2.006
10101SOL    HW231203   6.838   2.771   1.993
10102SOL     OW31204   0.190   1.055   1.915
10102SOL    HW131205   0.199   1.096   2.006
10102SOL    HW231206   0.265   1.088   1.857
10103SOL     OW31207   2.300   0.537   5.369
10103SOL    HW131208   2.302   0.488   5.456
10103SOL    HW231209   2.394   0.555   5.338
10104SOL     OW31210   1.442   2.122   5.482
10104SOL    HW131211   1.525   2.112   5.537
10104SOL    HW231212   1.424   2.219   5.466
10105SOL     OW31213   1.912   0.407   6.083
10105SOL    HW131214   1.947   0.356   6.004
10105SOL    HW231215   1.866   0.345   6.146
10106SOL     OW31216   3.659   6.598   0.557
10106SOL    HW131217   3.701   6.529   0.616
10106SOL    HW231218   3.589   6.647   0.608
10107SOL     OW31219   5.033   1.125   5.994
10107SOL    HW131220   5.060   1.206   5.941
10107SOL    HW231221   5.113   1.092   6.046
10108SOL     OW31222   6.952   1.102   0.438
10108SOL    HW131223   6.985   1.022   0.389
10108SOL    HW231224   6.959   1.085   0.537
10109SOL     OW31225   7.020   0.677   0.794
10109SOL    HW131226   6.993   0.759   0.743
10109SOL    HW231227   6.941   0.641   0.843
10110SOL     OW31228   5.191   4.903   3.938
10110SOL    HW131229   5.116   4.918   4.002
10110SOL    HW231230   5.184   4.968   3.863
10111SOL     OW31231   6.713   3.506   3.738
10111SOL    HW131232   6.657   3.588   3.724
10111SOL    HW231233   6.735   3.498   3.836
10112SOL     OW31234   5.956   3.488   3.133
10112SOL    HW131235   5.956   3.535   3.045
10112SOL    HW231236   6.050   3.480   3.166
10113SOL     OW31237   4.533   0.062   0.427
10113SOL    HW131238   4.464   0.128   0.397
10113SOL    HW231239   4.603   0.052   0.357
10114SOL     OW31240   4.333   2.081   2.322
10114SOL    HW131241   4.286   1.998   2.350
10114SOL    HW231242   4.389   2.115   2.397
10115SOL     OW31243   4.288   2.173   5.008
10115SOL    HW131244   4.247   2.186   4.917
10115SOL    HW231245   4.387   2.187   5.002
10116SOL     OW31246   0.930   0.049   6.664
10116SOL    HW131247   0.959   6.988   6.708
10116SOL    HW231248   1.007   0.112   6.658
10117SOL     OW31249   6.314   6.646   5.743
10117SOL    HW131250   6.372   6.619   5.666
10117SOL    HW231251   6.332   6.586   5.821
10118SOL     OW31252   2.460   4.425   3.462
10118SOL    HW131253   2.361   4.414   3.470
10118SOL    HW231254   2.491   4.390   3.374
10119SOL     OW31255   6.547   5.326   3.935
10119SOL    HW131256   6.448   5.330   3.929
10119SOL    HW231257   6.574   5.293   4.026
10120SOL     OW31258   1.832   3.802   4.204
10120SOL    HW131259   1.919   3.841   4.176
10120SOL    HW231260   1.825   3.803   4.304
10121SOL     OW31261   5.663   4.058   0.062
10121SOL    HW131262   5.713   4.123   0.120
10121SOL    HW231263   5.717   4.037   7.005
10122SOL     OW31264   5.302   2.872   3.190
10122SOL    HW131265   5.350   2.853   3.276
10122SOL    HW231266   5.291   2.788   3.138
10123SOL     OW31267   5.535   6.384   0.860
10123SOL    HW131268   5.494   6.471   0.832
10123SOL    HW231269   5.516   6.368   0.957
10124SOL     OW31270   1.561   4.747   0.276
10124SOL    HW131271   1.654   4.710   0.271
10124SOL    HW231272   1.565   4.840   0.312
10125SOL     OW31273   2.145   1.108   1.078
10125SOL    HW131274   2.080   1.032   1.085
10125SOL    HW231275   2.182   1.113   0.985
10126SOL     OW31276   0.354   0.325   0.058
10126SOL    HW131277   0.398   0.349   6.995
10126SOL    HW231278   0.410   0.257   0.106
10127SOL     OW31279   1.874   3.967   0.696
10127SOL    HW131280   1.906   3.883   0.740
10127SOL    HW231281   1.906   4.046   0.749
10128SOL     OW31282   2.928   0.783   5.558
10128SOL    HW131283   2.899   0.776   5.653
10128SOL    HW231284   2.954   0.878   5.538
10129SOL     OW31285   6.707   1.368   2.390
10129SOL    HW131286   6.619   1.414   2.372
10129SOL    HW231287   6.724   1.300   2.319
10130SOL     OW31288   0.772   3.461   1.350
10130SOL    HW131289   0.770   3.561   1.344
10130SOL    HW231290   0.859   3.427   1.313
10131SOL     OW31291   1.922   0.261   4.441
10131SOL    HW131292   1.934   0.192   4.512
10131SOL    HW231293   1.829   0.255   4.404
10132SOL     OW31294   1.909   0.657   3.388
10132SOL    HW131295   1.911   0.701   3.477
10132SOL    HW231296   1.818   0.665   3.348
10133SOL     OW31297   4.466   6.697   0.957
10133SOL    HW131298   4.429   6.665   0.870
10133SOL    HW231299   4.391   6.719   1.019
10134SOL     OW31300   5.313   1.482   2.586
10134SOL    HW131301   5.272   1.390   2.584
10134SOL    HW231302   5.240   1.550   2.583
10135SOL     OW31303   5.213   2.402   3.868
10135SOL    HW131304   5.286   2.365   3.926
10135SOL    HW231305   5.219   2.501   3.865
10136SOL     OW31306   5.323   1.980   2.437
10136SOL    HW131307   5.242   1.926   2.411
10136SOL    HW231308   5.359   1.945   2.523
10137SOL     OW31309   0.480   4.717   5.272
10137SOL    HW131310   0.474   4.624   5.235
10137SOL    HW231311   0.441   4.719   5.364
10138SOL     OW31312   5.535   3.365   0.086
10138SOL    HW131313   5.513   3.355   0.183
10138SOL    HW231314   5.457   3.335   0.031
10139SOL     OW31315   3.049   3.730   4.972
10139SOL    HW131316   2.968   3.745   5.029
10139SOL    HW231317   3.048   3.635   4.939
10140SOL     OW31318   0.559   6.564   6.837
10140SOL    HW131319   0.597   6.647   6.796
10140SOL    HW231320   0.595   6.484   6.790
10141SOL     OW31321   4.736   1.238   5.121
10141SOL    HW131322   4.805   1.260   5.190
10141SOL    HW231323   4.645   1.254   5.159
10142SOL     OW31324   5.969   6.292   5.997
10142SOL    HW131325   5.943   6.196   6.000
10142SOL    HW231326   6.035   6.306   5.923
10143SOL     OW31327   5.021   2.618   0.781
10143SOL    HW131328   4.946   2.680   0.758
10143SOL    HW231329   4.984   2.528   0.802
10144SOL     OW31330   4.430   0.263   5.939
10144SOL    HW131331   4.451   0.307   5.851
10144SOL    HW231332   4.481   0.178   5.946
10145SOL     OW31333   3.767   5.905   2.738
10145SOL    HW131334   3.755   5.870   2.832
10145SOL    HW231335   3.823   5.841   2.686
10146SOL     OW31336   6.298   4.113   4.684
10146SOL    HW131337   6.294   4.022   4.642
10146SOL    HW231338   6.265   4.181   4.619
10147SOL     OW31339   4.608   4.081   6.445
10147SOL    HW131340   4.595   4.028   6.361
10147SOL    HW231341   4.527   4.137   6.462
10148SOL     OW31342   5.908   5.107   0.092
10148SOL    HW131343   5.847   5.031   0.113
10148SOL    HW231344   6.003   5.075   0.089
10149SOL     OW31345   5.241   3.928   1.250
10149SOL    HW131346   5.311   3.949   1.318
10149SOL    HW231347   5.278   3.865   1.182
10150SOL     OW31348   4.090   3.120   1.570
10150SOL    HW131349   4.125   3.184   1.639
10150SOL    HW231350   4.038   3.048   1.615
10151SOL     OW31351   1.218   6.719   6.887
10151SOL    HW131352   1.235   6.728   6.788
10151SOL    HW231353   1.285   6.656   6.926
10152SOL     OW31354   6.779   6.039   3.701
10152SOL    HW131355   6.835   5.992   3.632
10152SOL    HW231356   6.827   6.121   3.732
10153SOL     OW31357   5.111   6.270   3.755
10153SOL    HW131358   5.087   6.246   3.849
10153SOL    HW231359   5.193   6.326   3.754
10154SOL     OW31360   3.806   6.564   4.969
10154SOL    HW131361   3.850   6.628   5.033
10154SOL    HW231362   3.821   6.595   4.875
10155SOL     OW31363   4.921   2.305   5.616
10155SOL    HW131364   4.833   2.268   5.585
10155SOL    HW231365   4.957   2.366   5.546
10156SOL     OW31366   5.449   0.574   1.594
10156SOL    HW131367   5.440   0.549   1.498
10156SOL    HW231368   5.543   0.558   1.624
10157SOL     OW31369   6.930   2.212   0.218
10157SOL    HW131370   6.832   2.208   0.197
10157SOL    HW231371   6.972   2.288   0.168
10158SOL     OW31372   6.155   6.370   1.121
10158SOL    HW131373   6.109   6.282   1.132
10158SOL    HW231374   6.135   6.407   1.030
10159SOL     OW31375   3.679   3.329   2.359
10159SOL    HW131376   3.736   3.252   2.330
10159SOL    HW231377   3.592   3.326   2.309
10160SOL     OW31378   1.426   3.676   3.220
10160SOL    HW131379   1.489   3.617   3.169
10160SOL    HW231380   1.432   3.655   3.317
10161SOL     OW31381   3.216   4.110   6.358
10161SOL    HW131382   3.275   4.044   6.311
10161SOL    HW231383   3.226   4.200   6.315
10162SOL     OW31384   2.852   4.768   0.748
10162SOL    HW131385   2.927   4.718   0.706
10162SOL    HW231386   2.888   4.837   0.810
10163SOL     OW31387   0.434   4.017   6.988
10163SOL    HW131388   0.368   3.953   0.002
10163SOL    HW231389   0.415   4.109   7.023
10164SOL     OW31390   5.747   3.795   4.820
10164SOL    HW131391   5.692   3.719   4.855
10164SOL    HW231392   5.729   3.806   4.722
10165SOL     OW31393   6.608   2.198   3.472
10165SOL    HW131394   6.552   2.116   3.483
10165SOL    HW231395   6.704   2.173   3.465
10166SOL     OW31396   2.201   1.631   1.136
10166SOL    HW131397   2.261   1.621   1.215
10166SOL    HW231398   2.108   1.650   1.167
10167SOL     OW31399   0.200   5.825   0.075
10167SOL    HW131400   0.119   5.863   0.030
10167SOL    HW231401   0.224   5.737   0.032
10168SOL     OW31402   6.731   2.397   6.042
10168SOL    HW131403   6.678   2.313   6.051
10168SOL    HW231404   6.705   2.460   6.116
10169SOL     OW31405   6.835   3.533   3.297
10169SOL    HW131406   6.857   3.489   3.384
10169SOL    HW231407   6.806   3.627   3.314
10170SOL     OW31408   6.101   5.808   6.405
10170SOL    HW131409   6.015   5.786   6.358
10170SOL    HW231410   6.096   5.777   6.499
10171SOL     OW31411   0.559   2.679   4.304
10171SOL    HW131412   0.485   2.620   4.273
10171SOL    HW231413   0.612   2.631   4.374
10172SOL     OW31414   0.897   6.531   4.341
10172SOL    HW131415   0.809   6.550   4.384
10172SOL    HW231416   0.886   6.532   4.242
10173SOL     OW31417   2.009   3.253   6.963
10173SOL    HW131418   2.025   3.331   7.023
10173SOL    HW231419   2.028   3.279   6.868
10174SOL     OW31420   4.997   4.796   3.678
10174SOL    HW131421   4.936   4.836   3.747
10174SOL    HW231422   4.984   4.697   3.676
10175SOL     OW31423   6.020   2.287   3.302
10175SOL    HW131424   6.067   2.368   3.339
10175SOL    HW231425   6.037   2.281   3.204
10176SOL     OW31426   6.359   2.609   5.520
10176SOL    HW131427   6.401   2.619   5.431
10176SOL    HW231428   6.429   2.610   5.591
10177SOL     OW31429   1.992   0.628   0.521
10177SOL    HW131430   2.053   0.566   0.569
10177SOL    HW231431   1.949   0.579   0.444
10178SOL     OW31432   1.019   0.858   0.314
10178SOL    HW131433   1.063   0.792   0.373
10178SOL    HW231434   0.933   0.888   0.356
10179SOL     OW31435   0.903   3.449   6.255
10179SOL    HW131436   0.868   3.356   6.247
10179SOL    HW231437   0.930   3.467   6.349
10180SOL     OW31438   4.669   0.628   0.727
10180SOL    HW131439   4.694   0.591   0.816
10180SOL    HW231440   4.739   0.692   0.697
10181SOL     OW31441   0.537   2.550   0.973
10181SOL    HW131442   0.594   2.603   1.037
10181SOL    HW231443   0.561   2.453   0.980
10182SOL     OW31444   4.814   0.662   0.285
10182SOL    HW131445   4.802   0.564   0.302
10182SOL    HW231446   4.769   0.686   0.199
10183SOL     OW31447   5.829   2.815   6.056
10183SOL    HW131448   5.906   2.826   6.119
10183SOL    HW231449   5.811   2.718   6.041
10184SOL     OW31450   4.530   2.976   6.696
10184SOL    HW131451   4.438   2.984   6.658
10184SOL    HW231452   4.593   2.942   6.626
10185SOL     OW31453   6.147   5.647   1.970
10185SOL    HW131454   6.245   5.634   1.955
10185SOL    HW231455   6.119   5.734   1.927
10186SOL     OW31456   4.869   3.825   4.396
10186SOL    HW131457   4.935   3.894   4.427
10186SOL    HW231458   4.782   3.837   4.444
10187SOL     OW31459   1.539   3.782   6.345
10187SOL    HW131460   1.582   3.694   6.364
10187SOL    HW231461   1.480   3.774   6.265
10188SOL     OW31462   2.625   5.041   6.324
10188SOL    HW131463   2.538   5.061   6.369
10188SOL    HW231464   2.698   5.093   6.368
10189SOL     OW31465   0.977   1.070   6.033
10189SOL    HW131466   0.993   1.064   6.132
10189SOL    HW231467   0.880   1.056   6.014
10190SOL     OW31468   3.970   2.871   1.411
10190SOL    HW131469   4.063   2.909   1.406
10190SOL    HW231470   3.952   2.841   1.505
10191SOL     OW31471   4.885   5.550   6.682
10191SOL    HW131472   4.798   5.597   6.666
10191SOL    HW231473   4.885   5.464   6.632
10192SOL     OW31474   3.435   1.882   5.185
10192SOL    HW131475   3.368   1.897   5.113
10192SOL    HW231476   3.516   1.939   5.169
10193SOL     OW31477   3.071   3.945   2.770
10193SOL    HW131478   3.147   3.898   2.725
10193SOL    HW231479   3.108   4.008   2.840
10194SOL     OW31480   4.808   1.153   4.257
10194SOL    HW131481   4.860   1.236   4.238
10194SOL    HW231482   4.745   1.136   4.181
10195SOL     OW31483   6.974   6.841   1.786
10195SOL    HW131484   6.896   6.816   1.730
10195SOL    HW231485   7.024   6.916   1.742
10196SOL     OW31486   4.396   2.366   3.843
10196SOL    HW131487   4.394   2.407   3.935
10196SOL    HW231488   4.476   2.400   3.794
10197SOL     OW31489   4.535   2.004   4.069
10197SOL    HW131490   4.503   1.992   3.975
10197SOL    HW231491   4.532   1.916   4.117
10198SOL     OW31492   3.958   0.016   1.194
10198SOL    HW131493   3.911   0.040   1.279
10198SOL    HW231494   4.023   0.088   1.171
10199SOL     OW31495   0.771   1.866   0.016
10199SOL    HW131496   0.808   1.958   0.004
10199SOL    HW231497   0.673   1.872   0.036
10200SOL     OW31498   5.019   3.140   5.398
10200SOL    HW131499   5.035   3.238   5.406
10200SOL    HW231500   4.940   3.124   5.339
10201SOL     OW31501   0.665   6.090   0.730
10201SOL    HW131502   0.573   6.100   0.766
10201SOL    HW231503   0.678   5.997   0.696
10202SOL     OW31504   2.120   4.574   0.075
10202SOL    HW131505   2.145   4.478   0.074
10202SOL    HW231506   2.144   4.616   7.012
10203SOL     OW31507   1.026   2.862   1.992
10203SOL    HW131508   1.115   2.865   2.038
10203SOL    HW231509   0.966   2.932   2.030
10204SOL     OW31510   3.283   5.758   6.489
10204SOL    HW131511   3.272   5.659   6.503
10204SOL    HW231512   3.229   5.808   6.556
10205SOL     OW31513   3.310   1.252   2.351
10205SOL    HW131514   3.221   1.271   2.392
10205SOL    HW231515   3.381   1.298   2.404
10206SOL     OW31516   5.154   7.008   6.562
10206SOL    HW131517   5.081   0.029   6.614
10206SOL    HW231518   5.115   6.972   6.477
10207SOL     OW31519   2.314   1.107   0.046
10207SOL    HW131520   2.367   1.059   7.001
10207SOL    HW231521   2.359   1.097   0.135
10208SOL     OW31522   6.396   4.479   3.724
10208SOL    HW131523   6.489   4.504   3.750
10208SOL    HW231524   6.372   4.523   3.638
10209SOL     OW31525   0.333   0.149   5.807
10209SOL    HW131526   0.392   0.084   5.759
10209SOL    HW231527   0.389   0.217   5.854
10210SOL     OW31528   5.286   6.991   1.531
10210SOL    HW131529   5.352   6.922   1.560
10210SOL    HW231530   5.196   6.968   1.566
10211SOL     OW31531   4.120   6.399   4.841
10211SOL    HW131532   4.049   6.452   4.795
10211SOL    HW231533   4.083   6.359   4.925
10212SOL     OW31534   0.110   0.395   5.198
10212SOL    HW131535   0.073   0.488   5.190
10212SOL    HW231536   0.041   0.329   5.168
10213SOL     OW31537   5.465   2.733   2.429
10213SOL    HW131538   5.472   2.758   2.525
10213SOL    HW231539   5.425   2.809   2.377
10214SOL     OW31540   1.237   1.676   2.448
10214SOL    HW131541   1.158   1.626   2.483
10214SOL    HW231542   1.310   1.611   2.426
10215SOL     OW31543   3.725   3.035   3.872
10215SOL    HW131544   3.713   3.126   3.913
10215SOL    HW231545   3.640   2.983   3.880
10216SOL     OW31546   0.638   6.637   1.106
10216SOL    HW131547   0.639   6.585   1.191
10216SOL    HW231548   0.583   6.720   1.119
10217SOL     OW31549   2.473   1.752   3.192
10217SOL    HW131550   2.543   1.815   3.159
10217SOL    HW231551   2.481   1.664   3.144
10218SOL     OW31552   1.766   0.616   1.877
10218SOL    HW131553   1.729   0.524   1.868
10218SOL    HW231554   1.724   0.676   1.810
10219SOL     OW31555   0.105   2.691   2.456
10219SOL    HW131556   0.012   2.674   2.489
10219SOL    HW231557   0.100   2.728   2.363
10220SOL     OW31558   4.370   2.157   1.422
10220SOL    HW131559   4.378   2.226   1.350
10220SOL    HW231560   4.288   2.175   1.476
10221SOL     OW31561   1.911   3.078   4.245
10221SOL    HW131562   2.001   3.120   4.246
10221SOL    HW231563   1.866   3.098   4.157
10222SOL     OW31564   2.642   3.731   5.630
10222SOL    HW131565   2.607   3.746   5.723
10222SOL    HW231566   2.671   3.818   5.592
10223SOL     OW31567   2.043   6.065   6.579
10223SOL    HW131568   2.028   6.110   6.492
10223SOL    HW231569   2.141   6.047   6.591
10224SOL     OW31570   0.589   1.533   5.193
10224SOL    HW131571   0.680   1.504   5.164
10224SOL    HW231572   0.537   1.564   5.113
10225SOL     OW31573   2.236   6.408   6.190
10225SOL    HW131574   2.191   6.496   6.188
10225SOL    HW231575   2.191   6.348   6.256
10226SOL     OW31576   2.764   0.477   6.306
10226SOL    HW131577   2.739   0.489   6.210
10226SOL    HW231578   2.843   0.534   6.327
10227SOL     OW31579   5.419   4.751   0.810
10227SOL    HW131580   5.384   4.735   0.902
10227SOL    HW231581   5.464   4.668   0.776
10228SOL     OW31582   0.896   5.848   2.058
10228SOL    HW131583   0.845   5.907   1.996
10228SOL    HW231584   0.985   5.890   2.079
10229SOL     OW31585   1.145   1.787   4.172
10229SOL    HW131586   1.056   1.805   4.130
10229SOL    HW231587   1.202   1.869   4.164
10230SOL     OW31588   6.369   6.197   2.752
10230SOL    HW131589   6.295   6.211   2.818
10230SOL    HW231590   6.330   6.165   2.666
10231SOL     OW31591   6.340   5.681   5.126
10231SOL    HW131592   6.321   5.585   5.109
10231SOL    HW231593   6.283   5.738   5.067
10232SOL     OW31594   2.825   0.712   4.584
10232SOL    HW131595   2.754   0.780   4.603
10232SOL    HW231596   2.787   0.638   4.530
10233SOL     OW31597   4.855   3.793   5.315
10233SOL    HW131598   4.832   3.746   5.230
10233SOL    HW231599   4.797   3.758   5.389
10234SOL     OW31600   5.413   0.316   0.288
10234SOL    HW131601   5.371   0.244   0.344
10234SOL    HW231602   5.472   0.373   0.345
10235SOL     OW31603   4.147   3.274   0.171
10235SOL    HW131604   4.129   3.352   0.231
10235SOL    HW231605   4.077   3.270   0.100
10236SOL     OW31606   1.873   0.228   1.910
10236SOL    HW131607   1.773   0.221   1.901
10236SOL    HW231608   1.916   0.163   1.848
10237SOL     OW31609   6.800   4.167   0.542
10237SOL    HW131610   6.797   4.074   0.505
10237SOL    HW231611   6.889   4.183   0.584
10238SOL     OW31612   3.368   4.055   3.609
10238SOL    HW131613   3.437   4.100   3.551
10238SOL    HW231614   3.372   4.094   3.701
10239SOL     OW31615   1.653   4.013   5.654
10239SOL    HW131616   1.752   4.013   5.638
10239SOL    HW231617   1.632   3.962   5.737
10240SOL     OW31618   1.706   4.700   3.413
10240SOL    HW131619   1.701   4.604   3.440
10240SOL    HW231620   1.622   4.747   3.439
10241SOL     OW31621   6.568   0.526   2.207
10241SOL    HW131622   6.494   0.472   2.246
10241SOL    HW231623   6.646   0.526   2.270
10242SOL     OW31624   6.999   1.250   0.124
10242SOL    HW131625   6.961   1.182   0.187
10242SOL    HW231626   6.985   1.342   0.162
10243SOL     OW31627   1.318   4.889   1.707
10243SOL    HW131628   1.255   4.923   1.778
10243SOL    HW231629   1.323   4.790   1.711
10244SOL     OW31630   1.147   4.219   0.412
10244SOL    HW131631   1.223   4.263   0.460
10244SOL    HW231632   1.119   4.137   0.462
10245SOL     OW31633   2.942   4.613   0.039
10245SOL    HW131634   2.865   4.550   0.037
10245SOL    HW231635   3.020   4.572   7.017
10246SOL     OW31636   3.387   4.174   3.863
10246SOL    HW131637   3.353   4.153   3.954
10246SOL    HW231638   3.481   4.207   3.869
10247SOL     OW31639   6.729   5.161   5.604
10247SOL    HW131640   6.643   5.122   5.637
10247SOL    HW231641   6.748   5.246   5.654
10248SOL     OW31642   3.127   0.162   2.303
10248SOL    HW131643   3.088   0.194   2.390
10248SOL    HW231644   3.224   0.184   2.300
10249SOL     OW31645   3.422   0.702   5.603
10249SOL    HW131646   3.419   0.802   5.600
10249SOL    HW231647   3.454   0.672   5.693
10250SOL     OW31648   0.069   2.883   1.040
10250SOL    HW131649   0.166   2.903   1.025
10250SOL    HW231650   0.016   2.968   1.033
10251SOL     OW31651   2.439   1.732   5.296
10251SOL    HW131652   2.511   1.741   5.226
10251SOL    HW231653   2.356   1.696   5.253
10252SOL     OW31654   4.832   5.064   0.138
10252SOL    HW131655   4.844   5.033   0.232
10252SOL    HW231656   4.800   5.159   0.138
10253SOL     OW31657   3.443   5.861   0.076
10253SOL    HW131658   3.443   5.960   0.091
10253SOL    HW231659   3.527   5.834   0.030
10254SOL     OW31660   4.811   1.675   5.031
10254SOL    HW131661   4.824   1.769   5.063
10254SOL    HW231662   4.752   1.675   4.950
10255SOL     OW31663   2.003   6.864   1.242
10255SOL    HW131664   2.094   6.884   1.279
10255SOL    HW231665   1.934   6.908   1.299
10256SOL     OW31666   6.050   1.447   1.849
10256SOL    HW131667   6.042   1.447   1.749
10256SOL    HW231668   6.098   1.529   1.878
10257SOL     OW31669   1.761   5.261   4.894
10257SOL    HW131670   1.777   5.167   4.924
10257SOL    HW231671   1.695   5.305   4.955
10258SOL     OW31672   3.509   0.899   4.413
10258SOL    HW131673   3.515   0.903   4.513
10258SOL    HW231674   3.589   0.850   4.378
10259SOL     OW31675   0.249   4.329   3.295
10259SOL    HW131676   0.324   4.373   3.344
10259SOL    HW231677   0.232   4.378   3.209
10260SOL     OW31678   0.405   0.651   3.318
10260SOL    HW131679   0.442   0.711   3.389
10260SOL    HW231680   0.361   0.706   3.248
10261SOL     OW31681   7.004   5.708   3.282
10261SOL    HW131682   0.047   5.702   3.208
10261SOL    HW231683   6.912   5.697   3.244
10262SOL     OW31684   1.733   6.845   4.364
10262SOL    HW131685   1.779   6.759   4.388
10262SOL    HW231686   1.757   6.871   4.270
10263SOL     OW31687   5.331   0.550   6.460
10263SOL    HW131688   5.342   0.548   6.360
10263SOL    HW231689   5.318   0.645   6.490
10264SOL     OW31690   6.147   2.504   5.817
10264SOL    HW131691   6.193   2.446   5.750
10264SOL    HW231692   6.074   2.556   5.772
10265SOL     OW31693   3.104   2.142   3.002
10265SOL    HW131694   3.078   2.156   2.906
10265SOL    HW231695   3.047   2.200   3.060
10266SOL     OW31696   3.350   2.906   5.089
10266SOL    HW131697   3.392   2.968   5.155
10266SOL    HW231698   3.256   2.886   5.116
10267SOL     OW31699   6.375   1.689   0.111
10267SOL    HW131700   6.396   1.690   0.209
10267SOL    HW231701   6.334   1.776   0.085
10268SOL     OW31702   5.505   4.985   2.101
10268SOL    HW131703   5.411   4.984   2.135
10268SOL    HW231704   5.569   4.968   2.176
10269SOL     OW31705   0.371   2.958   5.433
10269SOL    HW131706   0.470   2.961   5.419
10269SOL    HW231707   0.347   2.874   5.482
10270SOL     OW31708   3.180   4.869   3.137
10270SOL    HW131709   3.234   4.934   3.084
10270SOL    HW231710   3.123   4.918   3.202
10271SOL     OW31711   3.491   2.334   6.918
10271SOL    HW131712   3.459   2.384   6.838
10271SOL    HW231713   3.583   2.298   6.901
10272SOL     OW31714   0.866   0.429   5.147
10272SOL    HW131715   0.875   0.503   5.214
10272SOL    HW231716   0.882   0.341   5.191
10273SOL     OW31717   3.827   5.487   2.739
10273SOL    HW131718   3.754   5.437   2.692
10273SOL    HW231719   3.903   5.500   2.677
10274SOL     OW31720   6.954   4.848   4.611
10274SOL    HW131721   6.858   4.843   4.641
10274SOL    HW231722   6.966   4.792   4.529
10275SOL     OW31723   1.015   6.678   1.817
10275SOL    HW131724   1.045   6.738   1.892
10275SOL    HW231725   1.037   6.583   1.840
10276SOL     OW31726   5.870   5.226   5.227
10276SOL    HW131727   5.813   5.225   5.309
10276SOL    HW231728   5.869   5.135   5.185
10277SOL     OW31729   2.146   5.452   4.009
10277SOL    HW131730   2.058   5.409   4.031
10277SOL    HW231731   2.200   5.390   3.952
10278SOL     OW31732   6.685   0.624   4.678
10278SOL    HW131733   6.717   0.688   4.748
10278SOL    HW231734   6.757   0.608   4.612
10279SOL     OW31735   2.698   5.424   4.361
10279SOL    HW131736   2.646   5.400   4.443
10279SOL    HW231737   2.790   5.387   4.367
10280SOL     OW31738   1.019   4.406   1.398
10280SOL    HW131739   0.959   4.332   1.368
10280SOL    HW231740   1.115   4.381   1.382
10281SOL     OW31741   5.860   1.299   2.803
10281SOL    HW131742   5.921   1.354   2.861
10281SOL    HW231743   5.915   1.242   2.742
10282SOL     OW31744   6.243   4.154   4.034
10282SOL    HW131745   6.197   4.082   4.086
10282SOL    HW231746   6.175   4.210   3.987
10283SOL     OW31747   0.757   3.688   0.840
10283SOL    HW131748   0.807   3.699   0.926
10283SOL    HW231749   0.681   3.626   0.853
10284SOL     OW31750   5.236   2.988   5.269
10284SOL    HW131751   5.249   2.990   5.170
10284SOL    HW231752   5.162   3.050   5.295
10285SOL     OW31753   5.407   0.885   1.226
10285SOL    HW131754   5.461   0.932   1.295
10285SOL    HW231755   5.336   0.830   1.269
10286SOL     OW31756   3.263   1.800   3.823
10286SOL    HW131757   3.166   1.777   3.811
10286SOL    HW231758   3.272   1.872   3.891
10287SOL     OW31759   2.510   6.310   0.921
10287SOL    HW131760   2.501   6.407   0.898
10287SOL    HW231761   2.440   6.258   0.872
10288SOL     OW31762   5.172   5.895   2.888
10288SOL    HW131763   5.232   5.970   2.859
10288SOL    HW231764   5.080   5.931   2.904
10289SOL     OW31765   3.142   0.771   2.066
10289SOL    HW131766   3.188   0.697   2.115
10289SOL    HW231767   3.199   0.802   1.990
10290SOL     OW31768   2.929   3.406   1.671
10290SOL    HW131769   2.839   3.425   1.631
10290SOL    HW231770   2.918   3.355   1.756
10291SOL     OW31771   3.426   0.903   3.737
10291SOL    HW131772   3.421   0.926   3.640
10291SOL    HW231773   3.394   0.981   3.792
10292SOL     OW31774   1.609   0.521   5.207
10292SOL    HW131775   1.677   0.572   5.155
10292SOL    HW231776   1.574   0.446   5.151
10293SOL     OW31777   1.504   4.988   3.754
10293SOL    HW131778   1.413   5.020   3.725
10293SOL    HW231779   1.512   4.996   3.853
10294SOL     OW31780   5.865   3.223   2.609
10294SOL    HW131781   5.779   3.265   2.639
10294SOL    HW231782   5.862   3.208   2.510
10295SOL     OW31783   5.853   5.082   6.254
10295SOL    HW131784   5.794   5.013   6.298
10295SOL    HW231785   5.943   5.042   6.238
10296SOL     OW31786   4.685   2.955   0.162
10296SOL    HW131787   4.660   2.859   0.148
10296SOL    HW231788   4.705   2.971   0.258
10297SOL     OW31789   2.246   6.712   6.580
10297SOL    HW131790   2.329   6.763   6.556
10297SOL    HW231791   2.172   6.739   6.518
10298SOL     OW31792   3.558   5.077   2.016
10298SOL    HW131793   3.464   5.110   2.015
10298SOL    HW231794   3.558   4.977   2.030
10299SOL     OW31795   4.713   5.412   2.381
10299SOL    HW131796   4.693   5.502   2.343
10299SOL    HW231797   4.664   5.401   2.468
10300SOL     OW31798   1.221   4.633   3.534
10300SOL    HW131799   1.234   4.637   3.435
10300SOL    HW231800   1.199   4.540   3.561
10301SOL     OW31801   5.859   2.135   3.920
10301SOL    HW131802   5.805   2.220   3.923
10301SOL    HW231803   5.826   2.078   3.845
10302SOL     OW31804   0.797   5.478   3.730
10302SOL    HW131805   0.847   5.560   3.758
10302SOL    HW231806   0.733   5.502   3.657
10303SOL     OW31807   1.970   6.007   2.488
10303SOL    HW131808   2.031   6.086   2.488
10303SOL    HW231809   1.885   6.030   2.441
10304SOL     OW31810   5.189   0.413   2.367
10304SOL    HW131811   5.145   0.494   2.406
10304SOL    HW231812   5.153   0.397   2.275
10305SOL     OW31813   0.512   4.836   6.565
10305SOL    HW131814   0.473   4.847   6.656
10305SOL    HW231815   0.442   4.805   6.501
10306SOL     OW31816   4.050   6.536   0.228
10306SOL    HW131817   3.987   6.612   0.214
10306SOL    HW231818   4.086   6.506   0.140
10307SOL     OW31819   2.334   2.317   4.415
10307SOL    HW131820   2.242   2.356   4.405
10307SOL    HW231821   2.327   2.220   4.437
10308SOL     OW31822   2.294   4.782   4.645
10308SOL    HW131823   2.351   4.799   4.725
10308SOL    HW231824   2.268   4.686   4.642
10309SOL     OW31825   6.142   1.440   4.386
10309SOL    HW131826   6.194   1.407   4.307
10309SOL    HW231827   6.187   1.412   4.470
10310SOL     OW31828   3.950   2.874   1.716
10310SOL    HW131829   4.011   2.797   1.699
10310SOL    HW231830   3.918   2.872   1.811
10311SOL     OW31831   0.674   6.049   1.087
10311SOL    HW131832   0.705   6.122   1.148
10311SOL    HW231833   0.574   6.038   1.096
10312SOL     OW31834   2.520   6.338   1.532
10312SOL    HW131835   2.545   6.291   1.447
10312SOL    HW231836   2.510   6.435   1.514
10313SOL     OW31837   4.220   0.152   1.253
10313SOL    HW131838   4.224   0.052   1.252
10313SOL    HW231839   4.214   0.187   1.159
10314SOL     OW31840   7.004   0.532   2.229
10314SOL    HW131841   0.073   0.538   2.267
10314SOL    HW231842   7.009   0.521   2.130
10315SOL     OW31843   6.259   5.808   4.081
10315SOL    HW131844   6.196   5.810   4.003
10315SOL    HW231845   6.298   5.717   4.090
10316SOL     OW31846   6.453   2.435   5.022
10316SOL    HW131847   6.436   2.370   4.947
10316SOL    HW231848   6.377   2.431   5.087
10317SOL     OW31849   3.617   6.127   5.341
10317SOL    HW131850   3.621   6.204   5.405
10317SOL    HW231851   3.530   6.079   5.352
10318SOL     OW31852   5.128   6.076   6.409
10318SOL    HW131853   5.124   6.171   6.377
10318SOL    HW231854   5.120   6.074   6.509
10319SOL     OW31855   1.916   2.578   5.643
10319SOL    HW131856   1.911   2.617   5.552
10319SOL    HW231857   1.864   2.492   5.645
10320SOL     OW31858   0.937   0.706   2.228
10320SOL    HW131859   1.026   0.676   2.263
10320SOL    HW231860   0.924   0.671   2.135
10321SOL     OW31861   4.536   0.602   3.206
10321SOL    HW131862   4.483   0.658   3.270
10321SOL    HW231863   4.552   0.655   3.123
10322SOL     OW31864   6.556   5.714   6.188
10322SOL    HW131865   6.568   5.813   6.187
10322SOL    HW231866   6.637   5.670   6.149
10323SOL     OW31867   6.055   3.118   5.996
10323SOL    HW131868   6.050   3.030   5.949
10323SOL    HW231869   6.054   3.102   6.095
10324SOL     OW31870   2.959   3.319   3.166
10324SOL    HW131871   2.924   3.361   3.082
10324SOL    HW231872   2.931   3.374   3.245
10325SOL     OW31873   6.799   3.744   3.076
10325SOL    HW131874   6.879   3.802   3.089
10325SOL    HW231875   6.750   3.735   3.162
10326SOL     OW31876   3.835   3.749   0.156
10326SOL    HW131877   3.844   3.833   0.103
10326SOL    HW231878   3.903   3.683   0.126
10327SOL     OW31879   2.556   1.716   1.666
10327SOL    HW131880   2.601   1.680   1.584
10327SOL    HW231881   2.605   1.797   1.697
10328SOL     OW31882   6.068   3.112   0.942
10328SOL    HW131883   5.988   3.088   0.996
10328SOL    HW231884   6.054   3.200   0.898
10329SOL     OW31885   3.514   0.587   4.114
10329SOL    HW131886   3.528   0.604   4.016
10329SOL    HW231887   3.430   0.633   4.144
10330SOL     OW31888   3.913   5.660   1.647
10330SOL    HW131889   3.912   5.731   1.576
10330SOL    HW231890   3.992   5.600   1.633
10331SOL     OW31891   6.430   0.588   4.110
10331SOL    HW131892   6.499   0.622   4.174
10331SOL    HW231893   6.476   0.556   4.027
10332SOL     OW31894   5.899   1.591   0.329
10332SOL    HW131895   5.846   1.543   0.398
10332SOL    HW231896   5.973   1.531   0.296
10333SOL     OW31897   6.724   4.604   4.171
10333SOL    HW131898   6.755   4.655   4.090
10333SOL    HW231899   6.735   4.506   4.155
10334SOL     OW31900   2.465   5.817   4.187
10334SOL    HW131901   2.538   5.750   4.195
10334SOL    HW231902   2.385   5.774   4.143
10335SOL     OW31903   2.859   4.887   6.831
10335SOL    HW131904   2.950   4.868   6.794
10335SOL    HW231905   2.791   4.837   6.778
10336SOL     OW31906   5.376   0.183   2.920
10336SOL    HW131907   5.354   0.100   2.868
10336SOL    HW231908   5.475   0.186   2.938
10337SOL     OW31909   6.573   6.487   5.882
10337SOL    HW131910   6.637   6.559   5.908
10337SOL    HW231911   6.495   6.487   5.944
10338SOL     OW31912   2.837   6.103   2.225
10338SOL    HW131913   2.852   6.079   2.129
10338SOL    HW231914   2.870   6.028   2.283
10339SOL     OW31915   2.654   5.576   0.082
10339SOL    HW131916   2.747   5.542   0.095
10339SOL    HW231917   2.594   5.499   0.059
10340SOL     OW31918   1.414   5.235   0.638
10340SOL    HW131919   1.435   5.138   0.648
10340SOL    HW231920   1.485   5.278   0.581
10341SOL     OW31921   2.059   3.567   1.776
10341SOL    HW131922   2.135   3.510   1.807
10341SOL    HW231923   2.026   3.534   1.687
10342SOL     OW31924   1.737   6.014   5.751
10342SOL    HW131925   1.801   6.065   5.808
10342SOL    HW231926   1.784   5.939   5.706
10343SOL     OW31927   2.407   3.929   0.607
10343SOL    HW131928   2.453   3.840   0.612
10343SOL    HW231929   2.350   3.933   0.525
10344SOL     OW31930   4.240   3.283   1.744
10344SOL    HW131931   4.204   3.269   1.836
10344SOL    HW231932   4.243   3.381   1.724
10345SOL     OW31933   1.433   0.848   6.029
10345SOL    HW131934   1.483   0.880   6.110
10345SOL    HW231935   1.418   0.750   6.036
10346SOL     OW31936   6.045   1.108   1.115
10346SOL    HW131937   6.059   1.102   1.016
10346SOL    HW231938   6.036   1.016   1.153
10347SOL     OW31939   5.036   2.435   2.452
10347SOL    HW131940   4.954   2.491   2.438
10347SOL    HW231941   5.016   2.340   2.425
10348SOL     OW31942   6.533   1.901   6.908
10348SOL    HW131943   6.572   1.832   6.970
10348SOL    HW231944   6.443   1.929   6.942
10349SOL     OW31945   6.656   1.546   0.278
10349SOL    HW131946   6.631   1.458   0.240
10349SOL    HW231947   6.573   1.593   0.311
10350SOL     OW31948   2.288   6.454   5.208
10350SOL    HW131949   2.292   6.425   5.304
10350SOL    HW231950   2.361   6.520   5.190
10351SOL     OW31951   5.863   5.297   6.434
10351SOL    HW131952   5.855   5.224   6.366
10351SOL    HW231953   5.815   5.270   6.517
10352SOL     OW31954   5.585   1.647   6.737
10352SOL    HW131955   5.578   1.701   6.653
10352SOL    HW231956   5.516   1.678   6.802
10353SOL     OW31957   6.278   2.380   4.479
10353SOL    HW131958   6.199   2.433   4.511
10353SOL    HW231959   6.287   2.390   4.380
10354SOL     OW31960   0.076   2.233   1.695
10354SOL    HW131961   0.048   2.253   1.601
10354SOL    HW231962   0.057   2.137   1.715
10355SOL     OW31963   1.583   0.490   0.926
10355SOL    HW131964   1.588   0.495   1.026
10355SOL    HW231965   1.662   0.538   0.887
10356SOL     OW31966   6.949   3.354   5.785
10356SOL    HW131967   7.001   3.299   5.720
10356SOL    HW231968   7.006   3.429   5.818
10357SOL     OW31969   3.353   2.690   6.096
10357SOL    HW131970   3.310   2.745   6.025
10357SOL    HW231971   3.407   2.617   6.054
10358SOL     OW31972   0.451   2.937   3.847
10358SOL    HW131973   0.437   2.843   3.877
10358SOL    HW231974   0.405   2.952   3.759
10359SOL     OW31975   5.176   1.386   1.765
10359SOL    HW131976   5.179   1.354   1.670
10359SOL    HW231977   5.081   1.403   1.790
10360SOL     OW31978   5.026   5.685   1.924
10360SOL    HW131979   4.998   5.616   1.857
10360SOL    HW231980   4.966   5.765   1.917
10361SOL     OW31981   2.390   1.161   2.684
10361SOL    HW131982   2.301   1.114   2.684
10361SOL    HW231983   2.460   1.101   2.647
10362SOL     OW31984   0.518   5.092   3.005
10362SOL    HW131985   0.603   5.095   2.953
10362SOL    HW231986   0.461   5.017   2.973
10363SOL     OW31987   4.932   2.929   1.522
10363SOL    HW131988   4.909   3.025   1.539
10363SOL    HW231989   4.973   2.921   1.431
10364SOL     OW31990   4.372   4.235   1.447
10364SOL    HW131991   4.446   4.170   1.431
10364SOL    HW231992   4.296   4.214   1.384
10365SOL     OW31993   5.593   4.452   6.868
10365SOL    HW131994   5.503   4.408   6.871
10365SOL    HW231995   5.636   4.435   6.780
10366SOL     OW31996   3.147   6.893   3.778
10366SOL    HW131997   3.057   6.867   3.743
10366SOL    HW231998   3.206   6.812   3.783
10367SOL     OW31999   0.075   1.413   1.707
10367SOL    HW132000   0.001   1.446   1.765
10367SOL    HW232001   0.080   1.313   1.713
10368SOL     OW32002   1.870   1.346   2.491
10368SOL    HW132003   1.831   1.258   2.464
10368SOL    HW232004   1.807   1.392   2.553
10369SOL     OW32005   3.378   6.916   5.684
10369SOL    HW132006   3.328   6.853   5.624
10369SOL    HW232007   3.473   6.923   5.654
10370SOL     OW32008   7.003   0.771   5.301
10370SOL    HW132009   0.047   0.828   5.347
10370SOL    HW232010   0.016   0.738   5.214
10371SOL     OW32011   1.910   6.706   4.793
10371SOL    HW132012   1.895   6.681   4.698
10371SOL    HW232013   1.878   6.632   4.852
10372SOL     OW32014   2.288   1.385   0.050
10372SOL    HW132015   2.380   1.421   0.066
10372SOL    HW232016   2.291   1.285   0.048
10373SOL     OW32017   1.588   6.563   4.933
10373SOL    HW132018   1.571   6.581   4.837
10373SOL    HW232019   1.519   6.610   4.988
10374SOL     OW32020   3.182   0.788   3.828
10374SOL    HW132021   3.207   0.692   3.844
10374SOL    HW232022   3.259   0.836   3.787
10375SOL     OW32023   2.590   2.422   5.990
10375SOL    HW132024   2.681   2.384   5.977
10375SOL    HW232025   2.584   2.510   5.943
10376SOL     OW32026   1.083   5.932   4.042
10376SOL    HW132027   1.178   5.959   4.059
10376SOL    HW232028   1.080   5.835   4.018
10377SOL     OW32029   0.361   0.497   2.124
10377SOL    HW132030   0.456   0.526   2.133
10377SOL    HW232031   0.315   0.505   2.212
10378SOL     OW32032   5.984   5.716   5.783
10378SOL    HW132033   5.983   5.748   5.878
10378SOL    HW232034   5.889   5.704   5.752
10379SOL     OW32035   2.932   5.978   4.146
10379SOL    HW132036   3.005   6.039   4.177
10379SOL    HW232037   2.869   6.029   4.087
10380SOL     OW32038   0.869   2.432   4.786
10380SOL    HW132039   0.897   2.528   4.785
10380SOL    HW232040   0.802   2.418   4.859
10381SOL     OW32041   4.317   3.940   1.117
10381SOL    HW132042   4.282   3.936   1.211
10381SOL    HW232043   4.276   3.866   1.063
10382SOL     OW32044   2.222   5.320   1.705
10382SOL    HW132045   2.241   5.417   1.715
10382SOL    HW232046   2.264   5.270   1.781
10383SOL     OW32047   1.408   3.873   0.399
10383SOL    HW132048   1.460   3.925   0.467
10383SOL    HW232049   1.359   3.798   0.444
10384SOL     OW32050   6.745   0.059   1.237
10384SOL    HW132051   6.819   7.023   1.269
10384SOL    HW232052   6.666   0.004   1.213
10385SOL     OW32053   4.002   6.096   6.482
10385SOL    HW132054   4.040   6.023   6.539
10385SOL    HW232055   3.903   6.087   6.478
10386SOL     OW32056   6.884   1.116   5.683
10386SOL    HW132057   6.914   1.157   5.598
10386SOL    HW232058   6.896   1.016   5.678
10387SOL     OW32059   4.309   1.756   3.011
10387SOL    HW132060   4.395   1.771   3.060
10387SOL    HW232061   4.286   1.658   3.013
10388SOL     OW32062   2.143   5.590   2.071
10388SOL    HW132063   2.226   5.635   2.103
10388SOL    HW232064   2.077   5.583   2.146
10389SOL     OW32065   6.280   5.135   0.545
10389SOL    HW132066   6.326   5.136   0.634
10389SOL    HW232067   6.187   5.170   0.555
10390SOL     OW32068   1.812   3.718   0.820
10390SOL    HW132069   1.789   3.695   0.726
10390SOL    HW232070   1.728   3.730   0.873
10391SOL     OW32071   0.371   6.198   3.241
10391SOL    HW132072   0.420   6.246   3.168
10391SOL    HW232073   0.435   6.170   3.312
10392SOL     OW32074   6.544   4.803   5.463
10392SOL    HW132075   6.520   4.791   5.367
10392SOL    HW232076   6.470   4.852   5.509
10393SOL     OW32077   2.486   2.619   3.371
10393SOL    HW132078   2.453   2.525   3.363
10393SOL    HW232079   2.556   2.624   3.442
10394SOL     OW32080   2.422   5.397   5.257
10394SOL    HW132081   2.348   5.443   5.306
10394SOL    HW232082   2.477   5.465   5.208
10395SOL     OW32083   0.750   0.568   1.515
10395SOL    HW132084   0.684   0.586   1.587
10395SOL    HW232085   0.704   0.571   1.426
10396SOL     OW32086   3.573   1.158   3.616
10396SOL    HW132087   3.476   1.159   3.591
10396SOL    HW232088   3.596   1.241   3.666
10397SOL     OW32089   2.898   1.382   4.613
10397SOL    HW132090   2.951   1.439   4.676
10397SOL    HW232091   2.952   1.363   4.532
10398SOL     OW32092   5.629   2.240   0.956
10398SOL    HW132093   5.671   2.218   0.868
10398SOL    HW232094   5.531   2.252   0.944
10399SOL     OW32095   4.799   2.083   3.798
10399SOL    HW132096   4.780   2.141   3.878
10399SOL    HW232097   4.860   2.133   3.736
10400SOL     OW32098   4.176   5.882   0.077
10400SOL    HW132099   4.143   5.976   0.070
10400SOL    HW232100   4.101   5.823   0.110
10401SOL     OW32101   0.562   6.643   1.807
10401SOL    HW132102   0.633   6.685   1.751
10401SOL    HW232103   0.604   6.591   1.881
10402SOL     OW32104   0.129   1.419   5.427
10402SOL    HW132105   0.057   1.350   5.417
10402SOL    HW232106   0.094   1.508   5.400
10403SOL     OW32107   4.063   1.849   3.137
10403SOL    HW132108   4.138   1.813   3.082
10403SOL    HW232109   4.085   1.942   3.167
10404SOL     OW32110   6.661   6.317   4.432
10404SOL    HW132111   6.705   6.270   4.356
10404SOL    HW232112   6.716   6.396   4.459
10405SOL     OW32113   1.110   5.843   5.127
10405SOL    HW132114   1.100   5.800   5.217
10405SOL    HW232115   1.074   5.936   5.130
10406SOL     OW32116   2.144   3.120   5.126
10406SOL    HW132117   2.233   3.084   5.097
10406SOL    HW232118   2.152   3.158   5.218
10407SOL     OW32119   3.200   0.061   6.558
10407SOL    HW132120   3.116   0.116   6.561
10407SOL    HW232121   3.279   0.121   6.570
10408SOL     OW32122   4.626   0.175   1.500
10408SOL    HW132123   4.584   0.180   1.410
10408SOL    HW232124   4.704   0.112   1.497
10409SOL     OW32125   0.156   4.376   0.907
10409SOL    HW132126   0.225   4.336   0.967
10409SOL    HW232127   0.076   4.402   0.961
10410SOL     OW32128   5.071   2.638   2.040
10410SOL    HW132129   5.009   2.704   1.998
10410SOL    HW232130   5.164   2.675   2.037
10411SOL     OW32131   3.460   6.179   3.574
10411SOL    HW132132   3.452   6.135   3.484
10411SOL    HW232133   3.370   6.212   3.604
10412SOL     OW32134   0.506   1.027   1.011
10412SOL    HW132135   0.509   1.091   0.934
10412SOL    HW232136   0.494   1.079   1.096
10413SOL     OW32137   6.290   2.757   1.749
10413SOL    HW132138   6.375   2.742   1.799
10413SOL    HW232139   6.283   2.853   1.723
10414SOL     OW32140   3.528   4.696   6.020
10414SOL    HW132141   3.493   4.667   6.109
10414SOL    HW232142   3.599   4.633   5.990
10415SOL     OW32143   1.777   4.590   4.218
10415SOL    HW132144   1.813   4.644   4.142
10415SOL    HW232145   1.740   4.651   4.288
10416SOL     OW32146   5.621   6.947   5.204
10416SOL    HW132147   5.686   6.933   5.278
10416SOL    HW232148   5.550   6.876   5.207
10417SOL     OW32149   4.130   4.803   3.728
10417SOL    HW132150   4.042   4.816   3.775
10417SOL    HW232151   4.185   4.736   3.777
10418SOL     OW32152   6.526   4.699   5.797
10418SOL    HW132153   6.533   4.767   5.725
10418SOL    HW232154   6.530   4.607   5.757
10419SOL     OW32155   3.242   6.685   6.288
10419SOL    HW132156   3.186   6.694   6.205
10419SOL    HW232157   3.315   6.619   6.271
10420SOL     OW32158   0.449   3.597   4.159
10420SOL    HW132159   0.490   3.658   4.091
10420SOL    HW232160   0.398   3.524   4.113
10421SOL     OW32161   0.945   3.669   3.752
10421SOL    HW132162   0.888   3.604   3.803
10421SOL    HW232163   1.005   3.718   3.815
10422SOL     OW32164   6.281   3.533   5.483
10422SOL    HW132165   6.222   3.514   5.562
10422SOL    HW232166   6.254   3.475   5.406
10423SOL     OW32167   5.805   4.807   5.669
10423SOL    HW132168   5.865   4.759   5.733
10423SOL    HW232169   5.828   4.779   5.575
10424SOL     OW32170   3.588   3.267   0.959
10424SOL    HW132171   3.571   3.205   0.883
10424SOL    HW232172   3.505   3.320   0.977
10425SOL     OW32173   1.211   6.503   2.540
10425SOL    HW132174   1.121   6.538   2.514
10425SOL    HW232175   1.282   6.550   2.488
10426SOL     OW32176   5.473   4.918   0.130
10426SOL    HW132177   5.410   4.966   0.069
10426SOL    HW232178   5.495   4.828   0.091
10427SOL     OW32179   4.211   1.349   0.477
10427SOL    HW132180   4.296   1.299   0.493
10427SOL    HW232181   4.184   1.340   0.381
10428SOL     OW32182   3.115   0.985   4.247
10428SOL    HW132183   3.182   0.914   4.226
10428SOL    HW232184   3.061   1.005   4.165
10429SOL     OW32185   0.013   4.246   2.534
10429SOL    HW132186   0.033   4.242   2.632
10429SOL    HW232187   0.089   4.291   2.487
10430SOL     OW32188   4.731   6.962   5.179
10430SOL    HW132189   4.719   6.990   5.084
10430SOL    HW232190   4.649   6.983   5.231
10431SOL     OW32191   2.411   6.242   4.287
10431SOL    HW132192   2.448   6.219   4.197
10431SOL    HW232193   2.390   6.157   4.337
10432SOL     OW32194   5.932   0.182   4.578
10432SOL    HW132195   5.853   0.124   4.600
10432SOL    HW232196   6.003   0.169   4.647
10433SOL     OW32197   0.712   5.929   2.751
10433SOL    HW132198   0.654   5.863   2.798
10433SOL    HW232199   0.699   6.020   2.792
10434SOL     OW32200   3.960   6.127   2.899
10434SOL    HW132201   3.967   6.149   2.802
10434SOL    HW232202   4.052   6.117   2.937
10435SOL     OW32203   1.160   1.710   5.600
10435SOL    HW132204   1.093   1.683   5.531
10435SOL    HW232205   1.205   1.795   5.572
10436SOL     OW32206   5.950   4.691   5.444
10436SOL    HW132207   6.003   4.712   5.362
10436SOL    HW232208   5.879   4.624   5.422
10437SOL     OW32209   4.749   4.304   6.097
10437SOL    HW132210   4.821   4.336   6.034
10437SOL    HW232211   4.702   4.383   6.136
10438SOL     OW32212   0.467   6.218   6.673
10438SOL    HW132213   0.492   6.125   6.699
10438SOL    HW232214   0.550   6.275   6.670
10439SOL     OW32215   4.315   1.302   4.998
10439SOL    HW132216   4.217   1.315   5.004
10439SOL    HW232217   4.357   1.383   4.956
10440SOL     OW32218   0.274   6.812   0.790
10440SOL    HW132219   0.351   6.856   0.836
10440SOL    HW232220   0.211   6.882   0.757
10441SOL     OW32221   4.267   1.510   1.517
10441SOL    HW132222   4.287   1.608   1.511
10441SOL    HW232223   4.255   1.485   1.613
10442SOL     OW32224   4.453   6.693   6.801
10442SOL    HW132225   4.435   6.765   6.868
10442SOL    HW232226   4.367   6.664   6.759
10443SOL     OW32227   5.012   3.306   3.944
10443SOL    HW132228   5.109   3.331   3.937
10443SOL    HW232229   4.967   3.364   4.012
10444SOL     OW32230   4.244   5.901   3.194
10444SOL    HW132231   4.270   5.805   3.179
10444SOL    HW232232   4.150   5.904   3.229
10445SOL     OW32233   0.465   4.523   4.105
10445SOL    HW132234   0.493   4.455   4.037
10445SOL    HW232235   0.521   4.512   4.187
10446SOL     OW32236   2.188   3.254   6.534
10446SOL    HW132237   2.107   3.297   6.573
10446SOL    HW232238   2.241   3.211   6.607
10447SOL     OW32239   0.447   0.738   2.902
10447SOL    HW132240   0.356   0.709   2.873
10447SOL    HW232241   0.442   0.776   2.995
10448SOL     OW32242   4.802   0.766   2.695
10448SOL    HW132243   4.839   0.682   2.736
10448SOL    HW232244   4.802   0.839   2.764
10449SOL     OW32245   1.502   4.949   5.967
10449SOL    HW132246   1.575   4.979   5.906
10449SOL    HW232247   1.520   4.855   5.997
10450SOL     OW32248   0.289   1.366   0.463
10450SOL    HW132249   0.272   1.347   0.560
10450SOL    HW232250   0.373   1.320   0.435
10451SOL     OW32251   2.162   5.642   2.659
10451SOL    HW132252   2.254   5.619   2.691
10451SOL    HW232253   2.127   5.569   2.601
10452SOL     OW32254   6.268   3.256   2.094
10452SOL    HW132255   6.325   3.257   2.011
10452SOL    HW232256   6.197   3.187   2.085
10453SOL     OW32257   5.146   6.848   1.279
10453SOL    HW132258   5.186   6.926   1.327
10453SOL    HW232259   5.108   6.879   1.192
10454SOL     OW32260   5.064   3.067   0.391
10454SOL    HW132261   5.049   3.103   0.299
10454SOL    HW232262   5.155   3.096   0.424
10455SOL     OW32263   6.367   6.542   3.553
10455SOL    HW132264   6.418   6.469   3.508
10455SOL    HW232265   6.325   6.507   3.637
10456SOL     OW32266   1.637   5.372   0.518
10456SOL    HW132267   1.690   5.351   0.436
10456SOL    HW232268   1.665   5.461   0.555
10457SOL     OW32269   3.533   2.785   1.107
10457SOL    HW132270   3.540   2.750   1.013
10457SOL    HW232271   3.558   2.881   1.108
10458SOL     OW32272   6.291   0.516   6.377
10458SOL    HW132273   6.297   0.496   6.279
10458SOL    HW232274   6.382   0.538   6.412
10459SOL     OW32275   4.178   6.138   2.023
10459SOL    HW132276   4.194   6.041   2.041
10459SOL    HW232277   4.246   6.171   1.956
10460SOL     OW32278   0.607   4.060   2.115
10460SOL    HW132279   0.535   4.113   2.161
10460SOL    HW232280   0.566   4.001   2.046
10461SOL     OW32281   6.270   5.274   5.083
10461SOL    HW132282   6.196   5.314   5.138
10461SOL    HW232283   6.261   5.305   4.989
10462SOL     OW32284   5.140   1.445   3.327
10462SOL    HW132285   5.125   1.349   3.304
10462SOL    HW232286   5.226   1.455   3.376
10463SOL     OW32287   4.409   3.245   5.828
10463SOL    HW132288   4.352   3.199   5.896
10463SOL    HW232289   4.396   3.202   5.738
10464SOL     OW32290   6.786   6.593   1.308
10464SOL    HW132291   6.865   6.551   1.263
10464SOL    HW232292   6.712   6.604   1.243
10465SOL     OW32293   6.030   6.200   0.602
10465SOL    HW132294   6.073   6.155   0.681
10465SOL    HW232295   6.075   6.287   0.584
10466SOL     OW32296   4.842   5.111   5.667
10466SOL    HW132297   4.837   5.045   5.591
10466SOL    HW232298   4.937   5.120   5.697
10467SOL     OW32299   2.777   1.192   7.011
10467SOL    HW132300   2.706   1.244   0.035
10467SOL    HW232301   2.748   1.096   7.002
10468SOL     OW32302   3.868   5.166   2.980
10468SOL    HW132303   3.895   5.228   3.054
10468SOL    HW232304   3.882   5.071   3.009
10469SOL     OW32305   4.235   4.618   5.558
10469SOL    HW132306   4.235   4.527   5.599
10469SOL    HW232307   4.202   4.685   5.624
10470SOL     OW32308   2.312   2.802   3.282
10470SOL    HW132309   2.268   2.854   3.355
10470SOL    HW232310   2.400   2.768   3.314
10471SOL     OW32311   3.467   1.285   1.024
10471SOL    HW132312   3.426   1.367   0.985
10471SOL    HW232313   3.396   1.215   1.037
10472SOL     OW32314   3.252   5.634   0.540
10472SOL    HW132315   3.314   5.639   0.461
10472SOL    HW232316   3.295   5.678   0.619
10473SOL     OW32317   6.581   6.822   0.306
10473SOL    HW132318   6.604   6.870   0.221
10473SOL    HW232319   6.664   6.810   0.361
10474SOL     OW32320   3.362   2.053   4.376
10474SOL    HW132321   3.282   2.102   4.410
10474SOL    HW232322   3.349   2.030   4.280
10475SOL     OW32323   4.684   6.971   1.188
10475SOL    HW132324   4.614   0.017   1.197
10475SOL    HW232325   4.664   6.895   1.250
10476SOL     OW32326   6.836   6.237   0.081
10476SOL    HW132327   6.874   6.273   0.165
10476SOL    HW232328   6.906   6.238   0.009
10477SOL     OW32329   6.921   0.959   4.461
10477SOL    HW132330   6.839   1.004   4.426
10477SOL    HW232331   6.952   0.890   4.395
10478SOL     OW32332   6.434   0.744   0.925
10478SOL    HW132333   6.427   0.645   0.940
10478SOL    HW232334   6.342   0.784   0.926
10479SOL     OW32335   0.176   2.146   2.537
10479SOL    HW132336   0.263   2.187   2.511
10479SOL    HW232337   0.119   2.134   2.455
10480SOL     OW32338   6.704   0.213   1.837
10480SOL    HW132339   6.752   0.134   1.876
10480SOL    HW232340   6.701   0.287   1.903
10481SOL     OW32341   2.785   6.682   4.213
10481SOL    HW132342   2.703   6.624   4.215
10481SOL    HW232343   2.763   6.769   4.167
10482SOL     OW32344   6.251   4.731   4.222
10482SOL    HW132345   6.281   4.765   4.132
10482SOL    HW232346   6.192   4.799   4.265
10483SOL     OW32347   6.595   4.667   0.177
10483SOL    HW132348   6.564   4.575   0.203
10483SOL    HW232349   6.544   4.697   0.096
10484SOL     OW32350   6.358   1.973   2.029
10484SOL    HW132351   6.328   1.949   2.121
10484SOL    HW232352   6.293   2.037   1.988
10485SOL     OW32353   3.067   4.063   0.813
10485SOL    HW132354   2.969   4.066   0.795
10485SOL    HW232355   3.089   4.126   0.888
10486SOL     OW32356   6.990   0.325   0.477
10486SOL    HW132357   0.058   0.346   0.444
10486SOL    HW232358   6.985   0.229   0.503
10487SOL     OW32359   4.864   1.984   1.804
10487SOL    HW132360   4.879   1.891   1.771
10487SOL    HW232361   4.771   2.013   1.780
10488SOL     OW32362   3.117   1.477   5.309
10488SOL    HW132363   3.050   1.525   5.253
10488SOL    HW232364   3.150   1.538   5.381
10489SOL     OW32365   6.973   0.061   4.909
10489SOL    HW132366   0.026   0.119   4.884
10489SOL    HW232367   6.887   0.110   4.893
10490SOL     OW32368   5.535   1.855   0.773
10490SOL    HW132369   5.563   1.944   0.737
10490SOL    HW232370   5.483   1.806   0.702
10491SOL     OW32371   2.846   2.373   5.931
10491SOL    HW132372   2.899   2.456   5.916
10491SOL    HW232373   2.894   2.315   5.998
10492SOL     OW32374   5.518   5.810   1.053
10492SOL    HW132375   5.606   5.852   1.028
10492SOL    HW232376   5.521   5.781   1.148
10493SOL     OW32377   3.664   0.346   1.537
10493SOL    HW132378   3.624   0.390   1.617
10493SOL    HW232379   3.609   0.367   1.456
10494SOL     OW32380   5.998   4.247   5.559
10494SOL    HW132381   6.083   4.207   5.594
10494SOL    HW232382   5.943   4.176   5.517
10495SOL     OW32383   1.398   6.498   1.274
10495SOL    HW132384   1.326   6.561   1.247
10495SOL    HW232385   1.373   6.405   1.248
10496SOL     OW32386   6.503   3.625   6.635
10496SOL    HW132387   6.483   3.670   6.722
10496SOL    HW232388   6.417   3.609   6.585
10497SOL     OW32389   1.726   6.917   2.337
10497SOL    HW132390   1.636   6.925   2.293
10497SOL    HW232391   1.714   6.914   2.436
10498SOL     OW32392   5.215   5.535   0.589
10498SOL    HW132393   5.136   5.513   0.647
10498SOL    HW232394   5.226   5.634   0.584
10499SOL     OW32395   4.303   6.797   2.214
10499SOL    HW132396   4.223   6.850   2.187
10499SOL    HW232397   4.368   6.792   2.138
10500SOL     OW32398   6.343   1.358   5.811
10500SOL    HW132399   6.294   1.436   5.771
10500SOL    HW232400   6.397   1.313   5.740
10501SOL     OW32401   2.368   5.735   2.147
10501SOL    HW132402   2.444   5.772   2.202
10501SOL    HW232403   2.339   5.803   2.080
10502SOL     OW32404   2.608   1.776   1.986
10502SOL    HW132405   2.647   1.829   1.911
10502SOL    HW232406   2.626   1.679   1.971
10503SOL     OW32407   4.877   2.862   0.895
10503SOL    HW132408   4.877   2.798   0.971
10503SOL    HW232409   4.963   2.913   0.894
10504SOL     OW32410   1.425   2.497   5.912
10504SOL    HW132411   1.407   2.532   5.820
10504SOL    HW232412   1.517   2.458   5.915
10505SOL     OW32413   5.260   5.248   0.546
10505SOL    HW132414   5.331   5.193   0.504
10505SOL    HW232415   5.292   5.343   0.555
10506SOL     OW32416   0.327   3.869   0.396
10506SOL    HW132417   0.426   3.870   0.378
10506SOL    HW232418   0.307   3.807   0.472
10507SOL     OW32419   1.739   6.744   0.915
10507SOL    HW132420   1.796   6.824   0.933
10507SOL    HW232421   1.717   6.740   0.818
10508SOL     OW32422   6.576   5.646   4.283
10508SOL    HW132423   6.638   5.711   4.329
10508SOL    HW232424   6.596   5.644   4.186
10509SOL     OW32425   6.690   5.330   5.079
10509SOL    HW132426   6.685   5.368   4.987
10509SOL    HW232427   6.786   5.311   5.101
10510SOL     OW32428   5.026   5.803   6.683
10510SOL    HW132429   4.985   5.712   6.682
10510SOL    HW232430   5.031   5.837   6.777
10511SOL     OW32431   3.150   1.211   2.132
10511SOL    HW132432   3.239   1.202   2.177
10511SOL    HW232433   3.111   1.301   2.152
10512SOL     OW32434   4.410   0.742   6.241
10512SOL    HW132435   4.401   0.787   6.152
10512SOL    HW232436   4.374   0.649   6.235
10513SOL     OW32437   5.832   2.293   4.561
10513SOL    HW132438   5.869   2.280   4.469
10513SOL    HW232439   5.743   2.248   4.567
10514SOL     OW32440   0.609   3.042   1.485
10514SOL    HW132441   0.556   3.126   1.499
10514SOL    HW232442   0.599   2.983   1.564
10515SOL     OW32443   0.569   3.395   3.733
10515SOL    HW132444   0.491   3.456   3.744
10515SOL    HW232445   0.578   3.369   3.636
10516SOL     OW32446   4.188   1.572   0.639
10516SOL    HW132447   4.142   1.639   0.580
10516SOL    HW232448   4.197   1.485   0.590
10517SOL     OW32449   0.849   3.212   1.536
10517SOL    HW132450   0.778   3.152   1.500
10517SOL    HW232451   0.810   3.272   1.606
10518SOL     OW32452   0.323   5.932   0.633
10518SOL    HW132453   0.292   6.027   0.636
10518SOL    HW232454   0.410   5.926   0.585
10519SOL     OW32455   3.435   3.706   0.772
10519SOL    HW132456   3.464   3.615   0.802
10519SOL    HW232457   3.442   3.712   0.673
10520SOL     OW32458   0.456   2.226   6.171
10520SOL    HW132459   0.488   2.270   6.087
10520SOL    HW232460   0.520   2.154   6.197
10521SOL     OW32461   6.274   5.578   1.499
10521SOL    HW132462   6.186   5.611   1.532
10521SOL    HW232463   6.343   5.649   1.513
10522SOL     OW32464   0.633   0.264   5.093
10522SOL    HW132465   0.700   0.315   5.146
10522SOL    HW232466   0.596   0.324   5.021
10523SOL     OW32467   0.783   4.663   2.882
10523SOL    HW132468   0.794   4.741   2.821
10523SOL    HW232469   0.685   4.642   2.891
10524SOL     OW32470   0.559   0.011   3.656
10524SOL    HW132471   0.512   6.961   3.609
10524SOL    HW232472   0.540   0.006   3.754
10525SOL     OW32473   4.582   0.620   5.987
10525SOL    HW132474   4.499   0.566   5.971
10525SOL    HW232475   4.604   0.621   6.084
10526SOL     OW32476   1.567   6.804   3.262
10526SOL    HW132477   1.471   6.793   3.286
10526SOL    HW232478   1.595   6.731   3.199
10527SOL     OW32479   0.866   1.478   5.144
10527SOL    HW132480   0.831   1.395   5.187
10527SOL    HW232481   0.962   1.491   5.170
10528SOL     OW32482   1.420   3.322   6.202
10528SOL    HW132483   1.444   3.347   6.296
10528SOL    HW232484   1.413   3.222   6.195
10529SOL     OW32485   2.777   6.367   3.967
10529SOL    HW132486   2.708   6.346   4.037
10529SOL    HW232487   2.854   6.414   4.010
10530SOL     OW32488   1.567   6.908   6.361
10530SOL    HW132489   1.557   6.899   6.262
10530SOL    HW232490   1.655   6.950   6.381
10531SOL     OW32491   1.623   2.952   4.655
10531SOL    HW132492   1.708   2.904   4.678
10531SOL    HW232493   1.546   2.901   4.693
10532SOL     OW32494   1.245   6.764   6.189
10532SOL    HW132495   1.250   6.811   6.278
10532SOL    HW232496   1.184   6.686   6.197
10533SOL     OW32497   3.023   6.673   3.354
10533SOL    HW132498   3.049   6.739   3.425
10533SOL    HW232499   3.104   6.646   3.302
10534SOL     OW32500   6.599   5.684   1.720
10534SOL    HW132501   6.523   5.685   1.786
10534SOL    HW232502   6.672   5.744   1.752
10535SOL     OW32503   1.287   1.973   1.870
10535SOL    HW132504   1.319   2.064   1.845
10535SOL    HW232505   1.228   1.979   1.950
10536SOL     OW32506   3.891   1.105   3.830
10536SOL    HW132507   3.808   1.051   3.846
10536SOL    HW232508   3.892   1.138   3.735
10537SOL     OW32509   4.383   6.030   3.955
10537SOL    HW132510   4.363   6.126   3.939
10537SOL    HW232511   4.431   5.992   3.875
10538SOL     OW32512   5.767   3.089   0.661
10538SOL    HW132513   5.807   3.153   0.595
10538SOL    HW232514   5.760   2.999   0.619
10539SOL     OW32515   1.001   4.889   6.906
10539SOL    HW132516   1.027   4.924   6.816
10539SOL    HW232517   0.945   4.806   6.895
10540SOL     OW32518   1.428   2.765   6.045
10540SOL    HW132519   1.401   2.670   6.032
10540SOL    HW232520   1.485   2.794   5.968
10541SOL     OW32521   3.036   3.743   1.924
10541SOL    HW132522   3.021   3.646   1.940
10541SOL    HW232523   3.103   3.755   1.850
10542SOL     OW32524   0.318   0.654   5.536
10542SOL    HW132525   0.343   0.566   5.577
10542SOL    HW232526   0.371   0.727   5.579
10543SOL     OW32527   0.096   1.598   4.984
10543SOL    HW132528   0.086   1.694   5.013
10543SOL    HW232529   0.192   1.581   4.960
10544SOL     OW32530   2.537   6.719   2.035
10544SOL    HW132531   2.628   6.689   2.007
10544SOL    HW232532   2.526   6.706   2.133
10545SOL     OW32533   0.179   2.053   1.345
10545SOL    HW132534   0.229   1.973   1.312
10545SOL    HW232535   0.093   2.060   1.295
10546SOL     OW32536   1.377   0.303   0.860
10546SOL    HW132537   1.321   0.265   0.933
10546SOL    HW232538   1.457   0.348   0.899
10547SOL     OW32539   5.010   3.161   2.890
10547SOL    HW132540   4.940   3.109   2.939
10547SOL    HW232541   5.014   3.131   2.795
10548SOL     OW32542   5.931   4.485   4.179
10548SOL    HW132543   5.957   4.519   4.270
10548SOL    HW232544   5.843   4.438   4.185
10549SOL     OW32545   0.727   0.312   1.740
10549SOL    HW132546   0.645   0.298   1.794
10549SOL    HW232547   0.714   0.392   1.680
10550SOL     OW32548   4.532   7.007   3.771
10550SOL    HW132549   4.475   6.963   3.702
10550SOL    HW232550   4.568   6.939   3.834
10551SOL     OW32551   1.712   2.618   0.145
10551SOL    HW132552   1.671   2.538   0.102
10551SOL    HW232553   1.704   2.697   0.084
10552SOL     OW32554   2.345   0.837   5.680
10552SOL    HW132555   2.425   0.821   5.622
10552SOL    HW232556   2.340   0.934   5.704
10553SOL     OW32557   0.496   4.548   1.394
10553SOL    HW132558   0.451   4.504   1.472
10553SOL    HW232559   0.549   4.481   1.343
10554SOL     OW32560   5.845   4.676   0.995
10554SOL    HW132561   5.838   4.748   0.926
10554SOL    HW232562   5.865   4.717   1.084
10555SOL     OW32563   2.178   2.446   0.021
10555SOL    HW132564   2.183   2.485   0.113
10555SOL    HW232565   2.088   2.464   7.006
10556SOL     OW32566   1.896   1.740   5.130
10556SOL    HW132567   1.837   1.762   5.208
10556SOL    HW232568   1.839   1.713   5.052
10557SOL     OW32569   1.840   3.147   3.374
10557SOL    HW132570   1.815   3.159   3.278
10557SOL    HW232571   1.935   3.117   3.380
10558SOL     OW32572   4.248   0.136   4.557
10558SOL    HW132573   4.157   0.174   4.541
10558SOL    HW232574   4.260   0.055   4.499
10559SOL     OW32575   4.973   0.665   1.714
10559SOL    HW132576   4.962   0.711   1.626
10559SOL    HW232577   5.063   0.622   1.718
10560SOL     OW32578   4.490   6.579   2.438
10560SOL    HW132579   4.582   6.583   2.477
10560SOL    HW232580   4.434   6.653   2.478
10561SOL     OW32581   3.742   4.352   1.631
10561SOL    HW132582   3.677   4.337   1.705
10561SOL    HW232583   3.779   4.445   1.637
10562SOL     OW32584   3.929   5.699   6.855
10562SOL    HW132585   4.028   5.710   6.848
10562SOL    HW232586   3.902   5.614   6.810
10563SOL     OW32587   0.159   1.392   3.315
10563SOL    HW132588   0.249   1.425   3.285
10563SOL    HW232589   0.090   1.462   3.298
10564SOL     OW32590   6.037   6.032   2.966
10564SOL    HW132591   6.062   6.129   2.962
10564SOL    HW232592   6.106   5.978   2.918
10565SOL     OW32593   0.794   6.732   5.613
10565SOL    HW132594   0.721   6.669   5.587
10565SOL    HW232595   0.761   6.793   5.686
10566SOL     OW32596   3.416   1.745   6.745
10566SOL    HW132597   3.390   1.794   6.829
10566SOL    HW232598   3.515   1.734   6.743
10567SOL     OW32599   2.601   1.999   4.926
10567SOL    HW132600   2.654   2.043   4.999
10567SOL    HW232601   2.586   2.065   4.852
10568SOL     OW32602   6.831   3.109   1.458
10568SOL    HW132603   6.854   3.165   1.538
10568SOL    HW232604   6.733   3.115   1.440
10569SOL     OW32605   5.969   1.461   2.583
10569SOL    HW132606   5.945   1.547   2.539
10569SOL    HW232607   6.012   1.479   2.672
10570SOL     OW32608   1.043   4.593   2.856
10570SOL    HW132609   1.078   4.680   2.821
10570SOL    HW232610   0.947   4.604   2.884
10571SOL     OW32611   6.914   4.325   5.081
10571SOL    HW132612   6.860   4.403   5.049
10571SOL    HW232613   6.916   4.255   5.010
10572SOL     OW32614   6.669   4.054   3.254
10572SOL    HW132615   6.594   4.067   3.319
10572SOL    HW232616   6.700   3.959   3.257
10573SOL     OW32617   5.764   0.643   5.080
10573SOL    HW132618   5.807   0.678   5.163
10573SOL    HW232619   5.674   0.606   5.102
10574SOL     OW32620   1.224   1.568   4.034
10574SOL    HW132621   1.155   1.503   4.065
10574SOL    HW232622   1.215   1.654   4.084
10575SOL     OW32623   0.171   1.094   3.709
10575SOL    HW132624   0.165   1.142   3.797
10575SOL    HW232625   0.135   1.153   3.636
10576SOL     OW32626   0.039   5.622   5.370
10576SOL    HW132627   0.018   5.608   5.467
10576SOL    HW232628   7.000   5.690   5.332
10577SOL     OW32629   2.045   4.549   0.343
10577SOL    HW132630   2.071   4.552   0.246
10577SOL    HW232631   1.997   4.634   0.367
10578SOL     OW32632   4.626   1.668   2.829
10578SOL    HW132633   4.689   1.649   2.754
10578SOL    HW232634   4.543   1.710   2.793
10579SOL     OW32635   4.459   3.007   1.485
10579SOL    HW132636   4.380   3.046   1.437
10579SOL    HW232637   4.479   3.062   1.567
10580SOL     OW32638   6.537   0.671   6.485
10580SOL    HW132639   6.532   0.752   6.426
10580SOL    HW232640   6.591   0.600   6.441
10581SOL     OW32641   5.764   6.940   2.852
10581SOL    HW132642   5.792   7.015   2.792
10581SOL    HW232643   5.706   6.975   2.925
10582SOL     OW32644   4.772   4.632   5.899
10582SOL    HW132645   4.837   4.560   5.922
10582SOL    HW232646   4.679   4.595   5.903
10583SOL     OW32647   3.641   1.381   3.737
10583SOL    HW132648   3.563   1.408   3.794
10583SOL    HW232649   3.725   1.387   3.791
10584SOL     OW32650   6.479   0.333   0.344
10584SOL    HW132651   6.575   0.344   0.371
10584SOL    HW232652   6.461   0.237   0.324
10585SOL     OW32653   2.708   1.828   5.238
10585SOL    HW132654   2.711   1.923   5.208
10585SOL    HW232655   2.735   1.822   5.334
10586SOL     OW32656   6.389   4.919   4.961
10586SOL    HW132657   6.415   4.966   5.046
10586SOL    HW232658   6.308   4.864   4.978
10587SOL     OW32659   6.389   4.789   0.010
10587SOL    HW132660   6.335   4.709   7.011
10587SOL    HW232661   6.345   4.839   0.085
10588SOL     OW32662   1.463   3.434   4.780
10588SOL    HW132663   1.502   3.425   4.689
10588SOL    HW232664   1.425   3.346   4.809
10589SOL     OW32665   6.488   1.397   4.571
10589SOL    HW132666   6.544   1.427   4.648
10589SOL    HW232667   6.524   1.438   4.487
10590SOL     OW32668   0.479   0.237   0.960
10590SOL    HW132669   0.560   0.204   0.912
10590SOL    HW232670   0.508   0.291   1.039
10591SOL     OW32671   1.972   1.935   0.011
10591SOL    HW132672   1.970   2.031   7.010
10591SOL    HW232673   2.057   1.894   7.002
10592SOL     OW32674   6.174   3.609   2.582
10592SOL    HW132675   6.183   3.538   2.652
10592SOL    HW232676   6.259   3.661   2.576
10593SOL     OW32677   2.044   6.212   0.412
10593SOL    HW132678   1.966   6.274   0.416
10593SOL    HW232679   2.096   6.231   0.329
10594SOL     OW32680   5.073   0.798   3.098
10594SOL    HW132681   5.154   0.798   3.157
10594SOL    HW232682   5.100   0.823   3.005
10595SOL     OW32683   5.112   6.437   0.424
10595SOL    HW132684   5.062   6.485   0.496
10595SOL    HW232685   5.096   6.481   0.336
10596SOL     OW32686   4.760   0.927   0.389
10596SOL    HW132687   4.818   0.851   0.360
10596SOL    HW232688   4.664   0.898   0.386
10597SOL     OW32689   3.140   1.057   5.478
10597SOL    HW132690   3.145   1.154   5.502
10597SOL    HW232691   3.058   1.039   5.425
10598SOL     OW32692   3.609   2.837   0.193
10598SOL    HW132693   3.574   2.918   0.146
10598SOL    HW232694   3.708   2.843   0.201
10599SOL     OW32695   5.260   3.374   6.143
10599SOL    HW132696   5.343   3.343   6.096
10599SOL    HW232697   5.199   3.296   6.158
10600SOL     OW32698   3.352   2.604   0.478
10600SOL    HW132699   3.359   2.668   0.554
10600SOL    HW232700   3.352   2.654   0.392
10601SOL     OW32701   1.658   4.791   5.246
10601SOL    HW132702   1.562   4.777   5.270
10601SOL    HW232703   1.676   4.748   5.158
10602SOL     OW32704   2.234   0.944   1.962
10602SOL    HW132705   2.191   0.854   1.972
10602SOL    HW232706   2.292   0.944   1.880
10603SOL     OW32707   3.777   0.288   3.222
10603SOL    HW132708   3.765   0.189   3.235
10603SOL    HW232709   3.824   0.326   3.301
10604SOL     OW32710   6.068   5.958   5.205
10604SOL    HW132711   6.125   5.930   5.128
10604SOL    HW232712   6.021   6.043   5.184
10605SOL     OW32713   2.188   6.669   6.853
10605SOL    HW132714   2.279   6.640   6.884
10605SOL    HW232715   2.188   6.680   6.754
10606SOL     OW32716   0.407   0.467   1.568
10606SOL    HW132717   0.440   0.492   1.659
10606SOL    HW232718   0.378   0.549   1.519
10607SOL     OW32719   4.373   5.058   5.726
10607SOL    HW132720   4.339   5.068   5.820
10607SOL    HW232721   4.454   5.115   5.713
10608SOL     OW32722   6.039   3.023   5.267
10608SOL    HW132723   6.108   2.974   5.214
10608SOL    HW232724   5.980   3.075   5.206
10609SOL     OW32725   2.623   6.665   6.768
10609SOL    HW132726   2.556   6.666   6.843
10609SOL    HW232727   2.622   6.576   6.723
10610SOL     OW32728   0.888   2.303   4.564
10610SOL    HW132729   0.982   2.298   4.530
10610SOL    HW232730   0.884   2.364   4.643
10611SOL     OW32731   2.123   4.059   6.988
10611SOL    HW132732   2.192   4.001   6.944
10611SOL    HW232733   2.159   4.094   0.050
10612SOL     OW32734   3.434   1.748   4.801
10612SOL    HW132735   3.426   1.775   4.705
10612SOL    HW232736   3.531   1.736   4.824
10613SOL     OW32737   5.239   5.542   5.262
10613SOL    HW132738   5.219   5.625   5.209
10613SOL    HW232739   5.330   5.509   5.239
10614SOL     OW32740   4.960   1.873   4.693
10614SOL    HW132741   5.049   1.833   4.717
10614SOL    HW232742   4.926   1.926   4.770
10615SOL     OW32743   4.382   0.498   5.619
10615SOL    HW132744   4.291   0.531   5.594
10615SOL    HW232745   4.383   0.398   5.621
10616SOL     OW32746   2.132   6.850   0.003
10616SOL    HW132747   2.207   6.869   0.066
10616SOL    HW232748   2.161   6.781   6.961
10617SOL     OW32749   3.076   3.815   1.404
10617SOL    HW132750   3.153   3.862   1.361
10617SOL    HW232751   3.101   3.721   1.425
10618SOL     OW32752   0.988   3.463   5.755
10618SOL    HW132753   1.082   3.473   5.725
10618SOL    HW232754   0.979   3.492   5.850
10619SOL     OW32755   0.223   3.157   2.532
10619SOL    HW132756   0.133   3.201   2.537
10619SOL    HW232757   0.235   3.116   2.442
10620SOL     OW32758   1.044   6.101   5.098
10620SOL    HW132759   1.136   6.126   5.068
10620SOL    HW232760   0.990   6.184   5.113
10621SOL     OW32761   0.616   4.945   1.880
10621SOL    HW132762   0.663   4.860   1.903
10621SOL    HW232763   0.648   4.977   1.791
10622SOL     OW32764   4.962   2.013   2.095
10622SOL    HW132765   5.026   2.090   2.097
10622SOL    HW232766   4.898   2.026   2.019
10623SOL     OW32767   0.415   4.662   5.539
10623SOL    HW132768   0.340   4.635   5.600
10623SOL    HW232769   0.501   4.626   5.575
10624SOL     OW32770   1.439   2.589   4.909
10624SOL    HW132771   1.368   2.640   4.958
10624SOL    HW232772   1.419   2.491   4.914
10625SOL     OW32773   0.694   4.634   0.934
10625SOL    HW132774   0.738   4.656   0.847
10625SOL    HW232775   0.725   4.699   1.004
10626SOL     OW32776   2.626   2.920   0.548
10626SOL    HW132777   2.599   2.872   0.632
10626SOL    HW232778   2.615   2.858   0.470
10627SOL     OW32779   4.775   0.292   0.809
10627SOL    HW132780   4.827   0.206   0.816
10627SOL    HW232781   4.819   0.352   0.742
10628SOL     OW32782   4.675   6.346   0.120
10628SOL    HW132783   4.610   6.321   0.193
10628SOL    HW232784   4.624   6.382   0.042
10629SOL     OW32785   2.454   4.842   4.875
10629SOL    HW132786   2.517   4.920   4.869
10629SOL    HW232787   2.491   4.774   4.938
10630SOL     OW32788   5.820   1.342   3.988
10630SOL    HW132789   5.738   1.375   3.943
10630SOL    HW232790   5.797   1.267   4.050
10631SOL     OW32791   3.092   5.171   5.442
10631SOL    HW132792   3.074   5.172   5.343
10631SOL    HW232793   3.012   5.204   5.491
10632SOL     OW32794   5.347   1.202   3.483
10632SOL    HW132795   5.360   1.269   3.557
10632SOL    HW232796   5.395   1.117   3.506
10633SOL     OW32797   2.237   2.560   0.637
10633SOL    HW132798   2.149   2.553   0.683
10633SOL    HW232799   2.301   2.495   0.677
10634SOL     OW32800   3.331   4.346   0.512
10634SOL    HW132801   3.308   4.338   0.609
10634SOL    HW232802   3.260   4.301   0.457
10635SOL     OW32803   1.626   3.397   0.737
10635SOL    HW132804   1.573   3.319   0.705
10635SOL    HW232805   1.712   3.365   0.778
10636SOL     OW32806   0.719   2.277   1.318
10636SOL    HW132807   0.712   2.178   1.335
10636SOL    HW232808   0.810   2.298   1.281
10637SOL     OW32809   2.238   4.500   5.794
10637SOL    HW132810   2.249   4.515   5.892
10637SOL    HW232811   2.281   4.413   5.769
10638SOL     OW32812   6.372   5.547   2.672
10638SOL    HW132813   6.306   5.490   2.722
10638SOL    HW232814   6.431   5.489   2.616
10639SOL     OW32815   1.290   3.389   3.190
10639SOL    HW132816   1.198   3.396   3.229
10639SOL    HW232817   1.358   3.390   3.263
10640SOL     OW32818   3.676   7.003   5.001
10640SOL    HW132819   3.730   0.047   4.952
10640SOL    HW232820   3.589   0.020   5.030
10641SOL     OW32821   2.366   2.214   2.084
10641SOL    HW132822   2.431   2.208   2.160
10641SOL    HW232823   2.413   2.192   1.998
10642SOL     OW32824   6.156   2.655   1.503
10642SOL    HW132825   6.145   2.736   1.445
10642SOL    HW232826   6.217   2.676   1.578
10643SOL     OW32827   1.916   5.486   5.306
10643SOL    HW132828   1.838   5.428   5.329
10643SOL    HW232829   1.944   5.467   5.212
10644SOL     OW32830   5.832   2.854   2.468
10644SOL    HW132831   5.875   2.937   2.432
10644SOL    HW232832   5.744   2.878   2.509
10645SOL     OW32833   1.934   2.736   4.914
10645SOL    HW132834   1.855   2.680   4.937
10645SOL    HW232835   2.010   2.677   4.887
10646SOL     OW32836   0.903   0.363   6.862
10646SOL    HW132837   0.998   0.364   6.831
10646SOL    HW232838   0.900   0.375   6.961
10647SOL     OW32839   2.700   5.313   4.926
10647SOL    HW132840   2.760   5.264   4.863
10647SOL    HW232841   2.739   5.312   5.018
10648SOL     OW32842   6.010   3.911   5.996
10648SOL    HW132843   5.936   3.853   5.964
10648SOL    HW232844   6.008   3.916   6.096
10649SOL     OW32845   0.155   4.492   2.425
10649SOL    HW132846   0.211   4.572   2.445
10649SOL    HW232847   0.064   4.502   2.467
10650SOL     OW32848   0.855   0.359   4.080
10650SOL    HW132849   0.820   0.267   4.102
10650SOL    HW232850   0.897   0.399   4.161
10651SOL     OW32851   5.638   6.744   0.165
10651SOL    HW132852   5.615   6.670   0.229
10651SOL    HW232853   5.574   6.741   0.088
10652SOL     OW32854   3.585   0.037   5.589
10652SOL    HW132855   3.617   0.129   5.613
10652SOL    HW232856   3.641   0.000   5.515
10653SOL     OW32857   4.109   5.021   2.983
10653SOL    HW132858   4.185   4.970   2.943
10653SOL    HW232859   4.083   4.980   3.070
10654SOL     OW32860   5.481   1.024   0.754
10654SOL    HW132861   5.512   1.119   0.761
10654SOL    HW232862   5.508   0.974   0.837
10655SOL     OW32863   2.292   5.516   0.948
10655SOL    HW132864   2.278   5.606   0.907
10655SOL    HW232865   2.346   5.459   0.886
10656SOL     OW32866   0.006   2.392   2.521
10656SOL    HW132867   6.997   2.299   2.537
10656SOL    HW232868   0.106   2.392   2.526
10657SOL     OW32869   6.358   0.192   5.815
10657SOL    HW132870   6.408   0.111   5.783
10657SOL    HW232871   6.310   0.170   5.900
10658SOL     OW32872   6.431   5.017   4.714
10658SOL    HW132873   6.416   4.980   4.806
10658SOL    HW232874   6.345   5.018   4.664
10659SOL     OW32875   0.473   5.422   1.047
10659SOL    HW132876   0.381   5.419   1.007
10659SOL    HW232877   0.496   5.332   1.083
10660SOL     OW32878   4.968   4.299   6.396
10660SOL    HW132879   4.931   4.303   6.489
10660SOL    HW232880   4.911   4.237   6.341
10661SOL     OW32881   1.236   6.482   1.571
10661SOL    HW132882   1.325   6.443   1.548
10661SOL    HW232883   1.247   6.551   1.643
10662SOL     OW32884   5.501   6.480   3.026
10662SOL    HW132885   5.476   6.512   2.935
10662SOL    HW232886   5.574   6.538   3.063
10663SOL     OW32887   0.548   1.801   1.935
10663SOL    HW132888   0.562   1.898   1.917
10663SOL    HW232889   0.636   1.757   1.953
10664SOL     OW32890   6.963   4.134   4.915
10664SOL    HW132891   6.892   4.107   4.849
10664SOL    HW232892   7.005   4.052   4.954
10665SOL     OW32893   0.859   1.575   0.689
10665SOL    HW132894   0.841   1.598   0.594
10665SOL    HW232895   0.802   1.632   0.749
10666SOL     OW32896   3.551   4.221   1.779
10666SOL    HW132897   3.518   4.212   1.873
10666SOL    HW232898   3.606   4.140   1.755
10667SOL     OW32899   3.980   3.062   5.883
10667SOL    HW132900   3.958   3.128   5.812
10667SOL    HW232901   3.943   2.972   5.858
10668SOL     OW32902   2.445   0.313   5.185
10668SOL    HW132903   2.398   0.390   5.229
10668SOL    HW232904   2.535   0.343   5.153
10669SOL     OW32905   5.649   6.796   0.898
10669SOL    HW132906   5.656   6.778   0.996
10669SOL    HW232907   5.558   6.772   0.866
10670SOL     OW32908   5.235   4.060   4.840
10670SOL    HW132909   5.280   4.036   4.926
10670SOL    HW232910   5.135   4.057   4.852
10671SOL     OW32911   2.883   2.303   3.088
10671SOL    HW132912   2.860   2.294   2.991
10671SOL    HW232913   2.813   2.359   3.134
10672SOL     OW32914   6.485   2.792   0.881
10672SOL    HW132915   6.479   2.889   0.856
10672SOL    HW232916   6.398   2.747   0.859
10673SOL     OW32917   1.375   1.507   6.243
10673SOL    HW132918   1.445   1.568   6.281
10673SOL    HW232919   1.295   1.562   6.216
10674SOL     OW32920   3.408   4.129   2.099
10674SOL    HW132921   3.355   4.055   2.057
10674SOL    HW232922   3.345   4.194   2.143
10675SOL     OW32923   1.603   6.674   6.561
10675SOL    HW132924   1.666   6.629   6.498
10675SOL    HW232925   1.577   6.763   6.523
10676SOL     OW32926   6.493   6.115   6.203
10676SOL    HW132927   6.439   6.067   6.133
10676SOL    HW232928   6.583   6.139   6.165
10677SOL     OW32929   1.276   0.966   2.265
10677SOL    HW132930   1.321   0.935   2.349
10677SOL    HW232931   1.337   0.953   2.187
10678SOL     OW32932   3.525   6.081   4.142
10678SOL    HW132933   3.444   6.043   4.096
10678SOL    HW232934   3.601   6.086   4.077
10679SOL     OW32935   4.305   5.910   6.015
10679SOL    HW132936   4.400   5.920   6.043
10679SOL    HW232937   4.282   5.981   5.948
10680SOL     OW32938   2.876   1.882   2.796
10680SOL    HW132939   2.958   1.915   2.748
10680SOL    HW232940   2.803   1.866   2.729
10681SOL     OW32941   0.837   3.485   0.190
10681SOL    HW132942   0.855   3.574   0.149
10681SOL    HW232943   0.867   3.486   0.286
10682SOL     OW32944   1.931   1.295   4.765
10682SOL    HW132945   1.851   1.321   4.818
10682SOL    HW232946   1.947   1.362   4.692
10683SOL     OW32947   3.531   1.970   3.408
10683SOL    HW132948   3.526   1.923   3.497
10683SOL    HW232949   3.619   2.018   3.402
10684SOL     OW32950   5.185   4.105   0.898
10684SOL    HW132951   5.119   4.169   0.860
10684SOL    HW232952   5.150   4.012   0.888
10685SOL     OW32953   0.577   5.548   2.652
10685SOL    HW132954   0.556   5.570   2.557
10685SOL    HW232955   0.567   5.450   2.668
10686SOL     OW32956   1.331   5.059   6.318
10686SOL    HW132957   1.395   5.116   6.370
10686SOL    HW232958   1.372   5.033   6.231
10687SOL     OW32959   6.990   5.176   1.681
10687SOL    HW132960   6.903   5.216   1.707
10687SOL    HW232961   0.003   5.124   1.758
10688SOL     OW32962   6.107   4.465   3.014
10688SOL    HW132963   6.124   4.398   2.941
10688SOL    HW232964   6.036   4.431   3.075
10689SOL     OW32965   0.504   6.112   3.455
10689SOL    HW132966   0.557   6.035   3.491
10689SOL    HW232967   0.558   6.195   3.463
10690SOL     OW32968   0.548   6.331   3.078
10690SOL    HW132969   0.568   6.377   2.991
10690SOL    HW232970   0.555   6.397   3.153
10691SOL     OW32971   0.427   2.161   2.150
10691SOL    HW132972   0.353   2.094   2.156
10691SOL    HW232973   0.469   2.157   2.059
10692SOL     OW32974   2.786   5.765   3.284
10692SOL    HW132975   2.738   5.835   3.230
10692SOL    HW232976   2.837   5.705   3.224
10693SOL     OW32977   2.829   0.276   0.054
10693SOL    HW132978   2.750   0.290   0.114
10693SOL    HW232979   2.912   0.306   0.101
10694SOL     OW32980   5.129   6.609   1.758
10694SOL    HW132981   5.079   6.634   1.841
10694SOL    HW232982   5.131   6.687   1.695
10695SOL     OW32983   5.054   2.214   3.045
10695SOL    HW132984   4.955   2.226   3.032
10695SOL    HW232985   5.092   2.168   2.965
10696SOL     OW32986   7.002   3.516   3.925
10696SOL    HW132987   6.918   3.477   3.964
10696SOL    HW232988   6.980   3.561   3.838
10697SOL     OW32989   0.487   6.350   4.332
10697SOL    HW132990   0.398   6.395   4.342
10697SOL    HW232991   0.479   6.254   4.359
10698SOL     OW32992   4.098   5.661   4.754
10698SOL    HW132993   4.085   5.750   4.799
10698SOL    HW232994   4.192   5.654   4.721
10699SOL     OW32995   3.856   3.097   1.985
10699SOL    HW132996   3.847   3.125   1.890
10699SOL    HW232997   3.797   3.018   2.003
10700SOL     OW32998   6.988   6.454   1.209
10700SOL    HW132999   6.951   6.363   1.189
10700SOL    HW233000   0.044   6.445   1.268
10701SOL     OW33001   3.123   5.730   0.068
10701SOL    HW133002   3.141   5.815   0.017
10701SOL    HW233003   3.210   5.689   0.094
10702SOL     OW33004   5.792   3.041   1.829
10702SOL    HW133005   5.719   3.099   1.866
10702SOL    HW233006   5.752   2.970   1.771
10703SOL     OW33007   3.539   3.918   5.314
10703SOL    HW133008   3.443   3.946   5.315
10703SOL    HW233009   3.575   3.928   5.221
10704SOL     OW33010   6.581   5.236   1.548
10704SOL    HW133011   6.625   5.213   1.635
10704SOL    HW233012   6.572   5.153   1.493
10705SOL     OW33013   6.212   4.363   1.984
10705SOL    HW133014   6.213   4.445   2.041
10705SOL    HW233015   6.146   4.297   2.021
10706SOL     OW33016   4.808   6.905   2.384
10706SOL    HW133017   4.903   6.916   2.357
10706SOL    HW233018   4.748   6.937   2.310
10707SOL     OW33019   0.318   6.475   3.629
10707SOL    HW133020   0.416   6.455   3.632
10707SOL    HW233021   0.279   6.434   3.546
10708SOL     OW33022   4.344   0.749   2.558
10708SOL    HW133023   4.443   0.735   2.561
10708SOL    HW233024   4.313   0.757   2.463
10709SOL     OW33025   5.912   6.619   5.298
10709SOL    HW133026   5.991   6.664   5.341
10709SOL    HW233027   5.829   6.645   5.347
10710SOL     OW33028   0.143   6.543   4.730
10710SOL    HW133029   0.164   6.445   4.737
10710SOL    HW233030   0.147   6.585   4.820
10711SOL     OW33031   1.847   5.767   3.688
10711SOL    HW133032   1.870   5.756   3.591
10711SOL    HW233033   1.777   5.700   3.714
10712SOL     OW33034   2.441   0.879   1.398
10712SOL    HW133035   2.443   0.783   1.370
10712SOL    HW233036   2.360   0.895   1.454
10713SOL     OW33037   1.035   3.762   1.474
10713SOL    HW133038   0.936   3.756   1.465
10713SOL    HW233039   1.079   3.730   1.390
10714SOL     OW33040   6.247   3.773   5.326
10714SOL    HW133041   6.306   3.779   5.246
10714SOL    HW233042   6.260   3.684   5.370
10715SOL     OW33043   4.783   6.912   2.895
10715SOL    HW133044   4.849   6.938   2.965
10715SOL    HW233045   4.800   6.964   2.811
10716SOL     OW33046   5.786   2.828   4.708
10716SOL    HW133047   5.756   2.786   4.622
10716SOL    HW233048   5.717   2.811   4.778
10717SOL     OW33049   1.141   2.568   0.896
10717SOL    HW133050   1.185   2.488   0.855
10717SOL    HW233051   1.052   2.541   0.934
10718SOL     OW33052   0.737   3.044   6.486
10718SOL    HW133053   0.645   3.010   6.506
10718SOL    HW233054   0.804   2.978   6.519
10719SOL     OW33055   5.269   5.604   0.107
10719SOL    HW133056   5.320   5.638   0.028
10719SOL    HW233057   5.246   5.680   0.167
10720SOL     OW33058   6.430   3.288   5.633
10720SOL    HW133059   6.491   3.335   5.569
10720SOL    HW233060   6.337   3.324   5.624
10721SOL     OW33061   6.325   4.271   5.477
10721SOL    HW133062   6.347   4.173   5.475
10721SOL    HW233063   6.271   4.295   5.397
10722SOL     OW33064   0.313   3.711   0.634
10722SOL    HW133065   0.348   3.640   0.695
10722SOL    HW233066   0.297   3.795   0.686
10723SOL     OW33067   0.388   3.816   6.312
10723SOL    HW133068   0.340   3.741   6.267
10723SOL    HW233069   0.379   3.806   6.411
10724SOL     OW33070   4.702   1.004   0.039
10724SOL    HW133071   4.675   0.929   0.101
10724SOL    HW233072   4.783   1.050   0.076
10725SOL     OW33073   0.146   4.931   4.141
10725SOL    HW133074   0.114   4.958   4.232
10725SOL    HW233075   0.243   4.952   4.133
10726SOL     OW33076   5.485   6.171   5.718
10726SOL    HW133077   5.509   6.183   5.622
10726SOL    HW233078   5.418   6.240   5.745
10727SOL     OW33079   0.527   5.283   4.394
10727SOL    HW133080   0.561   5.354   4.457
10727SOL    HW233081   0.574   5.197   4.413
10728SOL     OW33082   6.045   6.177   1.672
10728SOL    HW133083   6.120   6.229   1.630
10728SOL    HW233084   6.074   6.142   1.761
10729SOL     OW33085   5.878   0.748   2.754
10729SOL    HW133086   5.900   0.779   2.847
10729SOL    HW233087   5.948   0.684   2.723
10730SOL     OW33088   2.416   0.062   0.989
10730SOL    HW133089   2.322   0.084   1.017
10730SOL    HW233090   2.414   0.020   0.898
10731SOL     OW33091   2.626   5.862   0.038
10731SOL    HW133092   2.673   5.866   6.973
10731SOL    HW233093   2.613   5.766   0.064
10732SOL     OW33094   5.006   5.414   2.649
10732SOL    HW133095   4.953   5.475   2.590
10732SOL    HW233096   5.020   5.456   2.738
10733SOL     OW33097   5.185   1.951   6.800
10733SOL    HW133098   5.223   1.874   6.749
10733SOL    HW233099   5.182   2.032   6.740
10734SOL     OW33100   1.494   0.281   0.017
10734SOL    HW133101   1.428   0.237   6.979
10734SOL    HW233102   1.447   0.352   0.070
10735SOL     OW33103   1.485   4.411   3.103
10735SOL    HW133104   1.573   4.401   3.056
10735SOL    HW233105   1.427   4.475   3.052
10736SOL     OW33106   0.697   0.657   3.283
10736SOL    HW133107   0.743   0.734   3.238
10736SOL    HW233108   0.614   0.634   3.233
10737SOL     OW33109   1.355   1.754   0.505
10737SOL    HW133110   1.414   1.717   0.576
10737SOL    HW233111   1.260   1.758   0.538
10738SOL     OW33112   2.342   0.474   2.702
10738SOL    HW133113   2.310   0.441   2.790
10738SOL    HW233114   2.352   0.397   2.639
10739SOL     OW33115   0.153   1.173   1.579
10739SOL    HW133116   0.126   1.241   1.510
10739SOL    HW233117   0.071   1.125   1.612
10740SOL     OW33118   1.768   4.478   5.687
10740SOL    HW133119   1.679   4.507   5.721
10740SOL    HW233120   1.801   4.543   5.618
10741SOL     OW33121   0.309   0.506   3.078
10741SOL    HW133122   0.342   0.509   3.173
10741SOL    HW233123   0.320   0.412   3.043
10742SOL     OW33124   6.073   0.268   1.979
10742SOL    HW133125   6.170   0.261   1.959
10742SOL    HW233126   6.040   0.180   2.014
10743SOL     OW33127   2.423   1.985   4.121
10743SOL    HW133128   2.450   2.056   4.186
10743SOL    HW233129   2.387   2.027   4.038
10744SOL     OW33130   3.133   1.328   2.551
10744SOL    HW133131   3.069   1.304   2.623
10744SOL    HW233132   3.092   1.398   2.492
10745SOL     OW33133   1.063   4.854   0.666
10745SOL    HW133134   1.054   4.927   0.734
10745SOL    HW233135   1.155   4.815   0.672
10746SOL     OW33136   2.046   3.836   1.710
10746SOL    HW133137   2.045   3.746   1.754
10746SOL    HW233138   1.955   3.857   1.674
10747SOL     OW33139   4.427   0.931   3.136
10747SOL    HW133140   4.392   1.023   3.120
10747SOL    HW233141   4.358   0.876   3.183
10748SOL     OW33142   3.713   0.220   0.916
10748SOL    HW133143   3.717   0.219   1.016
10748SOL    HW233144   3.737   0.311   0.883
10749SOL     OW33145   0.053   4.682   3.733
10749SOL    HW133146   0.026   4.587   3.721
10749SOL    HW233147   0.082   4.697   3.828
10750SOL     OW33148   4.016   5.960   4.304
10750SOL    HW133149   3.990   5.870   4.270
10750SOL    HW233150   4.023   5.957   4.404
10751SOL     OW33151   0.988   3.738   5.479
10751SOL    HW133152   0.987   3.838   5.482
10751SOL    HW233153   1.071   3.705   5.525
10752SOL     OW33154   6.485   3.579   6.295
10752SOL    HW133155   6.550   3.648   6.263
10752SOL    HW233156   6.534   3.504   6.338
10753SOL     OW33157   5.173   0.755   3.937
10753SOL    HW133158   5.150   0.852   3.931
10753SOL    HW233159   5.272   0.744   3.924
10754SOL     OW33160   1.695   2.187   3.920
10754SOL    HW133161   1.695   2.087   3.922
10754SOL    HW233162   1.621   2.221   3.978
10755SOL     OW33163   0.735   2.150   0.558
10755SOL    HW133164   0.739   2.081   0.486
10755SOL    HW233165   0.824   2.157   0.603
10756SOL     OW33166   6.584   4.233   0.051
10756SOL    HW133167   6.548   4.303   7.013
10756SOL    HW233168   6.525   4.226   0.131
10757SOL     OW33169   1.119   3.457   0.416
10757SOL    HW133170   1.103   3.551   0.388
10757SOL    HW233171   1.035   3.417   0.452
10758SOL     OW33172   1.232   6.771   5.334
10758SOL    HW133173   1.198   6.789   5.242
10758SOL    HW233174   1.201   6.843   5.396
10759SOL     OW33175   1.785   3.135   0.031
10759SOL    HW133176   1.699   3.184   0.045
10759SOL    HW233177   1.854   3.199   7.022
10760SOL     OW33178   6.985   0.589   0.494
10760SOL    HW133179   6.965   0.491   0.488
10760SOL    HW233180   0.057   0.605   0.474
10761SOL     OW33181   0.778   2.150   6.251
10761SOL    HW133182   0.785   2.199   6.163
10761SOL    HW233183   0.712   2.075   6.242
10762SOL     OW33184   3.743   1.985   4.892
10762SOL    HW133185   3.840   1.977   4.872
10762SOL    HW233186   3.698   1.897   4.875
10763SOL     OW33187   4.569   6.425   1.260
10763SOL    HW133188   4.568   6.396   1.356
10763SOL    HW233189   4.659   6.408   1.221
10764SOL     OW33190   5.782   1.516   5.622
10764SOL    HW133191   5.707   1.562   5.575
10764SOL    HW233192   5.845   1.584   5.659
10765SOL     OW33193   5.489   3.085   1.336
10765SOL    HW133194   5.429   3.125   1.267
10765SOL    HW233195   5.443   3.007   1.380
10766SOL     OW33196   3.048   3.040   0.812
10766SOL    HW133197   3.070   3.108   0.882
10766SOL    HW233198   2.964   3.066   0.765
10767SOL     OW33199   1.205   0.587   6.720
10767SOL    HW133200   1.188   0.642   6.802
10767SOL    HW233201   1.201   0.644   6.639
10768SOL     OW33202   4.579   5.638   1.280
10768SOL    HW133203   4.524   5.607   1.202
10768SOL    HW233204   4.662   5.683   1.247
10769SOL     OW33205   1.812   4.984   4.914
10769SOL    HW133206   1.816   4.907   4.850
10769SOL    HW233207   1.813   4.948   5.008
10770SOL     OW33208   5.201   6.939   4.952
10770SOL    HW133209   5.220   0.013   4.949
10770SOL    HW233210   5.123   6.919   4.893
10771SOL     OW33211   4.379   0.931   4.578
10771SOL    HW133212   4.442   0.912   4.503
10771SOL    HW233213   4.416   1.003   4.637
10772SOL     OW33214   6.193   6.449   4.292
10772SOL    HW133215   6.280   6.447   4.341
10772SOL    HW233216   6.141   6.366   4.312
10773SOL     OW33217   6.412   5.240   6.027
10773SOL    HW133218   6.359   5.325   6.023
10773SOL    HW233219   6.380   5.184   6.104
10774SOL     OW33220   1.624   1.582   6.321
10774SOL    HW133221   1.643   1.584   6.223
10774SOL    HW233222   1.659   1.666   6.364
10775SOL     OW33223   0.826   3.465   0.461
10775SOL    HW133224   0.783   3.387   0.505
10775SOL    HW233225   0.819   3.545   0.520
10776SOL     OW33226   1.623   6.324   6.987
10776SOL    HW133227   1.637   6.375   6.902
10776SOL    HW233228   1.531   6.285   6.988
10777SOL     OW33229   4.202   6.597   4.095
10777SOL    HW133230   4.109   6.628   4.113
10777SOL    HW233231   4.259   6.615   4.175
10778SOL     OW33232   5.467   6.353   5.191
10778SOL    HW133233   5.465   6.437   5.246
10778SOL    HW233234   5.375   6.313   5.188
10779SOL     OW33235   6.314   4.920   3.003
10779SOL    HW133236   6.412   4.928   2.985
10779SOL    HW233237   6.291   4.971   3.086
10780SOL     OW33238   1.280   0.022   3.635
10780SOL    HW133239   1.337   0.100   3.659
10780SOL    HW233240   1.308   6.966   3.688
10781SOL     OW33241   3.887   1.720   2.982
10781SOL    HW133242   3.800   1.766   3.001
10781SOL    HW233243   3.962   1.770   3.025
10782SOL     OW33244   6.485   1.562   3.521
10782SOL    HW133245   6.404   1.526   3.567
10782SOL    HW233246   6.456   1.620   3.444
10783SOL     OW33247   1.648   3.504   3.202
10783SOL    HW133248   1.585   3.443   3.250
10783SOL    HW233249   1.740   3.492   3.239
10784SOL     OW33250   2.748   0.116   3.080
10784SOL    HW133251   2.706   0.037   3.036
10784SOL    HW233252   2.823   0.149   3.024
10785SOL     OW33253   0.816   4.719   0.656
10785SOL    HW133254   0.744   4.764   0.604
10785SOL    HW233255   0.902   4.769   0.646
10786SOL     OW33256   4.646   4.297   2.546
10786SOL    HW133257   4.733   4.254   2.523
10786SOL    HW233258   4.606   4.337   2.464
10787SOL     OW33259   3.138   2.217   4.429
10787SOL    HW133260   3.096   2.259   4.348
10787SOL    HW233261   3.077   2.227   4.507
10788SOL     OW33262   2.454   4.881   0.079
10788SOL    HW133263   2.356   4.876   0.094
10788SOL    HW233264   2.485   4.976   0.084
10789SOL     OW33265   5.831   2.879   0.480
10789SOL    HW133266   5.837   2.819   0.401
10789SOL    HW233267   5.891   2.959   0.467
10790SOL     OW33268   1.241   0.317   3.368
10790SOL    HW133269   1.142   0.326   3.358
10790SOL    HW233270   1.265   0.311   3.465
10791SOL     OW33271   6.988   0.381   1.078
10791SOL    HW133272   0.058   0.357   1.057
10791SOL    HW233273   6.932   0.370   0.995
10792SOL     OW33274   3.804   3.248   1.714
10792SOL    HW133275   3.834   3.246   1.618
10792SOL    HW233276   3.800   3.343   1.746
10793SOL     OW33277   5.427   2.696   4.465
10793SOL    HW133278   5.420   2.601   4.496
10793SOL    HW233279   5.521   2.728   4.475
10794SOL     OW33280   3.059   3.842   3.384
10794SOL    HW133281   2.993   3.882   3.320
10794SOL    HW233282   3.039   3.745   3.397
10795SOL     OW33283   6.681   3.245   4.181
10795SOL    HW133284   6.699   3.212   4.274
10795SOL    HW233285   6.703   3.173   4.116
10796SOL     OW33286   4.933   6.475   0.166
10796SOL    HW133287   4.923   6.512   0.074
10796SOL    HW233288   4.870   6.398   0.178
10797SOL     OW33289   4.095   2.397   1.187
10797SOL    HW133290   4.052   2.483   1.212
10797SOL    HW233291   4.024   2.329   1.166
10798SOL     OW33292   2.134   6.393   1.035
10798SOL    HW133293   2.156   6.369   0.940
10798SOL    HW233294   2.125   6.492   1.044
10799SOL     OW33295   3.700   0.864   2.454
10799SOL    HW133296   3.763   0.919   2.400
10799SOL    HW233297   3.631   0.924   2.496
10800SOL     OW33298   0.694   0.108   7.000
10800SOL    HW133299   0.676   0.202   0.005
10800SOL    HW233300   0.615   0.051   7.022
10801SOL     OW33301   0.940   6.819   5.393
10801SOL    HW133302   0.918   6.914   5.415
10801SOL    HW233303   0.915   6.760   5.470
10802SOL     OW33304   1.733   2.934   3.551
10802SOL    HW133305   1.647   2.947   3.601
10802SOL    HW233306   1.750   3.013   3.493
10803SOL     OW33307   4.264   4.347   5.701
10803SOL    HW133308   4.317   4.263   5.701
10803SOL    HW233309   4.254   4.380   5.795
10804SOL     OW33310   6.386   4.008   1.689
10804SOL    HW133311   6.352   3.999   1.595
10804SOL    HW233312   6.390   4.105   1.714
10805SOL     OW33313   3.604   6.950   6.789
10805SOL    HW133314   3.673   6.898   6.738
10805SOL    HW233315   3.640   0.017   6.810
10806SOL     OW33316   5.106   4.413   6.177
10806SOL    HW133317   5.067   4.372   6.260
10806SOL    HW233318   5.204   4.426   6.190
10807SOL     OW33319   1.343   6.382   3.295
10807SOL    HW133320   1.266   6.434   3.333
10807SOL    HW233321   1.325   6.284   3.303
10808SOL     OW33322   6.547   4.093   6.631
10808SOL    HW133323   6.579   4.074   6.538
10808SOL    HW233324   6.506   4.184   6.634
10809SOL     OW33325   2.695   5.815   3.630
10809SOL    HW133326   2.736   5.878   3.564
10809SOL    HW233327   2.604   5.847   3.656
10810SOL     OW33328   2.006   0.305   4.819
10810SOL    HW133329   1.973   0.393   4.784
10810SOL    HW233330   2.054   0.320   4.905
10811SOL     OW33331   4.405   4.789   5.732
10811SOL    HW133332   4.387   4.881   5.767
10811SOL    HW233333   4.402   4.791   5.632
10812SOL     OW33334   1.148   3.616   1.668
10812SOL    HW133335   1.072   3.625   1.732
10812SOL    HW233336   1.141   3.685   1.596
10813SOL     OW33337   2.111   5.782   6.940
10813SOL    HW133338   2.108   5.684   6.960
10813SOL    HW233339   2.018   5.814   6.919
10814SOL     OW33340   1.743   6.277   6.501
10814SOL    HW133341   1.832   6.296   6.542
10814SOL    HW233342   1.719   6.181   6.515
10815SOL     OW33343   4.852   4.437   2.757
10815SOL    HW133344   4.883   4.528   2.729
10815SOL    HW233345   4.793   4.399   2.685
10816SOL     OW33346   1.744   2.013   1.784
10816SOL    HW133347   1.802   2.055   1.714
10816SOL    HW233348   1.728   1.917   1.761
10817SOL     OW33349   5.412   6.796   2.312
10817SOL    HW133350   5.481   6.750   2.369
10817SOL    HW233351   5.414   6.894   2.331
10818SOL     OW33352   4.539   4.573   5.398
10818SOL    HW133353   4.631   4.612   5.398
10818SOL    HW233354   4.518   4.538   5.489
10819SOL     OW33355   6.798   4.206   0.206
10819SOL    HW133356   6.886   4.244   0.178
10819SOL    HW233357   6.727   4.231   0.139
10820SOL     OW33358   5.908   5.756   3.816
10820SOL    HW133359   5.844   5.680   3.822
10820SOL    HW233360   5.857   5.842   3.812
10821SOL     OW33361   5.815   6.128   2.059
10821SOL    HW133362   5.858   6.165   2.141
10821SOL    HW233363   5.715   6.133   2.068
10822SOL     OW33364   1.361   3.027   3.172
10822SOL    HW133365   1.267   3.027   3.137
10822SOL    HW233366   1.359   3.026   3.272
10823SOL     OW33367   1.824   5.317   2.268
10823SOL    HW133368   1.829   5.390   2.336
10823SOL    HW233369   1.908   5.317   2.213
10824SOL     OW33370   5.558   0.750   4.080
10824SOL    HW133371   5.533   0.741   4.177
10824SOL    HW233372   5.574   0.659   4.041
10825SOL     OW33373   3.399   0.223   6.647
10825SOL    HW133374   3.420   0.213   6.744
10825SOL    HW233375   3.444   0.151   6.595
10826SOL     OW33376   0.312   3.233   3.156
10826SOL    HW133377   0.349   3.148   3.193
10826SOL    HW233378   0.385   3.301   3.148
10827SOL     OW33379   6.064   4.050   4.302
10827SOL    HW133380   6.062   3.965   4.355
10827SOL    HW233381   5.992   4.047   4.233
10828SOL     OW33382   1.173   4.966   1.981
10828SOL    HW133383   1.207   4.971   2.075
10828SOL    HW233384   1.083   5.008   1.976
10829SOL     OW33385   3.359   2.426   0.861
10829SOL    HW133386   3.287   2.479   0.816
10829SOL    HW233387   3.345   2.427   0.960
10830SOL     OW33388   5.036   1.211   3.649
10830SOL    HW133389   5.110   1.278   3.641
10830SOL    HW233390   4.951   1.251   3.617
10831SOL     OW33391   4.270   5.832   1.782
10831SOL    HW133392   4.279   5.864   1.876
10831SOL    HW233393   4.257   5.733   1.781
10832SOL     OW33394   0.424   2.403   0.618
10832SOL    HW133395   0.325   2.388   0.624
10832SOL    HW233396   0.441   2.492   0.575
10833SOL     OW33397   1.807   1.850   2.514
10833SOL    HW133398   1.730   1.913   2.505
10833SOL    HW233399   1.785   1.763   2.469
10834SOL     OW33400   1.730   2.165   6.100
10834SOL    HW133401   1.705   2.248   6.151
10834SOL    HW233402   1.648   2.108   6.088
10835SOL     OW33403   6.265   2.198   0.410
10835SOL    HW133404   6.264   2.098   0.417
10835SOL    HW233405   6.302   2.237   0.495
10836SOL     OW33406   6.848   1.521   4.964
10836SOL    HW133407   6.945   1.544   4.975
10836SOL    HW233408   6.807   1.579   4.894
10837SOL     OW33409   6.766   4.922   0.542
10837SOL    HW133410   6.702   4.872   0.483
10837SOL    HW233411   6.745   5.019   0.539
10838SOL     OW33412   5.507   6.763   4.804
10838SOL    HW133413   5.603   6.739   4.789
10838SOL    HW233414   5.497   6.863   4.804
10839SOL     OW33415   3.349   2.974   0.864
10839SOL    HW133416   3.369   3.028   0.946
10839SOL    HW233417   3.251   2.977   0.845
10840SOL     OW33418   3.838   5.746   1.405
10840SOL    HW133419   3.765   5.804   1.369
10840SOL    HW233420   3.798   5.664   1.445
10841SOL     OW33421   3.712   6.299   0.323
10841SOL    HW133422   3.662   6.311   0.238
10841SOL    HW233423   3.734   6.202   0.336
10842SOL     OW33424   5.006   3.235   1.221
10842SOL    HW133425   4.951   3.152   1.232
10842SOL    HW233426   4.994   3.271   1.129
10843SOL     OW33427   0.496   2.035   1.621
10843SOL    HW133428   0.471   1.942   1.650
10843SOL    HW233429   0.424   2.099   1.649
10844SOL     OW33430   0.370   0.012   4.498
10844SOL    HW133431   0.324   6.967   4.555
10844SOL    HW233432   0.314   0.030   4.417
10845SOL     OW33433   3.639   0.663   6.140
10845SOL    HW133434   3.559   0.720   6.159
10845SOL    HW233435   3.713   0.687   6.203
10846SOL     OW33436   4.383   3.179   0.766
10846SOL    HW133437   4.295   3.198   0.810
10846SOL    HW233438   4.456   3.190   0.833
10847SOL     OW33439   3.790   3.426   6.656
10847SOL    HW133440   3.692   3.434   6.672
10847SOL    HW233441   3.807   3.407   6.559
10848SOL     OW33442   2.774   2.197   0.108
10848SOL    HW133443   2.853   2.236   0.155
10848SOL    HW233444   2.745   2.114   0.154
10849SOL     OW33445   2.529   4.700   3.011
10849SOL    HW133446   2.500   4.787   3.051
10849SOL    HW233447   2.603   4.717   2.945
10850SOL     OW33448   3.353   5.683   0.264
10850SOL    HW133449   3.396   5.748   0.202
10850SOL    HW233450   3.410   5.601   0.271
10851SOL     OW33451   2.854   3.211   6.889
10851SOL    HW133452   2.796   3.249   6.961
10851SOL    HW233453   2.950   3.221   6.915
10852SOL     OW33454   0.767   6.597   6.566
10852SOL    HW133455   0.792   6.615   6.470
10852SOL    HW233456   0.717   6.675   6.602
10853SOL     OW33457   3.738   2.138   5.700
10853SOL    HW133458   3.740   2.235   5.673
10853SOL    HW233459   3.667   2.091   5.648
10854SOL     OW33460   5.153   6.936   5.607
10854SOL    HW133461   5.085   6.865   5.623
10854SOL    HW233462   5.187   6.930   5.513
10855SOL     OW33463   2.749   6.596   1.904
10855SOL    HW133464   2.754   6.644   1.816
10855SOL    HW233465   2.829   6.620   1.959
10856SOL     OW33466   6.166   1.784   2.368
10856SOL    HW133467   6.173   1.742   2.277
10856SOL    HW233468   6.069   1.802   2.388
10857SOL     OW33469   6.013   3.099   3.077
10857SOL    HW133470   6.100   3.075   3.119
10857SOL    HW233471   6.019   3.089   2.978
10858SOL     OW33472   0.692   2.454   6.491
10858SOL    HW133473   0.717   2.481   6.398
10858SOL    HW233474   0.646   2.530   6.537
10859SOL     OW33475   2.151   3.452   4.058
10859SOL    HW133476   2.151   3.368   4.005
10859SOL    HW233477   2.201   3.523   4.008
10860SOL     OW33478   6.481   0.683   5.780
10860SOL    HW133479   6.559   0.700   5.720
10860SOL    HW233480   6.512   0.672   5.874
10861SOL     OW33481   3.733   2.915   3.115
10861SOL    HW133482   3.647   2.867   3.130
10861SOL    HW233483   3.765   2.954   3.202
10862SOL     OW33484   2.685   2.145   6.685
10862SOL    HW133485   2.665   2.231   6.638
10862SOL    HW233486   2.779   2.117   6.664
10863SOL     OW33487   3.948   0.686   2.788
10863SOL    HW133488   3.971   0.681   2.691
10863SOL    HW233489   3.868   0.630   2.807
10864SOL     OW33490   3.350   5.114   0.831
10864SOL    HW133491   3.341   5.123   0.931
10864SOL    HW233492   3.422   5.175   0.799
10865SOL     OW33493   6.086   1.746   3.374
10865SOL    HW133494   6.068   1.843   3.358
10865SOL    HW233495   6.185   1.731   3.378
10866SOL     OW33496   4.534   5.276   0.698
10866SOL    HW133497   4.528   5.257   0.796
10866SOL    HW233498   4.627   5.255   0.667
10867SOL     OW33499   3.474   3.993   0.394
10867SOL    HW133500   3.513   4.050   0.467
10867SOL    HW233501   3.375   3.988   0.405
10868SOL     OW33502   2.228   2.214   3.662
10868SOL    HW133503   2.178   2.147   3.607
10868SOL    HW233504   2.178   2.230   3.748
10869NA      NA33505   0.329   2.308   6.343
10870NA      NA33506   4.454   4.649   5.186
10871NA      NA33507   2.279   4.375   2.145
10872NA      NA33508   4.963   4.146   3.393
10873NA      NA33509   4.163   2.272   5.168
10874NA      NA33510   3.252   4.505   1.538
10875NA      NA33511   0.449   4.718   0.018
10876NA      NA33512   3.549   3.633   2.786
10877NA      NA33513   5.335   5.203   0.832
10878NA      NA33514   3.326   0.052   5.492
10879NA      NA33515   5.976   5.938   0.955
10880NA      NA33516   1.986   0.758   5.130
10881NA      NA33517   4.081   4.946   1.833
10882NA      NA33518   3.773   2.984   1.348
   7.02424   7.02424   7.02424
