Generated by trjconv : CNT in water t= 138.00000
33518
    1C        C    1   2.838   2.763   4.746
    1C        C    2   2.894   2.714   4.866
    1C        C    3   2.841   2.769   4.984
    1C        C    4   2.847   2.774   4.258
    1C        C    5   2.901   2.727   4.380
    1C        C    6   2.844   2.771   4.502
    1C        C    7   3.008   2.638   4.622
    1C        C    8   2.889   2.715   4.624
    1C        C    9   3.072   2.599   4.741
    1C        C   10   3.005   2.626   4.863
    1C        C   11   3.178   2.490   4.975
    1C        C   12   3.056   2.558   4.974
    1C        C   13   2.852   2.775   3.769
    1C        C   14   2.900   2.724   3.891
    1C        C   15   2.849   2.771   4.014
    1C        C   16   3.014   2.641   4.136
    1C        C   17   2.897   2.721   4.137
    1C        C   18   3.078   2.606   4.257
    1C        C   19   3.015   2.644   4.379
    1C        C   20   3.203   2.549   4.502
    1C        C   21   3.073   2.604   4.501
    1C        C   22   3.272   2.523   4.623
    1C        C   23   3.203   2.544   4.744
    1C        C   24   3.409   2.479   4.862
    1C        C   25   3.267   2.500   4.863
    1C        C   26   3.484   2.474   4.980
    1C        C   27   2.848   2.769   3.277
    1C        C   28   2.903   2.729   3.401
    1C        C   29   2.853   2.776   3.524
    1C        C   30   3.016   2.641   3.647
    1C        C   31   2.906   2.729   3.647
    1C        C   32   3.074   2.602   3.770
    1C        C   33   3.014   2.640   3.892
    1C        C   34   3.206   2.551   4.013
    1C        C   35   3.074   2.603   4.014
    1C        C   36   3.275   2.534   4.134
    1C        C   37   3.209   2.555   4.258
    1C        C   38   3.412   2.504   4.377
    1C        C   39   3.274   2.532   4.381
    1C        C   40   3.483   2.490   4.499
    1C        C   41   3.411   2.495   4.620
    1C        C   42   3.625   2.476   4.741
    1C        C   43   3.482   2.476   4.740
    1C        C   44   3.698   2.480   4.862
    1C        C   45   3.624   2.474   4.980
    1C        C   46   2.834   2.751   2.789
    1C        C   47   2.895   2.713   2.910
    1C        C   48   2.844   2.761   3.033
    1C        C   49   3.016   2.640   3.158
    1C        C   50   2.897   2.716   3.156
    1C        C   51   3.080   2.613   3.281
    1C        C   52   3.018   2.646   3.403
    1C        C   53   3.206   2.546   3.526
    1C        C   54   3.078   2.606   3.525
    1C        C   55   3.275   2.524   3.647
    1C        C   56   3.203   2.544   3.767
    1C        C   57   3.410   2.500   3.890
    1C        C   58   3.271   2.527   3.890
    1C        C   59   3.482   2.496   4.011
    1C        C   60   3.412   2.498   4.134
    1C        C   61   3.625   2.492   4.256
    1C        C   62   3.484   2.491   4.256
    1C        C   63   3.696   2.504   4.378
    1C        C   64   3.624   2.500   4.499
    1C        C   65   3.830   2.539   4.616
    1C        C   66   3.695   2.496   4.621
    1C        C   67   3.898   2.561   4.738
    1C        C   68   3.833   2.520   4.857
    1C        C   69   4.045   2.580   4.972
    1C        C   70   3.918   2.520   4.968
    1C        C   71   2.819   2.731   2.306
    1C        C   72   2.880   2.689   2.426
    1C        C   73   2.832   2.747   2.546
    1C        C   74   3.007   2.627   2.671
    1C        C   75   2.887   2.702   2.668
    1C        C   76   3.075   2.598   2.792
    1C        C   77   3.011   2.633   2.913
    1C        C   78   3.202   2.541   3.035
    1C        C   79   3.075   2.602   3.035
    1C        C   80   3.271   2.524   3.157
    1C        C   81   3.207   2.551   3.280
    1C        C   82   3.410   2.497   3.399
    1C        C   83   3.271   2.523   3.403
    1C        C   84   3.482   2.494   3.521
    1C        C   85   3.414   2.500   3.645
    1C        C   86   3.622   2.503   3.766
    1C        C   87   3.481   2.492   3.769
    1C        C   88   3.690   2.511   3.890
    1C        C   89   3.623   2.501   4.014
    1C        C   90   3.832   2.544   4.131
    1C        C   91   3.696   2.507   4.135
    1C        C   92   3.898   2.568   4.253
    1C        C   93   3.831   2.544   4.375
    1C        C   94   4.025   2.631   4.495
    1C        C   95   3.900   2.564   4.496
    1C        C   96   4.084   2.671   4.617
    1C        C   97   4.022   2.630   4.737
    1C        C   98   4.183   2.765   4.858
    1C        C   99   4.090   2.656   4.860
    1C        C  100   4.202   2.842   4.973
    1C        C  101   2.816   2.725   2.066
    1C        C  102   2.983   2.587   2.191
    1C        C  103   2.870   2.675   2.185
    1C        C  104   3.058   2.566   2.310
    1C        C  105   2.999   2.613   2.429
    1C        C  106   3.194   2.524   2.545
    1C        C  107   3.067   2.585   2.550
    1C        C  108   3.267   2.514   2.666
    1C        C  109   3.204   2.542   2.790
    1C        C  110   3.408   2.491   2.913
    1C        C  111   3.270   2.519   2.913
    1C        C  112   3.480   2.484   3.034
    1C        C  113   3.409   2.496   3.156
    1C        C  114   3.623   2.495   3.276
    1C        C  115   3.482   2.491   3.277
    1C        C  116   3.693   2.501   3.399
    1C        C  117   3.623   2.497   3.521
    1C        C  118   3.831   2.536   3.642
    1C        C  119   3.692   2.508   3.644
    1C        C  120   3.895   2.562   3.765
    1C        C  121   3.828   2.540   3.888
    1C        C  122   4.024   2.631   4.008
    1C        C  123   3.898   2.567   4.008
    1C        C  124   4.085   2.668   4.129
    1C        C  125   4.025   2.631   4.252
    1C        C  126   4.193   2.761   4.371
    1C        C  127   4.083   2.673   4.373
    1C        C  128   4.234   2.820   4.493
    1C        C  129   4.190   2.765   4.616
    1C        C  130   4.323   2.931   4.736
    1C        C  131   4.238   2.817   4.738
    1C        C  132   4.349   3.001   4.855
    1C        C  133   4.277   2.959   4.968
    1C        C  134   3.168   2.466   2.074
    1C        C  135   3.034   2.505   2.085
    1C        C  136   3.255   2.480   2.183
    1C        C  137   3.191   2.515   2.304
    1C        C  138   3.402   2.478   2.422
    1C        C  139   3.262   2.497   2.425
    1C        C  140   3.473   2.482   2.544
    1C        C  141   3.406   2.489   2.668
    1C        C  142   3.617   2.494   2.785
    1C        C  143   3.477   2.481   2.790
    1C        C  144   3.687   2.504   2.907
    1C        C  145   3.621   2.486   3.031
    1C        C  146   3.827   2.533   3.153
    1C        C  147   3.692   2.493   3.153
    1C        C  148   3.897   2.557   3.274
    1C        C  149   3.830   2.537   3.397
    1C        C  150   4.024   2.620   3.517
    1C        C  151   3.897   2.557   3.519
    1C        C  152   4.080   2.664   3.640
    1C        C  153   4.018   2.632   3.763
    1C        C  154   4.190   2.758   3.884
    1C        C  155   4.077   2.673   3.884
    1C        C  156   4.241   2.809   4.005
    1C        C  157   4.191   2.762   4.128
    1C        C  158   4.333   2.921   4.250
    1C        C  159   4.244   2.811   4.249
    1C        C  160   4.374   2.980   4.371
    1C        C  161   4.323   2.929   4.493
    1C        C  162   4.439   3.109   4.611
    1C        C  163   4.367   2.987   4.614
    1C        C  164   4.464   3.177   4.732
    1C        C  165   4.429   3.118   4.855
    1C        C  166   4.508   3.317   4.971
    1C        C  167   4.470   3.183   4.972
    1C        C  168   3.470   2.446   2.064
    1C        C  169   3.394   2.459   2.181
    1C        C  170   3.613   2.459   2.301
    1C        C  171   3.470   2.457   2.300
    1C        C  172   3.686   2.486   2.419
    1C        C  173   3.614   2.489   2.541
    1C        C  174   3.822   2.540   2.662
    1C        C  175   3.685   2.503   2.662
    1C        C  176   3.889   2.558   2.785
    1C        C  177   3.825   2.536   2.909
    1C        C  178   4.020   2.620   3.026
    1C        C  179   3.893   2.558   3.030
    1C        C  180   4.082   2.653   3.148
    1C        C  181   4.026   2.615   3.272
    1C        C  182   4.196   2.741   3.394
    1C        C  183   4.085   2.653   3.395
    1C        C  184   4.237   2.802   3.515
    1C        C  185   4.186   2.757   3.639
    1C        C  186   4.330   2.914   3.759
    1C        C  187   4.237   2.808   3.760
    1C        C  188   4.373   2.973   3.880
    1C        C  189   4.333   2.917   4.004
    1C        C  190   4.441   3.099   4.125
    1C        C  191   4.375   2.974   4.126
    1C        C  192   4.464   3.169   4.245
    1C        C  193   4.439   3.106   4.369
    1C        C  194   4.503   3.311   4.488
    1C        C  195   4.465   3.175   4.489
    1C        C  196   4.519   3.382   4.609
    1C        C  197   4.503   3.314   4.732
    1C        C  198   4.546   3.530   4.847
    1C        C  199   4.524   3.388   4.851
    1C        C  200   4.575   3.616   4.957
    1C        C  201   3.608   2.420   2.066
    1C        C  202   3.820   2.508   2.177
    1C        C  203   3.687   2.456   2.180
    1C        C  204   3.893   2.535   2.296
    1C        C  205   3.824   2.515   2.418
    1C        C  206   4.017   2.610   2.538
    1C        C  207   3.889   2.550   2.538
    1C        C  208   4.076   2.652   2.659
    1C        C  209   4.018   2.618   2.783
    1C        C  210   4.193   2.742   2.902
    1C        C  211   4.080   2.657   2.904
    1C        C  212   4.242   2.792   3.025
    1C        C  213   4.193   2.742   3.148
    1C        C  214   4.328   2.903   3.270
    1C        C  215   4.244   2.788   3.270
    1C        C  216   4.368   2.963   3.391
    1C        C  217   4.330   2.908   3.515
    1C        C  218   4.435   3.094   3.634
    1C        C  219   4.375   2.966   3.635
    1C        C  220   4.458   3.164   3.755
    1C        C  221   4.436   3.099   3.879
    1C        C  222   4.501   3.299   4.000
    1C        C  223   4.467   3.162   4.001
    1C        C  224   4.514   3.374   4.120
    1C        C  225   4.504   3.305   4.243
    1C        C  226   4.521   3.519   4.364
    1C        C  227   4.515   3.378   4.363
    1C        C  228   4.519   3.594   4.484
    1C        C  229   4.530   3.522   4.606
    1C        C  230   4.501   3.737   4.723
    1C        C  231   4.536   3.599   4.724
    1C        C  232   4.495   3.815   4.841
    1C        C  233   4.541   3.752   4.957
    1C        C  234   4.010   2.607   2.062
    1C        C  235   3.890   2.536   2.059
    1C        C  236   4.082   2.643   2.177
    1C        C  237   4.019   2.600   2.296
    1C        C  238   4.191   2.732   2.419
    1C        C  239   4.078   2.645   2.416
    1C        C  240   4.246   2.782   2.539
    1C        C  241   4.186   2.740   2.660
    1C        C  242   4.330   2.901   2.780
    1C        C  243   4.243   2.789   2.779
    1C        C  244   4.371   2.958   2.902
    1C        C  245   4.330   2.903   3.025
    1C        C  246   4.428   3.089   3.144
    1C        C  247   4.364   2.963   3.148
    1C        C  248   4.447   3.156   3.267
    1C        C  249   4.422   3.094   3.391
    1C        C  250   4.486   3.299   3.511
    1C        C  251   4.452   3.162   3.512
    1C        C  252   4.498   3.368   3.634
    1C        C  253   4.490   3.302   3.758
    1C        C  254   4.518   3.512   3.878
    1C        C  255   4.513   3.371   3.879
    1C        C  256   4.518   3.586   3.998
    1C        C  257   4.518   3.515   4.120
    1C        C  258   4.488   3.726   4.237
    1C        C  259   4.516   3.587   4.241
    1C        C  260   4.464   3.795   4.358
    1C        C  261   4.484   3.731   4.482
    1C        C  262   4.422   3.935   4.599
    1C        C  263   4.477   3.805   4.602
    1C        C  264   4.397   4.004   4.720
    1C        C  265   4.430   3.940   4.842
    1C        C  266   4.314   4.125   4.955
    1C        C  267   4.389   4.008   4.957
    1C        C  268   4.265   2.769   2.062
    1C        C  269   4.195   2.728   2.176
    1C        C  270   4.341   2.884   2.295
    1C        C  271   4.249   2.775   2.297
    1C        C  272   4.372   2.952   2.415
    1C        C  273   4.334   2.893   2.537
    1C        C  274   4.441   3.080   2.658
    1C        C  275   4.374   2.956   2.657
    1C        C  276   4.464   3.149   2.779
    1C        C  277   4.436   3.084   2.901
    1C        C  278   4.500   3.288   3.021
    1C        C  279   4.464   3.152   3.022
    1C        C  280   4.511   3.359   3.143
    1C        C  281   4.486   3.292   3.265
    1C        C  282   4.507   3.504   3.387
    1C        C  283   4.503   3.363   3.386
    1C        C  284   4.507   3.575   3.509
    1C        C  285   4.511   3.509   3.633
    1C        C  286   4.491   3.721   3.748
    1C        C  287   4.514   3.581   3.754
    1C        C  288   4.475   3.791   3.870
    1C        C  289   4.497   3.726   3.993
    1C        C  290   4.426   3.927   4.113
    1C        C  291   4.473   3.794   4.115
    1C        C  292   4.392   3.994   4.233
    1C        C  293   4.414   3.927   4.356
    1C        C  294   4.319   4.120   4.478
    1C        C  295   4.387   3.996   4.476
    1C        C  296   4.278   4.184   4.597
    1C        C  297   4.321   4.124   4.718
    1C        C  298   4.195   4.308   4.832
    1C        C  299   4.273   4.187   4.836
    1C        C  300   4.171   4.402   4.937
    1C        C  301   4.353   2.877   2.059
    1C        C  302   4.469   3.063   2.175
    1C        C  303   4.394   2.941   2.177
    1C        C  304   4.476   3.140   2.294
    1C        C  305   4.436   3.078   2.415
    1C        C  306   4.506   3.281   2.533
    1C        C  307   4.470   3.144   2.535
    1C        C  308   4.514   3.353   2.654
    1C        C  309   4.496   3.286   2.777
    1C        C  310   4.518   3.498   2.896
    1C        C  311   4.512   3.357   2.899
    1C        C  312   4.513   3.569   3.019
    1C        C  313   4.519   3.500   3.142
    1C        C  314   4.488   3.712   3.260
    1C        C  315   4.508   3.572   3.263
    1C        C  316   4.475   3.784   3.381
    1C        C  317   4.492   3.716   3.504
    1C        C  318   4.422   3.918   3.625
    1C        C  319   4.475   3.787   3.625
    1C        C  320   4.388   3.981   3.747
    1C        C  321   4.420   3.921   3.870
    1C        C  322   4.311   4.104   3.988
    1C        C  323   4.395   3.991   3.991
    1C        C  324   4.268   4.164   4.109
    1C        C  325   4.321   4.116   4.231
    1C        C  326   4.182   4.275   4.350
    1C        C  327   4.279   4.173   4.353
    1C        C  328   4.130   4.332   4.468
    1C        C  329   4.183   4.288   4.591
    1C        C  330   4.019   4.430   4.710
    1C        C  331   4.131   4.343   4.710
    1C        C  332   3.967   4.490   4.827
    1C        C  333   4.056   4.482   4.935
    1C        C  334   4.548   3.260   2.060
    1C        C  335   4.533   3.121   2.060
    1C        C  336   4.537   3.345   2.171
    1C        C  337   4.515   3.277   2.293
    1C        C  338   4.517   3.494   2.407
    1C        C  339   4.510   3.353   2.412
    1C        C  340   4.521   3.566   2.528
    1C        C  341   4.523   3.494   2.650
    1C        C  342   4.491   3.704   2.771
    1C        C  343   4.518   3.565   2.772
    1C        C  344   4.473   3.775   2.892
    1C        C  345   4.491   3.708   3.015
    1C        C  346   4.425   3.911   3.134
    1C        C  347   4.473   3.778   3.136
    1C        C  348   4.395   3.977   3.256
    1C        C  349   4.423   3.915   3.379
    1C        C  350   4.310   4.095   3.499
    1C        C  351   4.391   3.980   3.501
    1C        C  352   4.263   4.151   3.620
    1C        C  353   4.311   4.099   3.743
    1C        C  354   4.173   4.262   3.862
    1C        C  355   4.267   4.157   3.864
    1C        C  356   4.118   4.311   3.983
    1C        C  357   4.168   4.263   4.106
    1C        C  358   4.010   4.401   4.224
    1C        C  359   4.124   4.319   4.228
    1C        C  360   3.949   4.445   4.343
    1C        C  361   4.014   4.414   4.464
    1C        C  362   3.829   4.516   4.588
    1C        C  363   3.957   4.456   4.586
    1C        C  364   3.760   4.547   4.708
    1C        C  365   3.835   4.539   4.828
    1C        C  366   3.627   4.596   4.945
    1C        C  367   3.764   4.572   4.944
    1C        C  368   4.510   3.558   2.048
    1C        C  369   4.525   3.485   2.167
    1C        C  370   4.494   3.703   2.285
    1C        C  371   4.517   3.564   2.284
    1C        C  372   4.482   3.775   2.406
    1C        C  373   4.500   3.705   2.528
    1C        C  374   4.421   3.904   2.647
    1C        C  375   4.472   3.772   2.649
    1C        C  376   4.390   3.970   2.769
    1C        C  377   4.424   3.908   2.891
    1C        C  378   4.311   4.088   3.010
    1C        C  379   4.395   3.975   3.012
    1C        C  380   4.264   4.143   3.132
    1C        C  381   4.317   4.095   3.254
    1C        C  382   4.172   4.251   3.374
    1C        C  383   4.272   4.151   3.375
    1C        C  384   4.117   4.301   3.494
    1C        C  385   4.168   4.255   3.618
    1C        C  386   4.004   4.388   3.737
    1C        C  387   4.120   4.308   3.740
    1C        C  388   3.943   4.429   3.858
    1C        C  389   4.004   4.395   3.980
    1C        C  390   3.816   4.492   4.104
    1C        C  391   3.944   4.432   4.103
    1C        C  392   3.749   4.514   4.227
    1C        C  393   3.821   4.505   4.348
    1C        C  394   3.616   4.557   4.471
    1C        C  395   3.755   4.533   4.469
    1C        C  396   3.542   4.564   4.591
    1C        C  397   3.620   4.564   4.709
    1C        C  398   3.411   4.543   4.836
    1C        C  399   3.550   4.569   4.832
    1C        C  400   3.337   4.511   4.951
    1C        C  401   4.499   3.697   2.048
    1C        C  402   4.441   3.909   2.165
    1C        C  403   4.479   3.773   2.163
    1C        C  404   4.406   3.976   2.284
    1C        C  405   4.434   3.908   2.405
    1C        C  406   4.322   4.090   2.522
    1C        C  407   4.400   3.972   2.526
    1C        C  408   4.276   4.149   2.642
    1C        C  409   4.315   4.089   2.764
    1C        C  410   4.172   4.245   2.886
    1C        C  411   4.270   4.144   2.887
    1C        C  412   4.120   4.296   3.007
    1C        C  413   4.169   4.247   3.130
    1C        C  414   3.998   4.374   3.251
    1C        C  415   4.114   4.294   3.252
    1C        C  416   3.936   4.410   3.372
    1C        C  417   3.997   4.375   3.495
    1C        C  418   3.811   4.481   3.618
    1C        C  419   3.937   4.417   3.616
    1C        C  420   3.745   4.512   3.739
    1C        C  421   3.814   4.486   3.860
    1C        C  422   3.608   4.535   3.984
    1C        C  423   3.747   4.510   3.982
    1C        C  424   3.539   4.540   4.107
    1C        C  425   3.610   4.537   4.229
    1C        C  426   3.399   4.554   4.352
    1C        C  427   3.540   4.551   4.351
    1C        C  428   3.330   4.545   4.475
    1C        C  429   3.401   4.553   4.596
    1C        C  430   3.193   4.515   4.719
    1C        C  431   3.332   4.543   4.719
    1C        C  432   3.121   4.492   4.840
    1C        C  433   3.199   4.499   4.956
    1C        C  434   4.383   4.122   2.049
    1C        C  435   4.431   3.991   2.051
    1C        C  436   4.302   4.164   2.159
    1C        C  437   4.329   4.096   2.281
    1C        C  438   4.179   4.249   2.397
    1C        C  439   4.280   4.151   2.401
    1C        C  440   4.120   4.292   2.518
    1C        C  441   4.173   4.245   2.641
    1C        C  442   4.004   4.372   2.763
    1C        C  443   4.120   4.291   2.763
    1C        C  444   3.941   4.410   2.884
    1C        C  445   4.000   4.372   3.006
    1C        C  446   3.810   4.466   3.126
    1C        C  447   3.939   4.410   3.127
    1C        C  448   3.744   4.491   3.249
    1C        C  449   3.809   4.473   3.373
    1C        C  450   3.606   4.531   3.493
    1C        C  451   3.745   4.504   3.495
    1C        C  452   3.538   4.538   3.617
    1C        C  453   3.606   4.537   3.741
    1C        C  454   3.396   4.541   3.860
    1C        C  455   3.537   4.549   3.863
    1C        C  456   3.332   4.523   3.984
    1C        C  457   3.397   4.535   4.109
    1C        C  458   3.191   4.500   4.232
    1C        C  459   3.328   4.535   4.232
    1C        C  460   3.127   4.479   4.356
    1C        C  461   3.193   4.510   4.477
    1C        C  462   2.996   4.431   4.600
    1C        C  463   3.123   4.492   4.598
    1C        C  464   2.931   4.395   4.720
    1C        C  465   2.987   4.442   4.842
    1C        C  466   2.800   4.329   4.954
    1C        C  467   2.902   4.425   4.956
    1C        C  468   4.125   4.289   2.035
    1C        C  469   4.185   4.248   2.155
    1C        C  470   4.003   4.368   2.275
    1C        C  471   4.122   4.292   2.275
    1C        C  472   3.939   4.401   2.397
    1C        C  473   4.003   4.371   2.519
    1C        C  474   3.813   4.465   2.641
    1C        C  475   3.942   4.406   2.641
    1C        C  476   3.742   4.489   2.761
    1C        C  477   3.811   4.467   2.882
    1C        C  478   3.605   4.521   3.005
    1C        C  479   3.743   4.489   3.004
    1C        C  480   3.535   4.530   3.127
    1C        C  481   3.607   4.524   3.249
    1C        C  482   3.395   4.536   3.371
    1C        C  483   3.536   4.536   3.370
    1C        C  484   3.325   4.529   3.494
    1C        C  485   3.397   4.542   3.615
    1C        C  486   3.191   4.493   3.740
    1C        C  487   3.326   4.536   3.737
    1C        C  488   3.130   4.463   3.863
    1C        C  489   3.195   4.489   3.986
    1C        C  490   3.004   4.404   4.111
    1C        C  491   3.126   4.476   4.108
    1C        C  492   2.943   4.373   4.235
    1C        C  493   3.002   4.412   4.357
    1C        C  494   2.829   4.295   4.479
    1C        C  495   2.938   4.385   4.480
    1C        C  496   2.771   4.250   4.600
    1C        C  497   2.819   4.307   4.720
    1C        C  498   2.656   4.165   4.840
    1C        C  499   2.749   4.271   4.837
    1C        C  500   2.594   4.114   4.954
    1C        C  501   4.004   4.357   2.036
    1C        C  502   3.810   4.457   2.152
    1C        C  503   3.938   4.397   2.153
    1C        C  504   3.743   4.479   2.274
    1C        C  505   3.806   4.450   2.397
    1C        C  506   3.604   4.507   2.516
    1C        C  507   3.742   4.475   2.520
    1C        C  508   3.533   4.516   2.638
    1C        C  509   3.604   4.516   2.761
    1C        C  510   3.392   4.525   2.882
    1C        C  511   3.533   4.521   2.883
    1C        C  512   3.321   4.518   3.004
    1C        C  513   3.394   4.525   3.125
    1C        C  514   3.190   4.487   3.252
    1C        C  515   3.326   4.524   3.248
    1C        C  516   3.123   4.459   3.373
    1C        C  517   3.189   4.491   3.494
    1C        C  518   3.004   4.396   3.622
    1C        C  519   3.125   4.469   3.618
    1C        C  520   2.945   4.357   3.744
    1C        C  521   3.004   4.398   3.865
    1C        C  522   2.837   4.273   3.992
    1C        C  523   2.947   4.362   3.989
    1C        C  524   2.786   4.227   4.115
    1C        C  525   2.834   4.284   4.235
    1C        C  526   2.688   4.134   4.361
    1C        C  527   2.777   4.244   4.358
    1C        C  528   2.645   4.075   4.482
    1C        C  529   2.685   4.138   4.601
    1C        C  530   2.578   3.958   4.726
    1C        C  531   2.634   4.088   4.723
    1C        C  532   2.535   3.899   4.849
    1C        C  533   2.527   3.990   4.959
    1C        C  534   3.613   4.552   2.038
    1C        C  535   3.746   4.509   2.039
    1C        C  536   3.530   4.530   2.153
    1C        C  537   3.604   4.510   2.273
    1C        C  538   3.393   4.514   2.395
    1C        C  539   3.534   4.522   2.395
    1C        C  540   3.320   4.504   2.516
    1C        C  541   3.392   4.514   2.637
    1C        C  542   3.185   4.480   2.760
    1C        C  543   3.322   4.514   2.760
    1C        C  544   3.119   4.458   2.883
    1C        C  545   3.185   4.480   3.006
    1C        C  546   2.998   4.392   3.134
    1C        C  547   3.121   4.462   3.131
    1C        C  548   2.939   4.353   3.256
    1C        C  549   2.999   4.392   3.378
    1C        C  550   2.832   4.266   3.503
    1C        C  551   2.945   4.350   3.502
    1C        C  552   2.775   4.223   3.625
    1C        C  553   2.834   4.269   3.745
    1C        C  554   2.699   4.112   3.869
    1C        C  555   2.790   4.220   3.870
    1C        C  556   2.657   4.058   3.993
    1C        C  557   2.695   4.118   4.115
    1C        C  558   2.591   3.942   4.241
    1C        C  559   2.654   4.068   4.240
    1C        C  560   2.564   3.876   4.363
    1C        C  561   2.582   3.948   4.483
    1C        C  562   2.524   3.748   4.613
    1C        C  563   2.557   3.885   4.607
    1C        C  564   2.509   3.679   4.735
    1C        C  565   2.511   3.758   4.853
    1C        C  566   2.529   3.543   4.971
    1C        C  567   2.520   3.682   4.970
    1C        C  568   3.324   4.473   2.033
    1C        C  569   3.390   4.506   2.152
    1C        C  570   3.181   4.468   2.273
    1C        C  571   3.319   4.502   2.275
    1C        C  572   3.113   4.453   2.396
    1C        C  573   3.181   4.477   2.518
    1C        C  574   2.991   4.389   2.645
    1C        C  575   3.114   4.459   2.640
    1C        C  576   2.930   4.355   2.768
    1C        C  577   2.994   4.392   2.889
    1C        C  578   2.824   4.269   3.010
    1C        C  579   2.938   4.352   3.012
    1C        C  580   2.780   4.214   3.133
    1C        C  581   2.831   4.262   3.255
    1C        C  582   2.693   4.108   3.381
    1C        C  583   2.783   4.217   3.380
    1C        C  584   2.648   4.053   3.503
    1C        C  585   2.685   4.115   3.625
    1C        C  586   2.587   3.930   3.752
    1C        C  587   2.649   4.057   3.749
    1C        C  588   2.564   3.866   3.875
    1C        C  589   2.591   3.934   3.997
    1C        C  590   2.525   3.737   4.122
    1C        C  591   2.562   3.873   4.121
    1C        C  592   2.513   3.670   4.246
    1C        C  593   2.523   3.741   4.368
    1C        C  594   2.513   3.533   4.494
    1C        C  595   2.514   3.674   4.493
    1C        C  596   2.515   3.461   4.615
    1C        C  597   2.508   3.537   4.734
    1C        C  598   2.528   3.324   4.860
    1C        C  599   2.521   3.465   4.855
    1C        C  600   2.530   3.245   4.976
    1C        C  601   3.194   4.428   2.036
    1C        C  602   2.980   4.387   2.153
    1C        C  603   3.115   4.434   2.152
    1C        C  604   2.925   4.350   2.279
    1C        C  605   2.986   4.392   2.399
    1C        C  606   2.820   4.265   2.525
    1C        C  607   2.930   4.352   2.523
    1C        C  608   2.772   4.211   2.647
    1C        C  609   2.822   4.264   2.768
    1C        C  610   2.683   4.106   2.891
    1C        C  611   2.770   4.217   2.890
    1C        C  612   2.647   4.047   3.015
    1C        C  613   2.688   4.106   3.136
    1C        C  614   2.588   3.922   3.261
    1C        C  615   2.651   4.048   3.260
    1C        C  616   2.565   3.858   3.385
    1C        C  617   2.584   3.927   3.507
    1C        C  618   2.524   3.726   3.636
    1C        C  619   2.562   3.862   3.630
    1C        C  620   2.507   3.658   3.759
    1C        C  621   2.524   3.731   3.879
    1C        C  622   2.499   3.522   4.006
    1C        C  623   2.512   3.663   4.003
    1C        C  624   2.506   3.456   4.130
    1C        C  625   2.505   3.529   4.251
    1C        C  626   2.531   3.319   4.377
    1C        C  627   2.513   3.459   4.373
    1C        C  628   2.547   3.248   4.498
    1C        C  629   2.532   3.321   4.618
    1C        C  630   2.601   3.119   4.742
    1C        C  631   2.549   3.252   4.740
    1C        C  632   2.615   3.046   4.863
    1C        C  633   2.553   3.107   4.977
    1C        C  634   2.774   4.300   2.051
    1C        C  635   2.885   4.385   2.045
    1C        C  636   2.745   4.225   2.166
    1C        C  637   2.808   4.269   2.284
    1C        C  638   2.676   4.104   2.407
    1C        C  639   2.759   4.219   2.406
    1C        C  640   2.638   4.042   2.528
    1C        C  641   2.683   4.101   2.648
    1C        C  642   2.576   3.920   2.775
    1C        C  643   2.643   4.044   2.771
    1C        C  644   2.549   3.855   2.897
    1C        C  645   2.583   3.921   3.018
    1C        C  646   2.518   3.720   3.145
    1C        C  647   2.559   3.856   3.140
    1C        C  648   2.507   3.652   3.269
    1C        C  649   2.524   3.723   3.389
    1C        C  650   2.500   3.516   3.513
    1C        C  651   2.509   3.657   3.513
    1C        C  652   2.503   3.448   3.637
    1C        C  653   2.501   3.517   3.760
    1C        C  654   2.525   3.311   3.887
    1C        C  655   2.500   3.450   3.884
    1C        C  656   2.548   3.247   4.011
    1C        C  657   2.532   3.317   4.133
    1C        C  658   2.606   3.119   4.256
    1C        C  659   2.551   3.249   4.256
    1C        C  660   2.636   3.055   4.378
    1C        C  661   2.600   3.117   4.500
    1C        C  662   2.710   2.936   4.625
    1C        C  663   2.629   3.051   4.622
    1C        C  664   2.750   2.875   4.746
    1C        C  665   2.696   2.928   4.866
    1C        C  666   2.742   2.866   4.983
    1C        C  667   2.673   4.020   2.053
    1C        C  668   2.675   4.102   2.166
    1C        C  669   2.584   3.908   2.288
    1C        C  670   2.642   4.038   2.287
    1C        C  671   2.554   3.843   2.410
    1C        C  672   2.580   3.914   2.530
    1C        C  673   2.513   3.716   2.655
    1C        C  674   2.550   3.853   2.653
    1C        C  675   2.501   3.646   2.777
    1C        C  676   2.513   3.718   2.898
    1C        C  677   2.495   3.511   3.024
    1C        C  678   2.503   3.652   3.022
    1C        C  679   2.498   3.441   3.146
    1C        C  680   2.498   3.511   3.269
    1C        C  681   2.525   3.303   3.397
    1C        C  682   2.502   3.443   3.392
    1C        C  683   2.539   3.238   3.522
    1C        C  684   2.521   3.308   3.643
    1C        C  685   2.604   3.115   3.769
    1C        C  686   2.540   3.241   3.766
    1C        C  687   2.638   3.054   3.892
    1C        C  688   2.600   3.116   4.013
    1C        C  689   2.716   2.938   4.135
    1C        C  690   2.633   3.052   4.135
    1C        C  691   2.757   2.882   4.259
    1C        C  692   2.710   2.935   4.381
    1C        C  693   2.753   2.879   4.503
    1C        C  694   2.620   3.890   2.054
    1C        C  695   2.516   3.701   2.171
    1C        C  696   2.567   3.833   2.170
    1C        C  697   2.497   3.636   2.294
    1C        C  698   2.512   3.708   2.414
    1C        C  699   2.476   3.501   2.537
    1C        C  700   2.492   3.642   2.537
    1C        C  701   2.492   3.432   2.659
    1C        C  702   2.496   3.505   2.780
    1C        C  703   2.523   3.298   2.907
    1C        C  704   2.497   3.437   2.904
    1C        C  705   2.539   3.231   3.030
    1C        C  706   2.521   3.301   3.151
    1C        C  707   2.600   3.107   3.274
    1C        C  708   2.545   3.237   3.274
    1C        C  709   2.629   3.047   3.399
    1C        C  710   2.598   3.109   3.522
    1C        C  711   2.712   2.935   3.646
    1C        C  712   2.631   3.051   3.646
    1C        C  713   2.759   2.882   3.768
    1C        C  714   2.716   2.936   3.891
    1C        C  715   2.759   2.880   4.014
    1C        C  716   2.445   3.493   2.060
    1C        C  717   2.487   3.627   2.056
    1C        C  718   2.459   3.416   2.180
    1C        C  719   2.473   3.496   2.297
    1C        C  720   2.508   3.287   2.418
    1C        C  721   2.475   3.424   2.419
    1C        C  722   2.533   3.221   2.541
    1C        C  723   2.517   3.293   2.662
    1C        C  724   2.592   3.097   2.786
    1C        C  725   2.538   3.228   2.786
    1C        C  726   2.626   3.037   2.909
    1C        C  727   2.591   3.099   3.030
    1C        C  728   2.707   2.923   3.156
    1C        C  729   2.624   3.037   3.153
    1C        C  730   2.750   2.871   3.280
    1C        C  731   2.709   2.931   3.402
    1C        C  732   2.756   2.879   3.524
    1C        C  733   2.477   3.187   2.069
    1C        C  734   2.482   3.275   2.178
    1C        C  735   2.577   3.082   2.300
    1C        C  736   2.518   3.211   2.300
    1C        C  737   2.612   3.020   2.423
    1C        C  738   2.585   3.090   2.543
    1C        C  739   2.698   2.911   2.666
    1C        C  740   2.622   3.030   2.665
    1C        C  741   2.745   2.861   2.789
    1C        C  742   2.705   2.920   2.911
    1C        C  743   2.752   2.868   3.034
    1C        C  744   2.532   3.059   2.070
    1C        C  745   2.685   2.896   2.180
    1C        C  746   2.605   3.013   2.180
    1C        C  747   2.728   2.840   2.302
    1C        C  748   2.683   2.899   2.423
    1C        C  749   2.731   2.846   2.545
    1C        C  750   2.734   2.837   2.063
    1C        C  751   3.639   2.314   1.968
    1C        O  752   3.667   2.194   1.997
    1C        O  753   3.694   2.341   1.842
    1C        C  754   4.660   3.058   2.020
    1C        O  755   4.679   2.982   1.922
    1C        O  756   4.782   3.091   2.081
    1C        C  757   4.457   4.215   1.961
    1C        O  758   4.552   4.281   2.011
    1C        O  759   4.448   4.208   1.822
    1C        C  760   3.580   4.661   1.944
    1C        O  761   3.568   4.782   1.978
    1C        O  762   3.606   4.650   1.806
    1C        C  763   2.895   4.457   1.916
    1C        O  764   2.962   4.420   1.816
    1C        O  765   2.797   4.549   1.877
    1C        C  766   2.334   3.457   1.969
    1C        O  767   2.356   3.468   1.845
    1C        O  768   2.203   3.484   2.011
    1C        C  769   4.693   3.589   5.042
    1C        O  770   4.686   3.573   5.167
    1C        O  771   4.815   3.648   5.008
    1C        C  772   4.279   4.476   5.006
    1C        O  773   4.330   4.432   5.113
    1C        O  774   4.323   4.603   4.967
    1C        C  775   4.135   2.511   5.067
    1C        O  776   4.223   2.426   5.035
    1C        O  777   4.117   2.530   5.204
    1C        C  778   2.872   4.545   5.037
    1C        O  779   2.828   4.653   4.989
    1C        O  780   2.928   4.579   5.161
    1C        C  781   2.455   3.037   5.064
    1C        O  782   2.352   2.983   5.016
    1C        O  783   2.485   2.986   5.189
    1C        C  784   2.410   4.000   5.048
    1C        O  785   2.299   4.039   5.002
    1C        O  786   2.407   3.938   5.174
    1C        C  787   2.942   2.423   2.003
    1C        O  788   2.922   2.443   1.881
    1C        O  789   2.856   2.327   2.056
    1C        C  790   3.177   2.376   5.069
    1C        O  791   3.152   2.262   5.020
    1C        O  792   3.242   2.386   5.193
    1C        H  793   4.254   3.035   5.040
    1C        H  794   4.185   2.803   5.072
    1C        H  795   4.530   3.121   5.035
    1C        H  796   4.501   3.368   5.064
    1C        H  797   4.590   3.811   5.032
    1C        H  798   4.413   3.968   5.054
    1C        H  799   4.322   4.190   5.040
    1C        H  800   4.022   4.508   5.034
    1C        H  801   3.816   4.607   5.031
    1C        H  802   3.597   4.681   5.003
    1C        H  803   3.388   4.474   5.037
    1C        H  804   3.148   4.486   5.050
    1C        H  805   3.891   2.461   5.053
    1C        H  806   3.677   2.452   5.070
    1C        H  807   3.008   2.575   5.068
    1C        H  808   3.438   2.475   5.076
    1C        H  809   2.881   2.737   5.078
    1C        H  810   2.683   2.872   5.072
    1C        H  811   2.465   3.282   5.053
    1C        H  812   2.536   3.495   5.066
    1C        H  813   2.543   3.727   5.065
    1C        H  814   2.561   4.185   5.027
    1C        H  815   2.784   4.280   5.048
    1C        H  816   2.745   2.902   1.979
    1C        H  817   2.799   2.658   1.984
    1C        H  818   3.203   2.444   1.975
    1C        H  819   3.422   2.475   1.973
    1C        H  820   3.872   2.479   1.970
    1C        H  821   4.063   2.607   1.970
    1C        H  822   4.267   2.701   1.980
    1C        H  823   4.410   2.887   1.969
    1C        H  824   4.602   3.298   1.975
    1C        H  825   4.474   3.508   1.961
    1C        H  826   4.484   3.741   1.951
    1C        H  827   3.812   4.576   1.987
    1C        H  828   3.957   4.377   1.942
    1C        H  829   4.156   4.238   1.946
    1C        H  830   4.477   3.955   1.961
    1C        H  831   2.661   3.821   1.983
    1C        H  832   2.731   4.043   1.966
    1C        H  833   2.705   4.295   1.969
    1C        H  834   3.380   4.458   1.943
    1C        H  835   3.167   4.351   1.967
    1C        H  836   2.481   2.988   2.009
    1C        H  837   2.467   3.225   1.970
    1C        H  838   2.479   3.673   1.960
    2V3OU   H29  839   2.799   3.549   1.585
    2V3OU   C27  840   2.779   3.498   1.683
    2V3OU   H27  841   2.713   3.564   1.746
    2V3OU   H28  842   2.724   3.403   1.662
    2V3OU   O11  843   2.903   3.474   1.750
    2V3OU   C15  844   2.918   3.389   1.858
    2V3OU   C13  845   3.046   3.369   1.913
    2V3OU   C14  846   3.073   3.264   2.002
    2V3OU   C16  847   2.967   3.182   2.037
    2V3OU    H6  848   2.984   3.098   2.107
    2V3OU   C12  849   3.210   3.222   2.038
    2V3OU    O2  850   3.238   3.119   2.104
    2V3OU   C10  851   3.322   3.306   1.995
    2V3OU    C8  852   3.453   3.266   2.022
    2V3OU   O10  853   3.484   3.143   2.071
    2V3OU   H26  854   3.399   3.102   2.094
    2V3OU    C6  855   3.562   3.349   1.981
    2V3OU    C5  856   3.531   3.466   1.914
    2V3OU    C4  857   3.700   3.294   1.975
    2V3OU    H4  858   3.718   3.219   2.057
    2V3OU    H5  859   3.714   3.226   1.886
    2V3OU    C2  860   3.815   3.395   1.981
    2V3OU    O6  861   3.809   3.475   2.100
    2V3OU   H21  862   3.764   3.552   2.062
    2V3OU    C3  863   3.780   3.494   1.870
    2V3OU    H2  864   3.867   3.564   1.863
    2V3OU    H3  865   3.779   3.441   1.771
    2V3OU   C25  866   3.950   3.325   1.966
    2V3OU    O7  867   3.995   3.286   1.858
    2V3OU   C26  868   4.024   3.286   2.092
    2V3OU   H22  869   4.057   3.378   2.148
    2V3OU   H23  870   4.116   3.227   2.067
    2V3OU    O8  871   3.950   3.202   2.178
    2V3OU   H24  872   3.928   3.255   2.256
    2V3OU    C1  873   3.645   3.561   1.887
    2V3OU    H1  874   3.622   3.617   1.792
    2V3OU    O3  875   3.649   3.648   2.000
    2V3OU   C19  876   3.616   3.787   1.996
    2V3OU    H9  877   3.522   3.794   1.934
    2V3OU    O4  878   3.713   3.842   1.910
    2V3OU   C20  879   3.843   3.873   1.961
    2V3OU   H10  880   3.886   3.769   1.976
    2V3OU   C24  881   3.606   3.849   2.135
    2V3OU   H16  882   3.537   3.790   2.201
    2V3OU   H17  883   3.563   3.952   2.124
    2V3OU   C23  884   3.747   3.869   2.193
    2V3OU   H15  885   3.790   3.766   2.215
    2V3OU    N1  886   3.730   3.955   2.308
    2V3OU   H19  887   3.807   3.921   2.363
    2V3OU   H20  888   3.640   3.931   2.346
    2V3OU   C21  889   3.842   3.945   2.096
    2V3OU   H11  890   3.943   3.919   2.139
    2V3OU    O5  891   3.827   4.086   2.106
    2V3OU   H18  892   3.784   4.100   2.192
    2V3OU   C22  893   3.913   3.948   1.849
    2V3OU   H12  894   3.860   4.046   1.832
    2V3OU   H13  895   3.906   3.889   1.754
    2V3OU   H14  896   4.022   3.961   1.869
    2V3OU   C11  897   3.154   3.469   1.903
    2V3OU    O1  898   3.129   3.583   1.857
    2V3OU    C9  899   3.293   3.423   1.919
    2V3OU    C7  900   3.398   3.503   1.875
    2V3OU    O9  901   3.383   3.613   1.794
    2V3OU   H25  902   3.287   3.630   1.787
    2V3OU   C17  903   2.813   3.310   1.909
    2V3OU    H7  904   2.715   3.336   1.870
    2V3OU   C18  905   2.835   3.205   1.997
    2V3OU    H8  906   2.752   3.136   2.014
    3SOL     OW  907   2.570   3.946   0.777
    3SOL    HW1  908   2.487   3.894   0.795
    3SOL    HW2  909   2.612   3.914   0.692
    4SOL     OW  910   6.995   5.784   1.902
    4SOL    HW1  911   0.055   5.728   1.869
    4SOL    HW2  912   6.921   5.783   1.834
    5SOL     OW  913   3.829   1.372   2.473
    5SOL    HW1  914   3.786   1.343   2.388
    5SOL    HW2  915   3.899   1.440   2.454
    6SOL     OW  916   3.644   2.125   2.268
    6SOL    HW1  917   3.567   2.177   2.305
    6SOL    HW2  918   3.654   2.145   2.170
    7SOL     OW  919   6.433   3.062   1.731
    7SOL    HW1  920   6.404   2.971   1.762
    7SOL    HW2  921   6.533   3.066   1.728
    8SOL     OW  922   2.187   6.551   5.102
    8SOL    HW1  923   2.223   6.552   5.196
    8SOL    HW2  924   2.099   6.503   5.101
    9SOL     OW  925   1.121   5.264   5.796
    9SOL    HW1  926   1.168   5.347   5.764
    9SOL    HW2  927   1.026   5.287   5.820
   10SOL     OW  928   0.576   4.358   5.834
   10SOL    HW1  929   0.619   4.274   5.801
   10SOL    HW2  930   0.641   4.408   5.891
   11SOL     OW  931   2.894   0.386   0.446
   11SOL    HW1  932   2.874   0.303   0.498
   11SOL    HW2  933   2.809   0.428   0.416
   12SOL     OW  934   4.685   6.426   3.453
   12SOL    HW1  935   4.770   6.415   3.504
   12SOL    HW2  936   4.654   6.521   3.459
   13SOL     OW  937   3.640   6.091   4.373
   13SOL    HW1  938   3.632   5.997   4.341
   13SOL    HW2  939   3.582   6.150   4.317
   14SOL     OW  940   4.159   5.848   6.109
   14SOL    HW1  941   4.121   5.875   6.021
   14SOL    HW2  942   4.099   5.782   6.153
   15SOL     OW  943   1.466   6.006   6.995
   15SOL    HW1  944   1.389   6.015   0.042
   15SOL    HW2  945   1.507   5.916   7.005
   16SOL     OW  946   6.210   1.967   5.446
   16SOL    HW1  947   6.203   2.025   5.527
   16SOL    HW2  948   6.297   1.919   5.447
   17SOL     OW  949   5.275   6.299   4.607
   17SOL    HW1  950   5.288   6.256   4.696
   17SOL    HW2  951   5.199   6.255   4.559
   18SOL     OW  952   2.936   1.990   6.580
   18SOL    HW1  953   2.952   1.902   6.534
   18SOL    HW2  954   2.850   2.030   6.547
   19SOL     OW  955   0.173   6.560   3.405
   19SOL    HW1  956   0.160   6.630   3.475
   19SOL    HW2  957   0.085   6.539   3.362
   20SOL     OW  958   3.283   0.491   4.499
   20SOL    HW1  959   3.281   0.542   4.585
   20SOL    HW2  960   3.372   0.502   4.456
   21SOL     OW  961   2.847   2.062   2.779
   21SOL    HW1  962   2.886   1.975   2.808
   21SOL    HW2  963   2.876   2.082   2.685
   22SOL     OW  964   2.201   0.444   6.934
   22SOL    HW1  965   2.134   0.481   6.998
   22SOL    HW2  966   2.202   0.344   6.941
   23SOL     OW  967   4.351   6.833   3.612
   23SOL    HW1  968   4.426   6.882   3.568
   23SOL    HW2  969   4.378   6.737   3.626
   24SOL     OW  970   5.417   0.868   4.077
   24SOL    HW1  971   5.324   0.851   4.110
   24SOL    HW2  972   5.475   0.894   4.155
   25SOL     OW  973   3.159   5.762   6.118
   25SOL    HW1  974   3.199   5.798   6.033
   25SOL    HW2  975   3.115   5.837   6.168
   26SOL     OW  976   5.644   1.357   1.162
   26SOL    HW1  977   5.664   1.438   1.216
   26SOL    HW2  978   5.728   1.327   1.115
   27SOL     OW  979   0.011   0.802   2.199
   27SOL    HW1  980   7.015   0.813   2.297
   27SOL    HW2  981   0.083   0.864   2.167
   28SOL     OW  982   4.547   1.010   6.970
   28SOL    HW1  983   4.490   0.930   6.991
   28SOL    HW2  984   4.567   1.012   6.872
   29SOL     OW  985   4.865   2.692   2.151
   29SOL    HW1  986   4.883   2.605   2.196
   29SOL    HW2  987   4.769   2.695   2.123
   30SOL     OW  988   2.792   6.981   5.469
   30SOL    HW1  989   2.695   6.996   5.456
   30SOL    HW2  990   2.832   0.044   5.516
   31SOL     OW  991   0.637   1.240   5.744
   31SOL    HW1  992   0.593   1.172   5.686
   31SOL    HW2  993   0.631   1.212   5.840
   32SOL     OW  994   0.545   2.331   2.870
   32SOL    HW1  995   0.564   2.413   2.816
   32SOL    HW2  996   0.448   2.307   2.860
   33SOL     OW  997   2.048   2.878   6.443
   33SOL    HW1  998   2.075   2.927   6.526
   33SOL    HW2  999   1.974   2.815   6.464
   34SOL     OW 1000   1.597   0.667   4.412
   34SOL    HW1 1001   1.658   0.746   4.416
   34SOL    HW2 1002   1.551   0.666   4.323
   35SOL     OW 1003   4.243   2.357   6.412
   35SOL    HW1 1004   4.217   2.454   6.419
   35SOL    HW2 1005   4.168   2.300   6.446
   36SOL     OW 1006   0.874   0.646   6.240
   36SOL    HW1 1007   0.796   0.584   6.239
   36SOL    HW2 1008   0.893   0.678   6.148
   37SOL     OW 1009   2.359   6.953   0.813
   37SOL    HW1 1010   2.402   6.923   0.898
   37SOL    HW2 1011   2.426   6.953   0.740
   38SOL     OW 1012   0.285   5.792   2.992
   38SOL    HW1 1013   0.220   5.767   3.063
   38SOL    HW2 1014   0.251   5.762   2.903
   39SOL     OW 1015   0.092   3.998   6.344
   39SOL    HW1 1016   0.092   3.900   6.323
   39SOL    HW2 1017   0.042   4.014   6.429
   40SOL     OW 1018   6.239   2.449   2.210
   40SOL    HW1 1019   6.158   2.415   2.258
   40SOL    HW2 1020   6.293   2.506   2.272
   41SOL     OW 1021   1.298   6.425   4.331
   41SOL    HW1 1022   1.376   6.448   4.388
   41SOL    HW2 1023   1.256   6.340   4.364
   42SOL     OW 1024   3.127   6.804   5.977
   42SOL    HW1 1025   3.041   6.765   5.944
   42SOL    HW2 1026   3.203   6.743   5.954
   43SOL     OW 1027   5.716   6.093   6.260
   43SOL    HW1 1028   5.639   6.119   6.318
   43SOL    HW2 1029   5.686   6.086   6.165
   44SOL     OW 1030   6.556   2.842   6.467
   44SOL    HW1 1031   6.523   2.765   6.522
   44SOL    HW2 1032   6.478   2.890   6.428
   45SOL     OW 1033   3.269   0.600   3.393
   45SOL    HW1 1034   3.356   0.568   3.432
   45SOL    HW2 1035   3.285   0.685   3.343
   46SOL     OW 1036   0.781   3.961   4.297
   46SOL    HW1 1037   0.694   3.997   4.263
   46SOL    HW2 1038   0.843   3.944   4.220
   47SOL     OW 1039   5.766   3.407   3.411
   47SOL    HW1 1040   5.779   3.348   3.491
   47SOL    HW2 1041   5.840   3.391   3.345
   48SOL     OW 1042   0.870   2.525   4.589
   48SOL    HW1 1043   0.901   2.609   4.633
   48SOL    HW2 1044   0.780   2.499   4.624
   49SOL     OW 1045   4.698   4.122   1.746
   49SOL    HW1 1046   4.607   4.155   1.770
   49SOL    HW2 1047   4.753   4.111   1.829
   50SOL     OW 1048   6.510   2.586   5.149
   50SOL    HW1 1049   6.609   2.579   5.131
   50SOL    HW2 1050   6.489   2.542   5.236
   51SOL     OW 1051   2.909   5.563   2.600
   51SOL    HW1 1052   2.910   5.649   2.549
   51SOL    HW2 1053   2.913   5.582   2.698
   52SOL     OW 1054   4.227   1.429   3.880
   52SOL    HW1 1055   4.215   1.412   3.782
   52SOL    HW2 1056   4.287   1.359   3.919
   53SOL     OW 1057   4.250   0.526   3.828
   53SOL    HW1 1058   4.211   0.480   3.749
   53SOL    HW2 1059   4.290   0.459   3.890
   54SOL     OW 1060   2.789   5.199   6.571
   54SOL    HW1 1061   2.876   5.235   6.537
   54SOL    HW2 1062   2.806   5.117   6.625
   55SOL     OW 1063   3.733   1.265   6.273
   55SOL    HW1 1064   3.770   1.340   6.328
   55SOL    HW2 1065   3.641   1.242   6.306
   56SOL     OW 1066   1.764   0.765   1.605
   56SOL    HW1 1067   1.843   0.716   1.568
   56SOL    HW2 1068   1.728   0.717   1.685
   57SOL     OW 1069   4.875   0.360   0.538
   57SOL    HW1 1070   4.809   0.320   0.602
   57SOL    HW2 1071   4.966   0.361   0.579
   58SOL     OW 1072   0.473   5.705   6.473
   58SOL    HW1 1073   0.383   5.701   6.428
   58SOL    HW2 1074   0.461   5.696   6.572
   59SOL     OW 1075   1.542   1.099   6.348
   59SOL    HW1 1076   1.467   1.079   6.412
   59SOL    HW2 1077   1.520   1.062   6.258
   60SOL     OW 1078   5.359   0.736   5.944
   60SOL    HW1 1079   5.421   0.679   5.890
   60SOL    HW2 1080   5.382   0.728   6.041
   61SOL     OW 1081   4.994   1.017   4.073
   61SOL    HW1 1082   4.894   1.023   4.069
   61SOL    HW2 1083   5.033   1.070   3.997
   62SOL     OW 1084   0.832   1.211   3.541
   62SOL    HW1 1085   0.882   1.267   3.607
   62SOL    HW2 1086   0.788   1.271   3.474
   63SOL     OW 1087   6.368   1.637   3.911
   63SOL    HW1 1088   6.416   1.692   3.842
   63SOL    HW2 1089   6.377   1.680   4.000
   64SOL     OW 1090   0.347   3.875   6.700
   64SOL    HW1 1091   0.257   3.913   6.720
   64SOL    HW2 1092   0.351   3.781   6.732
   65SOL     OW 1093   6.422   4.240   5.146
   65SOL    HW1 1094   6.459   4.320   5.098
   65SOL    HW2 1095   6.412   4.262   5.243
   66SOL     OW 1096   3.306   0.763   6.817
   66SOL    HW1 1097   3.311   0.806   6.908
   66SOL    HW2 1098   3.218   0.786   6.774
   67SOL     OW 1099   5.818   5.818   5.444
   67SOL    HW1 1100   5.804   5.854   5.536
   67SOL    HW2 1101   5.903   5.765   5.442
   68SOL     OW 1102   6.645   1.245   6.843
   68SOL    HW1 1103   6.730   1.228   6.793
   68SOL    HW2 1104   6.661   1.311   6.916
   69SOL     OW 1105   1.646   3.885   6.350
   69SOL    HW1 1106   1.709   3.912   6.423
   69SOL    HW2 1107   1.643   3.956   6.280
   70SOL     OW 1108   6.259   5.781   2.572
   70SOL    HW1 1109   6.181   5.834   2.603
   70SOL    HW2 1110   6.338   5.841   2.559
   71SOL     OW 1111   2.903   2.311   3.266
   71SOL    HW1 1112   2.868   2.277   3.179
   71SOL    HW2 1113   2.878   2.407   3.277
   72SOL     OW 1114   2.744   6.365   4.582
   72SOL    HW1 1115   2.790   6.304   4.647
   72SOL    HW2 1116   2.671   6.415   4.629
   73SOL     OW 1117   3.002   1.939   0.058
   73SOL    HW1 1118   2.987   1.997   6.994
   73SOL    HW2 1119   2.925   1.948   0.121
   74SOL     OW 1120   5.302   6.484   0.353
   74SOL    HW1 1121   5.346   6.475   0.263
   74SOL    HW2 1122   5.206   6.458   0.346
   75SOL     OW 1123   3.640   5.392   5.529
   75SOL    HW1 1124   3.693   5.473   5.555
   75SOL    HW2 1125   3.696   5.334   5.470
   76SOL     OW 1126   1.594   2.428   1.289
   76SOL    HW1 1127   1.577   2.418   1.387
   76SOL    HW2 1128   1.687   2.462   1.273
   77SOL     OW 1129   4.834   5.561   4.282
   77SOL    HW1 1130   4.785   5.558   4.195
   77SOL    HW2 1131   4.874   5.652   4.295
   78SOL     OW 1132   6.489   6.560   5.996
   78SOL    HW1 1133   6.402   6.512   6.009
   78SOL    HW2 1134   6.472   6.658   5.992
   79SOL     OW 1135   2.969   6.893   0.616
   79SOL    HW1 1136   3.003   6.961   0.551
   79SOL    HW2 1137   2.910   6.828   0.569
   80SOL     OW 1138   5.862   0.752   4.588
   80SOL    HW1 1139   5.923   0.826   4.616
   80SOL    HW2 1140   5.856   0.750   4.488
   81SOL     OW 1141   2.317   0.311   2.835
   81SOL    HW1 1142   2.395   0.249   2.826
   81SOL    HW2 1143   2.304   0.361   2.749
   82SOL     OW 1144   6.796   5.271   0.276
   82SOL    HW1 1145   6.840   5.249   0.190
   82SOL    HW2 1146   6.697   5.276   0.263
   83SOL     OW 1147   6.407   0.272   0.962
   83SOL    HW1 1148   6.360   0.360   0.951
   83SOL    HW2 1149   6.479   0.264   0.893
   84SOL     OW 1150   4.858   3.537   3.190
   84SOL    HW1 1151   4.947   3.559   3.150
   84SOL    HW2 1152   4.829   3.446   3.160
   85SOL     OW 1153   0.814   1.643   5.116
   85SOL    HW1 1154   0.742   1.708   5.140
   85SOL    HW2 1155   0.902   1.674   5.153
   86SOL     OW 1156   0.873   0.549   5.833
   86SOL    HW1 1157   0.935   0.473   5.811
   86SOL    HW2 1158   0.780   0.514   5.842
   87SOL     OW 1159   5.052   2.750   1.026
   87SOL    HW1 1160   5.014   2.680   1.086
   87SOL    HW2 1161   4.988   2.826   1.019
   88SOL     OW 1162   4.597   1.867   0.269
   88SOL    HW1 1163   4.588   1.923   0.187
   88SOL    HW2 1164   4.522   1.888   0.332
   89SOL     OW 1165   1.699   2.925   6.740
   89SOL    HW1 1166   1.769   2.997   6.747
   89SOL    HW2 1167   1.628   2.954   6.675
   90SOL     OW 1168   4.640   6.935   3.782
   90SOL    HW1 1169   4.582   6.962   3.859
   90SOL    HW2 1170   4.622   6.994   3.704
   91SOL     OW 1171   4.620   4.621   4.435
   91SOL    HW1 1172   4.534   4.663   4.408
   91SOL    HW2 1173   4.635   4.537   4.382
   92SOL     OW 1174   3.078   4.385   0.448
   92SOL    HW1 1175   3.061   4.483   0.440
   92SOL    HW2 1176   3.107   4.363   0.541
   93SOL     OW 1177   2.581   4.338   6.063
   93SOL    HW1 1178   2.612   4.429   6.091
   93SOL    HW2 1179   2.525   4.345   5.981
   94SOL     OW 1180   2.600   5.799   6.274
   94SOL    HW1 1181   2.505   5.798   6.243
   94SOL    HW2 1182   2.632   5.704   6.285
   95SOL     OW 1183   0.614   2.324   3.418
   95SOL    HW1 1184   0.686   2.265   3.454
   95SOL    HW2 1185   0.622   2.330   3.319
   96SOL     OW 1186   2.849   0.011   5.819
   96SOL    HW1 1187   2.907   0.063   5.881
   96SOL    HW2 1188   2.904   6.962   5.767
   97SOL     OW 1189   0.288   4.173   5.493
   97SOL    HW1 1190   0.374   4.223   5.481
   97SOL    HW2 1191   0.308   4.078   5.513
   98SOL     OW 1192   6.441   3.684   0.047
   98SOL    HW1 1193   6.408   3.757   0.107
   98SOL    HW2 1194   6.538   3.698   0.027
   99SOL     OW 1195   4.539   4.097   1.364
   99SOL    HW1 1196   4.609   4.051   1.419
   99SOL    HW2 1197   4.451   4.053   1.379
  100SOL     OW 1198   0.511   6.706   5.957
  100SOL    HW1 1199   0.475   6.778   6.016
  100SOL    HW2 1200   0.598   6.673   5.994
  101SOL     OW 1201   0.874   6.089   2.227
  101SOL    HW1 1202   0.794   6.048   2.270
  101SOL    HW2 1203   0.902   6.169   2.280
  102SOL     OW 1204   4.931   1.132   2.260
  102SOL    HW1 1205   4.892   1.060   2.203
  102SOL    HW2 1206   4.952   1.212   2.204
  103SOL     OW 1207   4.284   1.407   2.150
  103SOL    HW1 1208   4.222   1.349   2.204
  103SOL    HW2 1209   4.232   1.480   2.107
  104SOL     OW 1210   0.405   5.651   2.559
  104SOL    HW1 1211   0.460   5.567   2.562
  104SOL    HW2 1212   0.440   5.710   2.486
  105SOL     OW 1213   6.589   1.676   6.585
  105SOL    HW1 1214   6.558   1.583   6.564
  105SOL    HW2 1215   6.535   1.713   6.660
  106SOL     OW 1216   3.124   0.018   5.819
  106SOL    HW1 1217   3.143   6.960   5.885
  106SOL    HW2 1218   3.125   6.996   5.727
  107SOL     OW 1219   1.793   2.385   1.724
  107SOL    HW1 1220   1.857   2.313   1.752
  107SOL    HW2 1221   1.723   2.396   1.794
  108SOL     OW 1222   4.656   4.559   6.588
  108SOL    HW1 1223   4.713   4.536   6.509
  108SOL    HW2 1224   4.707   4.620   6.648
  109SOL     OW 1225   0.549   0.567   1.360
  109SOL    HW1 1226   0.600   0.546   1.444
  109SOL    HW2 1227   0.613   0.595   1.289
  110SOL     OW 1228   4.191   6.527   5.666
  110SOL    HW1 1229   4.117   6.472   5.629
  110SOL    HW2 1230   4.153   6.602   5.720
  111SOL     OW 1231   3.783   0.699   4.822
  111SOL    HW1 1232   3.779   0.725   4.726
  111SOL    HW2 1233   3.863   0.741   4.865
  112SOL     OW 1234   6.407   6.410   6.262
  112SOL    HW1 1235   6.320   6.446   6.297
  112SOL    HW2 1236   6.391   6.320   6.222
  113SOL     OW 1237   6.775   5.325   3.528
  113SOL    HW1 1238   6.745   5.331   3.624
  113SOL    HW2 1239   6.844   5.395   3.510
  114SOL     OW 1240   1.055   6.997   0.778
  114SOL    HW1 1241   0.963   6.967   0.805
  114SOL    HW2 1242   1.063   6.994   0.678
  115SOL     OW 1243   4.558   1.013   4.204
  115SOL    HW1 1244   4.615   0.972   4.275
  115SOL    HW2 1245   4.520   1.100   4.237
  116SOL     OW 1246   6.231   5.319   2.182
  116SOL    HW1 1247   6.315   5.279   2.219
  116SOL    HW2 1248   6.237   5.325   2.082
  117SOL     OW 1249   0.590   1.382   6.531
  117SOL    HW1 1250   0.500   1.408   6.497
  117SOL    HW2 1251   0.653   1.372   6.455
  118SOL     OW 1252   0.221   1.964   2.093
  118SOL    HW1 1253   0.273   1.879   2.104
  118SOL    HW2 1254   0.239   2.003   2.003
  119SOL     OW 1255   0.861   2.218   6.579
  119SOL    HW1 1256   0.937   2.185   6.635
  119SOL    HW2 1257   0.870   2.316   6.564
  120SOL     OW 1258   0.045   6.410   0.528
  120SOL    HW1 1259   0.132   6.370   0.557
  120SOL    HW2 1260   0.029   6.495   0.579
  121SOL     OW 1261   2.672   3.176   0.071
  121SOL    HW1 1262   2.636   3.176   6.993
  121SOL    HW2 1263   2.742   3.247   0.079
  122SOL     OW 1264   1.632   4.515   6.000
  122SOL    HW1 1265   1.585   4.440   6.047
  122SOL    HW2 1266   1.673   4.481   5.916
  123SOL     OW 1267   0.405   1.816   1.625
  123SOL    HW1 1268   0.331   1.788   1.563
  123SOL    HW2 1269   0.388   1.779   1.716
  124SOL     OW 1270   5.575   3.399   0.167
  124SOL    HW1 1271   5.532   3.472   0.114
  124SOL    HW2 1272   5.554   3.410   0.264
  125SOL     OW 1273   2.364   1.484   2.084
  125SOL    HW1 1274   2.453   1.519   2.113
  125SOL    HW2 1275   2.293   1.549   2.112
  126SOL     OW 1276   2.921   4.728   0.738
  126SOL    HW1 1277   2.876   4.661   0.796
  126SOL    HW2 1278   2.863   4.808   0.727
  127SOL     OW 1279   6.993   4.762   6.152
  127SOL    HW1 1280   0.018   4.675   6.126
  127SOL    HW2 1281   0.036   4.809   6.218
  128SOL     OW 1282   4.484   2.713   1.318
  128SOL    HW1 1283   4.426   2.776   1.267
  128SOL    HW2 1284   4.434   2.630   1.339
  129SOL     OW 1285   5.026   3.777   5.508
  129SOL    HW1 1286   5.058   3.866   5.474
  129SOL    HW2 1287   4.949   3.746   5.453
  130SOL     OW 1288   0.598   1.052   4.330
  130SOL    HW1 1289   0.578   1.103   4.414
  130SOL    HW2 1290   0.596   0.954   4.349
  131SOL     OW 1291   5.161   1.140   2.418
  131SOL    HW1 1292   5.079   1.158   2.364
  131SOL    HW2 1293   5.151   1.182   2.508
  132SOL     OW 1294   1.925   3.005   0.901
  132SOL    HW1 1295   1.966   3.037   0.986
  132SOL    HW2 1296   1.859   2.932   0.921
  133SOL     OW 1297   5.451   6.817   3.133
  133SOL    HW1 1298   5.464   6.719   3.145
  133SOL    HW2 1299   5.371   6.833   3.075
  134SOL     OW 1300   5.677   2.282   3.220
  134SOL    HW1 1301   5.768   2.258   3.187
  134SOL    HW2 1302   5.679   2.292   3.320
  135SOL     OW 1303   5.096   2.988   2.316
  135SOL    HW1 1304   5.055   2.985   2.224
  135SOL    HW2 1305   5.165   2.916   2.324
  136SOL     OW 1306   4.153   3.674   6.789
  136SOL    HW1 1307   4.147   3.576   6.811
  136SOL    HW2 1308   4.130   3.728   6.870
  137SOL     OW 1309   4.360   0.391   5.298
  137SOL    HW1 1310   4.310   0.475   5.318
  137SOL    HW2 1311   4.387   0.347   5.383
  138SOL     OW 1312   0.325   5.012   4.101
  138SOL    HW1 1313   0.234   5.031   4.139
  138SOL    HW2 1314   0.376   4.955   4.165
  139SOL     OW 1315   2.186   6.193   4.913
  139SOL    HW1 1316   2.244   6.229   4.986
  139SOL    HW2 1317   2.236   6.122   4.863
  140SOL     OW 1318   6.958   6.183   3.473
  140SOL    HW1 1319   6.943   6.133   3.558
  140SOL    HW2 1320   6.984   6.119   3.400
  141SOL     OW 1321   7.012   2.279   5.339
  141SOL    HW1 1322   0.089   2.250   5.360
  141SOL    HW2 1323   6.989   2.252   5.245
  142SOL     OW 1324   1.501   5.798   0.735
  142SOL    HW1 1325   1.509   5.770   0.640
  142SOL    HW2 1326   1.585   5.846   0.763
  143SOL     OW 1327   5.401   4.630   2.144
  143SOL    HW1 1328   5.321   4.571   2.155
  143SOL    HW2 1329   5.483   4.573   2.133
  144SOL     OW 1330   1.735   6.863   6.143
  144SOL    HW1 1331   1.821   6.880   6.191
  144SOL    HW2 1332   1.667   6.827   6.208
  145SOL     OW 1333   0.654   4.716   0.730
  145SOL    HW1 1334   0.663   4.618   0.710
  145SOL    HW2 1335   0.558   4.743   0.721
  146SOL     OW 1336   4.847   6.824   5.945
  146SOL    HW1 1337   4.937   6.780   5.941
  146SOL    HW2 1338   4.821   6.838   6.040
  147SOL     OW 1339   6.273   2.735   6.916
  147SOL    HW1 1340   6.315   2.735   7.006
  147SOL    HW2 1341   6.301   2.653   6.866
  148SOL     OW 1342   0.648   5.111   6.410
  148SOL    HW1 1343   0.580   5.083   6.477
  148SOL    HW2 1344   0.607   5.175   6.345
  149SOL     OW 1345   2.932   1.502   4.112
  149SOL    HW1 1346   2.896   1.451   4.189
  149SOL    HW2 1347   2.928   1.600   4.132
  150SOL     OW 1348   5.934   4.818   6.284
  150SOL    HW1 1349   5.991   4.788   6.208
  150SOL    HW2 1350   5.972   4.902   6.322
  151SOL     OW 1351   3.485   1.822   1.329
  151SOL    HW1 1352   3.518   1.731   1.355
  151SOL    HW2 1353   3.387   1.819   1.312
  152SOL     OW 1354   1.812   1.379   4.385
  152SOL    HW1 1355   1.756   1.296   4.384
  152SOL    HW2 1356   1.909   1.354   4.394
  153SOL     OW 1357   2.544   0.145   1.869
  153SOL    HW1 1358   2.567   0.231   1.823
  153SOL    HW2 1359   2.619   0.118   1.930
  154SOL     OW 1360   0.252   3.311   2.732
  154SOL    HW1 1361   0.226   3.294   2.827
  154SOL    HW2 1362   0.206   3.394   2.699
  155SOL     OW 1363   0.751   1.549   3.277
  155SOL    HW1 1364   0.802   1.579   3.358
  155SOL    HW2 1365   0.663   1.595   3.273
  156SOL     OW 1366   6.622   1.990   1.486
  156SOL    HW1 1367   6.577   2.080   1.484
  156SOL    HW2 1368   6.715   2.001   1.522
  157SOL     OW 1369   5.941   3.577   2.343
  157SOL    HW1 1370   6.013   3.646   2.339
  157SOL    HW2 1371   5.852   3.622   2.335
  158SOL     OW 1372   2.343   6.944   2.195
  158SOL    HW1 1373   2.377   6.858   2.157
  158SOL    HW2 1374   2.414   7.014   2.190
  159SOL     OW 1375   4.710   4.648   0.996
  159SOL    HW1 1376   4.738   4.612   0.907
  159SOL    HW2 1377   4.694   4.572   1.059
  160SOL     OW 1378   0.315   4.622   6.281
  160SOL    HW1 1379   0.269   4.623   6.369
  160SOL    HW2 1380   0.362   4.709   6.267
  161SOL     OW 1381   1.729   4.852   4.637
  161SOL    HW1 1382   1.694   4.857   4.731
  161SOL    HW2 1383   1.814   4.904   4.630
  162SOL     OW 1384   4.155   6.323   0.102
  162SOL    HW1 1385   4.062   6.356   0.122
  162SOL    HW2 1386   4.220   6.369   0.162
  163SOL     OW 1387   4.953   5.846   1.533
  163SOL    HW1 1388   4.944   5.751   1.505
  163SOL    HW2 1389   4.975   5.903   1.454
  164SOL     OW 1390   0.006   3.855   1.720
  164SOL    HW1 1391   6.941   3.879   1.665
  164SOL    HW2 1392   7.006   3.879   1.815
  165SOL     OW 1393   5.520   2.775   1.041
  165SOL    HW1 1394   5.498   2.760   1.137
  165SOL    HW2 1395   5.453   2.838   1.001
  166SOL     OW 1396   0.116   5.090   3.548
  166SOL    HW1 1397   0.039   5.098   3.612
  166SOL    HW2 1398   0.193   5.047   3.594
  167SOL     OW 1399   6.181   1.738   0.352
  167SOL    HW1 1400   6.127   1.821   0.365
  167SOL    HW2 1401   6.142   1.663   0.405
  168SOL     OW 1402   3.168   3.123   1.178
  168SOL    HW1 1403   3.266   3.113   1.194
  168SOL    HW2 1404   3.132   3.196   1.237
  169SOL     OW 1405   3.561   0.251   2.285
  169SOL    HW1 1406   3.628   0.180   2.267
  169SOL    HW2 1407   3.608   0.337   2.305
  170SOL     OW 1408   0.429   1.990   3.397
  170SOL    HW1 1409   0.451   1.962   3.304
  170SOL    HW2 1410   0.445   1.913   3.459
  171SOL     OW 1411   3.864   4.084   0.349
  171SOL    HW1 1412   3.879   4.045   0.259
  171SOL    HW2 1413   3.805   4.024   0.402
  172SOL     OW 1414   5.958   1.464   4.634
  172SOL    HW1 1415   6.056   1.473   4.618
  172SOL    HW2 1416   5.937   1.483   4.730
  173SOL     OW 1417   6.323   0.942   4.751
  173SOL    HW1 1418   6.223   0.941   4.753
  173SOL    HW2 1419   6.354   0.979   4.663
  174SOL     OW 1420   2.673   5.547   3.983
  174SOL    HW1 1421   2.672   5.447   3.976
  174SOL    HW2 1422   2.633   5.587   3.901
  175SOL     OW 1423   1.909   6.761   2.056
  175SOL    HW1 1424   1.951   6.683   2.011
  175SOL    HW2 1425   1.817   6.737   2.087
  176SOL     OW 1426   1.948   4.122   0.354
  176SOL    HW1 1427   1.975   4.050   0.289
  176SOL    HW2 1428   1.848   4.123   0.361
  177SOL     OW 1429   5.532   2.822   2.829
  177SOL    HW1 1430   5.509   2.884   2.754
  177SOL    HW2 1431   5.629   2.800   2.825
  178SOL     OW 1432   4.923   3.516   5.688
  178SOL    HW1 1433   5.005   3.477   5.728
  178SOL    HW2 1434   4.948   3.589   5.624
  179SOL     OW 1435   3.359   1.905   6.325
  179SOL    HW1 1436   3.455   1.884   6.343
  179SOL    HW2 1437   3.301   1.831   6.361
  180SOL     OW 1438   1.239   0.793   6.519
  180SOL    HW1 1439   1.275   0.732   6.449
  180SOL    HW2 1440   1.143   0.770   6.537
  181SOL     OW 1441   3.445   1.384   6.818
  181SOL    HW1 1442   3.354   1.422   6.837
  181SOL    HW2 1443   3.494   1.444   6.755
  182SOL     OW 1444   3.955   2.140   4.765
  182SOL    HW1 1445   3.863   2.105   4.782
  182SOL    HW2 1446   3.994   2.176   4.849
  183SOL     OW 1447   3.330   1.100   3.815
  183SOL    HW1 1448   3.366   1.044   3.741
  183SOL    HW2 1449   3.399   1.168   3.842
  184SOL     OW 1450   1.558   5.538   3.618
  184SOL    HW1 1451   1.584   5.634   3.616
  184SOL    HW2 1452   1.624   5.486   3.672
  185SOL     OW 1453   1.243   2.785   6.395
  185SOL    HW1 1454   1.249   2.685   6.389
  185SOL    HW2 1455   1.193   2.811   6.477
  186SOL     OW 1456   6.424   1.121   3.726
  186SOL    HW1 1457   6.341   1.082   3.765
  186SOL    HW2 1458   6.501   1.105   3.788
  187SOL     OW 1459   4.931   1.145   3.107
  187SOL    HW1 1460   4.921   1.082   3.184
  187SOL    HW2 1461   5.013   1.201   3.119
  188SOL     OW 1462   5.944   2.208   3.077
  188SOL    HW1 1463   6.035   2.247   3.063
  188SOL    HW2 1464   5.952   2.126   3.133
  189SOL     OW 1465   1.822   5.437   2.896
  189SOL    HW1 1466   1.784   5.398   2.812
  189SOL    HW2 1467   1.762   5.510   2.929
  190SOL     OW 1468   3.890   1.402   4.964
  190SOL    HW1 1469   3.889   1.364   5.056
  190SOL    HW2 1470   3.797   1.400   4.926
  191SOL     OW 1471   5.685   5.607   6.140
  191SOL    HW1 1472   5.759   5.648   6.194
  191SOL    HW2 1473   5.598   5.625   6.184
  192SOL     OW 1474   0.221   6.137   2.117
  192SOL    HW1 1475   0.145   6.152   2.179
  192SOL    HW2 1476   0.211   6.048   2.072
  193SOL     OW 1477   5.005   2.831   5.819
  193SOL    HW1 1478   4.911   2.800   5.800
  193SOL    HW2 1479   5.003   2.897   5.894
  194SOL     OW 1480   3.595   0.831   3.012
  194SOL    HW1 1481   3.596   0.861   3.108
  194SOL    HW2 1482   3.571   0.734   3.009
  195SOL     OW 1483   1.930   5.776   3.795
  195SOL    HW1 1484   1.977   5.819   3.717
  195SOL    HW2 1485   1.913   5.845   3.865
  196SOL     OW 1486   2.308   2.605   6.746
  196SOL    HW1 1487   2.219   2.627   6.708
  196SOL    HW2 1488   2.347   2.526   6.698
  197SOL     OW 1489   2.690   1.421   0.858
  197SOL    HW1 1490   2.672   1.491   0.927
  197SOL    HW2 1491   2.604   1.392   0.816
  198SOL     OW 1492   4.194   1.414   3.165
  198SOL    HW1 1493   4.206   1.355   3.245
  198SOL    HW2 1494   4.144   1.365   3.094
  199SOL     OW 1495   1.231   2.749   3.976
  199SOL    HW1 1496   1.175   2.793   3.907
  199SOL    HW2 1497   1.323   2.734   3.940
  200SOL     OW 1498   0.433   2.839   1.084
  200SOL    HW1 1499   0.527   2.867   1.065
  200SOL    HW2 1500   0.383   2.914   1.128
  201SOL     OW 1501   0.487   6.911   5.585
  201SOL    HW1 1502   0.586   6.924   5.595
  201SOL    HW2 1503   0.439   6.969   5.650
  202SOL     OW 1504   4.218   1.077   6.572
  202SOL    HW1 1505   4.249   1.082   6.667
  202SOL    HW2 1506   4.129   1.123   6.563
  203SOL     OW 1507   5.926   2.169   5.697
  203SOL    HW1 1508   5.899   2.089   5.752
  203SOL    HW2 1509   5.884   2.163   5.607
  204SOL     OW 1510   0.509   0.116   5.236
  204SOL    HW1 1511   0.609   0.119   5.244
  204SOL    HW2 1512   0.484   0.078   5.147
  205SOL     OW 1513   1.878   2.305   3.081
  205SOL    HW1 1514   1.903   2.269   2.991
  205SOL    HW2 1515   1.791   2.352   3.075
  206SOL     OW 1516   0.902   2.902   1.566
  206SOL    HW1 1517   0.970   2.955   1.617
  206SOL    HW2 1518   0.934   2.887   1.473
  207SOL     OW 1519   5.214   1.300   3.106
  207SOL    HW1 1520   5.288   1.269   3.164
  207SOL    HW2 1521   5.213   1.400   3.104
  208SOL     OW 1522   0.027   4.655   5.463
  208SOL    HW1 1523   0.024   4.586   5.536
  208SOL    HW2 1524   7.009   4.615   5.378
  209SOL     OW 1525   6.569   4.482   2.973
  209SOL    HW1 1526   6.585   4.450   2.880
  209SOL    HW2 1527   6.574   4.581   2.976
  210SOL     OW 1528   4.218   1.583   0.642
  210SOL    HW1 1529   4.143   1.634   0.685
  210SOL    HW2 1530   4.303   1.635   0.650
  211SOL     OW 1531   0.713   0.063   2.393
  211SOL    HW1 1532   0.635   0.080   2.333
  211SOL    HW2 1533   0.747   0.150   2.430
  212SOL     OW 1534   1.501   3.829   2.763
  212SOL    HW1 1535   1.557   3.800   2.685
  212SOL    HW2 1536   1.553   3.814   2.848
  213SOL     OW 1537   1.884   5.565   1.043
  213SOL    HW1 1538   1.839   5.529   1.125
  213SOL    HW2 1539   1.846   5.520   0.962
  214SOL     OW 1540   3.961   4.877   2.380
  214SOL    HW1 1541   4.026   4.824   2.326
  214SOL    HW2 1542   3.871   4.873   2.337
  215SOL     OW 1543   2.191   4.000   0.997
  215SOL    HW1 1544   2.199   4.099   0.988
  215SOL    HW2 1545   2.261   3.967   1.062
  216SOL     OW 1546   0.783   6.855   2.869
  216SOL    HW1 1547   0.733   6.772   2.894
  216SOL    HW2 1548   0.763   6.878   2.774
  217SOL     OW 1549   1.180   2.430   5.187
  217SOL    HW1 1550   1.180   2.372   5.268
  217SOL    HW2 1551   1.154   2.523   5.212
  218SOL     OW 1552   0.787   2.074   4.811
  218SOL    HW1 1553   0.753   2.160   4.772
  218SOL    HW2 1554   0.831   2.093   4.899
  219SOL     OW 1555   4.499   0.378   0.426
  219SOL    HW1 1556   4.408   0.412   0.451
  219SOL    HW2 1557   4.550   0.452   0.381
  220SOL     OW 1558   2.587   0.031   1.081
  220SOL    HW1 1559   2.573   6.951   1.055
  220SOL    HW2 1560   2.548   0.046   1.172
  221SOL     OW 1561   6.371   4.389   1.530
  221SOL    HW1 1562   6.307   4.457   1.494
  221SOL    HW2 1563   6.463   4.409   1.498
  222SOL     OW 1564   1.557   4.419   6.381
  222SOL    HW1 1565   1.641   4.365   6.391
  222SOL    HW2 1566   1.509   4.421   6.469
  223SOL     OW 1567   6.757   2.825   5.009
  223SOL    HW1 1568   6.751   2.797   5.105
  223SOL    HW2 1569   6.753   2.925   5.003
  224SOL     OW 1570   3.755   1.903   6.662
  224SOL    HW1 1571   3.764   1.805   6.680
  224SOL    HW2 1572   3.701   1.916   6.579
  225SOL     OW 1573   4.434   3.667   6.189
  225SOL    HW1 1574   4.346   3.677   6.142
  225SOL    HW2 1575   4.463   3.755   6.225
  226SOL     OW 1576   0.719   1.705   6.227
  226SOL    HW1 1577   0.720   1.761   6.310
  226SOL    HW2 1578   0.653   1.742   6.162
  227SOL     OW 1579   2.368   4.419   2.691
  227SOL    HW1 1580   2.442   4.479   2.662
  227SOL    HW2 1581   2.285   4.474   2.705
  228SOL     OW 1582   1.911   0.773   2.996
  228SOL    HW1 1583   1.972   0.733   2.927
  228SOL    HW2 1584   1.877   0.700   3.055
  229SOL     OW 1585   5.278   4.946   6.436
  229SOL    HW1 1586   5.244   4.996   6.516
  229SOL    HW2 1587   5.374   4.969   6.420
  230SOL     OW 1588   4.368   6.058   4.565
  230SOL    HW1 1589   4.417   5.973   4.548
  230SOL    HW2 1590   4.293   6.041   4.629
  231SOL     OW 1591   5.893   1.055   6.685
  231SOL    HW1 1592   5.794   1.069   6.679
  231SOL    HW2 1593   5.938   1.143   6.699
  232SOL     OW 1594   6.786   2.974   6.408
  232SOL    HW1 1595   6.704   2.918   6.422
  232SOL    HW2 1596   6.829   2.993   6.497
  233SOL     OW 1597   3.565   1.886   3.686
  233SOL    HW1 1598   3.526   1.944   3.758
  233SOL    HW2 1599   3.545   1.790   3.707
  234SOL     OW 1600   6.677   0.647   6.089
  234SOL    HW1 1601   6.680   0.647   6.189
  234SOL    HW2 1602   6.616   0.574   6.057
  235SOL     OW 1603   5.325   3.406   2.646
  235SOL    HW1 1604   5.314   3.307   2.637
  235SOL    HW2 1605   5.401   3.436   2.588
  236SOL     OW 1606   5.386   3.189   0.117
  236SOL    HW1 1607   5.432   3.109   0.079
  236SOL    HW2 1608   5.451   3.263   0.130
  237SOL     OW 1609   0.241   4.351   2.330
  237SOL    HW1 1610   0.225   4.383   2.236
  237SOL    HW2 1611   0.154   4.329   2.373
  238SOL     OW 1612   6.797   1.245   0.806
  238SOL    HW1 1613   6.754   1.185   0.738
  238SOL    HW2 1614   6.758   1.226   0.896
  239SOL     OW 1615   1.161   3.853   0.049
  239SOL    HW1 1616   1.163   3.932   7.004
  239SOL    HW2 1617   1.253   3.836   0.086
  240SOL     OW 1618   0.076   3.113   3.466
  240SOL    HW1 1619   7.003   3.129   3.510
  240SOL    HW2 1620   0.080   3.019   3.432
  241SOL     OW 1621   2.570   2.597   4.398
  241SOL    HW1 1622   2.474   2.623   4.389
  241SOL    HW2 1623   2.585   2.560   4.489
  242SOL     OW 1624   3.706   3.713   3.419
  242SOL    HW1 1625   3.696   3.795   3.477
  242SOL    HW2 1626   3.738   3.741   3.329
  243SOL     OW 1627   4.650   1.663   0.062
  243SOL    HW1 1628   4.637   1.566   0.084
  243SOL    HW2 1629   4.685   1.711   0.142
  244SOL     OW 1630   6.111   3.554   5.924
  244SOL    HW1 1631   6.151   3.600   5.845
  244SOL    HW2 1632   6.011   3.561   5.920
  245SOL     OW 1633   4.400   1.627   4.254
  245SOL    HW1 1634   4.334   1.691   4.213
  245SOL    HW2 1635   4.351   1.555   4.303
  246SOL     OW 1636   5.034   1.769   3.294
  246SOL    HW1 1637   4.981   1.809   3.219
  246SOL    HW2 1638   5.110   1.830   3.318
  247SOL     OW 1639   2.759   1.475   1.304
  247SOL    HW1 1640   2.668   1.514   1.292
  247SOL    HW2 1641   2.828   1.541   1.272
  248SOL     OW 1642   2.245   1.270   2.746
  248SOL    HW1 1643   2.238   1.173   2.768
  248SOL    HW2 1644   2.182   1.322   2.804
  249SOL     OW 1645   5.318   6.793   5.204
  249SOL    HW1 1646   5.222   6.788   5.176
  249SOL    HW2 1647   5.341   6.888   5.225
  250SOL     OW 1648   3.833   3.648   0.660
  250SOL    HW1 1649   3.774   3.590   0.604
  250SOL    HW2 1650   3.861   3.598   0.742
  251SOL     OW 1651   4.632   3.348   5.303
  251SOL    HW1 1652   4.620   3.371   5.400
  251SOL    HW2 1653   4.628   3.431   5.248
  252SOL     OW 1654   6.245   6.874   5.368
  252SOL    HW1 1655   6.319   6.927   5.329
  252SOL    HW2 1656   6.160   6.892   5.317
  253SOL     OW 1657   3.838   4.729   6.238
  253SOL    HW1 1658   3.831   4.804   6.173
  253SOL    HW2 1659   3.924   4.738   6.289
  254SOL     OW 1660   6.871   2.343   3.584
  254SOL    HW1 1661   6.839   2.283   3.658
  254SOL    HW2 1662   6.832   2.312   3.497
  255SOL     OW 1663   1.848   4.311   5.958
  255SOL    HW1 1664   1.772   4.255   5.925
  255SOL    HW2 1665   1.893   4.356   5.881
  256SOL     OW 1666   5.587   3.183   6.284
  256SOL    HW1 1667   5.488   3.169   6.289
  256SOL    HW2 1668   5.613   3.255   6.349
  257SOL     OW 1669   5.314   0.145   2.867
  257SOL    HW1 1670   5.311   0.190   2.956
  257SOL    HW2 1671   5.233   0.089   2.855
  258SOL     OW 1672   2.281   3.838   5.391
  258SOL    HW1 1673   2.356   3.784   5.428
  258SOL    HW2 1674   2.303   3.867   5.297
  259SOL     OW 1675   5.933   1.168   2.056
  259SOL    HW1 1676   5.923   1.159   2.155
  259SOL    HW2 1677   6.016   1.220   2.036
  260SOL     OW 1678   3.940   5.825   3.431
  260SOL    HW1 1679   3.999   5.762   3.481
  260SOL    HW2 1680   3.971   5.833   3.337
  261SOL     OW 1681   5.365   4.121   1.590
  261SOL    HW1 1682   5.321   4.109   1.679
  261SOL    HW2 1683   5.343   4.043   1.532
  262SOL     OW 1684   1.429   4.032   0.431
  262SOL    HW1 1685   1.378   4.117   0.445
  262SOL    HW2 1686   1.494   4.020   0.506
  263SOL     OW 1687   1.303   0.729   4.370
  263SOL    HW1 1688   1.326   0.821   4.340
  263SOL    HW2 1689   1.341   0.663   4.305
  264SOL     OW 1690   6.686   2.696   0.400
  264SOL    HW1 1691   6.782   2.718   0.383
  264SOL    HW2 1692   6.637   2.778   0.430
  265SOL     OW 1693   6.020   6.403   2.635
  265SOL    HW1 1694   6.016   6.405   2.536
  265SOL    HW2 1695   5.930   6.381   2.672
  266SOL     OW 1696   4.541   2.944   5.802
  266SOL    HW1 1697   4.607   2.944   5.876
  266SOL    HW2 1698   4.448   2.940   5.840
  267SOL     OW 1699   0.890   1.724   5.703
  267SOL    HW1 1700   0.939   1.763   5.782
  267SOL    HW2 1701   0.838   1.644   5.733
  268SOL     OW 1702   2.659   1.124   6.448
  268SOL    HW1 1703   2.576   1.113   6.504
  268SOL    HW2 1704   2.642   1.191   6.375
  269SOL     OW 1705   2.203   3.307   0.579
  269SOL    HW1 1706   2.235   3.258   0.660
  269SOL    HW2 1707   2.232   3.258   0.497
  270SOL     OW 1708   0.806   6.163   0.445
  270SOL    HW1 1709   0.729   6.129   0.391
  270SOL    HW2 1710   0.795   6.134   0.540
  271SOL     OW 1711   0.523   1.731   6.573
  271SOL    HW1 1712   0.532   1.737   6.672
  271SOL    HW2 1713   0.606   1.763   6.529
  272SOL     OW 1714   3.427   6.847   3.608
  272SOL    HW1 1715   3.526   6.851   3.598
  272SOL    HW2 1716   3.386   6.919   3.552
  273SOL     OW 1717   1.920   4.666   4.967
  273SOL    HW1 1718   1.957   4.601   5.034
  273SOL    HW2 1719   1.978   4.666   4.885
  274SOL     OW 1720   3.489   1.574   3.293
  274SOL    HW1 1721   3.402   1.530   3.314
  274SOL    HW2 1722   3.545   1.513   3.237
  275SOL     OW 1723   6.372   6.056   2.330
  275SOL    HW1 1724   6.424   6.127   2.282
  275SOL    HW2 1725   6.345   5.986   2.264
  276SOL     OW 1726   0.196   6.670   3.641
  276SOL    HW1 1727   0.133   6.630   3.708
  276SOL    HW2 1728   0.282   6.619   3.641
  277SOL     OW 1729   1.910   3.889   0.007
  277SOL    HW1 1730   1.923   3.856   0.100
  277SOL    HW2 1731   1.944   3.983   7.014
  278SOL     OW 1732   0.142   3.371   2.385
  278SOL    HW1 1733   0.236   3.354   2.355
  278SOL    HW2 1734   0.143   3.406   2.478
  279SOL     OW 1735   5.801   2.889   4.644
  279SOL    HW1 1736   5.719   2.922   4.691
  279SOL    HW2 1737   5.825   2.799   4.679
  280SOL     OW 1738   3.143   5.641   1.758
  280SOL    HW1 1739   3.159   5.709   1.687
  280SOL    HW2 1740   3.144   5.686   1.848
  281SOL     OW 1741   1.956   4.441   1.885
  281SOL    HW1 1742   2.008   4.499   1.948
  281SOL    HW2 1743   1.883   4.395   1.935
  282SOL     OW 1744   2.955   1.274   5.551
  282SOL    HW1 1745   2.975   1.355   5.498
  282SOL    HW2 1746   2.856   1.255   5.547
  283SOL     OW 1747   5.958   2.702   6.544
  283SOL    HW1 1748   5.860   2.684   6.533
  283SOL    HW2 1749   6.009   2.617   6.530
  284SOL     OW 1750   1.654   3.478   4.186
  284SOL    HW1 1751   1.625   3.448   4.277
  284SOL    HW2 1752   1.693   3.570   4.193
  285SOL     OW 1753   5.344   5.104   4.280
  285SOL    HW1 1754   5.330   5.043   4.358
  285SOL    HW2 1755   5.258   5.117   4.231
  286SOL     OW 1756   3.449   4.274   6.839
  286SOL    HW1 1757   3.360   4.255   6.880
  286SOL    HW2 1758   3.437   4.296   6.742
  287SOL     OW 1759   1.437   2.381   1.049
  287SOL    HW1 1760   1.473   2.422   1.133
  287SOL    HW2 1761   1.512   2.339   0.997
  288SOL     OW 1762   3.619   1.590   6.379
  288SOL    HW1 1763   3.688   1.518   6.384
  288SOL    HW2 1764   3.568   1.582   6.293
  289SOL     OW 1765   1.800   3.996   5.424
  289SOL    HW1 1766   1.759   4.055   5.493
  289SOL    HW2 1767   1.768   3.902   5.436
  290SOL     OW 1768   6.381   1.711   4.822
  290SOL    HW1 1769   6.392   1.621   4.864
  290SOL    HW2 1770   6.463   1.732   4.769
  291SOL     OW 1771   0.635   1.743   3.783
  291SOL    HW1 1772   0.580   1.679   3.838
  291SOL    HW2 1773   0.638   1.832   3.828
  292SOL     OW 1774   1.388   0.983   3.088
  292SOL    HW1 1775   1.317   1.021   3.147
  292SOL    HW2 1776   1.408   1.047   3.013
  293SOL     OW 1777   4.490   6.316   3.079
  293SOL    HW1 1778   4.472   6.413   3.093
  293SOL    HW2 1779   4.404   6.265   3.083
  294SOL     OW 1780   5.995   6.246   0.165
  294SOL    HW1 1781   5.965   6.202   0.081
  294SOL    HW2 1782   6.004   6.177   0.237
  295SOL     OW 1783   3.559   0.597   2.922
  295SOL    HW1 1784   3.635   0.627   2.865
  295SOL    HW2 1785   3.518   0.515   2.882
  296SOL     OW 1786   3.644   1.388   3.116
  296SOL    HW1 1787   3.661   1.384   3.017
  296SOL    HW2 1788   3.668   1.300   3.156
  297SOL     OW 1789   2.314   4.550   3.610
  297SOL    HW1 1790   2.310   4.495   3.527
  297SOL    HW2 1791   2.311   4.490   3.690
  298SOL     OW 1792   5.313   5.809   1.160
  298SOL    HW1 1793   5.328   5.756   1.076
  298SOL    HW2 1794   5.380   5.883   1.165
  299SOL     OW 1795   5.868   2.827   5.026
  299SOL    HW1 1796   5.833   2.815   5.119
  299SOL    HW2 1797   5.945   2.765   5.011
  300SOL     OW 1798   6.460   0.725   3.054
  300SOL    HW1 1799   6.542   0.676   3.082
  300SOL    HW2 1800   6.380   0.681   3.093
  301SOL     OW 1801   5.313   3.761   6.803
  301SOL    HW1 1802   5.339   3.725   6.893
  301SOL    HW2 1803   5.394   3.795   6.756
  302SOL     OW 1804   0.748   0.400   3.662
  302SOL    HW1 1805   0.706   0.377   3.750
  302SOL    HW2 1806   0.809   0.478   3.673
  303SOL     OW 1807   5.137   0.895   2.256
  303SOL    HW1 1808   5.163   0.821   2.319
  303SOL    HW2 1809   5.159   0.983   2.298
  304SOL     OW 1810   1.978   0.245   3.051
  304SOL    HW1 1811   1.898   0.188   3.069
  304SOL    HW2 1812   2.033   0.203   2.979
  305SOL     OW 1813   0.938   3.579   6.891
  305SOL    HW1 1814   1.027   3.547   6.924
  305SOL    HW2 1815   0.885   3.614   6.968
  306SOL     OW 1816   1.753   1.181   3.997
  306SOL    HW1 1817   1.843   1.159   4.033
  306SOL    HW2 1818   1.712   1.098   3.958
  307SOL     OW 1819   4.891   0.454   1.003
  307SOL    HW1 1820   4.927   0.431   1.094
  307SOL    HW2 1821   4.834   0.380   0.970
  308SOL     OW 1822   0.506   5.733   3.323
  308SOL    HW1 1823   0.556   5.811   3.362
  308SOL    HW2 1824   0.555   5.699   3.243
  309SOL     OW 1825   3.740   4.325   5.298
  309SOL    HW1 1826   3.752   4.423   5.310
  309SOL    HW2 1827   3.687   4.307   5.215
  310SOL     OW 1828   6.861   6.354   5.887
  310SOL    HW1 1829   6.908   6.434   5.924
  310SOL    HW2 1830   6.824   6.300   5.962
  311SOL     OW 1831   6.419   5.615   1.796
  311SOL    HW1 1832   6.495   5.555   1.772
  311SOL    HW2 1833   6.434   5.652   1.888
  312SOL     OW 1834   4.770   1.565   4.782
  312SOL    HW1 1835   4.757   1.476   4.739
  312SOL    HW2 1836   4.725   1.565   4.872
  313SOL     OW 1837   2.346   4.249   1.601
  313SOL    HW1 1838   2.265   4.307   1.602
  313SOL    HW2 1839   2.370   4.224   1.695
  314SOL     OW 1840   3.410   5.313   0.499
  314SOL    HW1 1841   3.465   5.286   0.577
  314SOL    HW2 1842   3.345   5.384   0.527
  315SOL     OW 1843   0.590   2.674   3.452
  315SOL    HW1 1844   0.518   2.714   3.396
  315SOL    HW2 1845   0.586   2.574   3.445
  316SOL     OW 1846   2.353   2.771   4.052
  316SOL    HW1 1847   2.364   2.772   4.151
  316SOL    HW2 1848   2.296   2.849   4.024
  317SOL     OW 1849   0.497   1.201   0.060
  317SOL    HW1 1850   0.565   1.200   0.132
  317SOL    HW2 1851   0.473   1.295   0.037
  318SOL     OW 1852   1.315   4.625   0.820
  318SOL    HW1 1853   1.222   4.605   0.851
  318SOL    HW2 1854   1.381   4.581   0.881
  319SOL     OW 1855   1.011   6.805   1.595
  319SOL    HW1 1856   0.929   6.860   1.611
  319SOL    HW2 1857   0.985   6.718   1.551
  320SOL     OW 1858   6.373   2.773   0.319
  320SOL    HW1 1859   6.431   2.767   0.238
  320SOL    HW2 1860   6.421   2.734   0.397
  321SOL     OW 1861   1.790   2.108   2.057
  321SOL    HW1 1862   1.737   2.067   2.130
  321SOL    HW2 1863   1.753   2.080   1.968
  322SOL     OW 1864   3.837   3.092   4.556
  322SOL    HW1 1865   3.740   3.068   4.549
  322SOL    HW2 1866   3.854   3.135   4.645
  323SOL     OW 1867   0.448   4.166   0.684
  323SOL    HW1 1868   0.449   4.243   0.619
  323SOL    HW2 1869   0.426   4.200   0.775
  324SOL     OW 1870   1.035   3.165   4.378
  324SOL    HW1 1871   0.936   3.169   4.395
  324SOL    HW2 1872   1.084   3.160   4.464
  325SOL     OW 1873   1.892   3.290   1.187
  325SOL    HW1 1874   1.879   3.367   1.125
  325SOL    HW2 1875   1.892   3.205   1.135
  326SOL     OW 1876   1.858   6.265   6.972
  326SOL    HW1 1877   1.922   6.196   7.005
  326SOL    HW2 1878   1.839   6.249   6.875
  327SOL     OW 1879   0.457   4.882   4.278
  327SOL    HW1 1880   0.514   4.950   4.323
  327SOL    HW2 1881   0.381   4.856   4.338
  328SOL     OW 1882   4.017   5.134   2.476
  328SOL    HW1 1883   3.940   5.070   2.467
  328SOL    HW2 1884   4.100   5.091   2.439
  329SOL     OW 1885   2.937   3.779   3.359
  329SOL    HW1 1886   3.006   3.819   3.299
  329SOL    HW2 1887   2.895   3.700   3.314
  330SOL     OW 1888   3.682   6.584   1.629
  330SOL    HW1 1889   3.746   6.517   1.666
  330SOL    HW2 1890   3.657   6.650   1.700
  331SOL     OW 1891   4.339   5.367   6.098
  331SOL    HW1 1892   4.359   5.464   6.088
  331SOL    HW2 1893   4.287   5.352   6.182
  332SOL     OW 1894   3.455   1.623   3.679
  332SOL    HW1 1895   3.475   1.589   3.771
  332SOL    HW2 1896   3.375   1.575   3.643
  333SOL     OW 1897   4.176   6.778   6.129
  333SOL    HW1 1898   4.256   6.732   6.092
  333SOL    HW2 1899   4.191   6.799   6.226
  334SOL     OW 1900   3.440   6.872   2.112
  334SOL    HW1 1901   3.363   6.902   2.055
  334SOL    HW2 1902   3.411   6.870   2.208
  335SOL     OW 1903   3.672   5.910   3.492
  335SOL    HW1 1904   3.770   5.891   3.486
  335SOL    HW2 1905   3.623   5.843   3.436
  336SOL     OW 1906   1.965   1.160   3.084
  336SOL    HW1 1907   1.867   1.171   3.066
  336SOL    HW2 1908   1.979   1.083   3.146
  337SOL     OW 1909   0.484   3.020   1.808
  337SOL    HW1 1910   0.547   2.946   1.783
  337SOL    HW2 1911   0.531   3.108   1.801
  338SOL     OW 1912   3.182   3.081   1.727
  338SOL    HW1 1913   3.163   3.018   1.651
  338SOL    HW2 1914   3.159   3.036   1.814
  339SOL     OW 1915   3.778   0.174   3.042
  339SOL    HW1 1916   3.767   0.201   3.138
  339SOL    HW2 1917   3.775   0.256   2.984
  340SOL     OW 1918   5.486   4.488   4.543
  340SOL    HW1 1919   5.534   4.576   4.539
  340SOL    HW2 1920   5.542   4.416   4.503
  341SOL     OW 1921   5.229   6.175   4.176
  341SOL    HW1 1922   5.140   6.152   4.139
  341SOL    HW2 1923   5.298   6.172   4.103
  342SOL     OW 1924   5.457   4.598   6.809
  342SOL    HW1 1925   5.481   4.524   6.747
  342SOL    HW2 1926   5.537   4.655   6.826
  343SOL     OW 1927   3.518   6.481   1.977
  343SOL    HW1 1928   3.597   6.499   2.036
  343SOL    HW2 1929   3.493   6.565   1.928
  344SOL     OW 1930   1.941   5.271   0.513
  344SOL    HW1 1931   2.025   5.265   0.567
  344SOL    HW2 1932   1.879   5.197   0.540
  345SOL     OW 1933   1.074   0.430   5.389
  345SOL    HW1 1934   1.046   0.386   5.305
  345SOL    HW2 1935   1.026   0.517   5.399
  346SOL     OW 1936   1.543   0.267   3.050
  346SOL    HW1 1937   1.490   0.286   2.968
  346SOL    HW2 1938   1.604   0.190   3.034
  347SOL     OW 1939   5.545   6.708   6.691
  347SOL    HW1 1940   5.523   6.756   6.606
  347SOL    HW2 1941   5.626   6.751   6.733
  348SOL     OW 1942   4.171   5.298   0.867
  348SOL    HW1 1943   4.112   5.367   0.824
  348SOL    HW2 1944   4.140   5.207   0.841
  349SOL     OW 1945   0.401   4.442   2.829
  349SOL    HW1 1946   0.331   4.386   2.786
  349SOL    HW2 1947   0.368   4.537   2.835
  350SOL     OW 1948   4.111   3.698   1.525
  350SOL    HW1 1949   4.072   3.789   1.533
  350SOL    HW2 1950   4.154   3.672   1.611
  351SOL     OW 1951   2.621   1.782   0.484
  351SOL    HW1 1952   2.600   1.745   0.394
  351SOL    HW2 1953   2.674   1.716   0.537
  352SOL     OW 1954   3.544   0.448   5.920
  352SOL    HW1 1955   3.583   0.368   5.874
  352SOL    HW2 1956   3.489   0.500   5.854
  353SOL     OW 1957   1.846   6.189   0.648
  353SOL    HW1 1958   1.925   6.172   0.590
  353SOL    HW2 1959   1.848   6.283   0.682
  354SOL     OW 1960   4.212   2.213   0.290
  354SOL    HW1 1961   4.145   2.157   0.339
  354SOL    HW2 1962   4.186   2.309   0.297
  355SOL     OW 1963   6.604   2.811   2.686
  355SOL    HW1 1964   6.592   2.811   2.785
  355SOL    HW2 1965   6.647   2.725   2.657
  356SOL     OW 1966   4.771   4.967   4.581
  356SOL    HW1 1967   4.678   5.003   4.577
  356SOL    HW2 1968   4.791   4.940   4.675
  357SOL     OW 1969   0.449   5.511   5.055
  357SOL    HW1 1970   0.520   5.549   5.113
  357SOL    HW2 1971   0.362   5.512   5.105
  358SOL     OW 1972   6.568   0.087   1.385
  358SOL    HW1 1973   6.608   0.002   1.351
  358SOL    HW2 1974   6.528   0.072   1.475
  359SOL     OW 1975   1.539   2.511   2.568
  359SOL    HW1 1976   1.594   2.585   2.527
  359SOL    HW2 1977   1.504   2.541   2.657
  360SOL     OW 1978   4.618   6.916   6.716
  360SOL    HW1 1979   4.606   6.947   6.622
  360SOL    HW2 1980   4.672   6.983   6.767
  361SOL     OW 1981   4.964   5.849   3.156
  361SOL    HW1 1982   4.993   5.939   3.186
  361SOL    HW2 1983   4.916   5.857   3.068
  362SOL     OW 1984   2.659   4.321   0.550
  362SOL    HW1 1985   2.747   4.312   0.504
  362SOL    HW2 1986   2.607   4.236   0.538
  363SOL     OW 1987   3.850   5.179   4.424
  363SOL    HW1 1988   3.810   5.087   4.422
  363SOL    HW2 1989   3.903   5.190   4.508
  364SOL     OW 1990   1.059   5.594   5.597
  364SOL    HW1 1991   0.968   5.635   5.603
  364SOL    HW2 1992   1.060   5.524   5.525
  365SOL     OW 1993   5.080   6.073   2.374
  365SOL    HW1 1994   5.083   6.007   2.299
  365SOL    HW2 1995   5.109   6.028   2.459
  366SOL     OW 1996   6.339   1.236   0.077
  366SOL    HW1 1997   6.382   1.173   0.013
  366SOL    HW2 1998   6.299   1.313   0.027
  367SOL     OW 1999   5.369   2.967   0.853
  367SOL    HW1 2000   5.297   3.015   0.803
  367SOL    HW2 2001   5.436   3.032   0.886
  368SOL     OW 2002   1.648   4.248   5.278
  368SOL    HW1 2003   1.640   4.315   5.204
  368SOL    HW2 2004   1.559   4.236   5.322
  369SOL     OW 2005   6.806   4.272   1.740
  369SOL    HW1 2006   6.894   4.318   1.755
  369SOL    HW2 2007   6.805   4.186   1.790
  370SOL     OW 2008   2.540   0.449   6.022
  370SOL    HW1 2009   2.594   0.513   5.968
  370SOL    HW2 2010   2.601   0.386   6.071
  371SOL     OW 2011   2.978   3.023   0.190
  371SOL    HW1 2012   3.023   3.112   0.199
  371SOL    HW2 2013   2.908   3.014   0.260
  372SOL     OW 2014   0.141   6.978   5.579
  372SOL    HW1 2015   0.156   0.045   5.524
  372SOL    HW2 2016   0.194   6.903   5.541
  373SOL     OW 2017   0.116   5.989   0.455
  373SOL    HW1 2018   0.207   6.029   0.467
  373SOL    HW2 2019   0.047   6.056   0.483
  374SOL     OW 2020   3.412   0.386   2.841
  374SOL    HW1 2021   3.321   0.426   2.848
  374SOL    HW2 2022   3.404   0.286   2.835
  375SOL     OW 2023   5.932   4.710   3.182
  375SOL    HW1 2024   5.909   4.763   3.264
  375SOL    HW2 2025   6.016   4.659   3.198
  376SOL     OW 2026   1.542   2.491   3.999
  376SOL    HW1 2027   1.510   2.541   3.918
  376SOL    HW2 2028   1.463   2.457   4.050
  377SOL     OW 2029   4.921   2.119   2.795
  377SOL    HW1 2030   4.946   2.066   2.714
  377SOL    HW2 2031   4.854   2.069   2.848
  378SOL     OW 2032   4.207   3.468   5.650
  378SOL    HW1 2033   4.119   3.448   5.694
  378SOL    HW2 2034   4.193   3.534   5.576
  379SOL     OW 2035   5.803   3.602   1.325
  379SOL    HW1 2036   5.891   3.601   1.373
  379SOL    HW2 2037   5.768   3.508   1.318
  380SOL     OW 2038   1.211   1.513   1.299
  380SOL    HW1 2039   1.297   1.472   1.271
  380SOL    HW2 2040   1.223   1.563   1.384
  381SOL     OW 2041   3.200   4.375   1.108
  381SOL    HW1 2042   3.108   4.396   1.142
  381SOL    HW2 2043   3.266   4.394   1.181
  382SOL     OW 2044   3.216   5.845   0.203
  382SOL    HW1 2045   3.170   5.888   0.126
  382SOL    HW2 2046   3.150   5.827   0.276
  383SOL     OW 2047   6.532   2.785   0.080
  383SOL    HW1 2048   6.615   2.830   0.113
  383SOL    HW2 2049   6.525   2.795   6.997
  384SOL     OW 2050   0.816   5.416   5.394
  384SOL    HW1 2051   0.841   5.324   5.363
  384SOL    HW2 2052   0.754   5.408   5.472
  385SOL     OW 2053   4.505   6.177   0.289
  385SOL    HW1 2054   4.595   6.134   0.277
  385SOL    HW2 2055   4.434   6.106   0.290
  386SOL     OW 2056   3.886   6.454   5.372
  386SOL    HW1 2057   3.874   6.463   5.273
  386SOL    HW2 2058   3.878   6.545   5.414
  387SOL     OW 2059   0.014   0.612   4.729
  387SOL    HW1 2060   0.011   0.647   4.636
  387SOL    HW2 2061   0.103   0.571   4.747
  388SOL     OW 2062   6.810   2.524   5.422
  388SOL    HW1 2063   6.883   2.473   5.467
  388SOL    HW2 2064   6.767   2.466   5.353
  389SOL     OW 2065   4.277   4.504   1.577
  389SOL    HW1 2066   4.360   4.449   1.586
  389SOL    HW2 2067   4.286   4.566   1.500
  390SOL     OW 2068   3.650   1.281   0.371
  390SOL    HW1 2069   3.604   1.238   0.293
  390SOL    HW2 2070   3.745   1.250   0.375
  391SOL     OW 2071   2.999   3.617   6.433
  391SOL    HW1 2072   3.051   3.638   6.516
  391SOL    HW2 2073   2.902   3.607   6.455
  392SOL     OW 2074   1.348   4.173   2.301
  392SOL    HW1 2075   1.372   4.146   2.395
  392SOL    HW2 2076   1.385   4.264   2.282
  393SOL     OW 2077   0.860   4.222   0.589
  393SOL    HW1 2078   0.910   4.188   0.669
  393SOL    HW2 2079   0.824   4.144   0.537
  394SOL     OW 2080   6.706   2.028   6.588
  394SOL    HW1 2081   6.744   2.120   6.577
  394SOL    HW2 2082   6.753   1.981   6.662
  395SOL     OW 2083   5.074   4.332   1.780
  395SOL    HW1 2084   5.020   4.370   1.855
  395SOL    HW2 2085   5.136   4.262   1.816
  396SOL     OW 2086   2.914   1.844   2.941
  396SOL    HW1 2087   2.961   1.809   3.021
  396SOL    HW2 2088   2.836   1.785   2.919
  397SOL     OW 2089   4.314   1.614   5.224
  397SOL    HW1 2090   4.406   1.638   5.255
  397SOL    HW2 2091   4.300   1.647   5.131
  398SOL     OW 2092   2.135   0.464   4.732
  398SOL    HW1 2093   2.044   0.446   4.769
  398SOL    HW2 2094   2.167   0.383   4.682
  399SOL     OW 2095   5.154   6.289   3.745
  399SOL    HW1 2096   5.213   6.334   3.678
  399SOL    HW2 2097   5.093   6.357   3.786
  400SOL     OW 2098   6.333   0.680   4.384
  400SOL    HW1 2099   6.432   0.673   4.372
  400SOL    HW2 2100   6.312   0.691   4.482
  401SOL     OW 2101   6.680   6.137   5.654
  401SOL    HW1 2102   6.773   6.105   5.665
  401SOL    HW2 2103   6.664   6.165   5.559
  402SOL     OW 2104   6.830   0.319   2.597
  402SOL    HW1 2105   6.813   0.229   2.558
  402SOL    HW2 2106   6.917   0.318   2.646
  403SOL     OW 2107   2.815   0.670   6.216
  403SOL    HW1 2108   2.817   0.719   6.129
  403SOL    HW2 2109   2.796   0.574   6.200
  404SOL     OW 2110   4.013   5.060   4.841
  404SOL    HW1 2111   4.023   4.974   4.792
  404SOL    HW2 2112   4.103   5.101   4.857
  405SOL     OW 2113   2.327   4.281   4.119
  405SOL    HW1 2114   2.305   4.378   4.106
  405SOL    HW2 2115   2.262   4.241   4.185
  406SOL     OW 2116   0.121   5.062   5.955
  406SOL    HW1 2117   0.157   5.117   6.031
  406SOL    HW2 2118   0.022   5.076   5.948
  407SOL     OW 2119   1.714   2.924   4.102
  407SOL    HW1 2120   1.696   2.957   4.010
  407SOL    HW2 2121   1.651   2.850   4.125
  408SOL     OW 2122   3.021   1.360   3.526
  408SOL    HW1 2123   2.962   1.326   3.453
  408SOL    HW2 2124   3.036   1.287   3.593
  409SOL     OW 2125   1.078   3.833   2.646
  409SOL    HW1 2126   0.988   3.793   2.632
  409SOL    HW2 2127   1.097   3.898   2.573
  410SOL     OW 2128   1.841   1.919   1.461
  410SOL    HW1 2129   1.779   1.947   1.387
  410SOL    HW2 2130   1.788   1.880   1.536
  411SOL     OW 2131   0.557   2.322   1.342
  411SOL    HW1 2132   0.639   2.275   1.376
  411SOL    HW2 2133   0.531   2.393   1.406
  412SOL     OW 2134   1.883   4.761   2.008
  412SOL    HW1 2135   1.811   4.708   2.052
  412SOL    HW2 2136   1.973   4.729   2.040
  413SOL     OW 2137   4.337   5.110   2.808
  413SOL    HW1 2138   4.335   5.177   2.734
  413SOL    HW2 2139   4.420   5.054   2.800
  414SOL     OW 2140   2.696   6.435   3.857
  414SOL    HW1 2141   2.652   6.360   3.807
  414SOL    HW2 2142   2.745   6.494   3.793
  415SOL     OW 2143   6.833   0.670   0.530
  415SOL    HW1 2144   6.754   0.671   0.592
  415SOL    HW2 2145   6.849   0.763   0.496
  416SOL     OW 2146   4.889   3.248   4.689
  416SOL    HW1 2147   4.901   3.192   4.771
  416SOL    HW2 2148   4.867   3.342   4.717
  417SOL     OW 2149   3.227   1.997   6.879
  417SOL    HW1 2150   3.226   2.093   6.907
  417SOL    HW2 2151   3.140   1.954   6.904
  418SOL     OW 2152   4.089   6.282   4.208
  418SOL    HW1 2153   4.127   6.361   4.160
  418SOL    HW2 2154   4.125   6.279   4.301
  419SOL     OW 2155   0.813   0.238   1.794
  419SOL    HW1 2156   0.849   0.285   1.874
  419SOL    HW2 2157   0.886   0.225   1.726
  420SOL     OW 2158   6.141   0.612   6.103
  420SOL    HW1 2159   6.160   0.587   6.198
  420SOL    HW2 2160   6.058   0.669   6.100
  421SOL     OW 2161   5.331   4.106   3.012
  421SOL    HW1 2162   5.250   4.047   3.009
  421SOL    HW2 2163   5.303   4.202   3.005
  422SOL     OW 2164   5.137   2.987   1.698
  422SOL    HW1 2165   5.103   2.900   1.663
  422SOL    HW2 2166   5.206   2.970   1.768
  423SOL     OW 2167   3.425   1.630   6.175
  423SOL    HW1 2168   3.453   1.715   6.130
  423SOL    HW2 2169   3.325   1.625   6.175
  424SOL     OW 2170   1.185   4.364   2.806
  424SOL    HW1 2171   1.268   4.406   2.842
  424SOL    HW2 2172   1.107   4.423   2.825
  425SOL     OW 2173   2.520   6.979   5.557
  425SOL    HW1 2174   2.484   0.008   5.639
  425SOL    HW2 2175   2.471   7.011   5.477
  426SOL     OW 2176   2.343   2.794   4.343
  426SOL    HW1 2177   2.254   2.837   4.358
  426SOL    HW2 2178   2.416   2.859   4.364
  427SOL     OW 2179   3.984   1.757   3.568
  427SOL    HW1 2180   3.957   1.798   3.655
  427SOL    HW2 2181   3.923   1.787   3.496
  428SOL     OW 2182   2.653   1.410   5.365
  428SOL    HW1 2183   2.603   1.482   5.413
  428SOL    HW2 2184   2.654   1.327   5.421
  429SOL     OW 2185   1.311   5.790   3.954
  429SOL    HW1 2186   1.404   5.783   3.919
  429SOL    HW2 2187   1.276   5.883   3.939
  430SOL     OW 2188   1.422   0.039   3.268
  430SOL    HW1 2189   1.488   6.983   3.247
  430SOL    HW2 2190   1.334   0.017   3.225
  431SOL     OW 2191   2.812   1.668   2.013
  431SOL    HW1 2192   2.900   1.715   2.006
  431SOL    HW2 2193   2.782   1.639   1.923
  432SOL     OW 2194   4.116   2.018   1.487
  432SOL    HW1 2195   4.190   1.952   1.503
  432SOL    HW2 2196   4.127   2.096   1.548
  433SOL     OW 2197   2.051   6.538   0.443
  433SOL    HW1 2198   2.044   6.441   0.419
  433SOL    HW2 2199   2.106   6.547   0.526
  434SOL     OW 2200   3.975   6.343   3.758
  434SOL    HW1 2201   3.988   6.271   3.825
  434SOL    HW2 2202   4.002   6.310   3.667
  435SOL     OW 2203   2.776   1.731   6.054
  435SOL    HW1 2204   2.855   1.774   6.097
  435SOL    HW2 2205   2.800   1.706   5.960
  436SOL     OW 2206   4.836   0.021   2.753
  436SOL    HW1 2207   4.759   0.072   2.789
  436SOL    HW2 2208   4.876   6.980   2.825
  437SOL     OW 2209   6.644   0.279   4.413
  437SOL    HW1 2210   6.657   0.238   4.503
  437SOL    HW2 2211   6.547   0.280   4.390
  438SOL     OW 2212   0.769   4.205   2.877
  438SOL    HW1 2213   0.853   4.168   2.838
  438SOL    HW2 2214   0.789   4.248   2.964
  439SOL     OW 2215   6.028   0.557   3.192
  439SOL    HW1 2216   5.943   0.600   3.161
  439SOL    HW2 2217   6.008   0.466   3.229
  440SOL     OW 2218   4.489   0.910   0.383
  440SOL    HW1 2219   4.587   0.906   0.361
  440SOL    HW2 2220   4.461   1.005   0.396
  441SOL     OW 2221   0.261   4.353   3.059
  441SOL    HW1 2222   0.184   4.316   3.008
  441SOL    HW2 2223   0.321   4.405   2.998
  442SOL     OW 2224   6.027   3.249   5.985
  442SOL    HW1 2225   6.107   3.301   6.016
  442SOL    HW2 2226   6.048   3.206   5.897
  443SOL     OW 2227   4.934   3.644   2.618
  443SOL    HW1 2228   4.933   3.605   2.526
  443SOL    HW2 2229   4.965   3.575   2.683
  444SOL     OW 2230   4.214   0.733   1.427
  444SOL    HW1 2231   4.289   0.735   1.361
  444SOL    HW2 2232   4.159   0.816   1.416
  445SOL     OW 2233   1.587   5.420   2.350
  445SOL    HW1 2234   1.506   5.366   2.370
  445SOL    HW2 2235   1.579   5.510   2.391
  446SOL     OW 2236   5.527   7.006   1.675
  446SOL    HW1 2237   5.432   7.009   1.645
  446SOL    HW2 2238   5.587   7.002   1.594
  447SOL     OW 2239   6.376   4.187   0.516
  447SOL    HW1 2240   6.452   4.126   0.494
  447SOL    HW2 2241   6.347   4.172   0.610
  448SOL     OW 2242   2.526   6.683   3.120
  448SOL    HW1 2243   2.526   6.612   3.050
  448SOL    HW2 2244   2.568   6.647   3.204
  449SOL     OW 2245   2.130   3.344   4.711
  449SOL    HW1 2246   2.223   3.373   4.688
  449SOL    HW2 2247   2.132   3.252   4.750
  450SOL     OW 2248   0.873   4.920   3.250
  450SOL    HW1 2249   0.929   4.861   3.308
  450SOL    HW2 2250   0.792   4.948   3.301
  451SOL     OW 2251   0.754   1.979   2.523
  451SOL    HW1 2252   0.726   1.886   2.546
  451SOL    HW2 2253   0.802   1.978   2.435
  452SOL     OW 2254   4.713   5.937   2.547
  452SOL    HW1 2255   4.695   5.852   2.597
  452SOL    HW2 2256   4.671   6.014   2.595
  453SOL     OW 2257   3.497   0.731   0.131
  453SOL    HW1 2258   3.484   0.635   0.105
  453SOL    HW2 2259   3.417   0.784   0.101
  454SOL     OW 2260   0.070   3.779   6.803
  454SOL    HW1 2261   0.154   3.726   6.803
  454SOL    HW2 2262   0.089   3.872   6.836
  455SOL     OW 2263   6.075   4.499   6.234
  455SOL    HW1 2264   6.156   4.484   6.290
  455SOL    HW2 2265   6.080   4.588   6.190
  456SOL     OW 2266   2.917   0.644   2.391
  456SOL    HW1 2267   2.961   0.571   2.338
  456SOL    HW2 2268   2.925   0.731   2.342
  457SOL     OW 2269   2.427   0.388   6.731
  457SOL    HW1 2270   2.351   0.418   6.788
  457SOL    HW2 2271   2.494   0.339   6.786
  458SOL     OW 2272   2.799   1.258   3.368
  458SOL    HW1 2273   2.723   1.287   3.426
  458SOL    HW2 2274   2.793   1.303   3.279
  459SOL     OW 2275   2.652   0.398   4.217
  459SOL    HW1 2276   2.609   0.488   4.217
  459SOL    HW2 2277   2.659   0.364   4.311
  460SOL     OW 2278   1.194   1.903   4.898
  460SOL    HW1 2279   1.198   1.953   4.985
  460SOL    HW2 2280   1.271   1.931   4.840
  461SOL     OW 2281   0.865   5.231   5.838
  461SOL    HW1 2282   0.914   5.158   5.886
  461SOL    HW2 2283   0.770   5.234   5.872
  462SOL     OW 2284   3.100   3.926   4.386
  462SOL    HW1 2285   3.156   4.007   4.399
  462SOL    HW2 2286   3.056   3.901   4.473
  463SOL     OW 2287   5.723   6.950   2.305
  463SOL    HW1 2288   5.734   0.020   2.255
  463SOL    HW2 2289   5.763   6.959   2.396
  464SOL     OW 2290   3.857   5.825   5.955
  464SOL    HW1 2291   3.816   5.813   6.045
  464SOL    HW2 2292   3.842   5.743   5.900
  465SOL     OW 2293   1.138   3.404   0.140
  465SOL    HW1 2294   1.071   3.410   0.214
  465SOL    HW2 2295   1.096   3.356   0.062
  466SOL     OW 2296   4.270   5.606   4.632
  466SOL    HW1 2297   4.302   5.670   4.702
  466SOL    HW2 2298   4.236   5.657   4.553
  467SOL     OW 2299   6.660   0.329   1.477
  467SOL    HW1 2300   6.694   0.376   1.395
  467SOL    HW2 2301   6.613   0.245   1.450
  468SOL     OW 2302   3.773   0.112   6.572
  468SOL    HW1 2303   3.757   0.068   6.483
  468SOL    HW2 2304   3.868   0.142   6.576
  469SOL     OW 2305   3.120   5.114   6.036
  469SOL    HW1 2306   3.178   5.107   5.955
  469SOL    HW2 2307   3.058   5.036   6.039
  470SOL     OW 2308   2.251   5.030   2.622
  470SOL    HW1 2309   2.189   4.997   2.550
  470SOL    HW2 2310   2.301   5.110   2.588
  471SOL     OW 2311   2.186   2.602   4.601
  471SOL    HW1 2312   2.142   2.667   4.540
  471SOL    HW2 2313   2.266   2.644   4.643
  472SOL     OW 2314   5.805   3.887   6.123
  472SOL    HW1 2315   5.858   3.880   6.207
  472SOL    HW2 2316   5.828   3.811   6.062
  473SOL     OW 2317   0.006   3.166   2.276
  473SOL    HW1 2318   6.999   3.197   2.183
  473SOL    HW2 2319   0.066   3.233   2.319
  474SOL     OW 2320   4.987   6.109   4.017
  474SOL    HW1 2321   5.016   6.176   3.948
  474SOL    HW2 2322   4.887   6.112   4.026
  475SOL     OW 2323   6.198   1.845   0.922
  475SOL    HW1 2324   6.201   1.940   0.952
  475SOL    HW2 2325   6.213   1.785   1.001
  476SOL     OW 2326   0.683   4.655   1.156
  476SOL    HW1 2327   0.608   4.688   1.098
  476SOL    HW2 2328   0.747   4.730   1.173
  477SOL     OW 2329   1.222   4.371   3.880
  477SOL    HW1 2330   1.126   4.395   3.863
  477SOL    HW2 2331   1.231   4.331   3.971
  478SOL     OW 2332   4.746   5.938   1.721
  478SOL    HW1 2333   4.796   5.900   1.798
  478SOL    HW2 2334   4.749   5.874   1.644
  479SOL     OW 2335   3.724   3.943   3.549
  479SOL    HW1 2336   3.641   3.994   3.573
  479SOL    HW2 2337   3.797   3.967   3.613
  480SOL     OW 2338   1.765   0.042   3.086
  480SOL    HW1 2339   1.812   6.971   3.068
  480SOL    HW2 2340   1.740   0.047   3.183
  481SOL     OW 2341   0.513   6.760   0.835
  481SOL    HW1 2342   0.560   6.795   0.916
  481SOL    HW2 2343   0.466   6.835   0.788
  482SOL     OW 2344   4.427   5.360   1.815
  482SOL    HW1 2345   4.448   5.290   1.746
  482SOL    HW2 2346   4.484   5.440   1.801
  483SOL     OW 2347   5.296   1.836   3.577
  483SOL    HW1 2348   5.264   1.850   3.483
  483SOL    HW2 2349   5.363   1.762   3.579
  484SOL     OW 2350   2.167   4.169   4.502
  484SOL    HW1 2351   2.204   4.159   4.594
  484SOL    HW2 2352   2.182   4.262   4.470
  485SOL     OW 2353   5.349   3.198   1.730
  485SOL    HW1 2354   5.253   3.174   1.719
  485SOL    HW2 2355   5.384   3.157   1.814
  486SOL     OW 2356   5.998   6.392   6.162
  486SOL    HW1 2357   5.959   6.385   6.254
  486SOL    HW2 2358   5.957   6.471   6.116
  487SOL     OW 2359   6.673   7.002   5.307
  487SOL    HW1 2360   6.708   0.022   5.221
  487SOL    HW2 2361   6.747   7.000   5.375
  488SOL     OW 2362   1.810   5.909   2.943
  488SOL    HW1 2363   1.759   5.934   2.861
  488SOL    HW2 2364   1.879   5.840   2.920
  489SOL     OW 2365   1.158   6.000   5.594
  489SOL    HW1 2366   1.075   6.056   5.586
  489SOL    HW2 2367   1.205   5.997   5.506
  490SOL     OW 2368   1.346   4.273   5.901
  490SOL    HW1 2369   1.397   4.284   5.987
  490SOL    HW2 2370   1.370   4.186   5.859
  491SOL     OW 2371   0.611   2.417   0.653
  491SOL    HW1 2372   0.582   2.438   0.560
  491SOL    HW2 2373   0.581   2.324   0.677
  492SOL     OW 2374   1.549   1.978   5.901
  492SOL    HW1 2375   1.565   1.932   5.814
  492SOL    HW2 2376   1.473   2.043   5.891
  493SOL     OW 2377   2.240   5.853   4.620
  493SOL    HW1 2378   2.309   5.791   4.659
  493SOL    HW2 2379   2.227   5.831   4.523
  494SOL     OW 2380   2.497   6.296   5.328
  494SOL    HW1 2381   2.575   6.358   5.316
  494SOL    HW2 2382   2.530   6.204   5.345
  495SOL     OW 2383   3.660   4.818   5.864
  495SOL    HW1 2384   3.723   4.820   5.786
  495SOL    HW2 2385   3.567   4.802   5.831
  496SOL     OW 2386   4.973   1.753   2.770
  496SOL    HW1 2387   4.881   1.732   2.737
  496SOL    HW2 2388   4.968   1.778   2.867
  497SOL     OW 2389   3.082   1.202   0.328
  497SOL    HW1 2390   2.991   1.181   0.292
  497SOL    HW2 2391   3.151   1.183   0.258
  498SOL     OW 2392   0.904   6.533   1.552
  498SOL    HW1 2393   0.962   6.489   1.483
  498SOL    HW2 2394   0.866   6.464   1.612
  499SOL     OW 2395   2.725   6.215   6.399
  499SOL    HW1 2396   2.660   6.267   6.454
  499SOL    HW2 2397   2.788   6.278   6.353
  500SOL     OW 2398   6.448   2.155   0.165
  500SOL    HW1 2399   6.443   2.254   0.157
  500SOL    HW2 2400   6.415   2.113   0.080
  501SOL     OW 2401   0.883   0.665   3.652
  501SOL    HW1 2402   0.925   0.634   3.567
  501SOL    HW2 2403   0.791   0.700   3.632
  502SOL     OW 2404   2.145   5.179   6.557
  502SOL    HW1 2405   2.185   5.160   6.647
  502SOL    HW2 2406   2.064   5.236   6.568
  503SOL     OW 2407   3.842   4.563   6.868
  503SOL    HW1 2408   3.908   4.523   6.804
  503SOL    HW2 2409   3.774   4.616   6.817
  504SOL     OW 2410   6.109   6.656   1.840
  504SOL    HW1 2411   6.109   6.753   1.816
  504SOL    HW2 2412   6.040   6.608   1.786
  505SOL     OW 2413   5.017   6.697   5.008
  505SOL    HW1 2414   4.972   6.742   4.931
  505SOL    HW2 2415   4.967   6.615   5.033
  506SOL     OW 2416   4.166   5.169   2.993
  506SOL    HW1 2417   4.231   5.126   2.930
  506SOL    HW2 2418   4.163   5.268   2.975
  507SOL     OW 2419   3.231   0.724   0.822
  507SOL    HW1 2420   3.253   0.689   0.731
  507SOL    HW2 2421   3.183   0.654   0.874
  508SOL     OW 2422   6.895   5.080   3.683
  508SOL    HW1 2423   6.824   5.115   3.622
  508SOL    HW2 2424   6.876   4.984   3.704
  509SOL     OW 2425   4.784   6.990   5.726
  509SOL    HW1 2426   4.717   6.943   5.669
  509SOL    HW2 2427   4.819   6.927   5.795
  510SOL     OW 2428   0.017   3.732   0.265
  510SOL    HW1 2429   0.060   3.796   0.202
  510SOL    HW2 2430   7.012   3.647   0.217
  511SOL     OW 2431   0.854   1.549   0.820
  511SOL    HW1 2432   0.928   1.574   0.883
  511SOL    HW2 2433   0.870   1.457   0.784
  512SOL     OW 2434   6.588   2.566   6.050
  512SOL    HW1 2435   6.665   2.626   6.071
  512SOL    HW2 2436   6.504   2.608   6.085
  513SOL     OW 2437   5.470   0.924   2.545
  513SOL    HW1 2438   5.379   0.888   2.524
  513SOL    HW2 2439   5.465   0.981   2.627
  514SOL     OW 2440   6.722   6.646   4.107
  514SOL    HW1 2441   6.770   6.612   4.027
  514SOL    HW2 2442   6.781   6.708   4.158
  515SOL     OW 2443   3.737   0.019   6.308
  515SOL    HW1 2444   3.822   6.994   6.274
  515SOL    HW2 2445   3.703   0.085   6.241
  516SOL     OW 2446   2.463   5.665   1.553
  516SOL    HW1 2447   2.413   5.735   1.501
  516SOL    HW2 2448   2.560   5.671   1.532
  517SOL     OW 2449   3.508   5.555   1.885
  517SOL    HW1 2450   3.550   5.646   1.876
  517SOL    HW2 2451   3.580   5.485   1.887
  518SOL     OW 2452   2.062   3.489   3.485
  518SOL    HW1 2453   2.050   3.412   3.421
  518SOL    HW2 2454   2.107   3.456   3.568
  519SOL     OW 2455   0.444   6.847   3.102
  519SOL    HW1 2456   0.414   6.790   3.179
  519SOL    HW2 2457   0.505   6.918   3.136
  520SOL     OW 2458   1.105   3.008   0.408
  520SOL    HW1 2459   1.097   2.917   0.368
  520SOL    HW2 2460   1.082   3.005   0.505
  521SOL     OW 2461   5.833   5.745   4.764
  521SOL    HW1 2462   5.832   5.690   4.681
  521SOL    HW2 2463   5.747   5.730   4.815
  522SOL     OW 2464   3.992   3.983   1.494
  522SOL    HW1 2465   3.928   3.955   1.422
  522SOL    HW2 2466   3.952   4.060   1.545
  523SOL     OW 2467   0.480   6.510   1.900
  523SOL    HW1 2468   0.485   6.589   1.839
  523SOL    HW2 2469   0.401   6.454   1.876
  524SOL     OW 2470   7.014   2.244   1.959
  524SOL    HW1 2471   6.931   2.266   1.908
  524SOL    HW2 2472   0.059   2.188   1.903
  525SOL     OW 2473   1.934   3.344   5.957
  525SOL    HW1 2474   1.905   3.375   5.867
  525SOL    HW2 2475   2.015   3.395   5.986
  526SOL     OW 2476   2.907   0.149   4.485
  526SOL    HW1 2477   2.814   0.172   4.457
  526SOL    HW2 2478   2.952   0.230   4.520
  527SOL     OW 2479   0.830   1.505   0.370
  527SOL    HW1 2480   0.784   1.594   0.364
  527SOL    HW2 2481   0.909   1.513   0.432
  528SOL     OW 2482   6.602   3.313   4.424
  528SOL    HW1 2483   6.664   3.360   4.487
  528SOL    HW2 2484   6.630   3.332   4.330
  529SOL     OW 2485   1.967   0.572   6.327
  529SOL    HW1 2486   1.911   0.550   6.407
  529SOL    HW2 2487   2.060   0.537   6.341
  530SOL     OW 2488   3.951   3.411   0.854
  530SOL    HW1 2489   3.981   3.342   0.919
  530SOL    HW2 2490   3.917   3.491   0.905
  531SOL     OW 2491   1.813   0.334   1.685
  531SOL    HW1 2492   1.888   0.288   1.638
  531SOL    HW2 2493   1.825   0.324   1.784
  532SOL     OW 2494   2.810   2.132   1.008
  532SOL    HW1 2495   2.736   2.173   0.955
  532SOL    HW2 2496   2.808   2.166   1.102
  533SOL     OW 2497   3.677   0.415   4.416
  533SOL    HW1 2498   3.693   0.348   4.343
  533SOL    HW2 2499   3.619   0.488   4.381
  534SOL     OW 2500   1.102   5.187   1.399
  534SOL    HW1 2501   1.052   5.109   1.438
  534SOL    HW2 2502   1.095   5.265   1.460
  535SOL     OW 2503   5.184   3.558   3.788
  535SOL    HW1 2504   5.137   3.470   3.788
  535SOL    HW2 2505   5.274   3.548   3.744
  536SOL     OW 2506   6.170   6.247   2.376
  536SOL    HW1 2507   6.166   6.291   2.287
  536SOL    HW2 2508   6.247   6.183   2.379
  537SOL     OW 2509   2.894   0.939   4.607
  537SOL    HW1 2510   2.901   1.028   4.652
  537SOL    HW2 2511   2.813   0.938   4.548
  538SOL     OW 2512   2.737   4.720   5.607
  538SOL    HW1 2513   2.668   4.759   5.668
  538SOL    HW2 2514   2.693   4.687   5.523
  539SOL     OW 2515   1.162   6.715   6.995
  539SOL    HW1 2516   1.213   6.780   0.036
  539SOL    HW2 2517   1.100   6.662   0.036
  540SOL     OW 2518   0.823   0.446   4.045
  540SOL    HW1 2519   0.762   0.384   3.996
  540SOL    HW2 2520   0.914   0.405   4.052
  541SOL     OW 2521   4.451   6.317   4.184
  541SOL    HW1 2522   4.402   6.233   4.160
  541SOL    HW2 2523   4.450   6.329   4.283
  542SOL     OW 2524   3.139   0.026   6.645
  542SOL    HW1 2525   3.182   7.005   6.563
  542SOL    HW2 2526   3.040   0.033   6.630
  543SOL     OW 2527   5.584   2.265   3.990
  543SOL    HW1 2528   5.664   2.242   3.934
  543SOL    HW2 2529   5.545   2.352   3.958
  544SOL     OW 2530   1.236   4.050   0.970
  544SOL    HW1 2531   1.154   4.053   0.913
  544SOL    HW2 2532   1.278   3.959   0.963
  545SOL     OW 2533   5.879   1.469   1.508
  545SOL    HW1 2534   5.881   1.522   1.593
  545SOL    HW2 2535   5.807   1.505   1.448
  546SOL     OW 2536   0.672   4.017   2.674
  546SOL    HW1 2537   0.671   4.083   2.749
  546SOL    HW2 2538   0.592   4.032   2.616
  547SOL     OW 2539   4.329   1.778   6.653
  547SOL    HW1 2540   4.321   1.843   6.577
  547SOL    HW2 2541   4.275   1.696   6.633
  548SOL     OW 2542   3.070   2.871   6.949
  548SOL    HW1 2543   3.068   2.857   6.850
  548SOL    HW2 2544   2.977   2.867   6.985
  549SOL     OW 2545   6.075   2.336   1.052
  549SOL    HW1 2546   6.142   2.377   1.114
  549SOL    HW2 2547   5.986   2.332   1.098
  550SOL     OW 2548   0.181   5.601   3.177
  550SOL    HW1 2549   0.083   5.583   3.191
  550SOL    HW2 2550   0.213   5.664   3.247
  551SOL     OW 2551   6.564   1.402   0.278
  551SOL    HW1 2552   6.569   1.345   0.361
  551SOL    HW2 2553   6.493   1.365   0.218
  552SOL     OW 2554   6.100   5.210   5.633
  552SOL    HW1 2555   6.023   5.251   5.584
  552SOL    HW2 2556   6.162   5.281   5.664
  553SOL     OW 2557   3.174   0.824   5.498
  553SOL    HW1 2558   3.155   0.788   5.406
  553SOL    HW2 2559   3.156   0.753   5.566
  554SOL     OW 2560   5.804   5.838   0.941
  554SOL    HW1 2561   5.821   5.924   0.989
  554SOL    HW2 2562   5.762   5.857   0.852
  555SOL     OW 2563   2.065   4.807   6.023
  555SOL    HW1 2564   2.027   4.824   6.114
  555SOL    HW2 2565   2.046   4.713   5.997
  556SOL     OW 2566   4.719   1.547   3.799
  556SOL    HW1 2567   4.753   1.454   3.784
  556SOL    HW2 2568   4.644   1.544   3.865
  557SOL     OW 2569   6.469   4.424   6.066
  557SOL    HW1 2570   6.516   4.508   6.038
  557SOL    HW2 2571   6.403   4.397   5.995
  558SOL     OW 2572   3.279   3.905   2.332
  558SOL    HW1 2573   3.319   3.965   2.263
  558SOL    HW2 2574   3.343   3.896   2.409
  559SOL     OW 2575   6.272   6.440   5.693
  559SOL    HW1 2576   6.339   6.374   5.659
  559SOL    HW2 2577   6.268   6.434   5.793
  560SOL     OW 2578   6.584   3.260   2.828
  560SOL    HW1 2579   6.522   3.182   2.827
  560SOL    HW2 2580   6.627   3.268   2.918
  561SOL     OW 2581   0.544   3.030   6.378
  561SOL    HW1 2582   0.485   2.965   6.427
  561SOL    HW2 2583   0.552   3.003   6.282
  562SOL     OW 2584   3.926   0.380   5.821
  562SOL    HW1 2585   4.026   0.385   5.821
  562SOL    HW2 2586   3.896   0.299   5.872
  563SOL     OW 2587   1.790   2.016   4.209
  563SOL    HW1 2588   1.740   1.971   4.283
  563SOL    HW2 2589   1.766   2.113   4.206
  564SOL     OW 2590   0.432   2.068   4.997
  564SOL    HW1 2591   0.489   2.024   5.066
  564SOL    HW2 2592   0.443   2.021   4.910
  565SOL     OW 2593   3.532   3.449   3.529
  565SOL    HW1 2594   3.559   3.545   3.531
  565SOL    HW2 2595   3.433   3.442   3.517
  566SOL     OW 2596   3.500   6.342   2.833
  566SOL    HW1 2597   3.552   6.260   2.811
  566SOL    HW2 2598   3.469   6.338   2.928
  567SOL     OW 2599   2.094   2.945   6.729
  567SOL    HW1 2600   2.134   2.936   6.821
  567SOL    HW2 2601   2.013   3.004   6.733
  568SOL     OW 2602   6.891   0.592   0.862
  568SOL    HW1 2603   6.907   0.685   0.831
  568SOL    HW2 2604   6.845   0.593   0.951
  569SOL     OW 2605   0.102   1.845   0.462
  569SOL    HW1 2606   0.016   1.852   0.412
  569SOL    HW2 2607   0.128   1.748   0.468
  570SOL     OW 2608   2.670   0.203   5.810
  570SOL    HW1 2609   2.749   0.142   5.796
  570SOL    HW2 2610   2.586   0.150   5.800
  571SOL     OW 2611   2.694   5.098   2.829
  571SOL    HW1 2612   2.721   5.192   2.808
  571SOL    HW2 2613   2.725   5.074   2.921
  572SOL     OW 2614   2.337   6.782   4.082
  572SOL    HW1 2615   2.283   6.835   4.017
  572SOL    HW2 2616   2.398   6.720   4.032
  573SOL     OW 2617   6.472   1.551   5.413
  573SOL    HW1 2618   6.494   1.484   5.484
  573SOL    HW2 2619   6.542   1.547   5.342
  574SOL     OW 2620   2.792   1.733   5.427
  574SOL    HW1 2621   2.716   1.686   5.471
  574SOL    HW2 2622   2.768   1.753   5.332
  575SOL     OW 2623   3.079   3.520   0.743
  575SOL    HW1 2624   3.167   3.568   0.742
  575SOL    HW2 2625   3.058   3.487   0.651
  576SOL     OW 2626   1.808   2.941   2.994
  576SOL    HW1 2627   1.863   2.931   2.911
  576SOL    HW2 2628   1.750   2.861   3.006
  577SOL     OW 2629   0.969   1.380   1.818
  577SOL    HW1 2630   0.904   1.454   1.804
  577SOL    HW2 2631   0.922   1.300   1.855
  578SOL     OW 2632   1.936   5.383   6.512
  578SOL    HW1 2633   1.974   5.395   6.603
  578SOL    HW2 2634   2.001   5.418   6.444
  579SOL     OW 2635   2.418   4.476   2.285
  579SOL    HW1 2636   2.408   4.517   2.194
  579SOL    HW2 2637   2.509   4.498   2.321
  580SOL     OW 2638   4.247   5.198   4.999
  580SOL    HW1 2639   4.323   5.139   4.971
  580SOL    HW2 2640   4.273   5.249   5.081
  581SOL     OW 2641   1.315   3.149   3.954
  581SOL    HW1 2642   1.383   3.176   3.886
  581SOL    HW2 2643   1.252   3.082   3.914
  582SOL     OW 2644   5.456   5.441   3.519
  582SOL    HW1 2645   5.465   5.375   3.594
  582SOL    HW2 2646   5.418   5.526   3.554
  583SOL     OW 2647   3.485   5.138   5.964
  583SOL    HW1 2648   3.448   5.045   5.966
  583SOL    HW2 2649   3.441   5.190   5.890
  584SOL     OW 2650   4.270   0.792   6.626
  584SOL    HW1 2651   4.230   0.704   6.652
  584SOL    HW2 2652   4.198   0.851   6.590
  585SOL     OW 2653   2.841   6.576   1.715
  585SOL    HW1 2654   2.811   6.515   1.642
  585SOL    HW2 2655   2.882   6.523   1.789
  586SOL     OW 2656   4.482   6.890   0.902
  586SOL    HW1 2657   4.572   6.934   0.905
  586SOL    HW2 2658   4.427   6.921   0.980
  587SOL     OW 2659   5.481   2.308   1.779
  587SOL    HW1 2660   5.396   2.255   1.782
  587SOL    HW2 2661   5.479   2.369   1.700
  588SOL     OW 2662   1.030   5.279   1.930
  588SOL    HW1 2663   0.992   5.336   2.003
  588SOL    HW2 2664   0.982   5.299   1.844
  589SOL     OW 2665   3.457   5.976   1.209
  589SOL    HW1 2666   3.543   6.014   1.245
  589SOL    HW2 2667   3.399   5.947   1.285
  590SOL     OW 2668   4.953   1.746   0.019
  590SOL    HW1 2669   4.942   1.796   0.105
  590SOL    HW2 2670   5.050   1.741   7.011
  591SOL     OW 2671   4.221   5.749   4.391
  591SOL    HW1 2672   4.318   5.761   4.412
  591SOL    HW2 2673   4.185   5.836   4.356
  592SOL     OW 2674   4.578   2.290   4.700
  592SOL    HW1 2675   4.503   2.345   4.736
  592SOL    HW2 2676   4.628   2.344   4.632
  593SOL     OW 2677   3.509   1.614   5.438
  593SOL    HW1 2678   3.433   1.592   5.498
  593SOL    HW2 2679   3.595   1.597   5.485
  594SOL     OW 2680   6.199   1.238   1.689
  594SOL    HW1 2681   6.107   1.230   1.726
  594SOL    HW2 2682   6.211   1.329   1.648
  595SOL     OW 2683   5.330   6.240   2.596
  595SOL    HW1 2684   5.317   6.148   2.559
  595SOL    HW2 2685   5.263   6.256   2.668
  596SOL     OW 2686   6.639   4.090   3.959
  596SOL    HW1 2687   6.717   4.104   4.019
  596SOL    HW2 2688   6.569   4.037   4.007
  597SOL     OW 2689   2.864   0.021   6.635
  597SOL    HW1 2690   2.785   0.050   6.581
  597SOL    HW2 2691   2.887   6.942   6.612
  598SOL     OW 2692   2.875   3.348   4.926
  598SOL    HW1 2693   2.974   3.340   4.911
  598SOL    HW2 2694   2.830   3.263   4.900
  599SOL     OW 2695   0.968   5.716   1.937
  599SOL    HW1 2696   1.002   5.776   1.865
  599SOL    HW2 2697   1.018   5.733   2.022
  600SOL     OW 2698   6.974   4.076   4.880
  600SOL    HW1 2699   7.011   4.151   4.935
  600SOL    HW2 2700   0.001   3.990   4.908
  601SOL     OW 2701   1.488   0.760   5.191
  601SOL    HW1 2702   1.402   0.776   5.239
  601SOL    HW2 2703   1.489   0.668   5.153
  602SOL     OW 2704   3.152   6.253   4.357
  602SOL    HW1 2705   3.220   6.322   4.333
  602SOL    HW2 2706   3.061   6.287   4.334
  603SOL     OW 2707   1.598   1.079   5.629
  603SOL    HW1 2708   1.582   0.997   5.574
  603SOL    HW2 2709   1.694   1.083   5.655
  604SOL     OW 2710   6.502   2.130   1.834
  604SOL    HW1 2711   6.431   2.200   1.842
  604SOL    HW2 2712   6.468   2.055   1.778
  605SOL     OW 2713   0.379   4.863   2.392
  605SOL    HW1 2714   0.300   4.895   2.340
  605SOL    HW2 2715   0.358   4.773   2.431
  606SOL     OW 2716   3.688   0.212   5.111
  606SOL    HW1 2717   3.615   0.244   5.171
  606SOL    HW2 2718   3.657   0.132   5.061
  607SOL     OW 2719   0.965   5.025   6.012
  607SOL    HW1 2720   0.989   4.931   5.989
  607SOL    HW2 2721   0.878   5.026   6.061
  608SOL     OW 2722   3.387   0.543   5.704
  608SOL    HW1 2723   3.356   0.493   5.623
  608SOL    HW2 2724   3.412   0.636   5.678
  609SOL     OW 2725   4.429   2.780   1.665
  609SOL    HW1 2726   4.515   2.785   1.615
  609SOL    HW2 2727   4.362   2.841   1.623
  610SOL     OW 2728   4.668   3.421   0.637
  610SOL    HW1 2729   4.688   3.338   0.689
  610SOL    HW2 2730   4.727   3.425   0.556
  611SOL     OW 2731   3.740   0.050   2.195
  611SOL    HW1 2732   3.804   6.993   2.221
  611SOL    HW2 2733   3.792   0.129   2.162
  612SOL     OW 2734   3.867   4.458   5.900
  612SOL    HW1 2735   3.783   4.457   5.954
  612SOL    HW2 2736   3.844   4.451   5.803
  613SOL     OW 2737   4.393   5.298   5.289
  613SOL    HW1 2738   4.432   5.337   5.373
  613SOL    HW2 2739   4.407   5.200   5.288
  614SOL     OW 2740   5.084   5.568   5.642
  614SOL    HW1 2741   5.038   5.523   5.718
  614SOL    HW2 2742   5.181   5.544   5.644
  615SOL     OW 2743   0.122   4.867   0.966
  615SOL    HW1 2744   0.109   4.837   1.060
  615SOL    HW2 2745   0.062   4.945   0.948
  616SOL     OW 2746   6.093   2.932   3.127
  616SOL    HW1 2747   6.075   2.877   3.208
  616SOL    HW2 2748   6.006   2.950   3.079
  617SOL     OW 2749   2.359   5.292   6.001
  617SOL    HW1 2750   2.439   5.331   6.047
  617SOL    HW2 2751   2.347   5.197   6.032
  618SOL     OW 2752   1.348   1.264   2.118
  618SOL    HW1 2753   1.410   1.234   2.046
  618SOL    HW2 2754   1.351   1.199   2.194
  619SOL     OW 2755   1.005   1.427   6.442
  619SOL    HW1 2756   1.043   1.425   6.349
  619SOL    HW2 2757   1.076   1.403   6.508
  620SOL     OW 2758   4.867   3.234   0.145
  620SOL    HW1 2759   4.834   3.151   0.190
  620SOL    HW2 2760   4.961   3.220   0.113
  621SOL     OW 2761   0.458   4.815   0.357
  621SOL    HW1 2762   0.402   4.845   0.435
  621SOL    HW2 2763   0.550   4.854   0.366
  622SOL     OW 2764   2.140   1.626   0.232
  622SOL    HW1 2765   2.119   1.716   0.271
  622SOL    HW2 2766   2.186   1.570   0.301
  623SOL     OW 2767   1.097   4.675   6.494
  623SOL    HW1 2768   1.019   4.657   6.554
  623SOL    HW2 2769   1.132   4.767   6.511
  624SOL     OW 2770   0.883   3.137   2.920
  624SOL    HW1 2771   0.911   3.223   2.878
  624SOL    HW2 2772   0.786   3.122   2.904
  625SOL     OW 2773   2.907   1.267   2.486
  625SOL    HW1 2774   2.988   1.257   2.543
  625SOL    HW2 2775   2.908   1.358   2.444
  626SOL     OW 2776   1.935   6.487   4.224
  626SOL    HW1 2777   1.880   6.565   4.196
  626SOL    HW2 2778   2.028   6.496   4.187
  627SOL     OW 2779   5.511   0.711   0.255
  627SOL    HW1 2780   5.430   0.769   0.266
  627SOL    HW2 2781   5.581   0.761   0.204
  628SOL     OW 2782   4.840   4.397   4.105
  628SOL    HW1 2783   4.783   4.445   4.172
  628SOL    HW2 2784   4.845   4.300   4.129
  629SOL     OW 2785   0.477   0.146   1.010
  629SOL    HW1 2786   0.482   0.245   1.016
  629SOL    HW2 2787   0.567   0.108   0.992
  630SOL     OW 2788   4.086   1.477   1.111
  630SOL    HW1 2789   4.102   1.518   1.201
  630SOL    HW2 2790   4.155   1.511   1.047
  631SOL     OW 2791   2.182   6.966   5.672
  631SOL    HW1 2792   2.110   0.006   5.715
  631SOL    HW2 2793   2.185   6.986   5.574
  632SOL     OW 2794   2.463   0.822   1.045
  632SOL    HW1 2795   2.368   0.844   1.067
  632SOL    HW2 2796   2.490   0.870   0.962
  633SOL     OW 2797   3.326   6.626   6.789
  633SOL    HW1 2798   3.349   6.537   6.750
  633SOL    HW2 2799   3.377   6.698   6.742
  634SOL     OW 2800   4.059   5.914   1.151
  634SOL    HW1 2801   4.054   5.832   1.094
  634SOL    HW2 2802   4.155   5.934   1.171
  635SOL     OW 2803   2.757   0.029   2.911
  635SOL    HW1 2804   2.800   0.041   2.822
  635SOL    HW2 2805   2.682   6.979   2.903
  636SOL     OW 2806   4.886   5.123   6.664
  636SOL    HW1 2807   4.985   5.126   6.667
  636SOL    HW2 2808   4.856   5.090   6.574
  637SOL     OW 2809   4.800   4.757   1.252
  637SOL    HW1 2810   4.757   4.708   1.175
  637SOL    HW2 2811   4.769   4.717   1.338
  638SOL     OW 2812   4.671   1.181   1.824
  638SOL    HW1 2813   4.605   1.239   1.872
  638SOL    HW2 2814   4.692   1.101   1.880
  639SOL     OW 2815   4.200   4.704   1.841
  639SOL    HW1 2816   4.256   4.636   1.889
  639SOL    HW2 2817   4.116   4.660   1.808
  640SOL     OW 2818   3.000   4.052   5.177
  640SOL    HW1 2819   2.923   4.010   5.224
  640SOL    HW2 2820   2.999   4.025   5.081
  641SOL     OW 2821   6.827   5.717   4.893
  641SOL    HW1 2822   6.779   5.672   4.818
  641SOL    HW2 2823   6.857   5.808   4.864
  642SOL     OW 2824   0.204   4.802   4.866
  642SOL    HW1 2825   0.243   4.894   4.867
  642SOL    HW2 2826   0.194   4.768   4.959
  643SOL     OW 2827   6.309   5.415   6.161
  643SOL    HW1 2828   6.330   5.505   6.199
  643SOL    HW2 2829   6.210   5.401   6.162
  644SOL     OW 2830   0.758   6.189   2.668
  644SOL    HW1 2831   0.776   6.137   2.752
  644SOL    HW2 2832   0.699   6.267   2.690
  645SOL     OW 2833   5.262   2.581   4.082
  645SOL    HW1 2834   5.275   2.670   4.125
  645SOL    HW2 2835   5.279   2.509   4.150
  646SOL     OW 2836   1.000   1.178   4.527
  646SOL    HW1 2837   0.945   1.114   4.581
  646SOL    HW2 2838   0.974   1.272   4.551
  647SOL     OW 2839   6.100   2.745   0.328
  647SOL    HW1 2840   6.061   2.747   0.419
  647SOL    HW2 2841   6.199   2.756   0.334
  648SOL     OW 2842   5.762   4.193   2.167
  648SOL    HW1 2843   5.729   4.192   2.072
  648SOL    HW2 2844   5.846   4.140   2.174
  649SOL     OW 2845   4.233   4.707   0.911
  649SOL    HW1 2846   4.316   4.755   0.938
  649SOL    HW2 2847   4.252   4.609   0.904
  650SOL     OW 2848   4.613   4.078   0.484
  650SOL    HW1 2849   4.606   4.053   0.580
  650SOL    HW2 2850   4.649   4.001   0.432
  651SOL     OW 2851   0.832   6.082   0.695
  651SOL    HW1 2852   0.781   6.121   0.771
  651SOL    HW2 2853   0.916   6.039   0.730
  652SOL     OW 2854   4.477   1.363   2.788
  652SOL    HW1 2855   4.549   1.413   2.838
  652SOL    HW2 2856   4.388   1.400   2.813
  653SOL     OW 2857   3.665   4.977   4.254
  653SOL    HW1 2858   3.604   4.963   4.176
  653SOL    HW2 2859   3.669   4.894   4.309
  654SOL     OW 2860   0.103   4.713   6.766
  654SOL    HW1 2861   0.158   4.708   6.849
  654SOL    HW2 2862   0.035   4.640   6.767
  655SOL     OW 2863   0.965   0.483   0.894
  655SOL    HW1 2864   0.989   0.385   0.895
  655SOL    HW2 2865   0.871   0.494   0.927
  656SOL     OW 2866   2.489   6.609   2.418
  656SOL    HW1 2867   2.419   6.562   2.364
  656SOL    HW2 2868   2.448   6.687   2.465
  657SOL     OW 2869   3.316   1.264   0.641
  657SOL    HW1 2870   3.410   1.233   0.630
  657SOL    HW2 2871   3.290   1.257   0.738
  658SOL     OW 2872   2.943   3.838   0.093
  658SOL    HW1 2873   2.988   3.749   0.105
  658SOL    HW2 2874   2.918   3.849   7.013
  659SOL     OW 2875   2.770   6.958   6.944
  659SOL    HW1 2876   2.777   0.039   6.923
  659SOL    HW2 2877   2.785   6.904   6.861
  660SOL     OW 2878   3.633   5.440   2.712
  660SOL    HW1 2879   3.614   5.344   2.735
  660SOL    HW2 2880   3.693   5.444   2.633
  661SOL     OW 2881   3.938   5.765   3.144
  661SOL    HW1 2882   3.975   5.794   3.056
  661SOL    HW2 2883   3.854   5.712   3.129
  662SOL     OW 2884   3.382   1.336   6.173
  662SOL    HW1 2885   3.378   1.422   6.123
  662SOL    HW2 2886   3.373   1.260   6.109
  663SOL     OW 2887   2.489   5.194   5.225
  663SOL    HW1 2888   2.508   5.292   5.230
  663SOL    HW2 2889   2.518   5.159   5.136
  664SOL     OW 2890   6.958   0.279   6.752
  664SOL    HW1 2891   6.953   0.205   6.684
  664SOL    HW2 2892   0.038   0.294   6.778
  665SOL     OW 2893   2.712   5.549   3.582
  665SOL    HW1 2894   2.796   5.507   3.616
  665SOL    HW2 2895   2.668   5.487   3.515
  666SOL     OW 2896   3.787   0.281   2.074
  666SOL    HW1 2897   3.870   0.330   2.047
  666SOL    HW2 2898   3.720   0.346   2.111
  667SOL     OW 2899   0.639   6.205   2.103
  667SOL    HW1 2900   0.715   6.158   2.149
  667SOL    HW2 2901   0.627   6.167   2.011
  668SOL     OW 2902   5.441   4.327   6.052
  668SOL    HW1 2903   5.479   4.394   5.988
  668SOL    HW2 2904   5.517   4.277   6.095
  669SOL     OW 2905   5.456   1.323   2.580
  669SOL    HW1 2906   5.396   1.344   2.657
  669SOL    HW2 2907   5.433   1.233   2.543
  670SOL     OW 2908   1.357   2.239   3.810
  670SOL    HW1 2909   1.387   2.332   3.787
  670SOL    HW2 2910   1.434   2.176   3.803
  671SOL     OW 2911   2.320   6.410   1.552
  671SOL    HW1 2912   2.279   6.448   1.635
  671SOL    HW2 2913   2.251   6.405   1.480
  672SOL     OW 2914   0.262   6.327   1.913
  672SOL    HW1 2915   0.179   6.371   1.879
  672SOL    HW2 2916   0.242   6.276   1.996
  673SOL     OW 2917   5.339   6.422   1.061
  673SOL    HW1 2918   5.324   6.459   0.969
  673SOL    HW2 2919   5.294   6.479   1.129
  674SOL     OW 2920   6.782   1.309   5.227
  674SOL    HW1 2921   6.782   1.256   5.142
  674SOL    HW2 2922   6.721   1.266   5.293
  675SOL     OW 2923   5.713   2.349   2.390
  675SOL    HW1 2924   5.649   2.311   2.457
  675SOL    HW2 2925   5.683   2.440   2.363
  676SOL     OW 2926   2.303   4.530   5.382
  676SOL    HW1 2927   2.274   4.585   5.461
  676SOL    HW2 2928   2.386   4.479   5.405
  677SOL     OW 2929   4.399   1.201   1.190
  677SOL    HW1 2930   4.452   1.185   1.106
  677SOL    HW2 2931   4.420   1.130   1.257
  678SOL     OW 2932   2.382   4.196   5.568
  678SOL    HW1 2933   2.421   4.191   5.476
  678SOL    HW2 2934   2.284   4.212   5.561
  679SOL     OW 2935   5.050   1.263   5.254
  679SOL    HW1 2936   5.035   1.191   5.187
  679SOL    HW2 2937   5.004   1.347   5.225
  680SOL     OW 2938   5.292   0.003   4.028
  680SOL    HW1 2939   5.280   0.094   3.988
  680SOL    HW2 2940   5.222   7.004   4.098
  681SOL     OW 2941   5.352   6.189   2.116
  681SOL    HW1 2942   5.290   6.228   2.184
  681SOL    HW2 2943   5.415   6.125   2.162
  682SOL     OW 2944   0.862   0.873   2.500
  682SOL    HW1 2945   0.940   0.839   2.552
  682SOL    HW2 2946   0.820   0.798   2.449
  683SOL     OW 2947   4.197   3.879   1.154
  683SOL    HW1 2948   4.224   3.915   1.243
  683SOL    HW2 2949   4.237   3.789   1.141
  684SOL     OW 2950   6.362   0.105   6.461
  684SOL    HW1 2951   6.404   0.076   6.547
  684SOL    HW2 2952   6.264   0.086   6.462
  685SOL     OW 2953   3.442   1.129   3.526
  685SOL    HW1 2954   3.440   1.029   3.535
  685SOL    HW2 2955   3.517   1.166   3.582
  686SOL     OW 2956   4.031   1.022   4.384
  686SOL    HW1 2957   4.090   0.944   4.404
  686SOL    HW2 2958   4.076   1.081   4.317
  687SOL     OW 2959   1.080   1.915   4.496
  687SOL    HW1 2960   1.037   1.861   4.569
  687SOL    HW2 2961   1.137   1.856   4.439
  688SOL     OW 2962   6.847   1.603   6.691
  688SOL    HW1 2963   6.881   1.523   6.641
  688SOL    HW2 2964   6.748   1.610   6.679
  689SOL     OW 2965   1.099   5.144   5.563
  689SOL    HW1 2966   1.102   5.176   5.657
  689SOL    HW2 2967   1.083   5.046   5.561
  690SOL     OW 2968   6.181   3.647   2.781
  690SOL    HW1 2969   6.204   3.551   2.795
  690SOL    HW2 2970   6.088   3.665   2.813
  691SOL     OW 2971   4.068   1.584   0.008
  691SOL    HW1 2972   4.119   1.529   6.957
  691SOL    HW2 2973   3.992   1.530   0.044
  692SOL     OW 2974   3.007   1.702   5.170
  692SOL    HW1 2975   3.062   1.751   5.237
  692SOL    HW2 2976   2.965   1.767   5.106
  693SOL     OW 2977   5.008   6.136   3.191
  693SOL    HW1 2978   5.030   6.188   3.274
  693SOL    HW2 2979   5.068   6.167   3.117
  694SOL     OW 2980   4.398   5.740   4.864
  694SOL    HW1 2981   4.388   5.835   4.894
  694SOL    HW2 2982   4.385   5.680   4.943
  695SOL     OW 2983   3.003   6.659   4.101
  695SOL    HW1 2984   2.930   6.595   4.079
  695SOL    HW2 2985   2.984   6.747   4.058
  696SOL     OW 2986   4.838   4.081   3.232
  696SOL    HW1 2987   4.783   4.077   3.316
  696SOL    HW2 2988   4.836   3.992   3.187
  697SOL     OW 2989   0.847   4.614   2.044
  697SOL    HW1 2990   0.927   4.621   1.984
  697SOL    HW2 2991   0.769   4.583   1.990
  698SOL     OW 2992   5.046   6.696   1.407
  698SOL    HW1 2993   5.036   6.647   1.494
  698SOL    HW2 2994   4.998   6.647   1.335
  699SOL     OW 2995   2.786   2.211   0.695
  699SOL    HW1 2996   2.854   2.268   0.649
  699SOL    HW2 2997   2.779   2.123   0.647
  700SOL     OW 2998   3.372   0.113   2.783
  700SOL    HW1 2999   3.332   0.120   2.692
  700SOL    HW2 3000   3.305   0.072   2.845
  701SOL     OW 3001   6.123   4.797   1.323
  701SOL    HW1 3002   6.098   4.844   1.407
  701SOL    HW2 3003   6.170   4.860   1.261
  702SOL     OW 3004   2.915   1.280   4.334
  702SOL    HW1 3005   2.996   1.258   4.389
  702SOL    HW2 3006   2.894   1.203   4.274
  703SOL     OW 3007   2.726   2.930   5.793
  703SOL    HW1 3008   2.809   2.974   5.760
  703SOL    HW2 3009   2.706   2.850   5.737
  704SOL     OW 3010   1.514   2.886   6.143
  704SOL    HW1 3011   1.462   2.802   6.128
  704SOL    HW2 3012   1.472   2.939   6.217
  705SOL     OW 3013   0.053   6.046   4.088
  705SOL    HW1 3014   6.977   6.076   4.060
  705SOL    HW2 3015   0.087   5.977   4.024
  706SOL     OW 3016   4.228   0.813   5.538
  706SOL    HW1 3017   4.226   0.784   5.634
  706SOL    HW2 3018   4.197   0.908   5.531
  707SOL     OW 3019   3.270   5.121   3.747
  707SOL    HW1 3020   3.298   5.200   3.802
  707SOL    HW2 3021   3.282   5.143   3.650
  708SOL     OW 3022   2.552   0.924   3.184
  708SOL    HW1 3023   2.643   0.951   3.153
  708SOL    HW2 3024   2.542   0.944   3.281
  709SOL     OW 3025   2.108   0.269   1.994
  709SOL    HW1 3026   2.022   0.220   1.980
  709SOL    HW2 3027   2.183   0.217   1.952
  710SOL     OW 3028   4.882   2.855   1.808
  710SOL    HW1 3029   4.804   2.908   1.839
  710SOL    HW2 3030   4.934   2.823   1.887
  711SOL     OW 3031   0.346   2.439   5.722
  711SOL    HW1 3032   0.294   2.517   5.689
  711SOL    HW2 3033   0.348   2.441   5.822
  712SOL     OW 3034   4.480   2.587   0.992
  712SOL    HW1 3035   4.508   2.666   0.938
  712SOL    HW2 3036   4.560   2.531   1.014
  713SOL     OW 3037   3.925   2.689   5.339
  713SOL    HW1 3038   3.996   2.634   5.295
  713SOL    HW2 3039   3.849   2.701   5.275
  714SOL     OW 3040   5.814   4.866   3.408
  714SOL    HW1 3041   5.786   4.925   3.332
  714SOL    HW2 3042   5.883   4.914   3.463
  715SOL     OW 3043   6.226   4.947   5.954
  715SOL    HW1 3044   6.244   5.020   6.019
  715SOL    HW2 3045   6.150   4.973   5.894
  716SOL     OW 3046   1.741   0.963   2.516
  716SOL    HW1 3047   1.743   0.973   2.416
  716SOL    HW2 3048   1.762   1.051   2.558
  717SOL     OW 3049   5.410   4.957   3.774
  717SOL    HW1 3050   5.464   4.918   3.700
  717SOL    HW2 3051   5.322   4.909   3.781
  718SOL     OW 3052   5.232   1.838   4.327
  718SOL    HW1 3053   5.159   1.788   4.374
  718SOL    HW2 3054   5.213   1.936   4.333
  719SOL     OW 3055   6.380   0.713   2.630
  719SOL    HW1 3056   6.347   0.763   2.710
  719SOL    HW2 3057   6.462   0.757   2.594
  720SOL     OW 3058   1.838   0.985   6.789
  720SOL    HW1 3059   1.743   0.980   6.758
  720SOL    HW2 3060   1.841   1.035   6.876
  721SOL     OW 3061   6.913   2.472   2.442
  721SOL    HW1 3062   6.916   2.571   2.431
  721SOL    HW2 3063   6.964   2.429   2.367
  722SOL     OW 3064   4.338   0.278   6.638
  722SOL    HW1 3065   4.348   0.277   6.737
  722SOL    HW2 3066   4.396   0.350   6.600
  723SOL     OW 3067   2.299   6.264   3.832
  723SOL    HW1 3068   2.250   6.233   3.751
  723SOL    HW2 3069   2.262   6.352   3.862
  724SOL     OW 3070   0.943   1.432   3.652
  724SOL    HW1 3071   0.984   1.493   3.585
  724SOL    HW2 3072   0.965   1.464   3.744
  725SOL     OW 3073   2.177   4.791   2.048
  725SOL    HW1 3074   2.243   4.722   2.019
  725SOL    HW2 3075   2.215   4.844   2.124
  726SOL     OW 3076   2.312   4.956   0.520
  726SOL    HW1 3077   2.379   4.969   0.593
  726SOL    HW2 3078   2.220   4.973   0.555
  727SOL     OW 3079   4.265   5.120   6.002
  727SOL    HW1 3080   4.277   5.215   5.973
  727SOL    HW2 3081   4.168   5.098   6.005
  728SOL     OW 3082   6.822   3.236   4.901
  728SOL    HW1 3083   6.807   3.237   5.000
  728SOL    HW2 3084   6.848   3.327   4.871
  729SOL     OW 3085   0.300   3.334   1.371
  729SOL    HW1 3086   0.203   3.312   1.380
  729SOL    HW2 3087   0.353   3.276   1.432
  730SOL     OW 3088   5.097   0.875   2.894
  730SOL    HW1 3089   5.157   0.944   2.935
  730SOL    HW2 3090   5.049   0.915   2.816
  731SOL     OW 3091   4.505   4.228   6.888
  731SOL    HW1 3092   4.427   4.278   6.851
  731SOL    HW2 3093   4.555   4.183   6.814
  732SOL     OW 3094   4.589   1.588   2.954
  732SOL    HW1 3095   4.549   1.650   3.022
  732SOL    HW2 3096   4.635   1.512   3.001
  733SOL     OW 3097   6.072   6.506   3.493
  733SOL    HW1 3098   6.076   6.555   3.580
  733SOL    HW2 3099   6.009   6.554   3.431
  734SOL     OW 3100   5.982   5.206   2.720
  734SOL    HW1 3101   5.909   5.216   2.651
  734SOL    HW2 3102   5.943   5.216   2.811
  735SOL     OW 3103   5.621   0.608   1.713
  735SOL    HW1 3104   5.712   0.637   1.683
  735SOL    HW2 3105   5.622   0.592   1.812
  736SOL     OW 3106   1.380   1.322   4.305
  736SOL    HW1 3107   1.462   1.363   4.265
  736SOL    HW2 3108   1.407   1.257   4.376
  737SOL     OW 3109   6.079   1.075   6.395
  737SOL    HW1 3110   6.094   1.168   6.359
  737SOL    HW2 3111   6.126   1.065   6.482
  738SOL     OW 3112   2.590   4.133   1.232
  738SOL    HW1 3113   2.671   4.075   1.240
  738SOL    HW2 3114   2.529   4.115   1.310
  739SOL     OW 3115   2.898   6.809   4.957
  739SOL    HW1 3116   2.830   6.756   5.007
  739SOL    HW2 3117   2.868   6.821   4.862
  740SOL     OW 3118   5.488   2.117   3.059
  740SOL    HW1 3119   5.548   2.196   3.043
  740SOL    HW2 3120   5.450   2.123   3.152
  741SOL     OW 3121   2.525   0.645   4.222
  741SOL    HW1 3122   2.587   0.718   4.195
  741SOL    HW2 3123   2.470   0.617   4.143
  742SOL     OW 3124   1.732   6.324   1.132
  742SOL    HW1 3125   1.808   6.349   1.192
  742SOL    HW2 3126   1.682   6.247   1.171
  743SOL     OW 3127   1.078   6.255   3.607
  743SOL    HW1 3128   0.986   6.217   3.612
  743SOL    HW2 3129   1.129   6.210   3.533
  744SOL     OW 3130   5.575   1.240   0.321
  744SOL    HW1 3131   5.597   1.143   0.307
  744SOL    HW2 3132   5.645   1.282   0.378
  745SOL     OW 3133   2.221   5.662   5.001
  745SOL    HW1 3134   2.157   5.585   4.999
  745SOL    HW2 3135   2.314   5.628   4.990
  746SOL     OW 3136   5.542   4.575   5.338
  746SOL    HW1 3137   5.600   4.531   5.270
  746SOL    HW2 3138   5.599   4.625   5.404
  747SOL     OW 3139   5.314   5.509   3.129
  747SOL    HW1 3140   5.333   5.435   3.193
  747SOL    HW2 3141   5.380   5.507   3.055
  748SOL     OW 3142   5.379   5.763   2.561
  748SOL    HW1 3143   5.410   5.750   2.655
  748SOL    HW2 3144   5.412   5.688   2.503
  749SOL     OW 3145   4.980   4.377   3.495
  749SOL    HW1 3146   4.977   4.374   3.395
  749SOL    HW2 3147   4.927   4.456   3.528
  750SOL     OW 3148   2.406   1.791   1.813
  750SOL    HW1 3149   2.426   1.693   1.814
  750SOL    HW2 3150   2.333   1.809   1.748
  751SOL     OW 3151   4.609   1.408   0.146
  751SOL    HW1 3152   4.701   1.393   0.110
  751SOL    HW2 3153   4.549   1.334   0.115
  752SOL     OW 3154   3.330   2.601   5.299
  752SOL    HW1 3155   3.377   2.573   5.382
  752SOL    HW2 3156   3.299   2.519   5.249
  753SOL     OW 3157   3.874   3.891   5.164
  753SOL    HW1 3158   3.948   3.852   5.108
  753SOL    HW2 3159   3.904   3.896   5.259
  754SOL     OW 3160   5.732   0.601   6.115
  754SOL    HW1 3161   5.637   0.632   6.115
  754SOL    HW2 3162   5.739   0.513   6.162
  755SOL     OW 3163   3.043   4.452   5.363
  755SOL    HW1 3164   2.995   4.471   5.277
  755SOL    HW2 3165   3.081   4.537   5.400
  756SOL     OW 3166   2.674   5.439   6.565
  756SOL    HW1 3167   2.708   5.345   6.566
  756SOL    HW2 3168   2.644   5.463   6.473
  757SOL     OW 3169   1.793   6.667   2.539
  757SOL    HW1 3170   1.709   6.689   2.489
  757SOL    HW2 3171   1.783   6.579   2.585
  758SOL     OW 3172   3.353   1.195   4.343
  758SOL    HW1 3173   3.396   1.281   4.372
  758SOL    HW2 3174   3.281   1.170   4.408
  759SOL     OW 3175   0.213   3.297   4.262
  759SOL    HW1 3176   0.273   3.231   4.307
  759SOL    HW2 3177   0.264   3.381   4.242
  760SOL     OW 3178   0.168   6.948   3.614
  760SOL    HW1 3179   0.164   6.853   3.647
  760SOL    HW2 3180   0.098   6.962   3.544
  761SOL     OW 3181   5.003   4.080   5.457
  761SOL    HW1 3182   4.907   4.071   5.482
  761SOL    HW2 3183   5.011   4.098   5.359
  762SOL     OW 3184   2.953   6.137   5.215
  762SOL    HW1 3185   2.932   6.167   5.308
  762SOL    HW2 3186   3.049   6.111   5.209
  763SOL     OW 3187   5.851   0.492   6.904
  763SOL    HW1 3188   5.825   0.560   6.835
  763SOL    HW2 3189   5.793   0.411   6.893
  764SOL     OW 3190   5.090   6.960   5.157
  764SOL    HW1 3191   4.995   6.932   5.153
  764SOL    HW2 3192   5.105   0.020   5.094
  765SOL     OW 3193   0.902   6.411   0.785
  765SOL    HW1 3194   0.847   6.383   0.863
  765SOL    HW2 3195   0.922   6.509   0.791
  766SOL     OW 3196   1.713   2.338   4.999
  766SOL    HW1 3197   1.650   2.408   5.033
  766SOL    HW2 3198   1.799   2.380   4.971
  767SOL     OW 3199   0.460   6.843   3.709
  767SOL    HW1 3200   0.493   6.901   3.784
  767SOL    HW2 3201   0.384   6.888   3.663
  768SOL     OW 3202   2.598   6.234   2.129
  768SOL    HW1 3203   2.611   6.272   2.220
  768SOL    HW2 3204   2.575   6.308   2.065
  769SOL     OW 3205   2.859   1.924   5.025
  769SOL    HW1 3206   2.864   1.936   4.925
  769SOL    HW2 3207   2.858   2.014   5.068
  770SOL     OW 3208   2.331   4.754   4.505
  770SOL    HW1 3209   2.408   4.690   4.512
  770SOL    HW2 3210   2.282   4.737   4.419
  771SOL     OW 3211   1.373   5.268   2.431
  771SOL    HW1 3212   1.347   5.247   2.525
  771SOL    HW2 3213   1.335   5.198   2.370
  772SOL     OW 3214   4.986   4.841   6.557
  772SOL    HW1 3215   4.955   4.833   6.652
  772SOL    HW2 3216   5.085   4.847   6.554
  773SOL     OW 3217   0.709   3.402   3.703
  773SOL    HW1 3218   0.731   3.440   3.613
  773SOL    HW2 3219   0.790   3.361   3.744
  774SOL     OW 3220   1.857   1.125   3.421
  774SOL    HW1 3221   1.908   1.081   3.347
  774SOL    HW2 3222   1.807   1.204   3.385
  775SOL     OW 3223   2.155   4.053   4.233
  775SOL    HW1 3224   2.141   3.955   4.214
  775SOL    HW2 3225   2.148   4.069   4.332
  776SOL     OW 3226   1.514   6.842   6.316
  776SOL    HW1 3227   1.463   6.922   6.285
  776SOL    HW2 3228   1.518   6.842   6.416
  777SOL     OW 3229   2.327   3.682   6.973
  777SOL    HW1 3230   2.420   3.647   6.990
  777SOL    HW2 3231   2.281   3.621   6.908
  778SOL     OW 3232   3.513   6.740   1.801
  778SOL    HW1 3233   3.565   6.811   1.849
  778SOL    HW2 3234   3.440   6.783   1.747
  779SOL     OW 3235   6.981   2.286   2.238
  779SOL    HW1 3236   7.013   2.248   2.152
  779SOL    HW2 3237   6.887   2.319   2.227
  780SOL     OW 3238   1.501   1.920   5.411
  780SOL    HW1 3239   1.594   1.950   5.433
  780SOL    HW2 3240   1.500   1.879   5.320
  781SOL     OW 3241   0.676   4.004   0.578
  781SOL    HW1 3242   0.632   3.965   0.497
  781SOL    HW2 3243   0.615   4.071   0.620
  782SOL     OW 3244   1.763   3.656   6.310
  782SOL    HW1 3245   1.725   3.748   6.321
  782SOL    HW2 3246   1.851   3.662   6.262
  783SOL     OW 3247   5.683   4.387   6.545
  783SOL    HW1 3248   5.679   4.487   6.545
  783SOL    HW2 3249   5.618   4.351   6.478
  784SOL     OW 3250   3.291   6.418   1.004
  784SOL    HW1 3251   3.280   6.318   1.003
  784SOL    HW2 3252   3.338   6.446   1.088
  785SOL     OW 3253   0.588   0.274   4.336
  785SOL    HW1 3254   0.626   0.225   4.258
  785SOL    HW2 3255   0.607   0.224   4.420
  786SOL     OW 3256   6.670   1.280   3.459
  786SOL    HW1 3257   6.586   1.296   3.407
  786SOL    HW2 3258   6.690   1.360   3.515
  787SOL     OW 3259   2.670   0.059   0.380
  787SOL    HW1 3260   2.744   0.019   0.326
  787SOL    HW2 3261   2.587   0.063   0.325
  788SOL     OW 3262   4.051   3.216   1.011
  788SOL    HW1 3263   3.982   3.149   0.985
  788SOL    HW2 3264   4.037   3.243   1.106
  789SOL     OW 3265   4.467   5.591   1.509
  789SOL    HW1 3266   4.461   5.666   1.444
  789SOL    HW2 3267   4.377   5.549   1.520
  790SOL     OW 3268   0.609   3.050   2.103
  790SOL    HW1 3269   0.520   3.009   2.122
  790SOL    HW2 3270   0.601   3.112   2.024
  791SOL     OW 3271   3.073   5.125   5.015
  791SOL    HW1 3272   2.993   5.178   5.043
  791SOL    HW2 3273   3.084   5.132   4.916
  792SOL     OW 3274   1.135   1.076   1.163
  792SOL    HW1 3275   1.216   1.073   1.221
  792SOL    HW2 3276   1.159   1.054   1.069
  793SOL     OW 3277   3.695   5.557   3.786
  793SOL    HW1 3278   3.612   5.562   3.731
  793SOL    HW2 3279   3.691   5.477   3.846
  794SOL     OW 3280   2.951   3.288   3.691
  794SOL    HW1 3281   2.930   3.225   3.616
  794SOL    HW2 3282   2.926   3.381   3.665
  795SOL     OW 3283   4.025   0.823   6.405
  795SOL    HW1 3284   4.027   0.922   6.417
  795SOL    HW2 3285   4.039   0.800   6.309
  796SOL     OW 3286   1.883   3.141   6.734
  796SOL    HW1 3287   1.885   3.153   6.833
  796SOL    HW2 3288   1.956   3.195   6.692
  797SOL     OW 3289   5.004   6.972   0.535
  797SOL    HW1 3290   5.057   6.906   0.481
  797SOL    HW2 3291   4.948   6.924   0.602
  798SOL     OW 3292   3.910   6.818   0.426
  798SOL    HW1 3293   3.912   6.761   0.509
  798SOL    HW2 3294   3.897   6.914   0.452
  799SOL     OW 3295   1.184   1.781   6.978
  799SOL    HW1 3296   1.211   1.686   6.962
  799SOL    HW2 3297   1.104   1.802   6.922
  800SOL     OW 3298   6.276   1.857   1.506
  800SOL    HW1 3299   6.296   1.899   1.417
  800SOL    HW2 3300   6.362   1.842   1.556
  801SOL     OW 3301   1.765   5.209   5.380
  801SOL    HW1 3302   1.669   5.237   5.392
  801SOL    HW2 3303   1.813   5.217   5.467
  802SOL     OW 3304   5.318   2.327   6.945
  802SOL    HW1 3305   5.374   2.410   6.943
  802SOL    HW2 3306   5.222   2.352   6.932
  803SOL     OW 3307   2.692   0.709   5.348
  803SOL    HW1 3308   2.732   0.691   5.437
  803SOL    HW2 3309   2.733   0.649   5.280
  804SOL     OW 3310   6.711   0.509   1.679
  804SOL    HW1 3311   6.710   0.441   1.605
  804SOL    HW2 3312   6.687   0.464   1.765
  805SOL     OW 3313   3.097   1.110   3.692
  805SOL    HW1 3314   3.021   1.108   3.757
  805SOL    HW2 3315   3.183   1.121   3.740
  806SOL     OW 3316   1.390   6.444   5.124
  806SOL    HW1 3317   1.443   6.444   5.209
  806SOL    HW2 3318   1.335   6.527   5.119
  807SOL     OW 3319   0.526   6.429   5.095
  807SOL    HW1 3320   0.522   6.527   5.112
  807SOL    HW2 3321   0.581   6.411   5.013
  808SOL     OW 3322   5.444   2.766   0.417
  808SOL    HW1 3323   5.358   2.745   0.371
  808SOL    HW2 3324   5.517   2.709   0.380
  809SOL     OW 3325   1.317   5.510   0.302
  809SOL    HW1 3326   1.288   5.415   0.314
  809SOL    HW2 3327   1.416   5.516   0.311
  810SOL     OW 3328   2.737   3.046   0.346
  810SOL    HW1 3329   2.703   3.083   0.432
  810SOL    HW2 3330   2.703   3.102   0.270
  811SOL     OW 3331   5.583   4.948   4.409
  811SOL    HW1 3332   5.615   5.021   4.348
  811SOL    HW2 3333   5.488   4.926   4.388
  812SOL     OW 3334   0.844   2.660   2.293
  812SOL    HW1 3335   0.780   2.628   2.363
  812SOL    HW2 3336   0.862   2.586   2.228
  813SOL     OW 3337   1.444   1.654   4.668
  813SOL    HW1 3338   1.514   1.586   4.645
  813SOL    HW2 3339   1.365   1.608   4.710
  814SOL     OW 3340   1.306   5.521   3.068
  814SOL    HW1 3341   1.212   5.501   3.039
  814SOL    HW2 3342   1.321   5.481   3.159
  815SOL     OW 3343   4.985   2.138   4.051
  815SOL    HW1 3344   4.892   2.168   4.072
  815SOL    HW2 3345   5.041   2.142   4.134
  816SOL     OW 3346   5.211   3.457   0.210
  816SOL    HW1 3347   5.275   3.474   0.284
  816SOL    HW2 3348   5.148   3.384   0.237
  817SOL     OW 3349   1.198   5.264   0.379
  817SOL    HW1 3350   1.116   5.223   0.420
  817SOL    HW2 3351   1.217   5.220   0.291
  818SOL     OW 3352   5.830   3.024   3.467
  818SOL    HW1 3353   5.782   3.093   3.521
  818SOL    HW2 3354   5.765   2.957   3.433
  819SOL     OW 3355   5.071   2.449   2.072
  819SOL    HW1 3356   5.117   2.369   2.110
  819SOL    HW2 3357   4.974   2.429   2.060
  820SOL     OW 3358   2.234   1.705   4.827
  820SOL    HW1 3359   2.191   1.615   4.823
  820SOL    HW2 3360   2.234   1.737   4.921
  821SOL     OW 3361   5.709   3.867   5.053
  821SOL    HW1 3362   5.667   3.918   4.978
  821SOL    HW2 3363   5.640   3.849   5.123
  822SOL     OW 3364   0.941   4.431   3.853
  822SOL    HW1 3365   0.866   4.380   3.811
  822SOL    HW2 3366   0.904   4.494   3.921
  823SOL     OW 3367   0.715   3.553   5.985
  823SOL    HW1 3368   0.666   3.491   6.046
  823SOL    HW2 3369   0.782   3.605   6.038
  824SOL     OW 3370   5.456   1.110   5.591
  824SOL    HW1 3371   5.408   1.148   5.670
  824SOL    HW2 3372   5.551   1.142   5.591
  825SOL     OW 3373   6.681   6.011   0.864
  825SOL    HW1 3374   6.666   6.074   0.940
  825SOL    HW2 3375   6.594   5.973   0.833
  826SOL     OW 3376   3.946   1.363   5.615
  826SOL    HW1 3377   3.997   1.403   5.539
  826SOL    HW2 3378   4.004   1.362   5.697
  827SOL     OW 3379   3.286   3.727   4.328
  827SOL    HW1 3380   3.211   3.791   4.347
  827SOL    HW2 3381   3.363   3.746   4.390
  828SOL     OW 3382   5.945   6.103   4.767
  828SOL    HW1 3383   5.873   6.033   4.767
  828SOL    HW2 3384   5.998   6.097   4.683
  829SOL     OW 3385   3.323   2.953   3.014
  829SOL    HW1 3386   3.345   2.920   3.106
  829SOL    HW2 3387   3.403   2.998   2.974
  830SOL     OW 3388   6.562   4.722   0.055
  830SOL    HW1 3389   6.508   4.726   0.139
  830SOL    HW2 3390   6.634   4.792   0.058
  831SOL     OW 3391   5.798   6.075   1.109
  831SOL    HW1 3392   5.816   6.006   1.179
  831SOL    HW2 3393   5.870   6.144   1.111
  832SOL     OW 3394   3.204   1.830   4.980
  832SOL    HW1 3395   3.227   1.762   5.049
  832SOL    HW2 3396   3.182   1.784   4.894
  833SOL     OW 3397   1.767   3.235   6.122
  833SOL    HW1 3398   1.802   3.142   6.117
  833SOL    HW2 3399   1.821   3.295   6.063
  834SOL     OW 3400   4.883   3.716   6.722
  834SOL    HW1 3401   4.937   3.724   6.806
  834SOL    HW2 3402   4.840   3.626   6.719
  835SOL     OW 3403   1.162   0.444   3.865
  835SOL    HW1 3404   1.125   0.525   3.819
  835SOL    HW2 3405   1.262   0.446   3.861
  836SOL     OW 3406   3.308   1.135   5.346
  836SOL    HW1 3407   3.286   1.105   5.439
  836SOL    HW2 3408   3.223   1.154   5.297
  837SOL     OW 3409   1.579   0.457   0.651
  837SOL    HW1 3410   1.650   0.520   0.681
  837SOL    HW2 3411   1.585   0.372   0.703
  838SOL     OW 3412   1.964   5.464   3.874
  838SOL    HW1 3413   2.033   5.413   3.926
  838SOL    HW2 3414   1.984   5.561   3.877
  839SOL     OW 3415   1.565   1.316   1.353
  839SOL    HW1 3416   1.657   1.328   1.389
  839SOL    HW2 3417   1.503   1.290   1.427
  840SOL     OW 3418   5.151   5.540   0.117
  840SOL    HW1 3419   5.097   5.588   0.186
  840SOL    HW2 3420   5.090   5.491   0.055
  841SOL     OW 3421   3.568   4.772   5.458
  841SOL    HW1 3422   3.628   4.842   5.497
  841SOL    HW2 3423   3.530   4.806   5.371
  842SOL     OW 3424   3.135   0.495   0.538
  842SOL    HW1 3425   3.059   0.477   0.476
  842SOL    HW2 3426   3.147   0.417   0.599
  843SOL     OW 3427   1.340   1.726   2.036
  843SOL    HW1 3428   1.262   1.726   2.099
  843SOL    HW2 3429   1.308   1.709   1.943
  844SOL     OW 3430   6.616   0.134   1.102
  844SOL    HW1 3431   6.550   0.199   1.065
  844SOL    HW2 3432   6.581   0.094   1.186
  845SOL     OW 3433   3.222   1.667   2.859
  845SOL    HW1 3434   3.321   1.654   2.851
  845SOL    HW2 3435   3.192   1.733   2.790
  846SOL     OW 3436   2.539   2.150   0.335
  846SOL    HW1 3437   2.638   2.147   0.318
  846SOL    HW2 3438   2.519   2.222   0.401
  847SOL     OW 3439   2.616   3.728   1.465
  847SOL    HW1 3440   2.544   3.714   1.532
  847SOL    HW2 3441   2.587   3.693   1.376
  848SOL     OW 3442   6.668   6.404   6.307
  848SOL    HW1 3443   6.726   6.478   6.271
  848SOL    HW2 3444   6.574   6.418   6.277
  849SOL     OW 3445   5.963   4.031   0.239
  849SOL    HW1 3446   6.055   3.993   0.250
  849SOL    HW2 3447   5.942   4.042   0.142
  850SOL     OW 3448   0.330   0.716   5.397
  850SOL    HW1 3449   0.236   0.750   5.398
  850SOL    HW2 3450   0.336   0.638   5.334
  851SOL     OW 3451   6.533   2.935   6.160
  851SOL    HW1 3452   6.609   2.953   6.096
  851SOL    HW2 3453   6.495   3.023   6.190
  852SOL     OW 3454   0.091   3.493   1.945
  852SOL    HW1 3455   0.107   3.517   1.849
  852SOL    HW2 3456   0.159   3.425   1.973
  853SOL     OW 3457   2.093   3.929   0.231
  853SOL    HW1 3458   2.115   3.857   0.297
  853SOL    HW2 3459   2.162   3.933   0.160
  854SOL     OW 3460   6.100   6.426   6.855
  854SOL    HW1 3461   6.162   6.476   6.916
  854SOL    HW2 3462   6.146   6.409   6.768
  855SOL     OW 3463   6.772   1.102   0.237
  855SOL    HW1 3464   6.775   1.183   0.178
  855SOL    HW2 3465   6.693   1.045   0.212
  856SOL     OW 3466   2.133   6.522   6.755
  856SOL    HW1 3467   2.051   6.572   6.726
  856SOL    HW2 3468   2.195   6.584   6.802
  857SOL     OW 3469   6.862   5.155   4.343
  857SOL    HW1 3470   6.825   5.193   4.258
  857SOL    HW2 3471   6.790   5.147   4.411
  858SOL     OW 3472   3.733   3.461   0.451
  858SOL    HW1 3473   3.790   3.386   0.483
  858SOL    HW2 3474   3.705   3.445   0.356
  859SOL     OW 3475   4.164   6.971   5.224
  859SOL    HW1 3476   4.124   0.037   5.184
  859SOL    HW2 3477   4.263   6.973   5.213
  860SOL     OW 3478   5.153   2.699   5.437
  860SOL    HW1 3479   5.144   2.620   5.497
  860SOL    HW2 3480   5.136   2.783   5.489
  861SOL     OW 3481   2.316   5.797   2.518
  861SOL    HW1 3482   2.390   5.864   2.519
  861SOL    HW2 3483   2.233   5.839   2.481
  862SOL     OW 3484   1.709   4.547   3.700
  862SOL    HW1 3485   1.769   4.529   3.777
  862SOL    HW2 3486   1.619   4.507   3.717
  863SOL     OW 3487   0.275   0.118   6.352
  863SOL    HW1 3488   0.341   0.189   6.330
  863SOL    HW2 3489   0.206   0.112   6.279
  864SOL     OW 3490   4.900   0.203   5.280
  864SOL    HW1 3491   4.950   0.271   5.227
  864SOL    HW2 3492   4.959   0.123   5.296
  865SOL     OW 3493   1.867   5.636   4.278
  865SOL    HW1 3494   1.779   5.653   4.234
  865SOL    HW2 3495   1.917   5.565   4.228
  866SOL     OW 3496   2.210   6.418   1.969
  866SOL    HW1 3497   2.187   6.392   2.063
  866SOL    HW2 3498   2.303   6.387   1.949
  867SOL     OW 3499   6.155   1.780   0.666
  867SOL    HW1 3500   6.117   1.850   0.606
  867SOL    HW2 3501   6.179   1.821   0.754
  868SOL     OW 3502   6.714   2.307   2.122
  868SOL    HW1 3503   6.713   2.209   2.099
  868SOL    HW2 3504   6.621   2.343   2.114
  869SOL     OW 3505   0.106   3.971   3.967
  869SOL    HW1 3506   0.078   4.067   3.978
  869SOL    HW2 3507   0.054   3.914   4.031
  870SOL     OW 3508   3.270   5.072   1.306
  870SOL    HW1 3509   3.363   5.036   1.311
  870SOL    HW2 3510   3.268   5.149   1.241
  871SOL     OW 3511   4.815   1.712   3.440
  871SOL    HW1 3512   4.813   1.750   3.533
  871SOL    HW2 3513   4.910   1.705   3.410
  872SOL     OW 3514   6.725   2.699   4.055
  872SOL    HW1 3515   6.818   2.724   4.083
  872SOL    HW2 3516   6.696   2.758   3.980
  873SOL     OW 3517   4.334   6.575   5.426
  873SOL    HW1 3518   4.292   6.537   5.508
  873SOL    HW2 3519   4.267   6.582   5.352
  874SOL     OW 3520   5.608   3.737   0.327
  874SOL    HW1 3521   5.705   3.719   0.342
  874SOL    HW2 3522   5.598   3.801   0.250
  875SOL     OW 3523   4.937   5.180   1.194
  875SOL    HW1 3524   4.894   5.195   1.105
  875SOL    HW2 3525   4.892   5.104   1.240
  876SOL     OW 3526   0.467   5.389   2.335
  876SOL    HW1 3527   0.547   5.379   2.394
  876SOL    HW2 3528   0.384   5.371   2.387
  877SOL     OW 3529   3.217   4.250   6.949
  877SOL    HW1 3530   3.217   4.326   7.014
  877SOL    HW2 3531   3.203   4.164   6.999
  878SOL     OW 3532   3.971   6.923   3.890
  878SOL    HW1 3533   4.066   6.893   3.903
  878SOL    HW2 3534   3.965   6.980   3.808
  879SOL     OW 3535   4.626   0.572   0.280
  879SOL    HW1 3536   4.651   0.618   0.195
  879SOL    HW2 3537   4.663   0.623   0.358
  880SOL     OW 3538   2.927   3.800   3.669
  880SOL    HW1 3539   2.903   3.803   3.572
  880SOL    HW2 3540   2.965   3.888   3.696
  881SOL     OW 3541   4.474   2.559   5.123
  881SOL    HW1 3542   4.442   2.626   5.190
  881SOL    HW2 3543   4.396   2.505   5.091
  882SOL     OW 3544   0.783   3.176   4.553
  882SOL    HW1 3545   0.848   3.251   4.561
  882SOL    HW2 3546   0.710   3.187   4.621
  883SOL     OW 3547   3.086   0.199   2.368
  883SOL    HW1 3548   3.012   0.233   2.427
  883SOL    HW2 3549   3.166   0.178   2.425
  884SOL     OW 3550   4.929   3.091   4.921
  884SOL    HW1 3551   5.016   3.132   4.950
  884SOL    HW2 3552   4.863   3.096   4.996
  885SOL     OW 3553   2.721   1.433   5.722
  885SOL    HW1 3554   2.703   1.335   5.709
  885SOL    HW2 3555   2.641   1.485   5.691
  886SOL     OW 3556   3.555   0.660   0.408
  886SOL    HW1 3557   3.469   0.681   0.454
  886SOL    HW2 3558   3.552   0.693   0.314
  887SOL     OW 3559   4.010   0.256   3.891
  887SOL    HW1 3560   3.951   0.318   3.840
  887SOL    HW2 3561   3.959   0.217   3.968
  888SOL     OW 3562   0.912   0.740   2.970
  888SOL    HW1 3563   0.957   0.828   2.959
  888SOL    HW2 3564   0.944   0.677   2.899
  889SOL     OW 3565   0.782   3.729   0.024
  889SOL    HW1 3566   0.756   3.824   0.010
  889SOL    HW2 3567   0.707   3.681   0.071
  890SOL     OW 3568   1.701   5.347   3.781
  890SOL    HW1 3569   1.797   5.375   3.789
  890SOL    HW2 3570   1.656   5.356   3.870
  891SOL     OW 3571   5.470   5.086   1.053
  891SOL    HW1 3572   5.540   5.086   1.125
  891SOL    HW2 3573   5.381   5.062   1.093
  892SOL     OW 3574   2.422   3.976   5.703
  892SOL    HW1 3575   2.408   4.064   5.658
  892SOL    HW2 3576   2.404   3.902   5.638
  893SOL     OW 3577   2.337   6.297   2.871
  893SOL    HW1 3578   2.260   6.351   2.905
  893SOL    HW2 3579   2.347   6.313   2.773
  894SOL     OW 3580   0.861   3.607   1.377
  894SOL    HW1 3581   0.829   3.592   1.471
  894SOL    HW2 3582   0.957   3.634   1.378
  895SOL     OW 3583   0.421   5.264   3.226
  895SOL    HW1 3584   0.357   5.302   3.293
  895SOL    HW2 3585   0.514   5.289   3.252
  896SOL     OW 3586   6.322   5.390   0.346
  896SOL    HW1 3587   6.309   5.397   0.445
  896SOL    HW2 3588   6.259   5.322   0.309
  897SOL     OW 3589   4.893   1.357   0.561
  897SOL    HW1 3590   4.987   1.324   0.548
  897SOL    HW2 3591   4.829   1.283   0.542
  898SOL     OW 3592   3.323   5.504   2.654
  898SOL    HW1 3593   3.385   5.556   2.595
  898SOL    HW2 3594   3.304   5.415   2.612
  899SOL     OW 3595   0.628   5.320   6.223
  899SOL    HW1 3596   0.545   5.371   6.199
  899SOL    HW2 3597   0.681   5.371   6.290
  900SOL     OW 3598   5.675   6.730   0.047
  900SOL    HW1 3599   5.753   6.781   0.085
  900SOL    HW2 3600   5.681   6.731   6.963
  901SOL     OW 3601   2.082   0.580   2.567
  901SOL    HW1 3602   2.102   0.636   2.647
  901SOL    HW2 3603   1.985   0.559   2.565
  902SOL     OW 3604   6.984   3.422   0.604
  902SOL    HW1 3605   6.896   3.469   0.606
  902SOL    HW2 3606   7.001   3.380   0.693
  903SOL     OW 3607   7.008   2.549   6.302
  903SOL    HW1 3608   6.920   2.591   6.325
  903SOL    HW2 3609   6.993   2.455   6.269
  904SOL     OW 3610   3.000   2.245   3.915
  904SOL    HW1 3611   3.007   2.158   3.867
  904SOL    HW2 3612   3.079   2.302   3.894
  905SOL     OW 3613   5.398   2.449   0.371
  905SOL    HW1 3614   5.459   2.526   0.353
  905SOL    HW2 3615   5.304   2.483   0.378
  906SOL     OW 3616   0.525   2.177   5.888
  906SOL    HW1 3617   0.426   2.185   5.875
  906SOL    HW2 3618   0.555   2.241   5.958
  907SOL     OW 3619   5.043   3.706   0.055
  907SOL    HW1 3620   5.045   3.799   0.092
  907SOL    HW2 3621   5.062   3.641   0.129
  908SOL     OW 3622   2.535   4.877   2.366
  908SOL    HW1 3623   2.609   4.876   2.299
  908SOL    HW2 3624   2.555   4.945   2.436
  909SOL     OW 3625   4.218   5.251   6.598
  909SOL    HW1 3626   4.202   5.161   6.557
  909SOL    HW2 3627   4.309   5.284   6.572
  910SOL     OW 3628   2.754   2.980   1.315
  910SOL    HW1 3629   2.752   2.909   1.245
  910SOL    HW2 3630   2.777   2.940   1.403
  911SOL     OW 3631   1.817   5.785   6.024
  911SOL    HW1 3632   1.806   5.807   5.927
  911SOL    HW2 3633   1.829   5.869   6.076
  912SOL     OW 3634   5.351   2.802   3.559
  912SOL    HW1 3635   5.294   2.779   3.638
  912SOL    HW2 3636   5.293   2.838   3.486
  913SOL     OW 3637   5.264   6.496   3.347
  913SOL    HW1 3638   5.359   6.514   3.319
  913SOL    HW2 3639   5.203   6.511   3.269
  914SOL     OW 3640   2.760   0.514   6.614
  914SOL    HW1 3641   2.715   0.568   6.686
  914SOL    HW2 3642   2.693   0.455   6.569
  915SOL     OW 3643   5.922   4.957   0.453
  915SOL    HW1 3644   6.003   5.004   0.488
  915SOL    HW2 3645   5.940   4.859   0.450
  916SOL     OW 3646   1.196   2.246   2.250
  916SOL    HW1 3647   1.282   2.224   2.203
  916SOL    HW2 3648   1.158   2.331   2.212
  917SOL     OW 3649   0.345   6.638   0.493
  917SOL    HW1 3650   0.425   6.608   0.545
  917SOL    HW2 3651   0.335   6.737   0.502
  918SOL     OW 3652   2.522   6.797   0.978
  918SOL    HW1 3653   2.620   6.798   0.995
  918SOL    HW2 3654   2.498   6.714   0.927
  919SOL     OW 3655   5.728   1.573   3.701
  919SOL    HW1 3656   5.763   1.623   3.780
  919SOL    HW2 3657   5.785   1.591   3.621
  920SOL     OW 3658   2.451   4.498   1.380
  920SOL    HW1 3659   2.357   4.525   1.359
  920SOL    HW2 3660   2.470   4.517   1.477
  921SOL     OW 3661   5.313   5.846   4.606
  921SOL    HW1 3662   5.223   5.807   4.620
  921SOL    HW2 3663   5.308   5.946   4.614
  922SOL     OW 3664   3.800   3.602   4.291
  922SOL    HW1 3665   3.807   3.630   4.195
  922SOL    HW2 3666   3.878   3.545   4.315
  923SOL     OW 3667   2.190   2.923   5.651
  923SOL    HW1 3668   2.234   3.005   5.688
  923SOL    HW2 3669   2.242   2.890   5.573
  924SOL     OW 3670   6.601   3.757   2.487
  924SOL    HW1 3671   6.635   3.679   2.435
  924SOL    HW2 3672   6.529   3.727   2.549
  925SOL     OW 3673   6.690   2.080   0.341
  925SOL    HW1 3674   6.649   2.026   0.414
  925SOL    HW2 3675   6.662   2.176   0.350
  926SOL     OW 3676   0.101   1.542   1.707
  926SOL    HW1 3677   0.178   1.529   1.645
  926SOL    HW2 3678   0.072   1.638   1.705
  927SOL     OW 3679   5.750   3.591   4.019
  927SOL    HW1 3680   5.673   3.535   3.988
  927SOL    HW2 3681   5.721   3.646   4.097
  928SOL     OW 3682   3.136   6.047   6.655
  928SOL    HW1 3683   3.103   6.126   6.706
  928SOL    HW2 3684   3.220   6.014   6.696
  929SOL     OW 3685   6.513   1.414   6.643
  929SOL    HW1 3686   6.559   1.408   6.732
  929SOL    HW2 3687   6.578   1.392   6.571
  930SOL     OW 3688   3.995   4.680   6.019
  930SOL    HW1 3689   3.947   4.609   5.968
  930SOL    HW2 3690   3.966   4.678   6.115
  931SOL     OW 3691   6.187   2.660   3.653
  931SOL    HW1 3692   6.117   2.732   3.657
  931SOL    HW2 3693   6.255   2.684   3.584
  932SOL     OW 3694   3.836   0.465   3.771
  932SOL    HW1 3695   3.867   0.530   3.702
  932SOL    HW2 3696   3.741   0.485   3.795
  933SOL     OW 3697   1.543   5.066   2.877
  933SOL    HW1 3698   1.606   5.050   2.953
  933SOL    HW2 3699   1.494   5.152   2.891
  934SOL     OW 3700   2.315   5.806   6.219
  934SOL    HW1 3701   2.264   5.720   6.229
  934SOL    HW2 3702   2.273   5.861   6.146
  935SOL     OW 3703   5.042   4.048   3.452
  935SOL    HW1 3704   5.014   4.074   3.544
  935SOL    HW2 3705   4.962   4.022   3.399
  936SOL     OW 3706   1.455   0.486   6.010
  936SOL    HW1 3707   1.431   0.432   5.930
  936SOL    HW2 3708   1.475   0.425   6.087
  937SOL     OW 3709   4.150   1.107   5.333
  937SOL    HW1 3710   4.166   1.198   5.294
  937SOL    HW2 3711   4.104   1.115   5.421
  938SOL     OW 3712   6.790   5.736   3.705
  938SOL    HW1 3713   6.759   5.758   3.613
  938SOL    HW2 3714   6.711   5.720   3.764
  939SOL     OW 3715   6.757   6.609   5.056
  939SOL    HW1 3716   6.799   6.695   5.028
  939SOL    HW2 3717   6.787   6.536   4.995
  940SOL     OW 3718   1.325   4.854   0.631
  940SOL    HW1 3719   1.370   4.928   0.582
  940SOL    HW2 3720   1.391   4.809   0.691
  941SOL     OW 3721   4.420   0.651   5.991
  941SOL    HW1 3722   4.453   0.558   5.974
  941SOL    HW2 3723   4.485   0.699   6.050
  942SOL     OW 3724   6.797   5.542   1.149
  942SOL    HW1 3725   6.821   5.447   1.170
  942SOL    HW2 3726   6.720   5.544   1.085
  943SOL     OW 3727   2.954   4.945   2.723
  943SOL    HW1 3728   2.967   5.044   2.723
  943SOL    HW2 3729   2.858   4.923   2.737
  944SOL     OW 3730   0.483   6.301   4.308
  944SOL    HW1 3731   0.432   6.280   4.392
  944SOL    HW2 3732   0.546   6.377   4.325
  945SOL     OW 3733   0.629   5.909   5.388
  945SOL    HW1 3734   0.534   5.887   5.407
  945SOL    HW2 3735   0.642   5.920   5.289
  946SOL     OW 3736   4.967   4.793   4.028
  946SOL    HW1 3737   4.966   4.843   4.114
  946SOL    HW2 3738   4.874   4.793   3.989
  947SOL     OW 3739   4.080   3.776   3.568
  947SOL    HW1 3740   4.009   3.826   3.617
  947SOL    HW2 3741   4.122   3.709   3.630
  948SOL     OW 3742   4.872   1.500   2.241
  948SOL    HW1 3743   4.917   1.565   2.302
  948SOL    HW2 3744   4.796   1.455   2.288
  949SOL     OW 3745   3.146   6.436   6.929
  949SOL    HW1 3746   3.237   6.465   6.899
  949SOL    HW2 3747   3.146   6.420   0.012
  950SOL     OW 3748   6.594   5.899   2.038
  950SOL    HW1 3749   6.603   5.845   2.121
  950SOL    HW2 3750   6.501   5.936   2.032
  951SOL     OW 3751   1.566   0.202   3.436
  951SOL    HW1 3752   1.568   0.161   3.528
  951SOL    HW2 3753   1.527   0.137   3.371
  952SOL     OW 3754   4.253   1.929   2.210
  952SOL    HW1 3755   4.251   2.019   2.166
  952SOL    HW2 3756   4.167   1.882   2.192
  953SOL     OW 3757   0.105   5.343   4.868
  953SOL    HW1 3758   0.043   5.298   4.933
  953SOL    HW2 3759   0.092   5.442   4.873
  954SOL     OW 3760   5.123   5.399   2.530
  954SOL    HW1 3761   5.169   5.460   2.465
  954SOL    HW2 3762   5.097   5.314   2.485
  955SOL     OW 3763   1.294   4.223   6.624
  955SOL    HW1 3764   1.356   4.146   6.633
  955SOL    HW2 3765   1.202   4.196   6.653
  956SOL     OW 3766   6.783   0.578   1.153
  956SOL    HW1 3767   6.789   0.497   1.212
  956SOL    HW2 3768   6.692   0.619   1.163
  957SOL     OW 3769   6.441   2.354   3.577
  957SOL    HW1 3770   6.461   2.389   3.486
  957SOL    HW2 3771   6.460   2.425   3.645
  958SOL     OW 3772   5.260   7.004   2.208
  958SOL    HW1 3773   5.166   6.996   2.176
  958SOL    HW2 3774   5.260   0.022   2.303
  959SOL     OW 3775   3.523   0.280   3.925
  959SOL    HW1 3776   3.500   0.313   3.833
  959SOL    HW2 3777   3.526   0.180   3.925
  960SOL     OW 3778   0.991   0.616   0.240
  960SOL    HW1 3779   0.939   0.680   0.183
  960SOL    HW2 3780   1.088   0.641   0.237
  961SOL     OW 3781   3.081   6.426   3.356
  961SOL    HW1 3782   3.043   6.505   3.308
  961SOL    HW2 3783   3.179   6.422   3.340
  962SOL     OW 3784   6.524   6.806   5.098
  962SOL    HW1 3785   6.551   6.844   5.187
  962SOL    HW2 3786   6.599   6.752   5.061
  963SOL     OW 3787   4.649   2.466   1.326
  963SOL    HW1 3788   4.680   2.471   1.232
  963SOL    HW2 3789   4.674   2.377   1.365
  964SOL     OW 3790   5.013   4.289   4.945
  964SOL    HW1 3791   5.065   4.318   4.865
  964SOL    HW2 3792   4.965   4.367   4.983
  965SOL     OW 3793   5.388   2.055   2.792
  965SOL    HW1 3794   5.417   2.099   2.877
  965SOL    HW2 3795   5.330   2.118   2.741
  966SOL     OW 3796   5.273   1.963   3.806
  966SOL    HW1 3797   5.183   1.934   3.838
  966SOL    HW2 3798   5.289   1.926   3.715
  967SOL     OW 3799   4.955   4.018   6.105
  967SOL    HW1 3800   4.914   3.931   6.132
  967SOL    HW2 3801   4.957   4.025   6.006
  968SOL     OW 3802   3.800   0.155   1.835
  968SOL    HW1 3803   3.886   0.190   1.798
  968SOL    HW2 3804   3.778   0.204   1.919
  969SOL     OW 3805   3.299   4.656   5.357
  969SOL    HW1 3806   3.384   4.691   5.318
  969SOL    HW2 3807   3.222   4.682   5.299
  970SOL     OW 3808   6.102   0.178   5.409
  970SOL    HW1 3809   6.063   0.112   5.474
  970SOL    HW2 3810   6.178   0.134   5.361
  971SOL     OW 3811   6.919   4.340   3.126
  971SOL    HW1 3812   6.828   4.365   3.161
  971SOL    HW2 3813   6.958   4.268   3.182
  972SOL     OW 3814   6.960   2.257   1.282
  972SOL    HW1 3815   6.903   2.339   1.282
  972SOL    HW2 3816   6.996   2.242   1.374
  973SOL     OW 3817   0.531   4.420   6.511
  973SOL    HW1 3818   0.435   4.403   6.532
  973SOL    HW2 3819   0.538   4.473   6.427
  974SOL     OW 3820   0.157   4.986   4.551
  974SOL    HW1 3821   0.238   5.002   4.608
  974SOL    HW2 3822   0.180   4.921   4.478
  975SOL     OW 3823   2.023   6.703   2.375
  975SOL    HW1 3824   1.926   6.704   2.400
  975SOL    HW2 3825   2.051   6.795   2.347
  976SOL     OW 3826   6.378   4.643   2.236
  976SOL    HW1 3827   6.435   4.562   2.238
  976SOL    HW2 3828   6.282   4.617   2.221
  977SOL     OW 3829   0.290   1.710   2.195
  977SOL    HW1 3830   0.379   1.669   2.175
  977SOL    HW2 3831   0.278   1.717   2.294
  978SOL     OW 3832   5.173   2.600   2.373
  978SOL    HW1 3833   5.143   2.674   2.313
  978SOL    HW2 3834   5.202   2.637   2.461
  979SOL     OW 3835   0.399   3.369   0.269
  979SOL    HW1 3836   0.359   3.314   0.342
  979SOL    HW2 3837   0.354   3.347   0.182
  980SOL     OW 3838   3.867   1.633   5.239
  980SOL    HW1 3839   3.810   1.574   5.182
  980SOL    HW2 3840   3.811   1.709   5.274
  981SOL     OW 3841   6.676   0.234   4.676
  981SOL    HW1 3842   6.702   0.161   4.740
  981SOL    HW2 3843   6.707   0.322   4.712
  982SOL     OW 3844   0.744   1.467   5.415
  982SOL    HW1 3845   0.788   1.414   5.342
  982SOL    HW2 3846   0.711   1.554   5.378
  983SOL     OW 3847   0.502   3.541   3.789
  983SOL    HW1 3848   0.431   3.559   3.722
  983SOL    HW2 3849   0.566   3.472   3.752
  984SOL     OW 3850   1.625   1.983   2.887
  984SOL    HW1 3851   1.658   1.955   2.977
  984SOL    HW2 3852   1.654   2.077   2.868
  985SOL     OW 3853   6.271   3.912   4.425
  985SOL    HW1 3854   6.277   3.930   4.326
  985SOL    HW2 3855   6.195   3.963   4.464
  986SOL     OW 3856   5.406   4.234   1.110
  986SOL    HW1 3857   5.430   4.138   1.094
  986SOL    HW2 3858   5.381   4.247   1.206
  987SOL     OW 3859   5.872   5.278   3.665
  987SOL    HW1 3860   5.817   5.325   3.735
  987SOL    HW2 3861   5.961   5.324   3.657
  988SOL     OW 3862   3.495   3.861   1.437
  988SOL    HW1 3863   3.545   3.905   1.512
  988SOL    HW2 3864   3.397   3.877   1.449
  989SOL     OW 3865   0.070   2.155   0.860
  989SOL    HW1 3866   0.115   2.066   0.851
  989SOL    HW2 3867   0.139   2.226   0.876
  990SOL     OW 3868   3.513   0.380   3.193
  990SOL    HW1 3869   3.564   0.307   3.238
  990SOL    HW2 3870   3.560   0.407   3.109
  991SOL     OW 3871   6.794   4.085   4.201
  991SOL    HW1 3872   6.824   4.177   4.225
  991SOL    HW2 3873   6.773   4.034   4.285
  992SOL     OW 3874   0.558   2.808   1.576
  992SOL    HW1 3875   0.633   2.836   1.635
  992SOL    HW2 3876   0.589   2.807   1.481
  993SOL     OW 3877   1.813   5.152   0.948
  993SOL    HW1 3878   1.891   5.150   1.011
  993SOL    HW2 3879   1.754   5.073   0.966
  994SOL     OW 3880   3.422   6.418   1.248
  994SOL    HW1 3881   3.514   6.442   1.218
  994SOL    HW2 3882   3.405   6.457   1.338
  995SOL     OW 3883   5.512   3.862   5.236
  995SOL    HW1 3884   5.444   3.930   5.208
  995SOL    HW2 3885   5.558   3.893   5.319
  996SOL     OW 3886   3.820   6.235   5.551
  996SOL    HW1 3887   3.836   6.311   5.488
  996SOL    HW2 3888   3.723   6.233   5.576
  997SOL     OW 3889   1.409   6.410   3.902
  997SOL    HW1 3890   1.503   6.378   3.912
  997SOL    HW2 3891   1.393   6.488   3.964
  998SOL     OW 3892   6.018   0.071   6.335
  998SOL    HW1 3893   6.045   0.104   6.426
  998SOL    HW2 3894   5.994   0.148   6.277
  999SOL     OW 3895   4.855   3.423   1.795
  999SOL    HW1 3896   4.903   3.340   1.822
  999SOL    HW2 3897   4.761   3.401   1.770
 1000SOL     OW 3898   3.862   1.523   1.712
 1000SOL    HW1 3899   3.849   1.554   1.806
 1000SOL    HW2 3900   3.855   1.601   1.650
 1001SOL     OW 3901   3.119   6.754   2.294
 1001SOL    HW1 3902   3.136   6.685   2.223
 1001SOL    HW2 3903   3.201   6.767   2.349
 1002SOL     OW 3904   5.429   2.963   1.386
 1002SOL    HW1 3905   5.391   2.891   1.327
 1002SOL    HW2 3906   5.360   3.033   1.402
 1003SOL     OW 3907   1.388   5.889   1.911
 1003SOL    HW1 3908   1.472   5.941   1.897
 1003SOL    HW2 3909   1.411   5.803   1.958
 1004SOL     OW 3910   5.545   1.957   3.455
 1004SOL    HW1 3911   5.446   1.970   3.466
 1004SOL    HW2 3912   5.584   1.930   3.543
 1005SOL     OW 3913   1.670   4.767   4.910
 1005SOL    HW1 3914   1.650   4.828   4.987
 1005SOL    HW2 3915   1.766   4.740   4.915
 1006SOL     OW 3916   2.337   3.848   0.463
 1006SOL    HW1 3917   2.327   3.863   0.561
 1006SOL    HW2 3918   2.430   3.820   0.443
 1007SOL     OW 3919   4.423   1.815   6.364
 1007SOL    HW1 3920   4.508   1.840   6.410
 1007SOL    HW2 3921   4.384   1.896   6.320
 1008SOL     OW 3922   0.574   4.513   5.183
 1008SOL    HW1 3923   0.512   4.459   5.127
 1008SOL    HW2 3924   0.638   4.562   5.123
 1009SOL     OW 3925   6.174   4.986   5.295
 1009SOL    HW1 3926   6.212   4.904   5.252
 1009SOL    HW2 3927   6.213   5.067   5.253
 1010SOL     OW 3928   2.227   3.123   1.478
 1010SOL    HW1 3929   2.221   3.204   1.419
 1010SOL    HW2 3930   2.244   3.152   1.572
 1011SOL     OW 3931   0.738   5.122   2.553
 1011SOL    HW1 3932   0.691   5.051   2.501
 1011SOL    HW2 3933   0.706   5.212   2.523
 1012SOL     OW 3934   5.988   0.495   2.489
 1012SOL    HW1 3935   6.023   0.429   2.423
 1012SOL    HW2 3936   5.933   0.564   2.442
 1013SOL     OW 3937   0.079   0.578   6.026
 1013SOL    HW1 3938   0.035   0.489   6.021
 1013SOL    HW2 3939   0.016   0.649   5.994
 1014SOL     OW 3940   1.360   4.978   3.830
 1014SOL    HW1 3941   1.320   4.887   3.836
 1014SOL    HW2 3942   1.403   5.001   3.918
 1015SOL     OW 3943   3.585   0.218   6.219
 1015SOL    HW1 3944   3.534   0.242   6.302
 1015SOL    HW2 3945   3.535   0.251   6.139
 1016SOL     OW 3946   5.094   4.184   1.547
 1016SOL    HW1 3947   5.169   4.210   1.486
 1016SOL    HW2 3948   5.095   4.241   1.629
 1017SOL     OW 3949   1.763   1.562   2.079
 1017SOL    HW1 3950   1.844   1.569   2.137
 1017SOL    HW2 3951   1.685   1.535   2.136
 1018SOL     OW 3952   0.260   5.282   3.928
 1018SOL    HW1 3953   0.310   5.284   3.842
 1018SOL    HW2 3954   0.203   5.201   3.933
 1019SOL     OW 3955   6.806   5.025   0.472
 1019SOL    HW1 3956   6.901   5.022   0.504
 1019SOL    HW2 3957   6.803   5.067   0.381
 1020SOL     OW 3958   0.110   0.448   1.498
 1020SOL    HW1 3959   0.144   0.460   1.405
 1020SOL    HW2 3960   0.047   0.370   1.500
 1021SOL     OW 3961   5.966   5.676   1.562
 1021SOL    HW1 3962   5.888   5.738   1.561
 1021SOL    HW2 3963   5.986   5.646   1.469
 1022SOL     OW 3964   2.486   6.427   6.347
 1022SOL    HW1 3965   2.453   6.333   6.340
 1022SOL    HW2 3966   2.409   6.490   6.350
 1023SOL     OW 3967   7.005   1.760   3.452
 1023SOL    HW1 3968   0.085   1.732   3.458
 1023SOL    HW2 3969   6.952   1.688   3.407
 1024SOL     OW 3970   1.456   1.956   4.777
 1024SOL    HW1 3971   1.534   2.004   4.738
 1024SOL    HW2 3972   1.456   1.860   4.748
 1025SOL     OW 3973   4.862   4.095   6.858
 1025SOL    HW1 3974   4.835   4.191   6.865
 1025SOL    HW2 3975   4.842   4.061   6.766
 1026SOL     OW 3976   3.017   2.586   1.426
 1026SOL    HW1 3977   3.041   2.670   1.475
 1026SOL    HW2 3978   2.952   2.533   1.480
 1027SOL     OW 3979   1.173   6.227   1.547
 1027SOL    HW1 3980   1.096   6.190   1.598
 1027SOL    HW2 3981   1.177   6.326   1.559
 1028SOL     OW 3982   0.848   5.972   3.134
 1028SOL    HW1 3983   0.928   5.915   3.151
 1028SOL    HW2 3984   0.826   6.025   3.217
 1029SOL     OW 3985   1.547   1.817   5.668
 1029SOL    HW1 3986   1.575   1.729   5.707
 1029SOL    HW2 3987   1.549   1.811   5.569
 1030SOL     OW 3988   3.261   3.379   1.352
 1030SOL    HW1 3989   3.201   3.452   1.320
 1030SOL    HW2 3990   3.357   3.406   1.341
 1031SOL     OW 3991   3.527   3.362   1.355
 1031SOL    HW1 3992   3.546   3.426   1.429
 1031SOL    HW2 3993   3.540   3.408   1.267
 1032SOL     OW 3994   2.149   1.454   6.144
 1032SOL    HW1 3995   2.068   1.453   6.202
 1032SOL    HW2 3996   2.160   1.546   6.104
 1033SOL     OW 3997   0.661   6.029   2.386
 1033SOL    HW1 3998   0.677   6.016   2.484
 1033SOL    HW2 3999   0.588   6.095   2.372
 1034SOL     OW 4000   3.562   6.868   4.673
 1034SOL    HW1 4001   3.591   6.920   4.592
 1034SOL    HW2 4002   3.463   6.857   4.671
 1035SOL     OW 4003   0.697   1.466   6.042
 1035SOL    HW1 4004   0.658   1.532   6.106
 1035SOL    HW2 4005   0.747   1.514   5.970
 1036SOL     OW 4006   5.133   1.576   1.374
 1036SOL    HW1 4007   5.229   1.602   1.369
 1036SOL    HW2 4008   5.092   1.618   1.455
 1037SOL     OW 4009   2.130   2.468   2.723
 1037SOL    HW1 4010   2.068   2.391   2.736
 1037SOL    HW2 4011   2.131   2.526   2.804
 1038SOL     OW 4012   3.065   0.426   7.006
 1038SOL    HW1 4013   3.087   0.381   6.919
 1038SOL    HW2 4014   2.998   0.499   6.989
 1039SOL     OW 4015   3.620   3.229   3.397
 1039SOL    HW1 4016   3.578   3.304   3.449
 1039SOL    HW2 4017   3.562   3.207   3.318
 1040SOL     OW 4018   4.289   1.095   2.733
 1040SOL    HW1 4019   4.387   1.104   2.749
 1040SOL    HW2 4020   4.251   1.029   2.797
 1041SOL     OW 4021   6.346   6.094   5.086
 1041SOL    HW1 4022   6.410   6.154   5.038
 1041SOL    HW2 4023   6.297   6.147   5.156
 1042SOL     OW 4024   4.672   4.540   2.245
 1042SOL    HW1 4025   4.593   4.550   2.185
 1042SOL    HW2 4026   4.654   4.586   2.332
 1043SOL     OW 4027   3.262   1.194   3.312
 1043SOL    HW1 4028   3.181   1.140   3.334
 1043SOL    HW2 4029   3.331   1.183   3.384
 1044SOL     OW 4030   5.819   4.387   1.171
 1044SOL    HW1 4031   5.730   4.384   1.216
 1044SOL    HW2 4032   5.841   4.296   1.136
 1045SOL     OW 4033   2.128   0.949   3.989
 1045SOL    HW1 4034   2.213   0.900   4.007
 1045SOL    HW2 4035   2.148   1.045   3.970
 1046SOL     OW 4036   3.325   1.308   1.218
 1046SOL    HW1 4037   3.268   1.233   1.186
 1046SOL    HW2 4038   3.412   1.272   1.252
 1047SOL     OW 4039   2.854   0.176   3.610
 1047SOL    HW1 4040   2.916   0.126   3.549
 1047SOL    HW2 4041   2.861   0.274   3.590
 1048SOL     OW 4042   2.185   5.903   1.808
 1048SOL    HW1 4043   2.156   5.900   1.903
 1048SOL    HW2 4044   2.285   5.902   1.803
 1049SOL     OW 4045   3.828   6.842   5.167
 1049SOL    HW1 4046   3.865   6.806   5.253
 1049SOL    HW2 4047   3.728   6.837   5.170
 1050SOL     OW 4048   3.751   4.940   3.921
 1050SOL    HW1 4049   3.780   5.004   3.850
 1050SOL    HW2 4050   3.828   4.916   3.980
 1051SOL     OW 4051   0.177   6.940   0.224
 1051SOL    HW1 4052   0.203   6.902   0.135
 1051SOL    HW2 4053   0.086   6.980   0.218
 1052SOL     OW 4054   3.975   0.561   6.479
 1052SOL    HW1 4055   4.030   0.524   6.404
 1052SOL    HW2 4056   3.970   0.661   6.470
 1053SOL     OW 4057   5.973   3.346   2.565
 1053SOL    HW1 4058   5.942   3.259   2.527
 1053SOL    HW2 4059   6.007   3.405   2.492
 1054SOL     OW 4060   3.667   4.259   0.499
 1054SOL    HW1 4061   3.765   4.265   0.479
 1054SOL    HW2 4062   3.624   4.192   0.439
 1055SOL     OW 4063   4.100   5.738   6.640
 1055SOL    HW1 4064   4.007   5.725   6.674
 1055SOL    HW2 4065   4.160   5.765   6.715
 1056SOL     OW 4066   2.475   4.334   0.310
 1056SOL    HW1 4067   2.498   4.380   0.396
 1056SOL    HW2 4068   2.555   4.282   0.278
 1057SOL     OW 4069   3.567   1.953   1.616
 1057SOL    HW1 4070   3.538   1.937   1.522
 1057SOL    HW2 4071   3.539   2.045   1.645
 1058SOL     OW 4072   3.594   2.070   2.804
 1058SOL    HW1 4073   3.501   2.092   2.835
 1058SOL    HW2 4074   3.645   2.027   2.879
 1059SOL     OW 4075   2.489   5.952   1.777
 1059SOL    HW1 4076   2.479   6.049   1.756
 1059SOL    HW2 4077   2.584   5.934   1.805
 1060SOL     OW 4078   0.196   5.552   5.169
 1060SOL    HW1 4079   0.166   5.617   5.239
 1060SOL    HW2 4080   0.129   5.550   5.095
 1061SOL     OW 4081   6.988   4.182   0.400
 1061SOL    HW1 4082   6.956   4.097   0.359
 1061SOL    HW2 4083   0.060   4.167   0.446
 1062SOL     OW 4084   3.836   6.512   5.074
 1062SOL    HW1 4085   3.909   6.488   5.010
 1062SOL    HW2 4086   3.752   6.531   5.024
 1063SOL     OW 4087   1.420   6.632   5.407
 1063SOL    HW1 4088   1.505   6.578   5.411
 1063SOL    HW2 4089   1.441   6.724   5.373
 1064SOL     OW 4090   0.426   4.346   0.963
 1064SOL    HW1 4091   0.505   4.404   0.944
 1064SOL    HW2 4092   0.364   4.393   1.025
 1065SOL     OW 4093   3.743   0.441   4.892
 1065SOL    HW1 4094   3.678   0.385   4.842
 1065SOL    HW2 4095   3.756   0.528   4.843
 1066SOL     OW 4096   4.492   0.856   2.154
 1066SOL    HW1 4097   4.410   0.846   2.210
 1066SOL    HW2 4098   4.571   0.820   2.203
 1067SOL     OW 4099   2.894   1.248   0.530
 1067SOL    HW1 4100   2.897   1.334   0.581
 1067SOL    HW2 4101   2.967   1.246   0.462
 1068SOL     OW 4102   6.137   3.440   1.023
 1068SOL    HW1 4103   6.114   3.403   0.933
 1068SOL    HW2 4104   6.126   3.369   1.093
 1069SOL     OW 4105   6.391   4.230   0.942
 1069SOL    HW1 4106   6.385   4.142   0.989
 1069SOL    HW2 4107   6.321   4.235   0.871
 1070SOL     OW 4108   2.201   0.627   2.317
 1070SOL    HW1 4109   2.212   0.536   2.277
 1070SOL    HW2 4110   2.159   0.619   2.408
 1071SOL     OW 4111   6.753   2.313   4.899
 1071SOL    HW1 4112   6.687   2.246   4.864
 1071SOL    HW2 4113   6.743   2.399   4.849
 1072SOL     OW 4114   3.411   1.209   2.143
 1072SOL    HW1 4115   3.374   1.262   2.067
 1072SOL    HW2 4116   3.356   1.224   2.225
 1073SOL     OW 4117   5.247   1.939   3.336
 1073SOL    HW1 4118   5.226   2.037   3.333
 1073SOL    HW2 4119   5.278   1.910   3.245
 1074SOL     OW 4120   3.258   4.944   1.735
 1074SOL    HW1 4121   3.206   5.029   1.743
 1074SOL    HW2 4122   3.283   4.911   1.827
 1075SOL     OW 4123   5.724   2.016   5.271
 1075SOL    HW1 4124   5.668   2.079   5.218
 1075SOL    HW2 4125   5.683   1.924   5.269
 1076SOL     OW 4126   2.169   3.825   5.013
 1076SOL    HW1 4127   2.235   3.900   5.001
 1076SOL    HW2 4128   2.137   3.794   4.924
 1077SOL     OW 4129   6.813   0.485   6.896
 1077SOL    HW1 4130   6.808   0.400   6.845
 1077SOL    HW2 4131   6.839   0.466   6.991
 1078SOL     OW 4132   0.074   6.488   3.832
 1078SOL    HW1 4133   0.108   6.422   3.764
 1078SOL    HW2 4134   0.102   6.458   3.924
 1079SOL     OW 4135   1.418   5.807   2.294
 1079SOL    HW1 4136   1.474   5.750   2.354
 1079SOL    HW2 4137   1.464   5.820   2.206
 1080SOL     OW 4138   2.410   5.477   5.260
 1080SOL    HW1 4139   2.345   5.528   5.318
 1080SOL    HW2 4140   2.363   5.445   5.178
 1081SOL     OW 4141   6.285   5.781   4.516
 1081SOL    HW1 4142   6.266   5.705   4.454
 1081SOL    HW2 4143   6.329   5.855   4.465
 1082SOL     OW 4144   5.525   6.812   5.873
 1082SOL    HW1 4145   5.517   6.894   5.817
 1082SOL    HW2 4146   5.525   6.731   5.814
 1083SOL     OW 4147   4.920   3.890   1.135
 1083SOL    HW1 4148   4.921   3.935   1.046
 1083SOL    HW2 4149   4.966   3.947   1.203
 1084SOL     OW 4150   0.140   6.878   6.602
 1084SOL    HW1 4151   0.219   6.938   6.611
 1084SOL    HW2 4152   0.118   6.837   6.691
 1085SOL     OW 4153   1.714   3.978   3.951
 1085SOL    HW1 4154   1.763   3.891   3.945
 1085SOL    HW2 4155   1.635   3.967   4.011
 1086SOL     OW 4156   6.476   4.289   6.310
 1086SOL    HW1 4157   6.574   4.294   6.328
 1086SOL    HW2 4158   6.459   4.313   6.214
 1087SOL     OW 4159   1.773   0.251   5.807
 1087SOL    HW1 4160   1.811   0.341   5.789
 1087SOL    HW2 4161   1.679   0.261   5.840
 1088SOL     OW 4162   0.144   4.712   3.617
 1088SOL    HW1 4163   0.138   4.753   3.708
 1088SOL    HW2 4164   0.080   4.635   3.611
 1089SOL     OW 4165   6.733   4.951   4.692
 1089SOL    HW1 4166   6.788   4.933   4.774
 1089SOL    HW2 4167   6.792   4.950   4.612
 1090SOL     OW 4168   5.436   1.631   4.497
 1090SOL    HW1 4169   5.524   1.592   4.522
 1090SOL    HW2 4170   5.362   1.572   4.530
 1091SOL     OW 4171   2.167   3.361   3.748
 1091SOL    HW1 4172   2.177   3.262   3.756
 1091SOL    HW2 4173   2.217   3.406   3.821
 1092SOL     OW 4174   1.041   4.662   0.933
 1092SOL    HW1 4175   1.019   4.754   0.966
 1092SOL    HW2 4176   0.992   4.644   0.848
 1093SOL     OW 4177   2.530   6.486   1.407
 1093SOL    HW1 4178   2.458   6.495   1.476
 1093SOL    HW2 4179   2.618   6.474   1.452
 1094SOL     OW 4180   1.082   0.248   2.952
 1094SOL    HW1 4181   0.984   0.242   2.938
 1094SOL    HW2 4182   1.106   0.340   2.984
 1095SOL     OW 4183   6.801   2.808   6.933
 1095SOL    HW1 4184   6.858   2.882   6.970
 1095SOL    HW2 4185   6.738   2.846   6.865
 1096SOL     OW 4186   2.721   5.496   0.994
 1096SOL    HW1 4187   2.665   5.562   1.044
 1096SOL    HW2 4188   2.817   5.509   1.017
 1097SOL     OW 4189   2.402   5.268   3.697
 1097SOL    HW1 4190   2.426   5.255   3.793
 1097SOL    HW2 4191   2.347   5.191   3.665
 1098SOL     OW 4192   5.897   4.475   0.090
 1098SOL    HW1 4193   5.851   4.477   0.002
 1098SOL    HW2 4194   5.829   4.462   0.163
 1099SOL     OW 4195   4.625   1.596   6.222
 1099SOL    HW1 4196   4.606   1.526   6.292
 1099SOL    HW2 4197   4.538   1.625   6.181
 1100SOL     OW 4198   4.016   1.025   3.903
 1100SOL    HW1 4199   4.024   1.109   3.957
 1100SOL    HW2 4200   4.106   0.980   3.900
 1101SOL     OW 4201   5.914   3.414   5.335
 1101SOL    HW1 4202   6.009   3.394   5.359
 1101SOL    HW2 4203   5.856   3.337   5.360
 1102SOL     OW 4204   2.216   0.842   4.378
 1102SOL    HW1 4205   2.154   0.784   4.431
 1102SOL    HW2 4206   2.163   0.915   4.334
 1103SOL     OW 4207   2.937   0.698   6.479
 1103SOL    HW1 4208   2.856   0.668   6.530
 1103SOL    HW2 4209   2.924   0.681   6.382
 1104SOL     OW 4210   0.790   4.501   3.053
 1104SOL    HW1 4211   0.865   4.529   2.993
 1104SOL    HW2 4212   0.822   4.496   3.147
 1105SOL     OW 4213   5.434   1.526   5.034
 1105SOL    HW1 4214   5.443   1.626   5.030
 1105SOL    HW2 4215   5.510   1.488   5.086
 1106SOL     OW 4216   0.761   1.236   0.410
 1106SOL    HW1 4217   0.738   1.190   0.324
 1106SOL    HW2 4218   0.773   1.334   0.393
 1107SOL     OW 4219   0.978   0.942   6.662
 1107SOL    HW1 4220   0.880   0.925   6.675
 1107SOL    HW2 4221   0.997   0.951   6.564
 1108SOL     OW 4222   3.301   6.487   4.267
 1108SOL    HW1 4223   3.264   6.580   4.269
 1108SOL    HW2 4224   3.362   6.477   4.189
 1109SOL     OW 4225   5.383   1.316   4.054
 1109SOL    HW1 4226   5.289   1.352   4.050
 1109SOL    HW2 4227   5.419   1.308   3.961
 1110SOL     OW 4228   3.479   0.879   2.739
 1110SOL    HW1 4229   3.433   0.790   2.738
 1110SOL    HW2 4230   3.523   0.893   2.827
 1111SOL     OW 4231   5.109   3.654   5.980
 1111SOL    HW1 4232   5.067   3.734   5.937
 1111SOL    HW2 4233   5.039   3.585   5.998
 1112SOL     OW 4234   6.172   0.734   2.412
 1112SOL    HW1 4235   6.100   0.788   2.455
 1112SOL    HW2 4236   6.242   0.711   2.480
 1113SOL     OW 4237   6.330   4.342   2.985
 1113SOL    HW1 4238   6.406   4.407   2.980
 1113SOL    HW2 4239   6.364   4.249   2.972
 1114SOL     OW 4240   4.305   2.584   6.133
 1114SOL    HW1 4241   4.311   2.680   6.159
 1114SOL    HW2 4242   4.243   2.536   6.194
 1115SOL     OW 4243   3.154   4.003   5.910
 1115SOL    HW1 4244   3.156   4.102   5.898
 1115SOL    HW2 4245   3.245   3.965   5.893
 1116SOL     OW 4246   5.513   0.889   6.703
 1116SOL    HW1 4247   5.541   0.984   6.708
 1116SOL    HW2 4248   5.460   0.874   6.619
 1117SOL     OW 4249   1.137   2.727   1.626
 1117SOL    HW1 4250   1.066   2.671   1.669
 1117SOL    HW2 4251   1.125   2.822   1.653
 1118SOL     OW 4252   3.023   5.545   0.021
 1118SOL    HW1 4253   3.064   5.457   7.013
 1118SOL    HW2 4254   2.981   5.585   6.956
 1119SOL     OW 4255   4.283   4.711   3.612
 1119SOL    HW1 4256   4.326   4.796   3.580
 1119SOL    HW2 4257   4.323   4.633   3.563
 1120SOL     OW 4258   6.516   5.285   0.869
 1120SOL    HW1 4259   6.510   5.384   0.886
 1120SOL    HW2 4260   6.585   5.246   0.930
 1121SOL     OW 4261   0.739   4.981   3.968
 1121SOL    HW1 4262   0.740   4.928   4.053
 1121SOL    HW2 4263   0.804   5.056   3.974
 1122SOL     OW 4264   5.628   2.609   2.357
 1122SOL    HW1 4265   5.686   2.660   2.420
 1122SOL    HW2 4266   5.541   2.657   2.344
 1123SOL     OW 4267   4.281   2.172   3.203
 1123SOL    HW1 4268   4.197   2.120   3.216
 1123SOL    HW2 4269   4.293   2.235   3.279
 1124SOL     OW 4270   1.980   2.854   5.014
 1124SOL    HW1 4271   2.075   2.835   5.041
 1124SOL    HW2 4272   1.920   2.782   5.050
 1125SOL     OW 4273   1.737   3.753   4.352
 1125SOL    HW1 4274   1.803   3.758   4.427
 1125SOL    HW2 4275   1.645   3.770   4.388
 1126SOL     OW 4276   4.377   6.002   5.659
 1126SOL    HW1 4277   4.343   5.977   5.750
 1126SOL    HW2 4278   4.471   6.037   5.667
 1127SOL     OW 4279   5.407   5.832   3.845
 1127SOL    HW1 4280   5.499   5.830   3.882
 1127SOL    HW2 4281   5.391   5.920   3.799
 1128SOL     OW 4282   6.164   1.479   3.855
 1128SOL    HW1 4283   6.087   1.541   3.865
 1128SOL    HW2 4284   6.249   1.527   3.878
 1129SOL     OW 4285   2.005   7.002   1.381
 1129SOL    HW1 4286   1.939   0.018   1.314
 1129SOL    HW2 4287   2.090   6.975   1.335
 1130SOL     OW 4288   2.025   5.061   3.252
 1130SOL    HW1 4289   2.044   5.100   3.342
 1130SOL    HW2 4290   1.977   5.128   3.196
 1131SOL     OW 4291   1.020   6.702   3.713
 1131SOL    HW1 4292   1.102   6.644   3.723
 1131SOL    HW2 4293   1.046   6.798   3.720
 1132SOL     OW 4294   4.093   1.142   3.295
 1132SOL    HW1 4295   4.083   1.142   3.195
 1132SOL    HW2 4296   4.017   1.193   3.336
 1133SOL     OW 4297   1.240   6.678   5.072
 1133SOL    HW1 4298   1.300   6.750   5.038
 1133SOL    HW2 4299   1.179   6.648   4.998
 1134SOL     OW 4300   4.871   0.116   1.278
 1134SOL    HW1 4301   4.945   0.057   1.309
 1134SOL    HW2 4302   4.903   0.170   1.200
 1135SOL     OW 4303   1.928   6.552   3.594
 1135SOL    HW1 4304   1.913   6.643   3.553
 1135SOL    HW2 4305   1.895   6.482   3.531
 1136SOL     OW 4306   2.882   5.934   2.761
 1136SOL    HW1 4307   2.826   5.933   2.679
 1136SOL    HW2 4308   2.894   5.840   2.794
 1137SOL     OW 4309   0.353   5.887   6.769
 1137SOL    HW1 4310   0.346   5.788   6.775
 1137SOL    HW2 4311   0.443   5.912   6.731
 1138SOL     OW 4312   2.194   2.915   5.211
 1138SOL    HW1 4313   2.262   2.942   5.144
 1138SOL    HW2 4314   2.236   2.858   5.281
 1139SOL     OW 4315   2.740   4.732   4.017
 1139SOL    HW1 4316   2.784   4.750   3.929
 1139SOL    HW2 4317   2.730   4.819   4.067
 1140SOL     OW 4318   2.090   1.269   1.922
 1140SOL    HW1 4319   2.103   1.323   1.839
 1140SOL    HW2 4320   2.145   1.307   1.996
 1141SOL     OW 4321   5.505   4.845   6.190
 1141SOL    HW1 4322   5.538   4.868   6.099
 1141SOL    HW2 4323   5.440   4.769   6.184
 1142SOL     OW 4324   2.380   0.079   3.075
 1142SOL    HW1 4325   2.446   0.155   3.083
 1142SOL    HW2 4326   2.396   0.013   3.148
 1143SOL     OW 4327   0.761   4.003   1.541
 1143SOL    HW1 4328   0.808   3.978   1.626
 1143SOL    HW2 4329   0.817   3.975   1.463
 1144SOL     OW 4330   5.590   4.442   2.449
 1144SOL    HW1 4331   5.671   4.495   2.425
 1144SOL    HW2 4332   5.599   4.349   2.415
 1145SOL     OW 4333   1.094   1.748   0.589
 1145SOL    HW1 4334   1.095   1.810   0.667
 1145SOL    HW2 4335   1.179   1.758   0.537
 1146SOL     OW 4336   0.671   1.077   1.750
 1146SOL    HW1 4337   0.700   1.100   1.843
 1146SOL    HW2 4338   0.665   1.160   1.695
 1147SOL     OW 4339   3.267   6.146   1.064
 1147SOL    HW1 4340   3.183   6.148   1.119
 1147SOL    HW2 4341   3.339   6.099   1.115
 1148SOL     OW 4342   3.872   6.083   2.138
 1148SOL    HW1 4343   3.920   6.085   2.226
 1148SOL    HW2 4344   3.775   6.105   2.153
 1149SOL     OW 4345   5.791   2.375   1.571
 1149SOL    HW1 4346   5.885   2.381   1.538
 1149SOL    HW2 4347   5.780   2.435   1.651
 1150SOL     OW 4348   1.500   4.023   6.626
 1150SOL    HW1 4349   1.596   3.993   6.618
 1150SOL    HW2 4350   1.440   3.943   6.618
 1151SOL     OW 4351   6.444   5.000   3.515
 1151SOL    HW1 4352   6.503   5.019   3.437
 1151SOL    HW2 4353   6.454   4.903   3.541
 1152SOL     OW 4354   4.848   0.899   6.845
 1152SOL    HW1 4355   4.946   0.913   6.831
 1152SOL    HW2 4356   4.798   0.932   6.765
 1153SOL     OW 4357   6.855   6.814   1.171
 1153SOL    HW1 4358   6.931   6.779   1.226
 1153SOL    HW2 4359   6.885   6.895   1.121
 1154SOL     OW 4360   1.391   3.712   2.256
 1154SOL    HW1 4361   1.382   3.650   2.179
 1154SOL    HW2 4362   1.487   3.738   2.268
 1155SOL     OW 4363   2.071   6.870   4.784
 1155SOL    HW1 4364   2.081   6.771   4.790
 1155SOL    HW2 4365   2.140   6.907   4.721
 1156SOL     OW 4366   3.815   1.689   4.703
 1156SOL    HW1 4367   3.766   1.696   4.790
 1156SOL    HW2 4368   3.901   1.640   4.717
 1157SOL     OW 4369   4.188   0.442   5.711
 1157SOL    HW1 4370   4.262   0.375   5.696
 1157SOL    HW2 4371   4.121   0.434   5.637
 1158SOL     OW 4372   5.450   5.934   3.295
 1158SOL    HW1 4373   5.394   6.000   3.344
 1158SOL    HW2 4374   5.391   5.863   3.256
 1159SOL     OW 4375   6.641   5.970   2.782
 1159SOL    HW1 4376   6.552   5.958   2.738
 1159SOL    HW2 4377   6.659   6.067   2.795
 1160SOL     OW 4378   4.086   6.978   0.785
 1160SOL    HW1 4379   4.052   6.985   0.879
 1160SOL    HW2 4380   4.046   0.036   0.730
 1161SOL     OW 4381   6.748   5.744   6.816
 1161SOL    HW1 4382   6.802   5.698   6.886
 1161SOL    HW2 4383   6.725   5.678   6.744
 1162SOL     OW 4384   2.103   3.129   5.375
 1162SOL    HW1 4385   2.039   3.087   5.440
 1162SOL    HW2 4386   2.115   3.069   5.296
 1163SOL     OW 4387   6.307   4.165   1.703
 1163SOL    HW1 4388   6.277   4.113   1.623
 1163SOL    HW2 4389   6.346   4.252   1.674
 1164SOL     OW 4390   5.477   2.000   4.320
 1164SOL    HW1 4391   5.403   1.934   4.314
 1164SOL    HW2 4392   5.562   1.959   4.287
 1165SOL     OW 4393   4.444   6.629   3.158
 1165SOL    HW1 4394   4.365   6.629   3.220
 1165SOL    HW2 4395   4.489   6.718   3.162
 1166SOL     OW 4396   2.272   6.626   6.283
 1166SOL    HW1 4397   2.209   6.552   6.308
 1166SOL    HW2 4398   2.220   6.709   6.264
 1167SOL     OW 4399   5.088   4.099   2.124
 1167SOL    HW1 4400   5.136   4.175   2.168
 1167SOL    HW2 4401   5.150   4.022   2.112
 1168SOL     OW 4402   5.764   2.742   2.703
 1168SOL    HW1 4403   5.777   2.775   2.610
 1168SOL    HW2 4404   5.726   2.649   2.701
 1169SOL     OW 4405   5.548   0.856   5.696
 1169SOL    HW1 4406   5.485   0.907   5.636
 1169SOL    HW2 4407   5.515   0.763   5.706
 1170SOL     OW 4408   5.008   0.261   3.344
 1170SOL    HW1 4409   4.971   0.311   3.266
 1170SOL    HW2 4410   4.950   0.278   3.424
 1171SOL     OW 4411   1.621   0.271   0.846
 1171SOL    HW1 4412   1.649   0.341   0.912
 1171SOL    HW2 4413   1.565   0.202   0.892
 1172SOL     OW 4414   6.425   3.560   0.465
 1172SOL    HW1 4415   6.332   3.527   0.453
 1172SOL    HW2 4416   6.461   3.529   0.553
 1173SOL     OW 4417   3.014   1.103   1.386
 1173SOL    HW1 4418   3.058   1.150   1.463
 1173SOL    HW2 4419   3.079   1.096   1.311
 1174SOL     OW 4420   3.761   3.957   1.354
 1174SOL    HW1 4421   3.709   4.019   1.295
 1174SOL    HW2 4422   3.698   3.911   1.418
 1175SOL     OW 4423   4.067   3.027   5.612
 1175SOL    HW1 4424   4.142   3.084   5.647
 1175SOL    HW2 4425   3.980   3.063   5.646
 1176SOL     OW 4426   5.244   3.552   5.776
 1176SOL    HW1 4427   5.339   3.527   5.793
 1176SOL    HW2 4428   5.206   3.598   5.856
 1177SOL     OW 4429   6.006   2.208   4.646
 1177SOL    HW1 4430   6.014   2.242   4.553
 1177SOL    HW2 4431   5.978   2.283   4.706
 1178SOL     OW 4432   3.202   4.235   0.677
 1178SOL    HW1 4433   3.181   4.211   0.772
 1178SOL    HW2 4434   3.290   4.284   0.675
 1179SOL     OW 4435   2.495   5.990   0.747
 1179SOL    HW1 4436   2.421   5.981   0.813
 1179SOL    HW2 4437   2.487   6.077   0.699
 1180SOL     OW 4438   3.282   5.752   1.536
 1180SOL    HW1 4439   3.280   5.751   1.436
 1180SOL    HW2 4440   3.374   5.775   1.567
 1181SOL     OW 4441   0.476   5.344   6.660
 1181SOL    HW1 4442   0.388   5.296   6.664
 1181SOL    HW2 4443   0.533   5.317   6.737
 1182SOL     OW 4444   3.260   5.554   3.001
 1182SOL    HW1 4445   3.186   5.559   2.934
 1182SOL    HW2 4446   3.347   5.564   2.954
 1183SOL     OW 4447   1.941   4.412   6.838
 1183SOL    HW1 4448   1.914   4.497   6.791
 1183SOL    HW2 4449   1.873   4.388   6.906
 1184SOL     OW 4450   0.894   0.626   4.586
 1184SOL    HW1 4451   0.840   0.577   4.518
 1184SOL    HW2 4452   0.956   0.690   4.540
 1185SOL     OW 4453   6.790   1.049   6.312
 1185SOL    HW1 4454   6.773   0.975   6.377
 1185SOL    HW2 4455   6.702   1.090   6.286
 1186SOL     OW 4456   4.875   5.805   4.377
 1186SOL    HW1 4457   4.843   5.895   4.347
 1186SOL    HW2 4458   4.874   5.801   4.477
 1187SOL     OW 4459   6.996   6.807   6.814
 1187SOL    HW1 4460   6.970   6.885   6.871
 1187SOL    HW2 4461   7.015   6.728   6.872
 1188SOL     OW 4462   2.891   6.203   4.740
 1188SOL    HW1 4463   2.887   6.119   4.687
 1188SOL    HW2 4464   2.974   6.204   4.795
 1189SOL     OW 4465   6.871   3.586   2.620
 1189SOL    HW1 4466   6.857   3.496   2.661
 1189SOL    HW2 4467   6.836   3.586   2.526
 1190SOL     OW 4468   2.105   5.921   3.594
 1190SOL    HW1 4469   2.188   5.865   3.601
 1190SOL    HW2 4470   2.055   5.896   3.511
 1191SOL     OW 4471   4.136   5.075   3.264
 1191SOL    HW1 4472   4.152   5.139   3.188
 1191SOL    HW2 4473   4.175   4.986   3.241
 1192SOL     OW 4474   3.656   5.937   3.138
 1192SOL    HW1 4475   3.642   5.860   3.200
 1192SOL    HW2 4476   3.569   5.986   3.125
 1193SOL     OW 4477   5.925   4.652   4.466
 1193SOL    HW1 4478   5.828   4.669   4.483
 1193SOL    HW2 4479   5.960   4.717   4.399
 1194SOL     OW 4480   5.543   0.324   1.928
 1194SOL    HW1 4481   5.643   0.321   1.926
 1194SOL    HW2 4482   5.507   0.298   1.838
 1195SOL     OW 4483   6.082   4.745   2.016
 1195SOL    HW1 4484   6.160   4.807   2.023
 1195SOL    HW2 4485   6.001   4.796   1.989
 1196SOL     OW 4486   0.519   6.175   3.082
 1196SOL    HW1 4487   0.500   6.163   2.985
 1196SOL    HW2 4488   0.465   6.108   3.135
 1197SOL     OW 4489   3.289   0.902   0.038
 1197SOL    HW1 4490   3.333   0.991   0.046
 1197SOL    HW2 4491   3.190   0.912   0.046
 1198SOL     OW 4492   0.879   2.746   1.098
 1198SOL    HW1 4493   0.855   2.693   1.179
 1198SOL    HW2 4494   0.920   2.833   1.126
 1199SOL     OW 4495   4.582   5.202   1.595
 1199SOL    HW1 4496   4.522   5.191   1.516
 1199SOL    HW2 4497   4.658   5.136   1.589
 1200SOL     OW 4498   3.455   3.304   2.594
 1200SOL    HW1 4499   3.482   3.246   2.517
 1200SOL    HW2 4500   3.496   3.268   2.678
 1201SOL     OW 4501   1.008   0.827   4.770
 1201SOL    HW1 4502   0.946   0.748   4.777
 1201SOL    HW2 4503   1.059   0.822   4.684
 1202SOL     OW 4504   1.156   5.884   6.398
 1202SOL    HW1 4505   1.145   5.973   6.442
 1202SOL    HW2 4506   1.074   5.862   6.346
 1203SOL     OW 4507   5.108   5.839   6.460
 1203SOL    HW1 4508   5.141   5.760   6.408
 1203SOL    HW2 4509   5.038   5.809   6.525
 1204SOL     OW 4510   2.371   0.244   1.642
 1204SOL    HW1 4511   2.340   0.196   1.724
 1204SOL    HW2 4512   2.332   0.336   1.640
 1205SOL     OW 4513   4.821   4.216   1.522
 1205SOL    HW1 4514   4.781   4.178   1.606
 1205SOL    HW2 4515   4.921   4.221   1.533
 1206SOL     OW 4516   3.175   2.965   4.700
 1206SOL    HW1 4517   3.209   2.938   4.791
 1206SOL    HW2 4518   3.163   2.884   4.644
 1207SOL     OW 4519   2.526   7.010   1.652
 1207SOL    HW1 4520   2.543   0.042   1.738
 1207SOL    HW2 4521   2.490   0.059   1.585
 1208SOL     OW 4522   3.603   3.687   7.010
 1208SOL    HW1 4523   3.541   3.705   6.934
 1208SOL    HW2 4524   3.678   3.753   7.009
 1209SOL     OW 4525   3.699   0.325   5.624
 1209SOL    HW1 4526   3.786   0.346   5.668
 1209SOL    HW2 4527   3.681   0.390   5.551
 1210SOL     OW 4528   2.560   0.166   3.352
 1210SOL    HW1 4529   2.480   0.222   3.329
 1210SOL    HW2 4530   2.550   0.076   3.311
 1211SOL     OW 4531   1.567   3.674   1.010
 1211SOL    HW1 4532   1.605   3.665   1.102
 1211SOL    HW2 4533   1.624   3.738   0.958
 1212SOL     OW 4534   0.577   0.573   6.125
 1212SOL    HW1 4535   0.515   0.640   6.085
 1212SOL    HW2 4536   0.574   0.489   6.071
 1213SOL     OW 4537   5.689   2.731   0.105
 1213SOL    HW1 4538   5.655   2.721   0.012
 1213SOL    HW2 4539   5.789   2.734   0.103
 1214SOL     OW 4540   6.877   2.189   1.020
 1214SOL    HW1 4541   6.953   2.162   0.961
 1214SOL    HW2 4542   6.905   2.180   1.116
 1215SOL     OW 4543   1.518   4.483   4.469
 1215SOL    HW1 4544   1.615   4.496   4.492
 1215SOL    HW2 4545   1.510   4.446   4.377
 1216SOL     OW 4546   4.408   0.455   0.095
 1216SOL    HW1 4547   4.491   0.456   0.151
 1216SOL    HW2 4548   4.344   0.389   0.133
 1217SOL     OW 4549   1.683   4.639   0.347
 1217SOL    HW1 4550   1.781   4.622   0.335
 1217SOL    HW2 4551   1.667   4.675   0.439
 1218SOL     OW 4552   1.540   4.853   4.428
 1218SOL    HW1 4553   1.599   4.818   4.500
 1218SOL    HW2 4554   1.546   4.794   4.347
 1219SOL     OW 4555   5.092   5.840   2.203
 1219SOL    HW1 4556   5.023   5.817   2.134
 1219SOL    HW2 4557   5.183   5.825   2.165
 1220SOL     OW 4558   1.256   5.139   2.984
 1220SOL    HW1 4559   1.337   5.183   3.022
 1220SOL    HW2 4560   1.175   5.163   3.038
 1221SOL     OW 4561   5.347   2.983   5.700
 1221SOL    HW1 4562   5.328   3.080   5.685
 1221SOL    HW2 4563   5.386   2.971   5.791
 1222SOL     OW 4564   5.750   6.875   6.792
 1222SOL    HW1 4565   5.806   6.824   6.726
 1222SOL    HW2 4566   5.769   6.973   6.783
 1223SOL     OW 4567   4.063   0.497   0.695
 1223SOL    HW1 4568   4.049   0.592   0.668
 1223SOL    HW2 4569   4.055   0.488   0.794
 1224SOL     OW 4570   2.286   6.758   1.236
 1224SOL    HW1 4571   2.279   6.853   1.206
 1224SOL    HW2 4572   2.379   6.739   1.267
 1225SOL     OW 4573   3.192   4.116   6.258
 1225SOL    HW1 4574   3.181   4.143   6.162
 1225SOL    HW2 4575   3.119   4.054   6.284
 1226SOL     OW 4576   2.348   4.084   1.394
 1226SOL    HW1 4577   2.335   4.136   1.478
 1226SOL    HW2 4578   2.328   4.143   1.315
 1227SOL     OW 4579   6.566   2.891   6.759
 1227SOL    HW1 4580   6.584   2.844   6.673
 1227SOL    HW2 4581   6.524   2.980   6.740
 1228SOL     OW 4582   3.791   2.812   6.776
 1228SOL    HW1 4583   3.752   2.838   6.687
 1228SOL    HW2 4584   3.719   2.816   6.846
 1229SOL     OW 4585   4.663   4.758   6.213
 1229SOL    HW1 4586   4.750   4.725   6.249
 1229SOL    HW2 4587   4.636   4.701   6.134
 1230SOL     OW 4588   4.022   0.552   4.503
 1230SOL    HW1 4589   4.004   0.477   4.565
 1230SOL    HW2 4590   4.026   0.518   4.409
 1231SOL     OW 4591   1.897   3.789   5.075
 1231SOL    HW1 4592   1.861   3.878   5.104
 1231SOL    HW2 4593   1.992   3.799   5.046
 1232SOL     OW 4594   1.165   2.754   5.241
 1232SOL    HW1 4595   1.106   2.731   5.318
 1232SOL    HW2 4596   1.112   2.802   5.171
 1233SOL     OW 4597   1.538   2.877   5.471
 1233SOL    HW1 4598   1.493   2.966   5.469
 1233SOL    HW2 4599   1.543   2.845   5.566
 1234SOL     OW 4600   6.841   4.503   4.468
 1234SOL    HW1 4601   6.917   4.550   4.514
 1234SOL    HW2 4602   6.781   4.571   4.426
 1235SOL     OW 4603   6.801   5.545   2.598
 1235SOL    HW1 4604   6.833   5.489   2.521
 1235SOL    HW2 4605   6.748   5.488   2.661
 1236SOL     OW 4606   5.137   0.974   6.422
 1236SOL    HW1 4607   5.126   0.879   6.391
 1236SOL    HW2 4608   5.221   1.011   6.383
 1237SOL     OW 4609   2.740   4.585   6.067
 1237SOL    HW1 4610   2.762   4.567   5.972
 1237SOL    HW2 4611   2.714   4.681   6.078
 1238SOL     OW 4612   2.235   0.927   1.143
 1238SOL    HW1 4613   2.146   0.888   1.168
 1238SOL    HW2 4614   2.226   0.984   1.062
 1239SOL     OW 4615   0.352   6.090   6.500
 1239SOL    HW1 4616   0.288   6.163   6.525
 1239SOL    HW2 4617   0.412   6.070   6.577
 1240SOL     OW 4618   5.666   6.249   1.611
 1240SOL    HW1 4619   5.746   6.210   1.657
 1240SOL    HW2 4620   5.692   6.336   1.568
 1241SOL     OW 4621   6.431   3.519   4.476
 1241SOL    HW1 4622   6.495   3.443   4.470
 1241SOL    HW2 4623   6.337   3.485   4.465
 1242SOL     OW 4624   1.696   3.379   0.235
 1242SOL    HW1 4625   1.774   3.433   0.266
 1242SOL    HW2 4626   1.627   3.440   0.195
 1243SOL     OW 4627   2.096   5.229   5.383
 1243SOL    HW1 4628   2.178   5.257   5.433
 1243SOL    HW2 4629   2.104   5.133   5.356
 1244SOL     OW 4630   0.241   0.735   2.890
 1244SOL    HW1 4631   0.290   0.718   2.975
 1244SOL    HW2 4632   0.304   0.726   2.813
 1245SOL     OW 4633   2.993   3.143   6.897
 1245SOL    HW1 4634   3.047   3.076   6.947
 1245SOL    HW2 4635   3.052   3.218   6.868
 1246SOL     OW 4636   2.271   6.559   2.268
 1246SOL    HW1 4637   2.258   6.460   2.261
 1246SOL    HW2 4638   2.184   6.602   2.290
 1247SOL     OW 4639   2.819   0.027   6.276
 1247SOL    HW1 4640   2.775   0.018   6.187
 1247SOL    HW2 4641   2.880   6.964   6.291
 1248SOL     OW 4642   1.493   6.453   3.641
 1248SOL    HW1 4643   1.510   6.360   3.609
 1248SOL    HW2 4644   1.497   6.455   3.741
 1249SOL     OW 4645   5.883   3.511   3.100
 1249SOL    HW1 4646   5.785   3.496   3.116
 1249SOL    HW2 4647   5.927   3.424   3.079
 1250SOL     OW 4648   1.280   4.775   4.530
 1250SOL    HW1 4649   1.369   4.804   4.497
 1250SOL    HW2 4650   1.273   4.676   4.527
 1251SOL     OW 4651   3.988   0.785   4.642
 1251SOL    HW1 4652   4.043   0.756   4.720
 1251SOL    HW2 4653   3.999   0.720   4.567
 1252SOL     OW 4654   3.578   3.575   6.084
 1252SOL    HW1 4655   3.530   3.662   6.087
 1252SOL    HW2 4656   3.533   3.514   6.020
 1253SOL     OW 4657   3.596   5.276   2.423
 1253SOL    HW1 4658   3.501   5.284   2.455
 1253SOL    HW2 4659   3.635   5.189   2.454
 1254SOL     OW 4660   6.078   2.190   3.365
 1254SOL    HW1 4661   6.061   2.283   3.333
 1254SOL    HW2 4662   6.115   2.193   3.458
 1255SOL     OW 4663   0.344   0.296   5.323
 1255SOL    HW1 4664   0.424   0.245   5.293
 1255SOL    HW2 4665   0.341   0.385   5.276
 1256SOL     OW 4666   6.612   0.507   2.289
 1256SOL    HW1 4667   6.693   0.563   2.271
 1256SOL    HW2 4668   6.530   0.565   2.285
 1257SOL     OW 4669   6.932   0.762   3.181
 1257SOL    HW1 4670   6.974   0.710   3.256
 1257SOL    HW2 4671   6.870   0.831   3.218
 1258SOL     OW 4672   1.312   5.933   3.231
 1258SOL    HW1 4673   1.410   5.949   3.248
 1258SOL    HW2 4674   1.295   5.930   3.133
 1259SOL     OW 4675   4.202   2.105   5.458
 1259SOL    HW1 4676   4.272   2.153   5.405
 1259SOL    HW2 4677   4.181   2.018   5.413
 1260SOL     OW 4678   0.867   1.251   6.768
 1260SOL    HW1 4679   0.792   1.216   6.712
 1260SOL    HW2 4680   0.875   1.195   6.851
 1261SOL     OW 4681   0.306   5.088   0.236
 1261SOL    HW1 4682   0.333   5.148   0.161
 1261SOL    HW2 4683   0.314   4.993   0.207
 1262SOL     OW 4684   5.536   5.617   1.875
 1262SOL    HW1 4685   5.557   5.586   1.782
 1262SOL    HW2 4686   5.618   5.656   1.917
 1263SOL     OW 4687   0.924   1.950   2.284
 1263SOL    HW1 4688   0.986   1.873   2.276
 1263SOL    HW2 4689   0.881   1.968   2.195
 1264SOL     OW 4690   1.086   3.757   5.360
 1264SOL    HW1 4691   1.115   3.756   5.264
 1264SOL    HW2 4692   1.159   3.796   5.416
 1265SOL     OW 4693   6.276   5.495   5.365
 1265SOL    HW1 4694   6.219   5.558   5.417
 1265SOL    HW2 4695   6.336   5.444   5.427
 1266SOL     OW 4696   1.498   0.740   4.832
 1266SOL    HW1 4697   1.595   0.725   4.814
 1266SOL    HW2 4698   1.483   0.836   4.854
 1267SOL     OW 4699   4.824   0.755   1.989
 1267SOL    HW1 4700   4.907   0.764   1.932
 1267SOL    HW2 4701   4.821   0.663   2.027
 1268SOL     OW 4702   4.074   2.412   5.444
 1268SOL    HW1 4703   4.126   2.327   5.457
 1268SOL    HW2 4704   4.094   2.449   5.353
 1269SOL     OW 4705   5.467   2.521   3.909
 1269SOL    HW1 4706   5.540   2.547   3.972
 1269SOL    HW2 4707   5.382   2.506   3.959
 1270SOL     OW 4708   1.536   4.634   2.584
 1270SOL    HW1 4709   1.443   4.595   2.587
 1270SOL    HW2 4710   1.580   4.607   2.498
 1271SOL     OW 4711   1.846   1.142   1.517
 1271SOL    HW1 4712   1.811   1.082   1.444
 1271SOL    HW2 4713   1.779   1.214   1.534
 1272SOL     OW 4714   6.493   4.090   0.094
 1272SOL    HW1 4715   6.482   4.189   0.097
 1272SOL    HW2 4716   6.566   4.067   0.029
 1273SOL     OW 4717   1.477   4.396   5.109
 1273SOL    HW1 4718   1.401   4.451   5.141
 1273SOL    HW2 4719   1.511   4.432   5.022
 1274SOL     OW 4720   0.386   5.031   2.066
 1274SOL    HW1 4721   0.468   5.086   2.086
 1274SOL    HW2 4722   0.304   5.083   2.089
 1275SOL     OW 4723   2.706   0.693   3.376
 1275SOL    HW1 4724   2.721   0.792   3.376
 1275SOL    HW2 4725   2.657   0.667   3.293
 1276SOL     OW 4726   5.643   4.595   4.260
 1276SOL    HW1 4727   5.556   4.551   4.240
 1276SOL    HW2 4728   5.634   4.650   4.343
 1277SOL     OW 4729   0.407   5.617   6.763
 1277SOL    HW1 4730   0.358   5.547   6.710
 1277SOL    HW2 4731   0.419   5.585   6.857
 1278SOL     OW 4732   1.087   6.366   2.666
 1278SOL    HW1 4733   1.072   6.440   2.600
 1278SOL    HW2 4734   1.066   6.399   2.758
 1279SOL     OW 4735   3.039   2.509   6.487
 1279SOL    HW1 4736   2.943   2.536   6.491
 1279SOL    HW2 4737   3.047   2.412   6.509
 1280SOL     OW 4738   3.248   1.485   3.306
 1280SOL    HW1 4739   3.237   1.399   3.356
 1280SOL    HW2 4740   3.225   1.471   3.210
 1281SOL     OW 4741   3.444   6.317   3.766
 1281SOL    HW1 4742   3.516   6.248   3.773
 1281SOL    HW2 4743   3.358   6.273   3.738
 1282SOL     OW 4744   6.819   3.235   0.857
 1282SOL    HW1 4745   6.908   3.207   0.892
 1282SOL    HW2 4746   6.764   3.274   0.932
 1283SOL     OW 4747   5.865   3.485   5.051
 1283SOL    HW1 4748   5.773   3.518   5.074
 1283SOL    HW2 4749   5.909   3.447   5.133
 1284SOL     OW 4750   3.584   1.574   1.451
 1284SOL    HW1 4751   3.626   1.615   1.531
 1284SOL    HW2 4752   3.650   1.514   1.405
 1285SOL     OW 4753   3.575   1.794   4.626
 1285SOL    HW1 4754   3.572   1.803   4.527
 1285SOL    HW2 4755   3.669   1.783   4.656
 1286SOL     OW 4756   5.226   2.394   1.442
 1286SOL    HW1 4757   5.156   2.370   1.509
 1286SOL    HW2 4758   5.311   2.416   1.489
 1287SOL     OW 4759   0.016   4.661   4.563
 1287SOL    HW1 4760   6.984   4.748   4.558
 1287SOL    HW2 4761   0.100   4.665   4.510
 1288SOL     OW 4762   4.468   3.949   6.113
 1288SOL    HW1 4763   4.381   3.902   6.098
 1288SOL    HW2 4764   4.502   3.984   6.026
 1289SOL     OW 4765   6.212   0.550   1.145
 1289SOL    HW1 4766   6.148   0.479   1.115
 1289SOL    HW2 4767   6.212   0.625   1.078
 1290SOL     OW 4768   1.560   0.231   6.770
 1290SOL    HW1 4769   1.473   0.194   6.738
 1290SOL    HW2 4770   1.547   0.278   6.857
 1291SOL     OW 4771   6.720   4.726   3.350
 1291SOL    HW1 4772   6.789   4.763   3.288
 1291SOL    HW2 4773   6.652   4.797   3.371
 1292SOL     OW 4774   0.797   5.971   2.002
 1292SOL    HW1 4775   0.870   5.974   2.070
 1292SOL    HW2 4776   0.813   5.895   1.939
 1293SOL     OW 4777   2.411   1.664   6.852
 1293SOL    HW1 4778   2.489   1.724   6.831
 1293SOL    HW2 4779   2.406   1.650   6.950
 1294SOL     OW 4780   2.054   4.078   5.772
 1294SOL    HW1 4781   2.093   4.082   5.680
 1294SOL    HW2 4782   2.118   4.034   5.834
 1295SOL     OW 4783   0.041   3.535   1.492
 1295SOL    HW1 4784   0.074   3.445   1.463
 1295SOL    HW2 4785   0.103   3.574   1.559
 1296SOL     OW 4786   5.368   6.625   6.097
 1296SOL    HW1 4787   5.339   6.584   6.011
 1296SOL    HW2 4788   5.328   6.716   6.105
 1297SOL     OW 4789   0.457   0.673   2.626
 1297SOL    HW1 4790   0.472   0.769   2.649
 1297SOL    HW2 4791   0.399   0.666   2.545
 1298SOL     OW 4792   5.767   5.256   2.554
 1298SOL    HW1 4793   5.700   5.217   2.617
 1298SOL    HW2 4794   5.722   5.280   2.468
 1299SOL     OW 4795   2.114   3.521   4.159
 1299SOL    HW1 4796   2.034   3.490   4.109
 1299SOL    HW2 4797   2.182   3.448   4.163
 1300SOL     OW 4798   1.976   3.976   0.836
 1300SOL    HW1 4799   1.940   4.060   0.875
 1300SOL    HW2 4800   2.052   3.943   0.892
 1301SOL     OW 4801   1.146   1.009   1.770
 1301SOL    HW1 4802   1.074   0.974   1.710
 1301SOL    HW2 4803   1.115   1.008   1.865
 1302SOL     OW 4804   5.492   6.273   6.202
 1302SOL    HW1 4805   5.477   6.225   6.289
 1302SOL    HW2 4806   5.565   6.340   6.214
 1303SOL     OW 4807   4.349   6.908   1.674
 1303SOL    HW1 4808   4.269   6.860   1.638
 1303SOL    HW2 4809   4.411   6.842   1.716
 1304SOL     OW 4810   0.846   1.313   1.534
 1304SOL    HW1 4811   0.930   1.323   1.480
 1304SOL    HW2 4812   0.862   1.345   1.627
 1305SOL     OW 4813   5.210   4.673   6.713
 1305SOL    HW1 4814   5.290   4.632   6.755
 1305SOL    HW2 4815   5.183   4.755   6.764
 1306SOL     OW 4816   1.446   5.133   4.967
 1306SOL    HW1 4817   1.432   5.128   5.066
 1306SOL    HW2 4818   1.395   5.210   4.930
 1307SOL     OW 4819   1.974   3.043   3.640
 1307SOL    HW1 4820   1.981   3.069   3.544
 1307SOL    HW2 4821   1.905   2.971   3.650
 1308SOL     OW 4822   6.587   5.591   6.478
 1308SOL    HW1 4823   6.681   5.592   6.511
 1308SOL    HW2 4824   6.538   5.515   6.520
 1309SOL     OW 4825   5.184   4.364   5.980
 1309SOL    HW1 4826   5.276   4.330   6.001
 1309SOL    HW2 4827   5.131   4.372   6.064
 1310SOL     OW 4828   1.073   3.458   3.846
 1310SOL    HW1 4829   0.984   3.470   3.890
 1310SOL    HW2 4830   1.079   3.366   3.807
 1311SOL     OW 4831   6.747   5.698   0.608
 1311SOL    HW1 4832   6.664   5.692   0.554
 1311SOL    HW2 4833   6.820   5.738   0.554
 1312SOL     OW 4834   1.540   0.844   5.500
 1312SOL    HW1 4835   1.545   0.826   5.402
 1312SOL    HW2 4836   1.475   0.780   5.542
 1313SOL     OW 4837   6.441   5.268   3.167
 1313SOL    HW1 4838   6.501   5.304   3.096
 1313SOL    HW2 4839   6.495   5.220   3.236
 1314SOL     OW 4840   2.492   1.625   4.722
 1314SOL    HW1 4841   2.412   1.673   4.759
 1314SOL    HW2 4842   2.570   1.687   4.718
 1315SOL     OW 4843   6.054   0.214   3.869
 1315SOL    HW1 4844   6.066   0.137   3.807
 1315SOL    HW2 4845   6.047   0.180   3.963
 1316SOL     OW 4846   4.002   0.786   5.004
 1316SOL    HW1 4847   4.067   0.756   4.934
 1316SOL    HW2 4848   4.050   0.838   5.074
 1317SOL     OW 4849   2.964   3.500   5.972
 1317SOL    HW1 4850   3.032   3.572   5.957
 1317SOL    HW2 4851   2.874   3.533   5.944
 1318SOL     OW 4852   2.093   2.760   0.139
 1318SOL    HW1 4853   2.023   2.788   0.204
 1318SOL    HW2 4854   2.100   2.660   0.138
 1319SOL     OW 4855   0.046   6.099   0.163
 1319SOL    HW1 4856   7.000   6.051   0.100
 1319SOL    HW2 4857   0.003   6.106   0.253
 1320SOL     OW 4858   3.499   2.759   6.356
 1320SOL    HW1 4859   3.558   2.804   6.424
 1320SOL    HW2 4860   3.418   2.722   6.401
 1321SOL     OW 4861   5.981   2.124   6.723
 1321SOL    HW1 4862   6.033   2.055   6.673
 1321SOL    HW2 4863   5.886   2.094   6.733
 1322SOL     OW 4864   2.900   1.269   6.447
 1322SOL    HW1 4865   2.812   1.226   6.468
 1322SOL    HW2 4866   2.885   1.351   6.392
 1323SOL     OW 4867   3.466   0.272   0.568
 1323SOL    HW1 4868   3.522   0.328   0.629
 1323SOL    HW2 4869   3.438   0.326   0.489
 1324SOL     OW 4870   1.576   3.698   0.083
 1324SOL    HW1 4871   1.568   3.798   0.079
 1324SOL    HW2 4872   1.495   3.657   0.040
 1325SOL     OW 4873   2.186   5.896   5.968
 1325SOL    HW1 4874   2.102   5.920   5.919
 1325SOL    HW2 4875   2.240   5.833   5.912
 1326SOL     OW 4876   4.851   4.059   4.488
 1326SOL    HW1 4877   4.794   4.121   4.542
 1326SOL    HW2 4878   4.868   3.975   4.541
 1327SOL     OW 4879   0.473   6.513   0.716
 1327SOL    HW1 4880   0.462   6.597   0.769
 1327SOL    HW2 4881   0.571   6.495   0.703
 1328SOL     OW 4882   1.073   3.417   5.779
 1328SOL    HW1 4883   0.983   3.409   5.736
 1328SOL    HW2 4884   1.062   3.414   5.878
 1329SOL     OW 4885   0.250   2.763   3.228
 1329SOL    HW1 4886   0.248   2.664   3.213
 1329SOL    HW2 4887   0.191   2.785   3.306
 1330SOL     OW 4888   6.658   2.332   1.071
 1330SOL    HW1 4889   6.581   2.272   1.093
 1330SOL    HW2 4890   6.739   2.277   1.052
 1331SOL     OW 4891   4.110   2.237   2.597
 1331SOL    HW1 4892   4.059   2.258   2.680
 1331SOL    HW2 4893   4.175   2.163   2.616
 1332SOL     OW 4894   1.931   0.432   1.351
 1332SOL    HW1 4895   1.833   0.431   1.330
 1332SOL    HW2 4896   1.983   0.443   1.267
 1333SOL     OW 4897   4.025   3.806   2.908
 1333SOL    HW1 4898   4.043   3.856   2.992
 1333SOL    HW2 4899   3.989   3.715   2.931
 1334SOL     OW 4900   6.811   1.287   2.612
 1334SOL    HW1 4901   6.784   1.361   2.552
 1334SOL    HW2 4902   6.787   1.199   2.571
 1335SOL     OW 4903   1.988   4.005   1.421
 1335SOL    HW1 4904   2.047   3.931   1.388
 1335SOL    HW2 4905   1.905   4.009   1.366
 1336SOL     OW 4906   3.648   0.942   5.658
 1336SOL    HW1 4907   3.572   0.885   5.626
 1336SOL    HW2 4908   3.617   1.000   5.733
 1337SOL     OW 4909   6.067   1.787   3.820
 1337SOL    HW1 4910   6.064   1.886   3.810
 1337SOL    HW2 4911   6.144   1.751   3.767
 1338SOL     OW 4912   6.230   4.226   4.178
 1338SOL    HW1 4913   6.233   4.128   4.157
 1338SOL    HW2 4914   6.322   4.264   4.175
 1339SOL     OW 4915   0.196   0.309   6.863
 1339SOL    HW1 4916   0.278   0.321   6.807
 1339SOL    HW2 4917   0.196   0.217   6.902
 1340SOL     OW 4918   5.075   1.090   1.679
 1340SOL    HW1 4919   5.029   1.057   1.761
 1340SOL    HW2 4920   5.036   1.045   1.598
 1341SOL     OW 4921   4.745   6.807   6.996
 1341SOL    HW1 4922   4.672   6.875   6.996
 1341SOL    HW2 4923   4.730   6.742   6.921
 1342SOL     OW 4924   3.168   5.513   0.529
 1342SOL    HW1 4925   3.089   5.453   0.535
 1342SOL    HW2 4926   3.159   5.573   0.449
 1343SOL     OW 4927   4.994   5.036   3.188
 1343SOL    HW1 4928   5.092   5.015   3.198
 1343SOL    HW2 4929   4.974   5.057   3.093
 1344SOL     OW 4930   0.128   0.166   4.416
 1344SOL    HW1 4931   0.054   0.118   4.369
 1344SOL    HW2 4932   0.216   0.133   4.384
 1345SOL     OW 4933   0.364   5.570   1.983
 1345SOL    HW1 4934   0.327   5.478   1.993
 1345SOL    HW2 4935   0.407   5.599   2.068
 1346SOL     OW 4936   2.257   5.285   5.726
 1346SOL    HW1 4937   2.239   5.192   5.693
 1346SOL    HW2 4938   2.333   5.282   5.792
 1347SOL     OW 4939   1.860   0.479   6.583
 1347SOL    HW1 4940   1.843   0.381   6.574
 1347SOL    HW2 4941   1.937   0.493   6.647
 1348SOL     OW 4942   6.949   5.987   5.172
 1348SOL    HW1 4943   6.886   6.028   5.238
 1348SOL    HW2 4944   0.013   5.950   5.220
 1349SOL     OW 4945   5.546   3.424   3.941
 1349SOL    HW1 4946   5.507   3.442   3.851
 1349SOL    HW2 4947   5.499   3.347   3.983
 1350SOL     OW 4948   3.414   3.738   0.295
 1350SOL    HW1 4949   3.474   3.670   0.252
 1350SOL    HW2 4950   3.422   3.824   0.246
 1351SOL     OW 4951   6.337   2.293   4.199
 1351SOL    HW1 4952   6.384   2.342   4.126
 1351SOL    HW2 4953   6.274   2.355   4.246
 1352SOL     OW 4954   6.803   0.063   2.488
 1352SOL    HW1 4955   6.858   7.006   2.527
 1352SOL    HW2 4956   6.809   0.059   2.388
 1353SOL     OW 4957   0.378   1.811   1.062
 1353SOL    HW1 4958   0.355   1.907   1.079
 1353SOL    HW2 4959   0.295   1.761   1.037
 1354SOL     OW 4960   6.223   4.147   2.653
 1354SOL    HW1 4961   6.153   4.214   2.628
 1354SOL    HW2 4962   6.312   4.177   2.617
 1355SOL     OW 4963   5.743   3.441   4.324
 1355SOL    HW1 4964   5.718   3.536   4.311
 1355SOL    HW2 4965   5.678   3.382   4.276
 1356SOL     OW 4966   3.493   2.847   2.129
 1356SOL    HW1 4967   3.589   2.852   2.156
 1356SOL    HW2 4968   3.484   2.869   2.032
 1357SOL     OW 4969   6.759   3.441   5.568
 1357SOL    HW1 4970   6.828   3.423   5.499
 1357SOL    HW2 4971   6.686   3.372   5.562
 1358SOL     OW 4972   1.110   6.433   6.876
 1358SOL    HW1 4973   1.177   6.479   6.935
 1358SOL    HW2 4974   1.157   6.393   6.797
 1359SOL     OW 4975   6.567   3.958   1.415
 1359SOL    HW1 4976   6.537   4.045   1.376
 1359SOL    HW2 4977   6.541   3.955   1.512
 1360SOL     OW 4978   3.210   2.949   6.352
 1360SOL    HW1 4979   3.147   3.024   6.333
 1360SOL    HW2 4980   3.291   2.958   6.293
 1361SOL     OW 4981   0.368   4.135   4.700
 1361SOL    HW1 4982   0.468   4.137   4.703
 1361SOL    HW2 4983   0.332   4.132   4.793
 1362SOL     OW 4984   3.527   2.886   2.527
 1362SOL    HW1 4985   3.474   2.856   2.447
 1362SOL    HW2 4986   3.464   2.913   2.600
 1363SOL     OW 4987   6.839   5.609   5.338
 1363SOL    HW1 4988   6.805   5.643   5.250
 1363SOL    HW2 4989   6.864   5.513   5.329
 1364SOL     OW 4990   4.380   4.502   0.297
 1364SOL    HW1 4991   4.446   4.498   0.222
 1364SOL    HW2 4992   4.317   4.578   0.282
 1365SOL     OW 4993   0.758   3.611   6.292
 1365SOL    HW1 4994   0.709   3.524   6.295
 1365SOL    HW2 4995   0.850   3.599   6.329
 1366SOL     OW 4996   1.911   0.357   4.852
 1366SOL    HW1 4997   1.864   0.336   4.766
 1366SOL    HW2 4998   1.846   0.398   4.916
 1367SOL     OW 4999   1.971   1.255   2.324
 1367SOL    HW1 5000   2.056   1.268   2.273
 1367SOL    HW2 5001   1.953   1.335   2.381
 1368SOL     OW 5002   5.942   0.154   4.107
 1368SOL    HW1 5003   5.869   0.086   4.099
 1368SOL    HW2 5004   5.905   0.238   4.146
 1369SOL     OW 5005   0.560   0.759   3.290
 1369SOL    HW1 5006   0.628   0.823   3.326
 1369SOL    HW2 5007   0.473   0.807   3.278
 1370SOL     OW 5008   3.056   0.712   1.929
 1370SOL    HW1 5009   3.020   0.793   1.976
 1370SOL    HW2 5010   3.117   0.663   1.990
 1371SOL     OW 5011   3.606   0.174   5.853
 1371SOL    HW1 5012   3.588   0.184   5.756
 1371SOL    HW2 5013   3.565   0.090   5.887
 1372SOL     OW 5014   2.374   1.946   2.230
 1372SOL    HW1 5015   2.377   2.022   2.294
 1372SOL    HW2 5016   2.431   1.968   2.150
 1373SOL     OW 5017   0.657   5.392   1.355
 1373SOL    HW1 5018   0.669   5.454   1.432
 1373SOL    HW2 5019   0.592   5.431   1.290
 1374SOL     OW 5020   4.564   2.108   0.816
 1374SOL    HW1 5021   4.513   2.030   0.779
 1374SOL    HW2 5022   4.502   2.185   0.829
 1375SOL     OW 5023   0.311   4.399   6.120
 1375SOL    HW1 5024   0.302   4.461   6.198
 1375SOL    HW2 5025   0.295   4.305   6.151
 1376SOL     OW 5026   4.793   3.060   3.321
 1376SOL    HW1 5027   4.849   3.048   3.403
 1376SOL    HW2 5028   4.724   2.989   3.317
 1377SOL     OW 5029   6.708   5.243   5.279
 1377SOL    HW1 5030   6.688   5.289   5.193
 1377SOL    HW2 5031   6.713   5.310   5.353
 1378SOL     OW 5032   1.461   2.451   0.105
 1378SOL    HW1 5033   1.455   2.428   0.202
 1378SOL    HW2 5034   1.447   2.369   0.050
 1379SOL     OW 5035   3.960   6.781   2.723
 1379SOL    HW1 5036   3.879   6.839   2.712
 1379SOL    HW2 5037   3.944   6.716   2.797
 1380SOL     OW 5038   6.364   0.164   2.513
 1380SOL    HW1 5039   6.430   0.199   2.447
 1380SOL    HW2 5040   6.367   0.219   2.596
 1381SOL     OW 5041   6.615   2.085   0.773
 1381SOL    HW1 5042   6.667   2.049   0.695
 1381SOL    HW2 5043   6.679   2.120   0.842
 1382SOL     OW 5044   5.396   4.613   6.206
 1382SOL    HW1 5045   5.353   4.529   6.171
 1382SOL    HW2 5046   5.392   4.613   6.306
 1383SOL     OW 5047   2.347   0.242   0.517
 1383SOL    HW1 5048   2.252   0.223   0.495
 1383SOL    HW2 5049   2.395   0.156   0.535
 1384SOL     OW 5050   3.202   2.163   2.641
 1384SOL    HW1 5051   3.114   2.198   2.608
 1384SOL    HW2 5052   3.212   2.068   2.611
 1385SOL     OW 5053   6.901   3.134   3.178
 1385SOL    HW1 5054   6.933   3.107   3.087
 1385SOL    HW2 5055   6.895   3.053   3.237
 1386SOL     OW 5056   1.859   2.523   4.275
 1386SOL    HW1 5057   1.820   2.440   4.316
 1386SOL    HW2 5058   1.801   2.601   4.296
 1387SOL     OW 5059   2.374   0.070   4.917
 1387SOL    HW1 5060   2.466   0.108   4.904
 1387SOL    HW2 5061   2.312   0.142   4.950
 1388SOL     OW 5062   6.152   0.792   3.940
 1388SOL    HW1 5063   6.221   0.813   4.009
 1388SOL    HW2 5064   6.065   0.773   3.985
 1389SOL     OW 5065   5.658   0.155   4.450
 1389SOL    HW1 5066   5.712   0.071   4.454
 1389SOL    HW2 5067   5.574   0.139   4.398
 1390SOL     OW 5068   4.806   2.185   2.361
 1390SOL    HW1 5069   4.839   2.276   2.338
 1390SOL    HW2 5070   4.734   2.192   2.430
 1391SOL     OW 5071   4.931   0.674   4.629
 1391SOL    HW1 5072   4.976   0.585   4.631
 1391SOL    HW2 5073   4.854   0.673   4.694
 1392SOL     OW 5074   4.887   5.740   6.605
 1392SOL    HW1 5075   4.943   5.736   6.688
 1392SOL    HW2 5076   4.810   5.802   6.620
 1393SOL     OW 5077   6.393   1.041   6.378
 1393SOL    HW1 5078   6.368   0.951   6.343
 1393SOL    HW2 5079   6.371   1.047   6.475
 1394SOL     OW 5080   4.533   6.922   4.050
 1394SOL    HW1 5081   4.533   6.828   4.017
 1394SOL    HW2 5082   4.490   6.926   4.140
 1395SOL     OW 5083   1.392   4.788   2.238
 1395SOL    HW1 5084   1.417   4.843   2.158
 1395SOL    HW2 5085   1.292   4.785   2.247
 1396SOL     OW 5086   2.238   1.387   3.962
 1396SOL    HW1 5087   2.328   1.350   3.986
 1396SOL    HW2 5088   2.212   1.456   4.029
 1397SOL     OW 5089   0.342   5.402   4.160
 1397SOL    HW1 5090   0.439   5.426   4.156
 1397SOL    HW2 5091   0.319   5.344   4.083
 1398SOL     OW 5092   0.801   0.816   0.971
 1398SOL    HW1 5093   0.858   0.814   0.889
 1398SOL    HW2 5094   0.821   0.900   1.023
 1399SOL     OW 5095   4.215   0.242   0.126
 1399SOL    HW1 5096   4.121   0.212   0.115
 1399SOL    HW2 5097   4.262   0.183   0.192
 1400SOL     OW 5098   6.012   6.977   4.758
 1400SOL    HW1 5099   5.983   0.055   4.742
 1400SOL    HW2 5100   6.088   6.975   4.822
 1401SOL     OW 5101   5.213   0.410   3.487
 1401SOL    HW1 5102   5.277   0.444   3.419
 1401SOL    HW2 5103   5.166   0.329   3.452
 1402SOL     OW 5104   6.733   4.506   2.002
 1402SOL    HW1 5105   6.683   4.523   2.087
 1402SOL    HW2 5106   6.813   4.565   1.999
 1403SOL     OW 5107   3.032   2.812   6.694
 1403SOL    HW1 5108   3.095   2.771   6.628
 1403SOL    HW2 5109   2.978   2.883   6.649
 1404SOL     OW 5110   4.577   6.773   0.331
 1404SOL    HW1 5111   4.487   6.816   0.342
 1404SOL    HW2 5112   4.599   6.720   0.413
 1405SOL     OW 5113   1.570   3.143   0.819
 1405SOL    HW1 5114   1.497   3.210   0.828
 1405SOL    HW2 5115   1.555   3.087   0.738
 1406SOL     OW 5116   2.444   3.013   1.377
 1406SOL    HW1 5117   2.481   3.073   1.306
 1406SOL    HW2 5118   2.366   3.057   1.420
 1407SOL     OW 5119   0.236   2.962   0.806
 1407SOL    HW1 5120   0.185   2.950   0.891
 1407SOL    HW2 5121   0.280   3.052   0.806
 1408SOL     OW 5122   5.935   6.195   0.487
 1408SOL    HW1 5123   5.967   6.120   0.428
 1408SOL    HW2 5124   5.905   6.157   0.575
 1409SOL     OW 5125   6.591   1.820   5.719
 1409SOL    HW1 5126   6.674   1.835   5.665
 1409SOL    HW2 5127   6.575   1.898   5.779
 1410SOL     OW 5128   3.715   2.017   5.713
 1410SOL    HW1 5129   3.650   2.041   5.785
 1410SOL    HW2 5130   3.787   2.086   5.709
 1411SOL     OW 5131   3.817   5.226   0.223
 1411SOL    HW1 5132   3.749   5.226   0.296
 1411SOL    HW2 5133   3.873   5.143   0.230
 1412SOL     OW 5134   1.608   2.729   0.487
 1412SOL    HW1 5135   1.699   2.743   0.526
 1412SOL    HW2 5136   1.613   2.658   0.417
 1413SOL     OW 5137   1.904   1.603   5.389
 1413SOL    HW1 5138   1.993   1.559   5.398
 1413SOL    HW2 5139   1.878   1.645   5.477
 1414SOL     OW 5140   1.327   4.436   2.204
 1414SOL    HW1 5141   1.412   4.483   2.227
 1414SOL    HW2 5142   1.255   4.464   2.268
 1415SOL     OW 5143   1.987   1.785   4.412
 1415SOL    HW1 5144   2.046   1.818   4.338
 1415SOL    HW2 5145   1.912   1.731   4.374
 1416SOL     OW 5146   3.870   0.105   5.309
 1416SOL    HW1 5147   3.826   0.016   5.298
 1416SOL    HW2 5148   3.836   0.168   5.238
 1417SOL     OW 5149   3.772   3.095   6.076
 1417SOL    HW1 5150   3.688   3.088   6.022
 1417SOL    HW2 5151   3.836   3.157   6.030
 1418SOL     OW 5152   3.500   4.335   6.554
 1418SOL    HW1 5153   3.598   4.342   6.535
 1418SOL    HW2 5154   3.449   4.338   6.468
 1419SOL     OW 5155   1.926   4.677   2.424
 1419SOL    HW1 5156   2.017   4.637   2.428
 1419SOL    HW2 5157   1.858   4.609   2.450
 1420SOL     OW 5158   2.840   6.664   3.280
 1420SOL    HW1 5159   2.890   6.609   3.213
 1420SOL    HW2 5160   2.752   6.621   3.300
 1421SOL     OW 5161   1.457   4.882   5.964
 1421SOL    HW1 5162   1.373   4.934   5.950
 1421SOL    HW2 5163   1.459   4.804   5.902
 1422SOL     OW 5164   2.276   4.145   6.012
 1422SOL    HW1 5165   2.261   4.184   6.102
 1422SOL    HW2 5166   2.342   4.070   6.018
 1423SOL     OW 5167   4.191   0.606   5.340
 1423SOL    HW1 5168   4.096   0.590   5.314
 1423SOL    HW2 5169   4.197   0.689   5.396
 1424SOL     OW 5170   6.154   3.196   6.600
 1424SOL    HW1 5171   6.059   3.166   6.592
 1424SOL    HW2 5172   6.166   3.245   6.687
 1425SOL     OW 5173   5.026   6.527   3.522
 1425SOL    HW1 5174   4.974   6.605   3.487
 1425SOL    HW2 5175   5.119   6.530   3.484
 1426SOL     OW 5176   3.379   2.261   0.197
 1426SOL    HW1 5177   3.297   2.276   0.142
 1426SOL    HW2 5178   3.360   2.193   0.269
 1427SOL     OW 5179   1.472   1.134   3.781
 1427SOL    HW1 5180   1.494   1.069   3.853
 1427SOL    HW2 5181   1.383   1.112   3.742
 1428SOL     OW 5182   0.544   3.969   4.175
 1428SOL    HW1 5183   0.499   4.028   4.242
 1428SOL    HW2 5184   0.502   3.878   4.176
 1429SOL     OW 5185   5.830   1.012   0.888
 1429SOL    HW1 5186   5.868   1.062   0.965
 1429SOL    HW2 5187   5.826   0.915   0.910
 1430SOL     OW 5188   2.054   3.852   3.684
 1430SOL    HW1 5189   2.037   3.803   3.598
 1430SOL    HW2 5190   2.102   3.938   3.664
 1431SOL     OW 5191   2.523   0.859   5.998
 1431SOL    HW1 5192   2.573   0.911   6.067
 1431SOL    HW2 5193   2.450   0.915   5.960
 1432SOL     OW 5194   2.621   1.519   2.184
 1432SOL    HW1 5195   2.653   1.480   2.271
 1432SOL    HW2 5196   2.697   1.561   2.136
 1433SOL     OW 5197   2.479   6.947   3.839
 1433SOL    HW1 5198   2.468   7.003   3.921
 1433SOL    HW2 5199   2.529   6.998   3.770
 1434SOL     OW 5200   0.335   3.308   0.655
 1434SOL    HW1 5201   0.258   3.285   0.596
 1434SOL    HW2 5202   0.416   3.257   0.627
 1435SOL     OW 5203   1.183   6.978   4.049
 1435SOL    HW1 5204   1.260   6.915   4.050
 1435SOL    HW2 5205   1.161   7.006   4.142
 1436SOL     OW 5206   5.478   2.034   0.011
 1436SOL    HW1 5207   5.477   2.097   0.088
 1436SOL    HW2 5208   5.447   2.081   6.944
 1437SOL     OW 5209   3.957   0.367   6.158
 1437SOL    HW1 5210   3.931   0.282   6.112
 1437SOL    HW2 5211   3.877   0.408   6.202
 1438SOL     OW 5212   2.542   0.109   2.185
 1438SOL    HW1 5213   2.555   0.150   2.275
 1438SOL    HW2 5214   2.628   0.067   2.155
 1439SOL     OW 5215   0.545   5.046   0.022
 1439SOL    HW1 5216   0.584   5.095   0.099
 1439SOL    HW2 5217   0.576   4.951   0.023
 1440SOL     OW 5218   3.402   3.147   3.239
 1440SOL    HW1 5219   3.375   3.204   3.161
 1440SOL    HW2 5220   3.354   3.060   3.235
 1441SOL     OW 5221   6.031   2.916   3.634
 1441SOL    HW1 5222   6.071   2.974   3.706
 1441SOL    HW2 5223   5.966   2.969   3.581
 1442SOL     OW 5224   5.017   4.683   7.013
 1442SOL    HW1 5225   4.989   4.693   0.093
 1442SOL    HW2 5226   5.101   4.629   7.008
 1443SOL     OW 5227   0.465   2.613   2.696
 1443SOL    HW1 5228   0.418   2.546   2.638
 1443SOL    HW2 5229   0.397   2.668   2.744
 1444SOL     OW 5230   4.583   0.967   3.690
 1444SOL    HW1 5231   4.623   0.876   3.675
 1444SOL    HW2 5232   4.553   1.005   3.602
 1445SOL     OW 5233   6.358   1.862   1.218
 1445SOL    HW1 5234   6.327   1.789   1.157
 1445SOL    HW2 5235   6.443   1.835   1.262
 1446SOL     OW 5236   4.401   1.002   1.406
 1446SOL    HW1 5237   4.301   0.996   1.404
 1446SOL    HW2 5238   4.431   1.034   1.496
 1447SOL     OW 5239   6.486   0.672   5.222
 1447SOL    HW1 5240   6.480   0.771   5.230
 1447SOL    HW2 5241   6.509   0.648   5.128
 1448SOL     OW 5242   5.627   0.494   6.658
 1448SOL    HW1 5243   5.537   0.456   6.679
 1448SOL    HW2 5244   5.647   0.569   6.720
 1449SOL     OW 5245   4.677   5.946   1.199
 1449SOL    HW1 5246   4.765   5.959   1.245
 1449SOL    HW2 5247   4.643   6.035   1.168
 1450SOL     OW 5248   5.488   3.138   3.359
 1450SOL    HW1 5249   5.559   3.067   3.358
 1450SOL    HW2 5250   5.399   3.095   3.347
 1451SOL     OW 5251   1.293   6.221   3.027
 1451SOL    HW1 5252   1.236   6.260   3.099
 1451SOL    HW2 5253   1.259   6.130   3.004
 1452SOL     OW 5254   4.456   1.186   5.452
 1452SOL    HW1 5255   4.377   1.126   5.463
 1452SOL    HW2 5256   4.451   1.262   5.517
 1453SOL     OW 5257   5.638   4.967   5.352
 1453SOL    HW1 5258   5.724   5.017   5.349
 1453SOL    HW2 5259   5.627   4.915   5.267
 1454SOL     OW 5260   4.198   4.079   0.977
 1454SOL    HW1 5261   4.197   4.001   1.040
 1454SOL    HW2 5262   4.166   4.049   0.887
 1455SOL     OW 5263   1.986   2.378   1.418
 1455SOL    HW1 5264   2.007   2.460   1.472
 1455SOL    HW2 5265   1.938   2.404   1.335
 1456SOL     OW 5266   6.207   6.059   3.487
 1456SOL    HW1 5267   6.158   6.138   3.451
 1456SOL    HW2 5268   6.230   6.075   3.584
 1457SOL     OW 5269   1.179   0.488   3.047
 1457SOL    HW1 5270   1.261   0.466   3.100
 1457SOL    HW2 5271   1.176   0.586   3.028
 1458SOL     OW 5272   5.408   5.492   6.760
 1458SOL    HW1 5273   5.443   5.399   6.750
 1458SOL    HW2 5274   5.474   5.557   6.722
 1459SOL     OW 5275   2.184   0.180   6.954
 1459SOL    HW1 5276   2.125   0.108   6.990
 1459SOL    HW2 5277   2.249   0.140   6.889
 1460SOL     OW 5278   1.539   0.323   0.004
 1460SOL    HW1 5279   1.479   0.258   0.049
 1460SOL    HW2 5280   1.564   0.395   0.069
 1461SOL     OW 5281   5.676   4.450   1.562
 1461SOL    HW1 5282   5.726   4.534   1.584
 1461SOL    HW2 5283   5.672   4.439   1.462
 1462SOL     OW 5284   6.064   0.804   6.424
 1462SOL    HW1 5285   6.070   0.901   6.401
 1462SOL    HW2 5286   6.038   0.753   6.342
 1463SOL     OW 5287   0.665   1.294   4.862
 1463SOL    HW1 5288   0.716   1.234   4.924
 1463SOL    HW2 5289   0.725   1.369   4.833
 1464SOL     OW 5290   0.477   6.282   0.903
 1464SOL    HW1 5291   0.576   6.269   0.899
 1464SOL    HW2 5292   0.453   6.368   0.857
 1465SOL     OW 5293   6.862   6.418   4.846
 1465SOL    HW1 5294   6.960   6.414   4.831
 1465SOL    HW2 5295   6.821   6.484   4.783
 1466SOL     OW 5296   5.432   5.236   3.764
 1466SOL    HW1 5297   5.347   5.285   3.786
 1466SOL    HW2 5298   5.417   5.138   3.776
 1467SOL     OW 5299   0.599   2.305   3.133
 1467SOL    HW1 5300   0.560   2.330   3.045
 1467SOL    HW2 5301   0.699   2.310   3.127
 1468SOL     OW 5302   5.693   5.813   3.412
 1468SOL    HW1 5303   5.612   5.866   3.387
 1468SOL    HW2 5304   5.770   5.840   3.354
 1469SOL     OW 5305   0.546   1.442   3.069
 1469SOL    HW1 5306   0.585   1.351   3.057
 1469SOL    HW2 5307   0.604   1.510   3.024
 1470SOL     OW 5308   0.167   1.342   3.432
 1470SOL    HW1 5309   0.241   1.277   3.418
 1470SOL    HW2 5310   0.111   1.348   3.350
 1471SOL     OW 5311   0.204   0.056   6.991
 1471SOL    HW1 5312   0.254   6.986   6.980
 1471SOL    HW2 5313   0.106   0.037   6.997
 1472SOL     OW 5314   3.798   0.704   5.682
 1472SOL    HW1 5315   3.752   0.634   5.738
 1472SOL    HW2 5316   3.745   0.788   5.684
 1473SOL     OW 5317   6.162   4.012   3.719
 1473SOL    HW1 5318   6.160   3.939   3.786
 1473SOL    HW2 5319   6.248   4.009   3.668
 1474SOL     OW 5320   4.665   5.875   3.739
 1474SOL    HW1 5321   4.567   5.892   3.736
 1474SOL    HW2 5322   4.703   5.879   3.647
 1475SOL     OW 5323   0.489   1.101   2.485
 1475SOL    HW1 5324   0.403   1.082   2.531
 1475SOL    HW2 5325   0.494   1.198   2.462
 1476SOL     OW 5326   6.481   1.912   2.276
 1476SOL    HW1 5327   6.551   1.849   2.308
 1476SOL    HW2 5328   6.431   1.950   2.355
 1477SOL     OW 5329   2.435   5.959   3.806
 1477SOL    HW1 5330   2.346   5.977   3.848
 1477SOL    HW2 5331   2.507   5.993   3.866
 1478SOL     OW 5332   6.474   4.210   1.326
 1478SOL    HW1 5333   6.383   4.172   1.343
 1478SOL    HW2 5334   6.467   4.281   1.256
 1479SOL     OW 5335   1.602   4.886   0.734
 1479SOL    HW1 5336   1.671   4.926   0.675
 1479SOL    HW2 5337   1.627   4.901   0.830
 1480SOL     OW 5338   2.651   1.178   6.929
 1480SOL    HW1 5339   2.653   1.194   0.012
 1480SOL    HW2 5340   2.620   1.261   6.882
 1481SOL     OW 5341   5.921   2.651   6.213
 1481SOL    HW1 5342   5.870   2.658   6.299
 1481SOL    HW2 5343   5.999   2.713   6.215
 1482SOL     OW 5344   6.177   0.482   6.342
 1482SOL    HW1 5345   6.242   0.420   6.297
 1482SOL    HW2 5346   6.196   0.486   6.440
 1483SOL     OW 5347   6.235   1.815   0.003
 1483SOL    HW1 5348   6.217   1.907   6.985
 1483SOL    HW2 5349   6.310   1.817   0.068
 1484SOL     OW 5350   6.407   5.226   2.393
 1484SOL    HW1 5351   6.441   5.319   2.375
 1484SOL    HW2 5352   6.337   5.229   2.464
 1485SOL     OW 5353   4.951   2.828   4.034
 1485SOL    HW1 5354   4.886   2.889   4.079
 1485SOL    HW2 5355   4.939   2.735   4.070
 1486SOL     OW 5356   4.887   1.966   2.091
 1486SOL    HW1 5357   4.902   1.917   2.005
 1486SOL    HW2 5358   4.958   1.941   2.156
 1487SOL     OW 5359   6.277   1.333   5.572
 1487SOL    HW1 5360   6.366   1.356   5.612
 1487SOL    HW2 5361   6.257   1.236   5.589
 1488SOL     OW 5362   4.248   1.877   3.223
 1488SOL    HW1 5363   4.244   1.884   3.123
 1488SOL    HW2 5364   4.195   1.798   3.253
 1489SOL     OW 5365   4.077   5.825   5.023
 1489SOL    HW1 5366   4.150   5.799   5.086
 1489SOL    HW2 5367   4.068   5.756   4.952
 1490SOL     OW 5368   1.853   2.794   0.301
 1490SOL    HW1 5369   1.865   2.794   0.401
 1490SOL    HW2 5370   1.793   2.718   0.275
 1491SOL     OW 5371   0.159   3.027   4.479
 1491SOL    HW1 5372   0.194   2.934   4.475
 1491SOL    HW2 5373   0.195   3.073   4.560
 1492SOL     OW 5374   5.129   2.038   1.927
 1492SOL    HW1 5375   5.057   2.044   1.858
 1492SOL    HW2 5376   5.102   2.091   2.007
 1493SOL     OW 5377   4.816   0.984   5.243
 1493SOL    HW1 5378   4.771   1.072   5.227
 1493SOL    HW2 5379   4.783   0.944   5.328
 1494SOL     OW 5380   4.711   2.895   6.026
 1494SOL    HW1 5381   4.806   2.913   6.051
 1494SOL    HW2 5382   4.709   2.822   5.957
 1495SOL     OW 5383   1.846   2.991   2.397
 1495SOL    HW1 5384   1.866   2.937   2.478
 1495SOL    HW2 5385   1.913   3.064   2.387
 1496SOL     OW 5386   0.543   0.561   2.259
 1496SOL    HW1 5387   0.467   0.563   2.323
 1496SOL    HW2 5388   0.514   0.597   2.171
 1497SOL     OW 5389   6.128   5.465   4.721
 1497SOL    HW1 5390   6.140   5.388   4.784
 1497SOL    HW2 5391   6.044   5.452   4.669
 1498SOL     OW 5392   2.853   6.290   0.447
 1498SOL    HW1 5393   2.789   6.227   0.402
 1498SOL    HW2 5394   2.882   6.359   0.382
 1499SOL     OW 5395   0.712   4.145   5.719
 1499SOL    HW1 5396   0.811   4.140   5.710
 1499SOL    HW2 5397   0.683   4.089   5.796
 1500SOL     OW 5398   5.051   0.339   6.244
 1500SOL    HW1 5399   5.093   0.396   6.314
 1500SOL    HW2 5400   5.006   0.398   6.176
 1501SOL     OW 5401   3.891   6.735   6.204
 1501SOL    HW1 5402   3.979   6.727   6.158
 1501SOL    HW2 5403   3.904   6.729   6.303
 1502SOL     OW 5404   6.441   6.258   0.306
 1502SOL    HW1 5405   6.530   6.271   0.263
 1502SOL    HW2 5406   6.375   6.229   0.236
 1503SOL     OW 5407   3.540   3.001   5.945
 1503SOL    HW1 5408   3.476   3.053   5.888
 1503SOL    HW2 5409   3.535   2.904   5.921
 1504SOL     OW 5410   3.095   6.087   4.885
 1504SOL    HW1 5411   3.145   6.018   4.833
 1504SOL    HW2 5412   3.082   6.055   4.979
 1505SOL     OW 5413   5.099   5.417   0.406
 1505SOL    HW1 5414   5.148   5.334   0.381
 1505SOL    HW2 5415   5.158   5.476   0.461
 1506SOL     OW 5416   0.643   6.005   4.413
 1506SOL    HW1 5417   0.637   6.104   4.426
 1506SOL    HW2 5418   0.718   5.984   4.349
 1507SOL     OW 5419   1.859   1.925   6.349
 1507SOL    HW1 5420   1.802   1.923   6.267
 1507SOL    HW2 5421   1.808   1.969   6.423
 1508SOL     OW 5422   5.454   0.047   0.281
 1508SOL    HW1 5423   5.457   0.034   0.380
 1508SOL    HW2 5424   5.459   0.144   0.260
 1509SOL     OW 5425   4.892   1.940   0.517
 1509SOL    HW1 5426   4.826   2.001   0.472
 1509SOL    HW2 5427   4.905   1.858   0.461
 1510SOL     OW 5428   6.662   1.884   3.926
 1510SOL    HW1 5429   6.644   1.828   4.008
 1510SOL    HW2 5430   6.758   1.874   3.900
 1511SOL     OW 5431   1.872   2.422   0.659
 1511SOL    HW1 5432   1.908   2.480   0.586
 1511SOL    HW2 5433   1.773   2.434   0.665
 1512SOL     OW 5434   0.024   0.637   1.914
 1512SOL    HW1 5435   0.116   0.613   1.945
 1512SOL    HW2 5436   0.020   0.735   1.895
 1513SOL     OW 5437   3.547   0.920   2.486
 1513SOL    HW1 5438   3.603   1.000   2.505
 1513SOL    HW2 5439   3.503   0.889   2.571
 1514SOL     OW 5440   5.038   1.617   5.275
 1514SOL    HW1 5441   4.960   1.555   5.277
 1514SOL    HW2 5442   5.115   1.572   5.230
 1515SOL     OW 5443   0.123   4.578   4.231
 1515SOL    HW1 5444   0.150   4.482   4.232
 1515SOL    HW2 5445   0.086   4.601   4.141
 1516SOL     OW 5446   0.905   1.315   0.688
 1516SOL    HW1 5447   0.971   1.356   0.624
 1516SOL    HW2 5448   0.823   1.288   0.638
 1517SOL     OW 5449   4.129   6.119   3.314
 1517SOL    HW1 5450   4.190   6.073   3.379
 1517SOL    HW2 5451   4.173   6.122   3.224
 1518SOL     OW 5452   0.707   4.460   0.953
 1518SOL    HW1 5453   0.717   4.540   1.013
 1518SOL    HW2 5454   0.760   4.384   0.990
 1519SOL     OW 5455   6.436   4.408   0.684
 1519SOL    HW1 5456   6.368   4.404   0.610
 1519SOL    HW2 5457   6.405   4.473   0.753
 1520SOL     OW 5458   1.150   3.676   2.875
 1520SOL    HW1 5459   1.235   3.684   2.927
 1520SOL    HW2 5460   1.146   3.750   2.808
 1521SOL     OW 5461   2.892   3.843   6.805
 1521SOL    HW1 5462   2.931   3.900   6.734
 1521SOL    HW2 5463   2.866   3.755   6.767
 1522SOL     OW 5464   6.492   2.202   6.785
 1522SOL    HW1 5465   6.424   2.254   6.733
 1522SOL    HW2 5466   6.561   2.266   6.822
 1523SOL     OW 5467   0.653   1.763   1.000
 1523SOL    HW1 5468   0.555   1.773   1.013
 1523SOL    HW2 5469   0.674   1.670   0.968
 1524SOL     OW 5470   6.948   0.762   2.459
 1524SOL    HW1 5471   0.006   0.777   2.525
 1524SOL    HW2 5472   6.903   0.675   2.479
 1525SOL     OW 5473   4.319   2.074   6.310
 1525SOL    HW1 5474   4.300   2.149   6.375
 1525SOL    HW2 5475   4.265   2.088   6.228
 1526SOL     OW 5476   6.748   2.222   1.767
 1526SOL    HW1 5477   6.750   2.319   1.789
 1526SOL    HW2 5478   6.656   2.186   1.782
 1527SOL     OW 5479   3.283   1.748   5.845
 1527SOL    HW1 5480   3.376   1.780   5.832
 1527SOL    HW2 5481   3.236   1.807   5.910
 1528SOL     OW 5482   5.064   6.269   3.409
 1528SOL    HW1 5483   4.979   6.256   3.459
 1528SOL    HW2 5484   5.093   6.364   3.416
 1529SOL     OW 5485   3.287   0.480   6.019
 1529SOL    HW1 5486   3.243   0.426   6.091
 1529SOL    HW2 5487   3.372   0.436   5.992
 1530SOL     OW 5488   3.913   6.172   1.880
 1530SOL    HW1 5489   3.905   6.127   1.970
 1530SOL    HW2 5490   3.889   6.106   1.809
 1531SOL     OW 5491   6.752   0.015   4.794
 1531SOL    HW1 5492   6.793   6.966   4.730
 1531SOL    HW2 5493   6.661   6.999   4.819
 1532SOL     OW 5494   3.186   1.841   5.327
 1532SOL    HW1 5495   3.202   1.839   5.425
 1532SOL    HW2 5496   3.135   1.924   5.303
 1533SOL     OW 5497   6.096   2.450   6.925
 1533SOL    HW1 5498   6.098   2.410   6.833
 1533SOL    HW2 5499   6.156   2.530   6.928
 1534SOL     OW 5500   6.860   6.257   1.166
 1534SOL    HW1 5501   6.852   6.349   1.206
 1534SOL    HW2 5502   6.787   6.244   1.098
 1535SOL     OW 5503   4.375   5.533   3.959
 1535SOL    HW1 5504   4.373   5.494   4.051
 1535SOL    HW2 5505   4.310   5.484   3.901
 1536SOL     OW 5506   2.787   6.347   5.094
 1536SOL    HW1 5507   2.876   6.391   5.107
 1536SOL    HW2 5508   2.800   6.247   5.090
 1537SOL     OW 5509   1.674   5.509   4.482
 1537SOL    HW1 5510   1.696   5.430   4.425
 1537SOL    HW2 5511   1.705   5.593   4.437
 1538SOL     OW 5512   2.172   5.651   6.570
 1538SOL    HW1 5513   2.157   5.746   6.542
 1538SOL    HW2 5514   2.096   5.620   6.627
 1539SOL     OW 5515   3.469   4.903   1.550
 1539SOL    HW1 5516   3.405   4.944   1.616
 1539SOL    HW2 5517   3.486   4.808   1.576
 1540SOL     OW 5518   0.568   6.645   4.720
 1540SOL    HW1 5519   0.485   6.618   4.671
 1540SOL    HW2 5520   0.593   6.572   4.783
 1541SOL     OW 5521   4.989   2.474   1.136
 1541SOL    HW1 5522   4.992   2.403   1.065
 1541SOL    HW2 5523   5.082   2.488   1.172
 1542SOL     OW 5524   1.262   6.489   0.843
 1542SOL    HW1 5525   1.184   6.545   0.815
 1542SOL    HW2 5526   1.262   6.404   0.790
 1543SOL     OW 5527   3.043   3.981   4.097
 1543SOL    HW1 5528   3.008   3.974   4.191
 1543SOL    HW2 5529   3.136   4.017   4.098
 1544SOL     OW 5530   3.681   4.115   2.653
 1544SOL    HW1 5531   3.597   4.117   2.598
 1544SOL    HW2 5532   3.759   4.137   2.595
 1545SOL     OW 5533   5.676   0.160   4.787
 1545SOL    HW1 5534   5.746   0.188   4.853
 1545SOL    HW2 5535   5.719   0.132   4.702
 1546SOL     OW 5536   0.706   6.516   6.050
 1546SOL    HW1 5537   0.706   6.459   6.132
 1546SOL    HW2 5538   0.697   6.457   5.969
 1547SOL     OW 5539   3.445   6.227   0.447
 1547SOL    HW1 5540   3.514   6.186   0.388
 1547SOL    HW2 5541   3.472   6.216   0.543
 1548SOL     OW 5542   5.546   4.012   4.613
 1548SOL    HW1 5543   5.574   4.070   4.536
 1548SOL    HW2 5544   5.590   3.923   4.605
 1549SOL     OW 5545   6.822   1.702   1.196
 1549SOL    HW1 5546   6.819   1.624   1.133
 1549SOL    HW2 5547   6.891   1.686   1.266
 1550SOL     OW 5548   2.371   6.091   4.668
 1550SOL    HW1 5549   2.439   6.059   4.734
 1550SOL    HW2 5550   2.316   6.014   4.637
 1551SOL     OW 5551   1.738   2.016   0.547
 1551SOL    HW1 5552   1.708   2.090   0.608
 1551SOL    HW2 5553   1.790   2.055   0.471
 1552SOL     OW 5554   1.077   0.642   0.526
 1552SOL    HW1 5555   1.161   0.695   0.534
 1552SOL    HW2 5556   1.047   0.640   0.431
 1553SOL     OW 5557   6.053   1.536   6.512
 1553SOL    HW1 5558   5.971   1.520   6.566
 1553SOL    HW2 5559   6.134   1.508   6.565
 1554SOL     OW 5560   3.407   1.808   1.771
 1554SOL    HW1 5561   3.466   1.880   1.736
 1554SOL    HW2 5562   3.462   1.737   1.816
 1555SOL     OW 5563   4.161   1.529   5.875
 1555SOL    HW1 5564   4.161   1.539   5.776
 1555SOL    HW2 5565   4.082   1.474   5.903
 1556SOL     OW 5566   3.520   1.557   1.150
 1556SOL    HW1 5567   3.467   1.477   1.123
 1556SOL    HW2 5568   3.512   1.571   1.249
 1557SOL     OW 5569   1.934   1.827   0.653
 1557SOL    HW1 5570   1.859   1.892   0.659
 1557SOL    HW2 5571   1.939   1.789   0.561
 1558SOL     OW 5572   6.508   3.271   6.317
 1558SOL    HW1 5573   6.450   3.351   6.330
 1558SOL    HW2 5574   6.520   3.224   6.404
 1559SOL     OW 5575   1.935   4.547   3.251
 1559SOL    HW1 5576   1.903   4.617   3.315
 1559SOL    HW2 5577   1.859   4.514   3.196
 1560SOL     OW 5578   4.091   1.479   1.451
 1560SOL    HW1 5579   4.100   1.385   1.482
 1560SOL    HW2 5580   4.062   1.537   1.527
 1561SOL     OW 5581   6.485   5.756   1.117
 1561SOL    HW1 5582   6.575   5.713   1.127
 1561SOL    HW2 5583   6.454   5.789   1.207
 1562SOL     OW 5584   3.778   6.449   2.099
 1562SOL    HW1 5585   3.822   6.417   2.183
 1562SOL    HW2 5586   3.825   6.530   2.065
 1563SOL     OW 5587   4.078   2.088   4.156
 1563SOL    HW1 5588   4.114   2.143   4.231
 1563SOL    HW2 5589   4.082   2.141   4.071
 1564SOL     OW 5590   1.675   2.280   2.854
 1564SOL    HW1 5591   1.626   2.287   2.940
 1564SOL    HW2 5592   1.649   2.355   2.794
 1565SOL     OW 5593   3.853   1.046   4.876
 1565SOL    HW1 5594   3.812   1.059   4.966
 1565SOL    HW2 5595   3.950   1.023   4.886
 1566SOL     OW 5596   4.591   4.824   3.087
 1566SOL    HW1 5597   4.578   4.769   3.005
 1566SOL    HW2 5598   4.536   4.907   3.080
 1567SOL     OW 5599   5.121   6.711   4.676
 1567SOL    HW1 5600   5.097   6.804   4.703
 1567SOL    HW2 5601   5.181   6.671   4.744
 1568SOL     OW 5602   2.694   5.383   2.255
 1568SOL    HW1 5603   2.740   5.299   2.285
 1568SOL    HW2 5604   2.617   5.359   2.196
 1569SOL     OW 5605   2.773   0.299   3.262
 1569SOL    HW1 5606   2.808   0.365   3.329
 1569SOL    HW2 5607   2.694   0.251   3.300
 1570SOL     OW 5608   3.530   6.817   6.757
 1570SOL    HW1 5609   3.493   6.857   6.841
 1570SOL    HW2 5610   3.627   6.840   6.749
 1571SOL     OW 5611   0.693   2.215   4.542
 1571SOL    HW1 5612   0.629   2.145   4.571
 1571SOL    HW2 5613   0.669   2.246   4.450
 1572SOL     OW 5614   1.874   5.366   1.926
 1572SOL    HW1 5615   1.796   5.306   1.944
 1572SOL    HW2 5616   1.921   5.386   2.013
 1573SOL     OW 5617   5.167   4.896   0.225
 1573SOL    HW1 5618   5.089   4.833   0.224
 1573SOL    HW2 5619   5.199   4.908   0.319
 1574SOL     OW 5620   6.914   3.401   2.962
 1574SOL    HW1 5621   6.997   3.345   2.967
 1574SOL    HW2 5622   6.860   3.373   2.882
 1575SOL     OW 5623   0.375   0.980   0.485
 1575SOL    HW1 5624   0.305   0.946   0.422
 1575SOL    HW2 5625   0.377   1.080   0.481
 1576SOL     OW 5626   0.255   0.438   2.562
 1576SOL    HW1 5627   0.220   0.457   2.654
 1576SOL    HW2 5628   0.188   0.385   2.511
 1577SOL     OW 5629   4.654   6.191   5.282
 1577SOL    HW1 5630   4.600   6.274   5.277
 1577SOL    HW2 5631   4.744   6.207   5.243
 1578SOL     OW 5632   4.924   0.594   0.257
 1578SOL    HW1 5633   4.856   0.635   0.317
 1578SOL    HW2 5634   4.909   0.495   0.252
 1579SOL     OW 5635   1.499   2.153   1.279
 1579SOL    HW1 5636   1.507   2.244   1.240
 1579SOL    HW2 5637   1.534   2.085   1.214
 1580SOL     OW 5638   3.248   3.769   2.700
 1580SOL    HW1 5639   3.186   3.718   2.641
 1580SOL    HW2 5640   3.338   3.776   2.657
 1581SOL     OW 5641   6.794   4.332   5.949
 1581SOL    HW1 5642   6.841   4.248   5.924
 1581SOL    HW2 5643   6.712   4.311   6.001
 1582SOL     OW 5644   4.443   6.357   5.306
 1582SOL    HW1 5645   4.437   6.359   5.206
 1582SOL    HW2 5646   4.395   6.436   5.344
 1583SOL     OW 5647   1.147   5.829   4.936
 1583SOL    HW1 5648   1.245   5.833   4.916
 1583SOL    HW2 5649   1.134   5.823   5.035
 1584SOL     OW 5650   0.121   5.025   6.997
 1584SOL    HW1 5651   0.088   5.060   6.909
 1584SOL    HW2 5652   0.218   5.003   6.990
 1585SOL     OW 5653   3.819   6.928   3.037
 1585SOL    HW1 5654   3.810   0.011   3.045
 1585SOL    HW2 5655   3.911   6.900   3.066
 1586SOL     OW 5656   2.535   4.578   3.861
 1586SOL    HW1 5657   2.491   4.666   3.847
 1586SOL    HW2 5658   2.591   4.581   3.944
 1587SOL     OW 5659   2.164   6.096   5.478
 1587SOL    HW1 5660   2.223   6.019   5.454
 1587SOL    HW2 5661   2.069   6.063   5.487
 1588SOL     OW 5662   6.077   0.914   2.652
 1588SOL    HW1 5663   6.134   0.847   2.701
 1588SOL    HW2 5664   6.033   0.974   2.719
 1589SOL     OW 5665   6.224   4.614   4.391
 1589SOL    HW1 5666   6.223   4.668   4.475
 1589SOL    HW2 5667   6.143   4.638   4.336
 1590SOL     OW 5668   6.457   2.567   3.742
 1590SOL    HW1 5669   6.372   2.617   3.724
 1590SOL    HW2 5670   6.534   2.631   3.739
 1591SOL     OW 5671   0.735   6.459   2.026
 1591SOL    HW1 5672   0.691   6.371   2.046
 1591SOL    HW2 5673   0.667   6.522   1.988
 1592SOL     OW 5674   0.477   4.070   6.983
 1592SOL    HW1 5675   0.544   4.067   6.909
 1592SOL    HW2 5676   0.394   4.023   6.954
 1593SOL     OW 5677   2.417   0.615   6.974
 1593SOL    HW1 5678   2.337   0.568   6.938
 1593SOL    HW2 5679   2.399   0.643   0.053
 1594SOL     OW 5680   6.274   0.285   2.061
 1594SOL    HW1 5681   6.308   0.218   2.127
 1594SOL    HW2 5682   6.246   0.368   2.109
 1595SOL     OW 5683   1.010   4.127   6.671
 1595SOL    HW1 5684   0.967   4.074   6.597
 1595SOL    HW2 5685   0.977   4.222   6.666
 1596SOL     OW 5686   4.934   4.699   2.342
 1596SOL    HW1 5687   4.998   4.643   2.395
 1596SOL    HW2 5688   4.841   4.686   2.376
 1597SOL     OW 5689   4.004   6.756   6.745
 1597SOL    HW1 5690   4.096   6.793   6.741
 1597SOL    HW2 5691   4.003   6.674   6.803
 1598SOL     OW 5692   1.980   5.722   0.201
 1598SOL    HW1 5693   2.051   5.672   0.251
 1598SOL    HW2 5694   1.918   5.766   0.266
 1599SOL     OW 5695   4.615   5.293   4.079
 1599SOL    HW1 5696   4.538   5.247   4.034
 1599SOL    HW2 5697   4.614   5.390   4.053
 1600SOL     OW 5698   3.954   0.678   2.559
 1600SOL    HW1 5699   4.054   0.678   2.571
 1600SOL    HW2 5700   3.925   0.767   2.526
 1601SOL     OW 5701   6.416   6.501   4.316
 1601SOL    HW1 5702   6.321   6.508   4.347
 1601SOL    HW2 5703   6.457   6.593   4.315
 1602SOL     OW 5704   3.845   5.169   3.797
 1602SOL    HW1 5705   3.818   5.165   3.701
 1602SOL    HW2 5706   3.940   5.138   3.806
 1603SOL     OW 5707   2.983   5.636   3.323
 1603SOL    HW1 5708   2.911   5.583   3.279
 1603SOL    HW2 5709   3.066   5.633   3.266
 1604SOL     OW 5710   3.948   4.907   2.001
 1604SOL    HW1 5711   3.903   4.880   2.086
 1604SOL    HW2 5712   3.904   4.862   1.924
 1605SOL     OW 5713   4.866   5.432   1.296
 1605SOL    HW1 5714   4.943   5.487   1.266
 1605SOL    HW2 5715   4.867   5.343   1.249
 1606SOL     OW 5716   4.052   6.578   4.870
 1606SOL    HW1 5717   4.074   6.657   4.927
 1606SOL    HW2 5718   4.062   6.603   4.774
 1607SOL     OW 5719   4.088   5.755   2.895
 1607SOL    HW1 5720   4.118   5.660   2.903
 1607SOL    HW2 5721   4.073   5.777   2.798
 1608SOL     OW 5722   6.527   0.974   3.221
 1608SOL    HW1 5723   6.480   0.945   3.304
 1608SOL    HW2 5724   6.487   0.927   3.142
 1609SOL     OW 5725   3.733   6.403   0.504
 1609SOL    HW1 5726   3.672   6.394   0.583
 1609SOL    HW2 5727   3.814   6.454   0.530
 1610SOL     OW 5728   4.846   0.051   0.333
 1610SOL    HW1 5729   4.926   0.024   0.280
 1610SOL    HW2 5730   4.862   0.032   0.430
 1611SOL     OW 5731   1.121   4.166   1.183
 1611SOL    HW1 5732   1.157   4.122   1.100
 1611SOL    HW2 5733   1.197   4.207   1.233
 1612SOL     OW 5734   3.920   6.917   1.920
 1612SOL    HW1 5735   3.963   6.972   1.991
 1612SOL    HW2 5736   3.860   6.975   1.864
 1613SOL     OW 5737   0.044   5.651   2.349
 1613SOL    HW1 5738   0.003   5.659   2.258
 1613SOL    HW2 5739   0.078   5.558   2.362
 1614SOL     OW 5740   6.495   2.209   6.310
 1614SOL    HW1 5741   6.449   2.281   6.258
 1614SOL    HW2 5742   6.446   2.123   6.298
 1615SOL     OW 5743   1.490   5.112   6.248
 1615SOL    HW1 5744   1.422   5.153   6.188
 1615SOL    HW2 5745   1.562   5.180   6.267
 1616SOL     OW 5746   2.143   1.419   4.750
 1616SOL    HW1 5747   2.094   1.364   4.818
 1616SOL    HW2 5748   2.080   1.486   4.710
 1617SOL     OW 5749   5.350   6.223   3.199
 1617SOL    HW1 5750   5.437   6.254   3.236
 1617SOL    HW2 5751   5.312   6.152   3.258
 1618SOL     OW 5752   3.094   5.320   2.867
 1618SOL    HW1 5753   3.163   5.299   2.936
 1618SOL    HW2 5754   3.010   5.349   2.913
 1619SOL     OW 5755   1.207   5.422   0.073
 1619SOL    HW1 5756   1.150   5.488   0.023
 1619SOL    HW2 5757   1.243   5.466   0.156
 1620SOL     OW 5758   4.106   5.349   6.318
 1620SOL    HW1 5759   4.075   5.288   6.390
 1620SOL    HW2 5760   4.134   5.436   6.358
 1621SOL     OW 5761   5.198   6.053   0.529
 1621SOL    HW1 5762   5.173   6.119   0.599
 1621SOL    HW2 5763   5.297   6.050   0.518
 1622SOL     OW 5764   0.431   4.738   4.708
 1622SOL    HW1 5765   0.360   4.774   4.768
 1622SOL    HW2 5766   0.393   4.664   4.651
 1623SOL     OW 5767   0.617   1.944   3.984
 1623SOL    HW1 5768   0.572   2.029   4.012
 1623SOL    HW2 5769   0.703   1.934   4.033
 1624SOL     OW 5770   4.186   1.154   0.784
 1624SOL    HW1 5771   4.171   1.171   0.881
 1624SOL    HW2 5772   4.272   1.196   0.755
 1625SOL     OW 5773   1.559   5.355   1.083
 1625SOL    HW1 5774   1.646   5.308   1.100
 1625SOL    HW2 5775   1.483   5.293   1.101
 1626SOL     OW 5776   3.356   1.530   1.581
 1626SOL    HW1 5777   3.365   1.576   1.669
 1626SOL    HW2 5778   3.438   1.545   1.526
 1627SOL     OW 5779   4.655   1.348   4.646
 1627SOL    HW1 5780   4.649   1.381   4.552
 1627SOL    HW2 5781   4.568   1.362   4.692
 1628SOL     OW 5782   5.464   6.590   0.121
 1628SOL    HW1 5783   5.381   6.587   0.065
 1628SOL    HW2 5784   5.531   6.650   0.076
 1629SOL     OW 5785   1.950   0.926   3.215
 1629SOL    HW1 5786   1.928   0.877   3.131
 1629SOL    HW2 5787   1.880   0.908   3.284
 1630SOL     OW 5788   0.562   3.574   0.114
 1630SOL    HW1 5789   0.502   3.630   0.056
 1630SOL    HW2 5790   0.508   3.527   0.183
 1631SOL     OW 5791   0.043   3.177   0.981
 1631SOL    HW1 5792   0.020   3.218   1.069
 1631SOL    HW2 5793   0.032   3.077   0.986
 1632SOL     OW 5794   6.624   4.762   2.973
 1632SOL    HW1 5795   6.595   4.823   2.899
 1632SOL    HW2 5796   6.600   4.803   3.061
 1633SOL     OW 5797   5.231   3.040   3.866
 1633SOL    HW1 5798   5.285   3.035   3.950
 1633SOL    HW2 5799   5.161   3.111   3.876
 1634SOL     OW 5800   5.099   0.471   4.562
 1634SOL    HW1 5801   5.140   0.513   4.481
 1634SOL    HW2 5802   5.034   0.400   4.534
 1635SOL     OW 5803   3.580   5.786   4.373
 1635SOL    HW1 5804   3.531   5.703   4.398
 1635SOL    HW2 5805   3.647   5.766   4.301
 1636SOL     OW 5806   5.648   6.733   1.405
 1636SOL    HW1 5807   5.570   6.679   1.374
 1636SOL    HW2 5808   5.685   6.785   1.329
 1637SOL     OW 5809   6.904   7.005   2.227
 1637SOL    HW1 5810   6.973   0.054   2.258
 1637SOL    HW2 5811   6.942   6.913   2.224
 1638SOL     OW 5812   0.050   2.920   2.038
 1638SOL    HW1 5813   0.097   2.869   2.110
 1638SOL    HW2 5814   0.100   3.005   2.020
 1639SOL     OW 5815   4.795   2.933   2.774
 1639SOL    HW1 5816   4.754   2.860   2.720
 1639SOL    HW2 5817   4.778   2.917   2.871
 1640SOL     OW 5818   6.264   0.000   0.156
 1640SOL    HW1 5819   6.287   0.028   0.062
 1640SOL    HW2 5820   6.342   6.970   0.197
 1641SOL     OW 5821   6.232   2.347   2.978
 1641SOL    HW1 5822   6.288   2.366   3.059
 1641SOL    HW2 5823   6.167   2.422   2.965
 1642SOL     OW 5824   5.641   2.056   5.569
 1642SOL    HW1 5825   5.698   1.998   5.511
 1642SOL    HW2 5826   5.628   2.145   5.525
 1643SOL     OW 5827   2.554   5.678   4.204
 1643SOL    HW1 5828   2.583   5.647   4.113
 1643SOL    HW2 5829   2.504   5.764   4.194
 1644SOL     OW 5830   5.927   3.016   0.832
 1644SOL    HW1 5831   5.893   2.938   0.780
 1644SOL    HW2 5832   6.026   3.011   0.840
 1645SOL     OW 5833   2.160   0.691   5.582
 1645SOL    HW1 5834   2.100   0.688   5.661
 1645SOL    HW2 5835   2.227   0.765   5.594
 1646SOL     OW 5836   0.835   5.397   0.803
 1646SOL    HW1 5837   0.848   5.465   0.875
 1646SOL    HW2 5838   0.800   5.442   0.721
 1647SOL     OW 5839   6.515   2.601   4.597
 1647SOL    HW1 5840   6.517   2.680   4.536
 1647SOL    HW2 5841   6.440   2.611   4.662
 1648SOL     OW 5842   5.349   6.162   0.947
 1648SOL    HW1 5843   5.387   6.229   1.011
 1648SOL    HW2 5844   5.260   6.193   0.915
 1649SOL     OW 5845   2.842   0.419   3.507
 1649SOL    HW1 5846   2.772   0.471   3.556
 1649SOL    HW2 5847   2.932   0.443   3.544
 1650SOL     OW 5848   2.742   4.688   6.554
 1650SOL    HW1 5849   2.796   4.718   6.475
 1650SOL    HW2 5850   2.757   4.751   6.630
 1651SOL     OW 5851   0.809   2.943   3.795
 1651SOL    HW1 5852   0.767   2.853   3.803
 1651SOL    HW2 5853   0.790   2.980   3.703
 1652SOL     OW 5854   0.302   2.624   1.239
 1652SOL    HW1 5855   0.256   2.545   1.198
 1652SOL    HW2 5856   0.337   2.683   1.166
 1653SOL     OW 5857   6.900   4.869   3.187
 1653SOL    HW1 5858   6.874   4.902   3.096
 1653SOL    HW2 5859   6.937   4.945   3.241
 1654SOL     OW 5860   0.853   2.997   2.186
 1654SOL    HW1 5861   0.852   2.932   2.262
 1654SOL    HW2 5862   0.760   3.008   2.150
 1655SOL     OW 5863   0.112   6.939   4.670
 1655SOL    HW1 5864   0.020   6.923   4.705
 1655SOL    HW2 5865   0.139   0.017   4.691
 1656SOL     OW 5866   1.806   4.764   4.348
 1656SOL    HW1 5867   1.727   4.760   4.287
 1656SOL    HW2 5868   1.866   4.838   4.318
 1657SOL     OW 5869   1.293   0.301   5.369
 1657SOL    HW1 5870   1.219   0.368   5.375
 1657SOL    HW2 5871   1.381   0.349   5.362
 1658SOL     OW 5872   6.546   0.032   6.668
 1658SOL    HW1 5873   6.598   6.971   6.632
 1658SOL    HW2 5874   6.490   0.000   6.746
 1659SOL     OW 5875   4.989   6.952   6.334
 1659SOL    HW1 5876   5.013   6.999   6.249
 1659SOL    HW2 5877   4.894   6.920   6.329
 1660SOL     OW 5878   1.847   0.119   2.226
 1660SOL    HW1 5879   1.922   0.054   2.227
 1660SOL    HW2 5880   1.883   0.212   2.229
 1661SOL     OW 5881   3.819   4.888   2.807
 1661SOL    HW1 5882   3.876   4.969   2.817
 1661SOL    HW2 5883   3.877   4.809   2.787
 1662SOL     OW 5884   0.262   0.756   4.919
 1662SOL    HW1 5885   0.219   0.738   5.007
 1662SOL    HW2 5886   0.338   0.820   4.931
 1663SOL     OW 5887   4.763   4.913   0.948
 1663SOL    HW1 5888   4.758   4.815   0.969
 1663SOL    HW2 5889   4.791   4.925   0.853
 1664SOL     OW 5890   0.998   0.238   5.604
 1664SOL    HW1 5891   1.033   0.300   5.534
 1664SOL    HW2 5892   1.027   0.145   5.584
 1665SOL     OW 5893   2.407   4.147   0.519
 1665SOL    HW1 5894   2.408   4.201   0.435
 1665SOL    HW2 5895   2.358   4.061   0.502
 1666SOL     OW 5896   5.450   6.771   6.451
 1666SOL    HW1 5897   5.523   6.770   6.382
 1666SOL    HW2 5898   5.362   6.763   6.405
 1667SOL     OW 5899   0.790   6.406   1.214
 1667SOL    HW1 5900   0.871   6.450   1.253
 1667SOL    HW2 5901   0.760   6.332   1.275
 1668SOL     OW 5902   5.203   4.477   3.779
 1668SOL    HW1 5903   5.269   4.521   3.841
 1668SOL    HW2 5904   5.110   4.497   3.810
 1669SOL     OW 5905   6.676   3.637   5.240
 1669SOL    HW1 5906   6.752   3.596   5.188
 1669SOL    HW2 5907   6.709   3.666   5.330
 1670SOL     OW 5908   1.637   4.716   5.770
 1670SOL    HW1 5909   1.610   4.630   5.813
 1670SOL    HW2 5910   1.711   4.758   5.823
 1671SOL     OW 5911   6.092   1.726   1.306
 1671SOL    HW1 5912   6.188   1.706   1.328
 1671SOL    HW2 5913   6.046   1.762   1.386
 1672SOL     OW 5914   1.008   3.228   6.954
 1672SOL    HW1 5915   0.971   3.160   6.890
 1672SOL    HW2 5916   0.934   3.266   7.009
 1673SOL     OW 5917   2.658   1.479   4.371
 1673SOL    HW1 5918   2.593   1.506   4.301
 1673SOL    HW2 5919   2.649   1.381   4.388
 1674SOL     OW 5920   4.961   2.629   2.701
 1674SOL    HW1 5921   4.959   2.656   2.797
 1674SOL    HW2 5922   4.896   2.686   2.650
 1675SOL     OW 5923   5.110   1.090   0.766
 1675SOL    HW1 5924   5.210   1.089   0.775
 1675SOL    HW2 5925   5.071   1.145   0.840
 1676SOL     OW 5926   1.767   1.469   2.863
 1676SOL    HW1 5927   1.786   1.565   2.884
 1676SOL    HW2 5928   1.852   1.416   2.868
 1677SOL     OW 5929   4.050   3.822   3.288
 1677SOL    HW1 5930   4.042   3.723   3.277
 1677SOL    HW2 5931   4.098   3.843   3.373
 1678SOL     OW 5932   0.698   6.464   0.594
 1678SOL    HW1 5933   0.782   6.448   0.646
 1678SOL    HW2 5934   0.704   6.419   0.505
 1679SOL     OW 5935   1.628   1.601   5.816
 1679SOL    HW1 5936   1.637   1.649   5.904
 1679SOL    HW2 5937   1.706   1.540   5.803
 1680SOL     OW 5938   4.984   2.504   4.065
 1680SOL    HW1 5939   5.076   2.540   4.051
 1680SOL    HW2 5940   4.980   2.455   4.153
 1681SOL     OW 5941   1.875   6.290   3.757
 1681SOL    HW1 5942   1.863   6.373   3.703
 1681SOL    HW2 5943   1.943   6.231   3.713
 1682SOL     OW 5944   2.162   0.006   5.406
 1682SOL    HW1 5945   2.212   6.968   5.338
 1682SOL    HW2 5946   2.161   0.102   5.377
 1683SOL     OW 5947   5.842   4.935   2.356
 1683SOL    HW1 5948   5.896   5.017   2.376
 1683SOL    HW2 5949   5.845   4.873   2.434
 1684SOL     OW 5950   2.482   4.513   1.651
 1684SOL    HW1 5951   2.487   4.415   1.634
 1684SOL    HW2 5952   2.534   4.535   1.734
 1685SOL     OW 5953   0.356   1.039   5.787
 1685SOL    HW1 5954   0.396   0.952   5.815
 1685SOL    HW2 5955   0.338   1.095   5.868
 1686SOL     OW 5956   4.704   6.215   2.903
 1686SOL    HW1 5957   4.629   6.264   2.948
 1686SOL    HW2 5958   4.709   6.121   2.939
 1687SOL     OW 5959   6.498   4.241   2.727
 1687SOL    HW1 5960   6.578   4.197   2.686
 1687SOL    HW2 5961   6.485   4.332   2.687
 1688SOL     OW 5962   2.092   1.781   3.517
 1688SOL    HW1 5963   2.176   1.804   3.565
 1688SOL    HW2 5964   2.092   1.683   3.495
 1689SOL     OW 5965   5.504   0.811   1.527
 1689SOL    HW1 5966   5.556   0.751   1.588
 1689SOL    HW2 5967   5.459   0.882   1.581
 1690SOL     OW 5968   0.405   4.078   4.408
 1690SOL    HW1 5969   0.392   4.177   4.412
 1690SOL    HW2 5970   0.322   4.031   4.440
 1691SOL     OW 5971   4.892   2.585   5.287
 1691SOL    HW1 5972   4.976   2.624   5.324
 1691SOL    HW2 5973   4.858   2.644   5.213
 1692SOL     OW 5974   5.890   5.089   1.237
 1692SOL    HW1 5975   5.793   5.112   1.240
 1692SOL    HW2 5976   5.923   5.071   1.330
 1693SOL     OW 5977   5.861   0.163   5.015
 1693SOL    HW1 5978   5.816   0.107   5.085
 1693SOL    HW2 5979   5.958   0.139   5.010
 1694SOL     OW 5980   4.852   0.736   5.489
 1694SOL    HW1 5981   4.852   0.677   5.570
 1694SOL    HW2 5982   4.862   0.680   5.407
 1695SOL     OW 5983   3.588   0.671   6.232
 1695SOL    HW1 5984   3.638   0.588   6.256
 1695SOL    HW2 5985   3.611   0.699   6.139
 1696SOL     OW 5986   4.240   6.079   0.025
 1696SOL    HW1 5987   4.265   6.040   0.114
 1696SOL    HW2 5988   4.202   6.171   0.038
 1697SOL     OW 5989   6.005   2.280   1.399
 1697SOL    HW1 5990   5.988   2.348   1.328
 1697SOL    HW2 5991   5.957   2.196   1.377
 1698SOL     OW 5992   3.570   0.617   1.586
 1698SOL    HW1 5993   3.658   0.634   1.633
 1698SOL    HW2 5994   3.538   0.702   1.545
 1699SOL     OW 5995   2.465   0.163   0.170
 1699SOL    HW1 5996   2.489   0.253   0.135
 1699SOL    HW2 5997   2.437   0.104   0.094
 1700SOL     OW 5998   6.220   3.554   3.502
 1700SOL    HW1 5999   6.216   3.645   3.462
 1700SOL    HW2 6000   6.275   3.556   3.585
 1701SOL     OW 6001   0.211   5.379   4.615
 1701SOL    HW1 6002   0.195   5.338   4.705
 1701SOL    HW2 6003   0.123   5.397   4.571
 1702SOL     OW 6004   1.921   2.741   5.713
 1702SOL    HW1 6005   1.824   2.747   5.737
 1702SOL    HW2 6006   1.931   2.733   5.614
 1703SOL     OW 6007   3.314   2.061   0.377
 1703SOL    HW1 6008   3.356   2.015   0.455
 1703SOL    HW2 6009   3.241   2.122   0.409
 1704SOL     OW 6010   2.427   1.731   0.929
 1704SOL    HW1 6011   2.458   1.719   1.023
 1704SOL    HW2 6012   2.482   1.801   0.884
 1705SOL     OW 6013   4.497   1.447   0.511
 1705SOL    HW1 6014   4.419   1.508   0.496
 1705SOL    HW2 6015   4.579   1.488   0.470
 1706SOL     OW 6016   4.148   2.164   0.803
 1706SOL    HW1 6017   4.236   2.210   0.817
 1706SOL    HW2 6018   4.073   2.228   0.818
 1707SOL     OW 6019   4.505   1.895   2.206
 1707SOL    HW1 6020   4.405   1.902   2.202
 1707SOL    HW2 6021   4.531   1.799   2.195
 1708SOL     OW 6022   3.125   5.187   1.499
 1708SOL    HW1 6023   3.031   5.219   1.483
 1708SOL    HW2 6024   3.156   5.134   1.420
 1709SOL     OW 6025   4.400   5.823   0.634
 1709SOL    HW1 6026   4.303   5.828   0.608
 1709SOL    HW2 6027   4.428   5.910   0.674
 1710SOL     OW 6028   3.633   5.379   3.242
 1710SOL    HW1 6029   3.706   5.312   3.234
 1710SOL    HW2 6030   3.551   5.345   3.197
 1711SOL     OW 6031   3.628   5.102   6.194
 1711SOL    HW1 6032   3.583   5.117   6.106
 1711SOL    HW2 6033   3.572   5.140   6.267
 1712SOL     OW 6034   6.807   2.145   3.755
 1712SOL    HW1 6035   6.816   2.084   3.833
 1712SOL    HW2 6036   6.719   2.129   3.710
 1713SOL     OW 6037   3.978   0.939   2.501
 1713SOL    HW1 6038   4.012   0.932   2.407
 1713SOL    HW2 6039   3.993   1.031   2.535
 1714SOL     OW 6040   3.573   2.708   0.179
 1714SOL    HW1 6041   3.669   2.687   0.195
 1714SOL    HW2 6042   3.516   2.640   0.224
 1715SOL     OW 6043   1.667   6.631   2.952
 1715SOL    HW1 6044   1.587   6.682   2.982
 1715SOL    HW2 6045   1.686   6.557   3.017
 1716SOL     OW 6046   4.475   0.335   3.400
 1716SOL    HW1 6047   4.398   0.277   3.373
 1716SOL    HW2 6048   4.472   0.350   3.499
 1717SOL     OW 6049   3.731   5.859   5.339
 1717SOL    HW1 6050   3.690   5.930   5.397
 1717SOL    HW2 6051   3.825   5.885   5.317
 1718SOL     OW 6052   1.276   2.585   1.223
 1718SOL    HW1 6053   1.267   2.500   1.173
 1718SOL    HW2 6054   1.224   2.579   1.309
 1719SOL     OW 6055   0.700   5.206   1.590
 1719SOL    HW1 6056   0.654   5.272   1.530
 1719SOL    HW2 6057   0.786   5.245   1.622
 1720SOL     OW 6058   6.321   2.644   5.401
 1720SOL    HW1 6059   6.270   2.601   5.326
 1720SOL    HW2 6060   6.344   2.575   5.469
 1721SOL     OW 6061   1.634   2.142   1.532
 1721SOL    HW1 6062   1.733   2.160   1.536
 1721SOL    HW2 6063   1.602   2.157   1.438
 1722SOL     OW 6064   2.919   2.204   2.999
 1722SOL    HW1 6065   2.931   2.188   2.901
 1722SOL    HW2 6066   2.991   2.158   3.050
 1723SOL     OW 6067   5.366   2.805   0.047
 1723SOL    HW1 6068   5.330   2.860   0.123
 1723SOL    HW2 6069   5.423   2.863   7.005
 1724SOL     OW 6070   6.759   2.441   1.318
 1724SOL    HW1 6071   6.690   2.439   1.391
 1724SOL    HW2 6072   6.715   2.433   1.229
 1725SOL     OW 6073   2.254   6.122   6.799
 1725SOL    HW1 6074   2.348   6.114   6.831
 1725SOL    HW2 6075   2.229   6.219   6.793
 1726SOL     OW 6076   5.492   3.932   3.968
 1726SOL    HW1 6077   5.534   3.990   4.038
 1726SOL    HW2 6078   5.560   3.909   3.898
 1727SOL     OW 6079   3.200   3.426   3.235
 1727SOL    HW1 6080   3.186   3.520   3.203
 1727SOL    HW2 6081   3.280   3.388   3.189
 1728SOL     OW 6082   4.791   2.179   4.401
 1728SOL    HW1 6083   4.714   2.146   4.348
 1728SOL    HW2 6084   4.828   2.105   4.457
 1729SOL     OW 6085   1.869   3.908   2.096
 1729SOL    HW1 6086   1.913   3.929   2.184
 1729SOL    HW2 6087   1.939   3.889   2.028
 1730SOL     OW 6088   3.005   4.859   6.031
 1730SOL    HW1 6089   2.910   4.840   6.052
 1730SOL    HW2 6090   3.059   4.775   6.038
 1731SOL     OW 6091   5.865   4.432   4.307
 1731SOL    HW1 6092   5.917   4.499   4.360
 1731SOL    HW2 6093   5.781   4.474   4.273
 1732SOL     OW 6094   1.977   4.176   6.187
 1732SOL    HW1 6095   1.929   4.241   6.128
 1732SOL    HW2 6096   2.074   4.199   6.188
 1733SOL     OW 6097   2.709   4.163   0.218
 1733SOL    HW1 6098   2.768   4.165   0.137
 1733SOL    HW2 6099   2.767   4.162   0.300
 1734SOL     OW 6100   6.856   3.261   1.188
 1734SOL    HW1 6101   6.816   3.169   1.198
 1734SOL    HW2 6102   6.798   3.316   1.129
 1735SOL     OW 6103   3.781   4.933   6.073
 1735SOL    HW1 6104   3.733   4.994   6.136
 1735SOL    HW2 6105   3.716   4.895   6.007
 1736SOL     OW 6106   4.485   3.162   0.896
 1736SOL    HW1 6107   4.454   3.074   0.934
 1736SOL    HW2 6108   4.409   3.207   0.850
 1737SOL     OW 6109   4.788   1.458   5.185
 1737SOL    HW1 6110   4.791   1.418   5.093
 1737SOL    HW2 6111   4.740   1.546   5.181
 1738SOL     OW 6112   1.172   3.202   4.643
 1738SOL    HW1 6113   1.244   3.222   4.577
 1738SOL    HW2 6114   1.184   3.110   4.678
 1739SOL     OW 6115   5.552   0.523   4.056
 1739SOL    HW1 6116   5.488   0.565   3.992
 1739SOL    HW2 6117   5.537   0.424   4.058
 1740SOL     OW 6118   6.428   3.059   4.603
 1740SOL    HW1 6119   6.446   3.075   4.506
 1740SOL    HW2 6120   6.415   2.961   4.619
 1741SOL     OW 6121   1.021   2.154   4.382
 1741SOL    HW1 6122   1.081   2.183   4.307
 1741SOL    HW2 6123   1.046   2.062   4.411
 1742SOL     OW 6124   5.948   6.194   6.916
 1742SOL    HW1 6125   6.011   6.265   6.883
 1742SOL    HW2 6126   5.854   6.222   6.896
 1743SOL     OW 6127   1.243   0.747   3.003
 1743SOL    HW1 6128   1.331   0.781   3.035
 1743SOL    HW2 6129   1.181   0.824   2.988
 1744SOL     OW 6130   3.820   1.565   3.942
 1744SOL    HW1 6131   3.832   1.613   3.855
 1744SOL    HW2 6132   3.905   1.571   3.995
 1745SOL     OW 6133   6.866   6.532   1.236
 1745SOL    HW1 6134   6.820   6.519   1.324
 1745SOL    HW2 6135   6.815   6.598   1.181
 1746SOL     OW 6136   1.669   4.277   4.103
 1746SOL    HW1 6137   1.655   4.292   4.005
 1746SOL    HW2 6138   1.744   4.212   4.116
 1747SOL     OW 6139   3.716   0.382   2.473
 1747SOL    HW1 6140   3.738   0.300   2.526
 1747SOL    HW2 6141   3.800   0.426   2.441
 1748SOL     OW 6142   6.781   1.947   4.818
 1748SOL    HW1 6143   6.851   1.949   4.747
 1748SOL    HW2 6144   6.713   2.018   4.799
 1749SOL     OW 6145   1.623   4.927   0.986
 1749SOL    HW1 6146   1.621   4.838   1.031
 1749SOL    HW2 6147   1.532   4.968   0.990
 1750SOL     OW 6148   4.429   6.954   5.158
 1750SOL    HW1 6149   4.465   6.886   5.222
 1750SOL    HW2 6150   4.493   0.015   5.152
 1751SOL     OW 6151   5.398   2.554   5.203
 1751SOL    HW1 6152   5.351   2.637   5.234
 1751SOL    HW2 6153   5.450   2.515   5.279
 1752SOL     OW 6154   6.348   0.783   1.325
 1752SOL    HW1 6155   6.396   0.770   1.412
 1752SOL    HW2 6156   6.309   0.696   1.296
 1753SOL     OW 6157   6.495   1.844   1.667
 1753SOL    HW1 6158   6.545   1.777   1.722
 1753SOL    HW2 6159   6.560   1.895   1.611
 1754SOL     OW 6160   3.364   5.748   4.964
 1754SOL    HW1 6161   3.415   5.739   4.878
 1754SOL    HW2 6162   3.427   5.759   5.040
 1755SOL     OW 6163   6.293   6.652   5.231
 1755SOL    HW1 6164   6.273   6.725   5.296
 1755SOL    HW2 6165   6.348   6.688   5.156
 1756SOL     OW 6166   5.200   0.163   5.892
 1756SOL    HW1 6167   5.293   0.166   5.927
 1756SOL    HW2 6168   5.160   0.255   5.894
 1757SOL     OW 6169   2.404   4.804   5.236
 1757SOL    HW1 6170   2.475   4.795   5.166
 1757SOL    HW2 6171   2.375   4.713   5.265
 1758SOL     OW 6172   2.047   6.456   4.736
 1758SOL    HW1 6173   2.009   6.378   4.786
 1758SOL    HW2 6174   2.061   6.431   4.640
 1759SOL     OW 6175   1.586   6.673   6.907
 1759SOL    HW1 6176   1.576   6.772   6.922
 1759SOL    HW2 6177   1.670   6.656   6.856
 1760SOL     OW 6178   6.123   1.126   5.296
 1760SOL    HW1 6179   6.095   1.216   5.332
 1760SOL    HW2 6180   6.109   1.125   5.197
 1761SOL     OW 6181   6.175   1.887   2.524
 1761SOL    HW1 6182   6.157   1.794   2.556
 1761SOL    HW2 6183   6.148   1.895   2.428
 1762SOL     OW 6184   0.131   1.560   5.881
 1762SOL    HW1 6185   0.048   1.612   5.903
 1762SOL    HW2 6186   0.182   1.608   5.810
 1763SOL     OW 6187   1.003   3.941   4.112
 1763SOL    HW1 6188   1.080   3.887   4.145
 1763SOL    HW2 6189   1.017   3.967   4.017
 1764SOL     OW 6190   0.678   5.185   2.826
 1764SOL    HW1 6191   0.682   5.128   2.744
 1764SOL    HW2 6192   0.597   5.244   2.822
 1765SOL     OW 6193   5.106   3.493   2.808
 1765SOL    HW1 6194   5.183   3.465   2.752
 1765SOL    HW2 6195   5.129   3.481   2.905
 1766SOL     OW 6196   4.572   5.425   4.388
 1766SOL    HW1 6197   4.567   5.424   4.488
 1766SOL    HW2 6198   4.654   5.474   4.359
 1767SOL     OW 6199   0.631   4.893   1.899
 1767SOL    HW1 6200   0.728   4.918   1.893
 1767SOL    HW2 6201   0.575   4.970   1.868
 1768SOL     OW 6202   5.189   6.519   2.159
 1768SOL    HW1 6203   5.103   6.569   2.156
 1768SOL    HW2 6204   5.188   6.455   2.237
 1769SOL     OW 6205   5.280   0.684   6.733
 1769SOL    HW1 6206   5.277   0.654   6.828
 1769SOL    HW2 6207   5.327   0.615   6.678
 1770SOL     OW 6208   2.203   5.295   6.320
 1770SOL    HW1 6209   2.196   5.250   6.409
 1770SOL    HW2 6210   2.244   5.232   6.254
 1771SOL     OW 6211   1.071   3.690   6.185
 1771SOL    HW1 6212   1.095   3.684   6.282
 1771SOL    HW2 6213   1.109   3.774   6.146
 1772SOL     OW 6214   2.309   4.381   3.832
 1772SOL    HW1 6215   2.294   4.290   3.870
 1772SOL    HW2 6216   2.406   4.404   3.837
 1773SOL     OW 6217   0.872   6.817   5.109
 1773SOL    HW1 6218   0.818   6.861   5.181
 1773SOL    HW2 6219   0.964   6.798   5.143
 1774SOL     OW 6220   5.499   5.261   0.813
 1774SOL    HW1 6221   5.585   5.295   0.776
 1774SOL    HW2 6222   5.503   5.261   0.912
 1775SOL     OW 6223   2.601   5.510   6.302
 1775SOL    HW1 6224   2.501   5.514   6.305
 1775SOL    HW2 6225   2.630   5.414   6.294
 1776SOL     OW 6226   5.013   1.223   6.015
 1776SOL    HW1 6227   5.086   1.272   6.061
 1776SOL    HW2 6228   4.988   1.271   5.931
 1777SOL     OW 6229   4.937   6.638   6.743
 1777SOL    HW1 6230   4.943   6.602   6.650
 1777SOL    HW2 6231   5.022   6.687   6.764
 1778SOL     OW 6232   5.916   6.834   3.980
 1778SOL    HW1 6233   6.010   6.863   3.968
 1778SOL    HW2 6234   5.880   6.799   3.893
 1779SOL     OW 6235   5.941   5.922   3.864
 1779SOL    HW1 6236   6.026   5.898   3.818
 1779SOL    HW2 6237   5.961   5.973   3.948
 1780SOL     OW 6238   2.040   5.735   4.782
 1780SOL    HW1 6239   2.106   5.747   4.708
 1780SOL    HW2 6240   2.085   5.752   4.870
 1781SOL     OW 6241   3.776   0.896   4.304
 1781SOL    HW1 6242   3.848   0.940   4.358
 1781SOL    HW2 6243   3.742   0.816   4.353
 1782SOL     OW 6244   1.098   1.530   2.691
 1782SOL    HW1 6245   1.185   1.543   2.737
 1782SOL    HW2 6246   1.112   1.532   2.592
 1783SOL     OW 6247   2.271   4.088   6.503
 1783SOL    HW1 6248   2.359   4.137   6.502
 1783SOL    HW2 6249   2.220   4.114   6.585
 1784SOL     OW 6250   2.731   6.919   1.393
 1784SOL    HW1 6251   2.786   6.904   1.475
 1784SOL    HW2 6252   2.699   6.831   1.357
 1785SOL     OW 6253   1.186   6.557   4.147
 1785SOL    HW1 6254   1.219   6.650   4.132
 1785SOL    HW2 6255   1.236   6.516   4.223
 1786SOL     OW 6256   1.120   5.936   0.580
 1786SOL    HW1 6257   1.186   5.990   0.633
 1786SOL    HW2 6258   1.148   5.840   0.579
 1787SOL     OW 6259   2.974   3.876   6.054
 1787SOL    HW1 6260   3.034   3.933   5.999
 1787SOL    HW2 6261   3.023   3.795   6.085
 1788SOL     OW 6262   4.552   3.614   0.786
 1788SOL    HW1 6263   4.597   3.537   0.741
 1788SOL    HW2 6264   4.526   3.588   0.878
 1789SOL     OW 6265   6.604   4.022   2.300
 1789SOL    HW1 6266   6.506   4.013   2.312
 1789SOL    HW2 6267   6.651   3.952   2.354
 1790SOL     OW 6268   2.437   2.678   4.709
 1790SOL    HW1 6269   2.496   2.597   4.706
 1790SOL    HW2 6270   2.488   2.757   4.676
 1791SOL     OW 6271   5.048   6.712   3.185
 1791SOL    HW1 6272   5.076   6.770   3.108
 1791SOL    HW2 6273   5.080   6.752   3.271
 1792SOL     OW 6274   0.357   1.407   5.752
 1792SOL    HW1 6275   0.399   1.364   5.672
 1792SOL    HW2 6276   0.338   1.503   5.732
 1793SOL     OW 6277   0.053   1.408   6.266
 1793SOL    HW1 6278   0.035   1.386   6.170
 1793SOL    HW2 6279   0.091   1.501   6.272
 1794SOL     OW 6280   1.126   0.308   6.285
 1794SOL    HW1 6281   1.069   0.264   6.216
 1794SOL    HW2 6282   1.134   0.405   6.265
 1795SOL     OW 6283   6.143   4.025   1.160
 1795SOL    HW1 6284   6.215   3.966   1.123
 1795SOL    HW2 6285   6.175   4.067   1.245
 1796SOL     OW 6286   1.129   0.176   6.516
 1796SOL    HW1 6287   1.067   0.098   6.510
 1796SOL    HW2 6288   1.121   0.231   6.433
 1797SOL     OW 6289   2.578   4.981   5.364
 1797SOL    HW1 6290   2.516   4.910   5.329
 1797SOL    HW2 6291   2.548   5.070   5.332
 1798SOL     OW 6292   3.034   3.344   4.261
 1798SOL    HW1 6293   3.130   3.374   4.257
 1798SOL    HW2 6294   2.978   3.405   4.205
 1799SOL     OW 6295   3.394   1.144   0.288
 1799SOL    HW1 6296   3.478   1.093   0.270
 1799SOL    HW2 6297   3.385   1.160   0.386
 1800SOL     OW 6298   5.556   3.718   4.678
 1800SOL    HW1 6299   5.518   3.724   4.586
 1800SOL    HW2 6300   5.587   3.625   4.696
 1801SOL     OW 6301   1.462   1.498   1.837
 1801SOL    HW1 6302   1.484   1.417   1.891
 1801SOL    HW2 6303   1.363   1.499   1.818
 1802SOL     OW 6304   6.785   4.820   3.782
 1802SOL    HW1 6305   6.716   4.820   3.854
 1802SOL    HW2 6306   6.812   4.726   3.761
 1803SOL     OW 6307   0.895   6.739   3.137
 1803SOL    HW1 6308   0.889   6.755   3.236
 1803SOL    HW2 6309   0.916   6.826   3.091
 1804SOL     OW 6310   2.079   3.235   5.642
 1804SOL    HW1 6311   2.078   3.335   5.648
 1804SOL    HW2 6312   2.025   3.196   5.717
 1805SOL     OW 6313   0.155   5.582   6.601
 1805SOL    HW1 6314   0.110   5.550   6.684
 1805SOL    HW2 6315   0.100   5.654   6.560
 1806SOL     OW 6316   6.716   1.774   2.324
 1806SOL    HW1 6317   6.803   1.814   2.352
 1806SOL    HW2 6318   6.730   1.679   2.298
 1807SOL     OW 6319   0.113   2.933   2.393
 1807SOL    HW1 6320   0.049   2.994   2.346
 1807SOL    HW2 6321   0.125   2.962   2.487
 1808SOL     OW 6322   4.681   2.023   5.966
 1808SOL    HW1 6323   4.768   2.070   5.981
 1808SOL    HW2 6324   4.621   2.035   6.045
 1809SOL     OW 6325   4.004   0.866   5.828
 1809SOL    HW1 6326   3.935   0.844   5.759
 1809SOL    HW2 6327   4.090   0.820   5.806
 1810SOL     OW 6328   0.360   0.073   4.347
 1810SOL    HW1 6329   0.427   0.147   4.348
 1810SOL    HW2 6330   0.340   0.047   4.253
 1811SOL     OW 6331   4.239   5.615   1.947
 1811SOL    HW1 6332   4.199   5.524   1.943
 1811SOL    HW2 6333   4.168   5.684   1.933
 1812SOL     OW 6334   4.678   6.653   5.520
 1812SOL    HW1 6335   4.663   6.643   5.619
 1812SOL    HW2 6336   4.751   6.591   5.492
 1813SOL     OW 6337   4.273   4.676   2.654
 1813SOL    HW1 6338   4.270   4.598   2.591
 1813SOL    HW2 6339   4.211   4.747   2.622
 1814SOL     OW 6340   0.061   5.447   0.620
 1814SOL    HW1 6341   0.033   5.463   0.715
 1814SOL    HW2 6342   0.139   5.505   0.598
 1815SOL     OW 6343   5.772   6.484   1.438
 1815SOL    HW1 6344   5.749   6.581   1.437
 1815SOL    HW2 6345   5.727   6.438   1.362
 1816SOL     OW 6346   4.286   5.129   5.537
 1816SOL    HW1 6347   4.244   5.217   5.562
 1816SOL    HW2 6348   4.380   5.145   5.510
 1817SOL     OW 6349   0.729   1.606   3.573
 1817SOL    HW1 6350   0.730   1.511   3.605
 1817SOL    HW2 6351   0.691   1.665   3.644
 1818SOL     OW 6352   1.979   7.003   1.024
 1818SOL    HW1 6353   2.065   0.036   1.009
 1818SOL    HW2 6354   1.981   6.917   0.973
 1819SOL     OW 6355   2.151   4.751   3.617
 1819SOL    HW1 6356   2.095   4.753   3.534
 1819SOL    HW2 6357   2.215   4.675   3.611
 1820SOL     OW 6358   4.022   6.832   4.983
 1820SOL    HW1 6359   4.120   6.826   5.005
 1820SOL    HW2 6360   3.970   6.835   5.068
 1821SOL     OW 6361   3.334   2.108   2.886
 1821SOL    HW1 6362   3.290   2.147   2.805
 1821SOL    HW2 6363   3.263   2.075   2.949
 1822SOL     OW 6364   6.446   2.963   2.549
 1822SOL    HW1 6365   6.492   2.908   2.619
 1822SOL    HW2 6366   6.478   3.057   2.554
 1823SOL     OW 6367   3.758   6.220   2.554
 1823SOL    HW1 6368   3.833   6.179   2.501
 1823SOL    HW2 6369   3.739   6.312   2.520
 1824SOL     OW 6370   4.047   2.875   1.324
 1824SOL    HW1 6371   4.066   2.867   1.422
 1824SOL    HW2 6372   3.956   2.914   1.311
 1825SOL     OW 6373   2.192   1.360   5.280
 1825SOL    HW1 6374   2.237   1.276   5.250
 1825SOL    HW2 6375   2.094   1.355   5.261
 1826SOL     OW 6376   3.520   2.256   1.649
 1826SOL    HW1 6377   3.578   2.288   1.724
 1826SOL    HW2 6378   3.540   2.309   1.567
 1827SOL     OW 6379   5.890   4.107   1.113
 1827SOL    HW1 6380   5.989   4.094   1.112
 1827SOL    HW2 6381   5.850   4.052   1.186
 1828SOL     OW 6382   1.818   3.010   5.166
 1828SOL    HW1 6383   1.896   2.955   5.133
 1828SOL    HW2 6384   1.795   3.080   5.099
 1829SOL     OW 6385   3.564   0.621   3.345
 1829SOL    HW1 6386   3.533   0.579   3.260
 1829SOL    HW2 6387   3.596   0.549   3.407
 1830SOL     OW 6388   4.678   6.877   4.583
 1830SOL    HW1 6389   4.670   6.968   4.542
 1830SOL    HW2 6390   4.720   6.814   4.517
 1831SOL     OW 6391   4.098   5.334   1.148
 1831SOL    HW1 6392   4.145   5.253   1.183
 1831SOL    HW2 6393   4.117   5.346   1.051
 1832SOL     OW 6394   2.321   3.090   0.420
 1832SOL    HW1 6395   2.348   2.994   0.428
 1832SOL    HW2 6396   2.232   3.095   0.375
 1833SOL     OW 6397   5.188   0.590   0.268
 1833SOL    HW1 6398   5.090   0.601   0.251
 1833SOL    HW2 6399   5.210   0.620   0.360
 1834SOL     OW 6400   1.596   2.255   5.696
 1834SOL    HW1 6401   1.662   2.310   5.747
 1834SOL    HW2 6402   1.503   2.283   5.719
 1835SOL     OW 6403   6.596   6.212   1.036
 1835SOL    HW1 6404   6.610   6.276   0.960
 1835SOL    HW2 6405   6.505   6.227   1.075
 1836SOL     OW 6406   4.875   2.589   1.725
 1836SOL    HW1 6407   4.893   2.680   1.762
 1836SOL    HW2 6408   4.818   2.597   1.643
 1837SOL     OW 6409   3.420   2.953   6.199
 1837SOL    HW1 6410   3.473   2.889   6.254
 1837SOL    HW2 6411   3.461   2.960   6.108
 1838SOL     OW 6412   6.446   1.012   0.493
 1838SOL    HW1 6413   6.431   1.015   0.394
 1838SOL    HW2 6414   6.418   0.923   0.528
 1839SOL     OW 6415   0.157   1.079   6.785
 1839SOL    HW1 6416   0.241   1.118   6.749
 1839SOL    HW2 6417   0.101   1.151   6.826
 1840SOL     OW 6418   4.757   6.734   3.237
 1840SOL    HW1 6419   4.770   6.759   3.333
 1840SOL    HW2 6420   4.836   6.682   3.204
 1841SOL     OW 6421   2.310   0.889   2.444
 1841SOL    HW1 6422   2.270   0.840   2.366
 1841SOL    HW2 6423   2.378   0.955   2.411
 1842SOL     OW 6424   1.606   5.686   0.015
 1842SOL    HW1 6425   1.601   5.651   0.108
 1842SOL    HW2 6426   1.677   5.756   0.009
 1843SOL     OW 6427   2.938   1.358   4.925
 1843SOL    HW1 6428   2.848   1.317   4.939
 1843SOL    HW2 6429   2.931   1.428   4.853
 1844SOL     OW 6430   5.612   2.386   6.507
 1844SOL    HW1 6431   5.567   2.360   6.593
 1844SOL    HW2 6432   5.563   2.346   6.430
 1845SOL     OW 6433   1.512   1.549   3.104
 1845SOL    HW1 6434   1.552   1.568   3.014
 1845SOL    HW2 6435   1.496   1.635   3.152
 1846SOL     OW 6436   4.110   1.633   2.239
 1846SOL    HW1 6437   4.066   1.717   2.205
 1846SOL    HW2 6438   4.052   1.591   2.308
 1847SOL     OW 6439   2.102   6.220   5.245
 1847SOL    HW1 6440   2.114   6.211   5.344
 1847SOL    HW2 6441   2.185   6.189   5.198
 1848SOL     OW 6442   2.757   5.827   3.636
 1848SOL    HW1 6443   2.821   5.858   3.565
 1848SOL    HW2 6444   2.735   5.730   3.620
 1849SOL     OW 6445   4.629   2.717   2.037
 1849SOL    HW1 6446   4.621   2.654   1.960
 1849SOL    HW2 6447   4.602   2.809   2.008
 1850SOL     OW 6448   5.096   1.358   1.215
 1850SOL    HW1 6449   5.115   1.281   1.276
 1850SOL    HW2 6450   5.072   1.438   1.270
 1851SOL     OW 6451   0.186   3.900   5.168
 1851SOL    HW1 6452   0.090   3.883   5.189
 1851SOL    HW2 6453   0.244   3.855   5.236
 1852SOL     OW 6454   0.730   6.899   2.602
 1852SOL    HW1 6455   0.632   6.885   2.617
 1852SOL    HW2 6456   0.743   6.962   2.525
 1853SOL     OW 6457   0.023   2.736   4.685
 1853SOL    HW1 6458   0.011   2.644   4.648
 1853SOL    HW2 6459   6.957   2.791   4.666
 1854SOL     OW 6460   0.395   0.126   3.359
 1854SOL    HW1 6461   0.307   0.109   3.316
 1854SOL    HW2 6462   0.467   0.083   3.305
 1855SOL     OW 6463   4.684   2.417   4.499
 1855SOL    HW1 6464   4.716   2.333   4.455
 1855SOL    HW2 6465   4.718   2.496   4.448
 1856SOL     OW 6466   3.675   2.730   0.505
 1856SOL    HW1 6467   3.742   2.700   0.437
 1856SOL    HW2 6468   3.583   2.709   0.472
 1857SOL     OW 6469   4.173   1.778   1.152
 1857SOL    HW1 6470   4.241   1.739   1.213
 1857SOL    HW2 6471   4.081   1.752   1.182
 1858SOL     OW 6472   4.464   2.564   4.158
 1858SOL    HW1 6473   4.468   2.517   4.070
 1858SOL    HW2 6474   4.497   2.657   4.148
 1859SOL     OW 6475   6.196   2.048   4.188
 1859SOL    HW1 6476   6.102   2.082   4.191
 1859SOL    HW2 6477   6.259   2.126   4.181
 1860SOL     OW 6478   1.236   1.493   4.723
 1860SOL    HW1 6479   1.208   1.479   4.818
 1860SOL    HW2 6480   1.155   1.503   4.665
 1861SOL     OW 6481   6.686   6.950   3.765
 1861SOL    HW1 6482   6.654   7.001   3.845
 1861SOL    HW2 6483   6.760   7.000   3.721
 1862SOL     OW 6484   2.974   5.497   6.485
 1862SOL    HW1 6485   2.958   5.411   6.436
 1862SOL    HW2 6486   2.913   5.567   6.449
 1863SOL     OW 6487   0.269   2.973   0.517
 1863SOL    HW1 6488   0.241   2.976   0.613
 1863SOL    HW2 6489   0.307   2.882   0.497
 1864SOL     OW 6490   3.984   5.290   2.694
 1864SOL    HW1 6491   3.995   5.225   2.619
 1864SOL    HW2 6492   3.933   5.246   2.768
 1865SOL     OW 6493   5.637   1.630   5.728
 1865SOL    HW1 6494   5.676   1.574   5.801
 1865SOL    HW2 6495   5.542   1.604   5.713
 1866SOL     OW 6496   1.175   5.025   3.586
 1866SOL    HW1 6497   1.095   5.081   3.609
 1866SOL    HW2 6498   1.195   4.963   3.661
 1867SOL     OW 6499   1.598   2.503   1.550
 1867SOL    HW1 6500   1.664   2.450   1.604
 1867SOL    HW2 6501   1.513   2.513   1.601
 1868SOL     OW 6502   6.233   3.657   5.708
 1868SOL    HW1 6503   6.297   3.718   5.660
 1868SOL    HW2 6504   6.142   3.666   5.667
 1869SOL     OW 6505   4.350   1.224   3.996
 1869SOL    HW1 6506   4.297   1.183   4.070
 1869SOL    HW2 6507   4.444   1.237   4.025
 1870SOL     OW 6508   6.986   5.374   4.462
 1870SOL    HW1 6509   6.910   5.321   4.426
 1870SOL    HW2 6510   0.010   5.429   4.389
 1871SOL     OW 6511   0.327   6.341   0.330
 1871SOL    HW1 6512   0.367   6.431   0.343
 1871SOL    HW2 6513   0.293   6.306   0.418
 1872SOL     OW 6514   2.778   2.495   1.535
 1872SOL    HW1 6515   2.785   2.421   1.601
 1872SOL    HW2 6516   2.718   2.566   1.571
 1873SOL     OW 6517   0.163   1.419   0.723
 1873SOL    HW1 6518   0.190   1.398   0.629
 1873SOL    HW2 6519   0.085   1.482   0.722
 1874SOL     OW 6520   0.423   5.968   0.029
 1874SOL    HW1 6521   0.396   5.932   6.956
 1874SOL    HW2 6522   0.411   6.067   0.031
 1875SOL     OW 6523   6.510   5.184   6.945
 1875SOL    HW1 6524   6.561   5.124   6.884
 1875SOL    HW2 6525   6.520   5.152   0.024
 1876SOL     OW 6526   6.937   5.946   7.005
 1876SOL    HW1 6527   6.986   5.981   6.925
 1876SOL    HW2 6528   6.921   5.848   6.995
 1877SOL     OW 6529   0.830   1.385   2.527
 1877SOL    HW1 6530   0.800   1.301   2.570
 1877SOL    HW2 6531   0.927   1.379   2.505
 1878SOL     OW 6532   6.590   3.787   3.658
 1878SOL    HW1 6533   6.595   3.729   3.739
 1878SOL    HW2 6534   6.681   3.791   3.615
 1879SOL     OW 6535   4.657   5.944   4.891
 1879SOL    HW1 6536   4.584   6.009   4.912
 1879SOL    HW2 6537   4.714   5.930   4.971
 1880SOL     OW 6538   0.189   1.676   4.099
 1880SOL    HW1 6539   0.199   1.706   4.004
 1880SOL    HW2 6540   0.203   1.577   4.105
 1881SOL     OW 6541   1.305   1.730   4.394
 1881SOL    HW1 6542   1.348   1.703   4.481
 1881SOL    HW2 6543   1.373   1.775   4.336
 1882SOL     OW 6544   1.965   5.661   6.742
 1882SOL    HW1 6545   1.972   5.624   6.835
 1882SOL    HW2 6546   1.925   5.752   6.745
 1883SOL     OW 6547   1.665   2.896   2.220
 1883SOL    HW1 6548   1.710   2.947   2.293
 1883SOL    HW2 6549   1.567   2.918   2.220
 1884SOL     OW 6550   2.689   1.238   0.188
 1884SOL    HW1 6551   2.766   1.175   0.196
 1884SOL    HW2 6552   2.723   1.332   0.182
 1885SOL     OW 6553   0.442   2.327   1.117
 1885SOL    HW1 6554   0.485   2.335   1.207
 1885SOL    HW2 6555   0.485   2.391   1.053
 1886SOL     OW 6556   2.915   2.682   6.057
 1886SOL    HW1 6557   2.999   2.734   6.074
 1886SOL    HW2 6558   2.933   2.584   6.068
 1887SOL     OW 6559   0.209   0.050   5.311
 1887SOL    HW1 6560   0.252   0.141   5.313
 1887SOL    HW2 6561   0.279   6.997   5.292
 1888SOL     OW 6562   2.191   1.797   5.634
 1888SOL    HW1 6563   2.215   1.703   5.657
 1888SOL    HW2 6564   2.172   1.804   5.536
 1889SOL     OW 6565   3.478   2.988   0.233
 1889SOL    HW1 6566   3.520   2.905   0.197
 1889SOL    HW2 6567   3.428   2.967   0.317
 1890SOL     OW 6568   6.376   5.655   6.296
 1890SOL    HW1 6569   6.465   5.627   6.332
 1890SOL    HW2 6570   6.386   5.742   6.246
 1891SOL     OW 6571   5.907   4.115   5.169
 1891SOL    HW1 6572   5.889   4.115   5.070
 1891SOL    HW2 6573   5.823   4.139   5.218
 1892SOL     OW 6574   3.879   6.086   1.225
 1892SOL    HW1 6575   3.952   6.144   1.261
 1892SOL    HW2 6576   3.919   6.000   1.192
 1893SOL     OW 6577   3.991   1.902   4.356
 1893SOL    HW1 6578   3.893   1.885   4.365
 1893SOL    HW2 6579   4.006   1.983   4.300
 1894SOL     OW 6580   3.950   3.896   0.858
 1894SOL    HW1 6581   3.931   3.851   0.945
 1894SOL    HW2 6582   3.941   3.830   0.784
 1895SOL     OW 6583   5.276   0.528   2.954
 1895SOL    HW1 6584   5.345   0.599   2.939
 1895SOL    HW2 6585   5.309   0.464   3.023
 1896SOL     OW 6586   6.708   0.960   5.866
 1896SOL    HW1 6587   6.774   1.035   5.859
 1896SOL    HW2 6588   6.657   0.968   5.951
 1897SOL     OW 6589   5.765   5.211   3.438
 1897SOL    HW1 6590   5.801   5.218   3.531
 1897SOL    HW2 6591   5.807   5.281   3.381
 1898SOL     OW 6592   5.757   5.367   6.849
 1898SOL    HW1 6593   5.779   5.293   6.912
 1898SOL    HW2 6594   5.840   5.394   6.800
 1899SOL     OW 6595   0.993   3.105   3.426
 1899SOL    HW1 6596   0.990   3.201   3.454
 1899SOL    HW2 6597   0.995   3.100   3.326
 1900SOL     OW 6598   2.520   5.802   0.543
 1900SOL    HW1 6599   2.485   5.842   0.458
 1900SOL    HW2 6600   2.519   5.872   0.615
 1901SOL     OW 6601   1.318   1.527   6.927
 1901SOL    HW1 6602   1.269   1.500   6.844
 1901SOL    HW2 6603   1.416   1.530   6.907
 1902SOL     OW 6604   1.296   2.830   4.953
 1902SOL    HW1 6605   1.254   2.741   4.936
 1902SOL    HW2 6606   1.329   2.833   5.048
 1903SOL     OW 6607   6.121   3.387   4.091
 1903SOL    HW1 6608   6.064   3.307   4.073
 1903SOL    HW2 6609   6.091   3.432   4.175
 1904SOL     OW 6610   6.883   0.145   3.804
 1904SOL    HW1 6611   6.976   0.122   3.833
 1904SOL    HW2 6612   6.887   0.203   3.722
 1905SOL     OW 6613   6.566   2.853   3.892
 1905SOL    HW1 6614   6.471   2.855   3.923
 1905SOL    HW2 6615   6.581   2.925   3.824
 1906SOL     OW 6616   2.741   6.685   0.574
 1906SOL    HW1 6617   2.677   6.610   0.587
 1906SOL    HW2 6618   2.704   6.768   0.614
 1907SOL     OW 6619   3.361   6.326   3.371
 1907SOL    HW1 6620   3.391   6.388   3.444
 1907SOL    HW2 6621   3.374   6.232   3.401
 1908SOL     OW 6622   5.079   1.279   6.736
 1908SOL    HW1 6623   5.079   1.209   6.664
 1908SOL    HW2 6624   4.991   1.279   6.783
 1909SOL     OW 6625   3.145   4.905   4.604
 1909SOL    HW1 6626   3.187   4.873   4.689
 1909SOL    HW2 6627   3.059   4.857   4.589
 1910SOL     OW 6628   4.684   1.721   5.602
 1910SOL    HW1 6629   4.780   1.740   5.582
 1910SOL    HW2 6630   4.645   1.797   5.654
 1911SOL     OW 6631   6.353   3.765   6.101
 1911SOL    HW1 6632   6.323   3.835   6.036
 1911SOL    HW2 6633   6.388   3.686   6.052
 1912SOL     OW 6634   3.687   6.862   3.555
 1912SOL    HW1 6635   3.755   6.789   3.562
 1912SOL    HW2 6636   3.670   6.883   3.458
 1913SOL     OW 6637   1.181   4.216   5.443
 1913SOL    HW1 6638   1.274   4.203   5.477
 1913SOL    HW2 6639   1.160   4.314   5.438
 1914SOL     OW 6640   3.880   1.767   5.665
 1914SOL    HW1 6641   3.972   1.773   5.703
 1914SOL    HW2 6642   3.870   1.834   5.592
 1915SOL     OW 6643   3.042   0.043   5.301
 1915SOL    HW1 6644   3.058   6.960   5.309
 1915SOL    HW2 6645   3.010   0.079   5.389
 1916SOL     OW 6646   3.685   6.495   1.151
 1916SOL    HW1 6647   3.755   6.559   1.184
 1916SOL    HW2 6648   3.730   6.423   1.098
 1917SOL     OW 6649   3.164   2.993   4.024
 1917SOL    HW1 6650   3.143   2.990   4.122
 1917SOL    HW2 6651   3.144   3.084   3.988
 1918SOL     OW 6652   5.715   7.012   4.078
 1918SOL    HW1 6653   5.767   6.955   4.015
 1918SOL    HW2 6654   5.691   6.959   4.159
 1919SOL     OW 6655   6.604   6.860   1.275
 1919SOL    HW1 6656   6.684   6.863   1.215
 1919SOL    HW2 6657   6.585   6.766   1.301
 1920SOL     OW 6658   6.749   5.833   4.214
 1920SOL    HW1 6659   6.748   5.741   4.176
 1920SOL    HW2 6660   6.770   5.829   4.311
 1921SOL     OW 6661   1.146   6.944   6.794
 1921SOL    HW1 6662   1.051   6.946   6.825
 1921SOL    HW2 6663   1.193   6.866   6.835
 1922SOL     OW 6664   3.250   4.308   0.251
 1922SOL    HW1 6665   3.292   4.388   0.206
 1922SOL    HW2 6666   3.192   4.339   0.326
 1923SOL     OW 6667   1.732   1.666   0.784
 1923SOL    HW1 6668   1.785   1.586   0.812
 1923SOL    HW2 6669   1.794   1.737   0.749
 1924SOL     OW 6670   0.414   4.692   1.425
 1924SOL    HW1 6671   0.451   4.685   1.332
 1924SOL    HW2 6672   0.489   4.708   1.489
 1925SOL     OW 6673   2.949   4.209   0.858
 1925SOL    HW1 6674   2.963   4.137   0.926
 1925SOL    HW2 6675   2.852   4.230   0.850
 1926SOL     OW 6676   1.120   0.247   3.688
 1926SOL    HW1 6677   1.025   0.251   3.658
 1926SOL    HW2 6678   1.136   0.320   3.755
 1927SOL     OW 6679   3.990   3.096   6.805
 1927SOL    HW1 6680   3.983   3.003   6.767
 1927SOL    HW2 6681   4.021   3.159   6.734
 1928SOL     OW 6682   5.881   4.741   5.930
 1928SOL    HW1 6683   5.967   4.700   5.961
 1928SOL    HW2 6684   5.808   4.673   5.936
 1929SOL     OW 6685   1.415   6.698   2.061
 1929SOL    HW1 6686   1.341   6.720   2.124
 1929SOL    HW2 6687   1.422   6.598   2.052
 1930SOL     OW 6688   5.573   3.878   6.285
 1930SOL    HW1 6689   5.643   3.899   6.216
 1930SOL    HW2 6690   5.540   3.784   6.272
 1931SOL     OW 6691   0.365   2.363   4.967
 1931SOL    HW1 6692   0.405   2.274   4.990
 1931SOL    HW2 6693   0.304   2.391   5.041
 1932SOL     OW 6694   6.018   3.573   1.484
 1932SOL    HW1 6695   6.065   3.488   1.460
 1932SOL    HW2 6696   6.080   3.633   1.535
 1933SOL     OW 6697   3.118   4.105   1.428
 1933SOL    HW1 6698   3.039   4.160   1.401
 1933SOL    HW2 6699   3.186   4.164   1.472
 1934SOL     OW 6700   1.132   5.906   5.194
 1934SOL    HW1 6701   1.178   5.876   5.277
 1934SOL    HW2 6702   1.164   5.997   5.168
 1935SOL     OW 6703   2.047   1.089   3.611
 1935SOL    HW1 6704   2.069   1.182   3.639
 1935SOL    HW2 6705   1.966   1.091   3.551
 1936SOL     OW 6706   6.265   5.252   5.218
 1936SOL    HW1 6707   6.355   5.218   5.244
 1936SOL    HW2 6708   6.247   5.339   5.265
 1937SOL     OW 6709   3.839   6.429   1.773
 1937SOL    HW1 6710   3.829   6.480   1.859
 1937SOL    HW2 6711   3.880   6.339   1.793
 1938SOL     OW 6712   4.557   0.762   3.360
 1938SOL    HW1 6713   4.581   0.855   3.388
 1938SOL    HW2 6714   4.519   0.712   3.438
 1939SOL     OW 6715   1.927   0.743   3.618
 1939SOL    HW1 6716   1.875   0.820   3.654
 1939SOL    HW2 6717   2.003   0.777   3.562
 1940SOL     OW 6718   0.067   5.495   6.840
 1940SOL    HW1 6719   7.000   5.439   6.849
 1940SOL    HW2 6720   0.148   5.436   6.847
 1941SOL     OW 6721   4.707   4.207   2.983
 1941SOL    HW1 6722   4.759   4.181   3.064
 1941SOL    HW2 6723   4.685   4.125   2.929
 1942SOL     OW 6724   6.133   4.955   2.725
 1942SOL    HW1 6725   6.096   5.048   2.718
 1942SOL    HW2 6726   6.073   4.899   2.781
 1943SOL     OW 6727   2.599   5.088   2.578
 1943SOL    HW1 6728   2.509   5.133   2.575
 1943SOL    HW2 6729   2.631   5.085   2.673
 1944SOL     OW 6730   6.719   1.189   1.097
 1944SOL    HW1 6731   6.626   1.153   1.102
 1944SOL    HW2 6732   6.757   1.198   1.189
 1945SOL     OW 6733   3.170   4.900   4.147
 1945SOL    HW1 6734   3.130   4.990   4.162
 1945SOL    HW2 6735   3.103   4.830   4.170
 1946SOL     OW 6736   1.323   0.545   0.048
 1946SOL    HW1 6737   1.311   0.546   6.965
 1946SOL    HW2 6738   1.420   0.556   0.070
 1947SOL     OW 6739   5.816   5.568   3.780
 1947SOL    HW1 6740   5.902   5.555   3.829
 1947SOL    HW2 6741   5.751   5.497   3.807
 1948SOL     OW 6742   6.176   5.061   4.556
 1948SOL    HW1 6743   6.250   5.127   4.548
 1948SOL    HW2 6744   6.215   4.970   4.575
 1949SOL     OW 6745   4.510   4.017   6.379
 1949SOL    HW1 6746   4.545   4.109   6.396
 1949SOL    HW2 6747   4.509   3.999   6.280
 1950SOL     OW 6748   3.045   3.462   6.839
 1950SOL    HW1 6749   2.957   3.492   6.804
 1950SOL    HW2 6750   3.079   3.529   6.906
 1951SOL     OW 6751   6.093   1.729   6.803
 1951SOL    HW1 6752   6.136   1.727   6.893
 1951SOL    HW2 6753   5.993   1.730   6.814
 1952SOL     OW 6754   3.606   1.988   6.881
 1952SOL    HW1 6755   3.524   1.934   6.864
 1952SOL    HW2 6756   3.676   1.965   6.813
 1953SOL     OW 6757   6.920   2.892   6.178
 1953SOL    HW1 6758   7.014   2.896   6.210
 1953SOL    HW2 6759   6.860   2.933   6.246
 1954SOL     OW 6760   3.280   2.125   4.067
 1954SOL    HW1 6761   3.280   2.070   4.150
 1954SOL    HW2 6762   3.197   2.181   4.064
 1955SOL     OW 6763   0.232   6.612   3.068
 1955SOL    HW1 6764   0.283   6.698   3.060
 1955SOL    HW2 6765   0.296   6.536   3.070
 1956SOL     OW 6766   5.835   5.510   2.556
 1956SOL    HW1 6767   5.923   5.520   2.511
 1956SOL    HW2 6768   5.805   5.415   2.550
 1957SOL     OW 6769   0.236   6.506   5.565
 1957SOL    HW1 6770   0.146   6.472   5.592
 1957SOL    HW2 6771   0.291   6.431   5.528
 1958SOL     OW 6772   5.560   3.210   5.938
 1958SOL    HW1 6773   5.550   3.233   5.842
 1958SOL    HW2 6774   5.493   3.140   5.963
 1959SOL     OW 6775   1.514   1.948   6.399
 1959SOL    HW1 6776   1.545   1.862   6.441
 1959SOL    HW2 6777   1.549   1.955   6.306
 1960SOL     OW 6778   5.573   5.608   0.781
 1960SOL    HW1 6779   5.552   5.688   0.837
 1960SOL    HW2 6780   5.609   5.535   0.840
 1961SOL     OW 6781   5.556   4.345   3.729
 1961SOL    HW1 6782   5.527   4.438   3.749
 1961SOL    HW2 6783   5.477   4.284   3.734
 1962SOL     OW 6784   1.218   6.506   3.668
 1962SOL    HW1 6785   1.156   6.428   3.681
 1962SOL    HW2 6786   1.313   6.476   3.679
 1963SOL     OW 6787   0.987   0.426   3.224
 1963SOL    HW1 6788   0.901   0.464   3.192
 1963SOL    HW2 6789   1.062   0.456   3.164
 1964SOL     OW 6790   5.095   3.629   3.081
 1964SOL    HW1 6791   5.174   3.688   3.094
 1964SOL    HW2 6792   5.032   3.671   3.016
 1965SOL     OW 6793   1.261   3.923   3.361
 1965SOL    HW1 6794   1.308   3.895   3.445
 1965SOL    HW2 6795   1.311   4.001   3.321
 1966SOL     OW 6796   6.478   5.141   5.388
 1966SOL    HW1 6797   6.493   5.125   5.485
 1966SOL    HW2 6798   6.559   5.186   5.349
 1967SOL     OW 6799   4.797   2.883   5.262
 1967SOL    HW1 6800   4.798   2.800   5.207
 1967SOL    HW2 6801   4.750   2.866   5.348
 1968SOL     OW 6802   3.435   5.885   6.247
 1968SOL    HW1 6803   3.352   5.849   6.203
 1968SOL    HW2 6804   3.499   5.810   6.263
 1969SOL     OW 6805   0.125   2.450   1.146
 1969SOL    HW1 6806   0.054   2.463   1.077
 1969SOL    HW2 6807   0.087   2.404   1.226
 1970SOL     OW 6808   1.609   0.930   4.307
 1970SOL    HW1 6809   1.627   1.010   4.365
 1970SOL    HW2 6810   1.513   0.930   4.280
 1971SOL     OW 6811   0.436   6.644   6.875
 1971SOL    HW1 6812   0.525   6.614   6.911
 1971SOL    HW2 6813   0.447   6.674   6.781
 1972SOL     OW 6814   0.668   4.749   3.877
 1972SOL    HW1 6815   0.672   4.839   3.921
 1972SOL    HW2 6816   0.743   4.739   3.813
 1973SOL     OW 6817   3.320   3.286   1.592
 1973SOL    HW1 6818   3.260   3.209   1.614
 1973SOL    HW2 6819   3.309   3.310   1.495
 1974SOL     OW 6820   4.958   0.745   3.994
 1974SOL    HW1 6821   5.001   0.825   4.035
 1974SOL    HW2 6822   5.022   0.701   3.932
 1975SOL     OW 6823   3.365   0.332   4.146
 1975SOL    HW1 6824   3.267   0.339   4.127
 1975SOL    HW2 6825   3.413   0.309   4.062
 1976SOL     OW 6826   0.284   5.619   0.595
 1976SOL    HW1 6827   0.265   5.712   0.628
 1976SOL    HW2 6828   0.306   5.622   0.498
 1977SOL     OW 6829   0.999   2.384   4.829
 1977SOL    HW1 6830   0.935   2.392   4.905
 1977SOL    HW2 6831   0.949   2.362   4.745
 1978SOL     OW 6832   6.393   1.828   4.098
 1978SOL    HW1 6833   6.329   1.894   4.138
 1978SOL    HW2 6834   6.468   1.811   4.162
 1979SOL     OW 6835   6.020   4.587   3.967
 1979SOL    HW1 6836   6.014   4.489   3.983
 1979SOL    HW2 6837   5.942   4.633   4.009
 1980SOL     OW 6838   4.244   0.425   1.464
 1980SOL    HW1 6839   4.221   0.369   1.384
 1980SOL    HW2 6840   4.247   0.521   1.438
 1981SOL     OW 6841   4.985   2.920   2.082
 1981SOL    HW1 6842   4.941   2.834   2.109
 1981SOL    HW2 6843   4.917   2.993   2.083
 1982SOL     OW 6844   5.505   6.098   4.562
 1982SOL    HW1 6845   5.421   6.151   4.551
 1982SOL    HW2 6846   5.521   6.080   4.659
 1983SOL     OW 6847   0.995   3.370   3.492
 1983SOL    HW1 6848   0.914   3.416   3.457
 1983SOL    HW2 6849   1.076   3.427   3.478
 1984SOL     OW 6850   4.110   1.594   6.629
 1984SOL    HW1 6851   4.026   1.583   6.682
 1984SOL    HW2 6852   4.107   1.536   6.548
 1985SOL     OW 6853   1.424   0.572   1.667
 1985SOL    HW1 6854   1.425   0.501   1.736
 1985SOL    HW2 6855   1.468   0.654   1.702
 1986SOL     OW 6856   1.772   1.557   6.590
 1986SOL    HW1 6857   1.778   1.459   6.571
 1986SOL    HW2 6858   1.845   1.604   6.540
 1987SOL     OW 6859   2.507   3.411   0.748
 1987SOL    HW1 6860   2.408   3.404   0.736
 1987SOL    HW2 6861   2.553   3.371   0.669
 1988SOL     OW 6862   4.493   3.751   0.557
 1988SOL    HW1 6863   4.480   3.708   0.647
 1988SOL    HW2 6864   4.577   3.718   0.515
 1989SOL     OW 6865   2.217   0.176   4.133
 1989SOL    HW1 6866   2.133   0.222   4.162
 1989SOL    HW2 6867   2.200   0.125   4.048
 1990SOL     OW 6868   3.234   0.665   1.624
 1990SOL    HW1 6869   3.317   0.710   1.592
 1990SOL    HW2 6870   3.257   0.600   1.697
 1991SOL     OW 6871   2.920   5.600   4.132
 1991SOL    HW1 6872   2.870   5.595   4.046
 1991SOL    HW2 6873   2.864   5.563   4.206
 1992SOL     OW 6874   2.282   6.403   5.571
 1992SOL    HW1 6875   2.228   6.344   5.632
 1992SOL    HW2 6876   2.296   6.492   5.615
 1993SOL     OW 6877   3.885   3.486   5.712
 1993SOL    HW1 6878   3.858   3.429   5.789
 1993SOL    HW2 6879   3.873   3.435   5.626
 1994SOL     OW 6880   6.445   2.303   2.104
 1994SOL    HW1 6881   6.415   2.227   2.047
 1994SOL    HW2 6882   6.365   2.350   2.141
 1995SOL     OW 6883   5.892   1.930   1.779
 1995SOL    HW1 6884   5.820   1.997   1.759
 1995SOL    HW2 6885   5.880   1.895   1.872
 1996SOL     OW 6886   3.525   4.173   0.066
 1996SOL    HW1 6887   3.619   4.202   0.085
 1996SOL    HW2 6888   3.500   4.200   6.989
 1997SOL     OW 6889   4.761   0.721   3.787
 1997SOL    HW1 6890   4.800   0.693   3.699
 1997SOL    HW2 6891   4.834   0.749   3.849
 1998SOL     OW 6892   3.081   4.635   5.584
 1998SOL    HW1 6893   3.147   4.607   5.654
 1998SOL    HW2 6894   2.998   4.580   5.593
 1999SOL     OW 6895   2.255   0.171   2.426
 1999SOL    HW1 6896   2.234   0.257   2.379
 1999SOL    HW2 6897   2.321   0.119   2.372
 2000SOL     OW 6898   4.116   1.347   4.825
 2000SOL    HW1 6899   4.055   1.316   4.752
 2000SOL    HW2 6900   4.062   1.387   4.899
 2001SOL     OW 6901   2.923   1.367   1.101
 2001SOL    HW1 6902   2.886   1.361   1.194
 2001SOL    HW2 6903   2.889   1.292   1.046
 2002SOL     OW 6904   1.542   5.334   5.486
 2002SOL    HW1 6905   1.606   5.377   5.551
 2002SOL    HW2 6906   1.510   5.247   5.525
 2003SOL     OW 6907   5.986   5.896   3.351
 2003SOL    HW1 6908   6.073   5.925   3.391
 2003SOL    HW2 6909   5.983   5.921   3.254
 2004SOL     OW 6910   2.934   0.933   5.723
 2004SOL    HW1 6911   2.929   1.031   5.744
 2004SOL    HW2 6912   2.996   0.889   5.788
 2005SOL     OW 6913   2.043   5.711   5.615
 2005SOL    HW1 6914   1.996   5.683   5.699
 2005SOL    HW2 6915   1.990   5.783   5.570
 2006SOL     OW 6916   4.528   5.062   4.358
 2006SOL    HW1 6917   4.490   5.125   4.290
 2006SOL    HW2 6918   4.524   5.105   4.448
 2007SOL     OW 6919   5.206   5.463   0.980
 2007SOL    HW1 6920   5.290   5.420   1.012
 2007SOL    HW2 6921   5.157   5.400   0.920
 2008SOL     OW 6922   0.077   6.214   3.834
 2008SOL    HW1 6923   6.994   6.231   3.835
 2008SOL    HW2 6924   0.108   6.198   3.741
 2009SOL     OW 6925   6.865   0.151   1.794
 2009SOL    HW1 6926   6.806   0.120   1.720
 2009SOL    HW2 6927   6.833   0.113   1.880
 2010SOL     OW 6928   0.810   0.389   0.562
 2010SOL    HW1 6929   0.742   0.317   0.575
 2010SOL    HW2 6930   0.775   0.475   0.599
 2011SOL     OW 6931   6.855   1.541   4.587
 2011SOL    HW1 6932   6.898   1.600   4.655
 2011SOL    HW2 6933   6.758   1.531   4.609
 2012SOL     OW 6934   1.633   3.970   0.662
 2012SOL    HW1 6935   1.638   3.912   0.744
 2012SOL    HW2 6936   1.720   3.968   0.614
 2013SOL     OW 6937   5.670   1.715   2.306
 2013SOL    HW1 6938   5.750   1.655   2.308
 2013SOL    HW2 6939   5.621   1.707   2.392
 2014SOL     OW 6940   1.979   5.438   3.577
 2014SOL    HW1 6941   1.999   5.518   3.520
 2014SOL    HW2 6942   1.972   5.467   3.673
 2015SOL     OW 6943   3.107   0.262   0.236
 2015SOL    HW1 6944   3.088   0.331   0.166
 2015SOL    HW2 6945   3.093   0.302   0.327
 2016SOL     OW 6946   0.601   5.568   4.396
 2016SOL    HW1 6947   0.623   5.526   4.308
 2016SOL    HW2 6948   0.686   5.591   4.444
 2017SOL     OW 6949   2.810   5.800   3.043
 2017SOL    HW1 6950   2.857   5.882   3.009
 2017SOL    HW2 6951   2.760   5.822   3.127
 2018SOL     OW 6952   0.261   5.211   6.125
 2018SOL    HW1 6953   0.296   5.302   6.146
 2018SOL    HW2 6954   0.324   5.142   6.163
 2019SOL     OW 6955   5.881   2.287   2.107
 2019SOL    HW1 6956   5.868   2.208   2.167
 2019SOL    HW2 6957   5.792   2.321   2.076
 2020SOL     OW 6958   2.335   5.223   3.008
 2020SOL    HW1 6959   2.260   5.163   2.981
 2020SOL    HW2 6960   2.325   5.311   2.962
 2021SOL     OW 6961   1.578   0.782   2.239
 2021SOL    HW1 6962   1.575   0.718   2.316
 2021SOL    HW2 6963   1.663   0.835   2.243
 2022SOL     OW 6964   2.430   3.697   1.671
 2022SOL    HW1 6965   2.383   3.770   1.721
 2022SOL    HW2 6966   2.429   3.613   1.725
 2023SOL     OW 6967   6.549   0.921   6.063
 2023SOL    HW1 6968   6.610   0.849   6.095
 2023SOL    HW2 6969   6.459   0.882   6.042
 2024SOL     OW 6970   5.740   1.049   3.410
 2024SOL    HW1 6971   5.740   1.008   3.501
 2024SOL    HW2 6972   5.806   1.124   3.407
 2025SOL     OW 6973   0.095   1.603   1.987
 2025SOL    HW1 6974   0.122   1.553   1.905
 2025SOL    HW2 6975   0.163   1.674   2.007
 2026SOL     OW 6976   2.377   1.536   5.338
 2026SOL    HW1 6977   2.406   1.567   5.247
 2026SOL    HW2 6978   2.295   1.480   5.330
 2027SOL     OW 6979   1.275   1.520   2.453
 2027SOL    HW1 6980   1.341   1.593   2.433
 2027SOL    HW2 6981   1.323   1.432   2.453
 2028SOL     OW 6982   3.773   2.574   0.305
 2028SOL    HW1 6983   3.690   2.526   0.334
 2028SOL    HW2 6984   3.829   2.512   0.250
 2029SOL     OW 6985   0.992   1.476   6.848
 2029SOL    HW1 6986   0.943   1.397   6.812
 2029SOL    HW2 6987   1.004   1.465   6.947
 2030SOL     OW 6988   1.936   2.010   3.460
 2030SOL    HW1 6989   1.993   1.935   3.495
 2030SOL    HW2 6990   1.987   2.062   3.392
 2031SOL     OW 6991   5.628   6.765   1.763
 2031SOL    HW1 6992   5.636   6.756   1.663
 2031SOL    HW2 6993   5.702   6.823   1.798
 2032SOL     OW 6994   4.552   6.203   1.117
 2032SOL    HW1 6995   4.512   6.137   1.053
 2032SOL    HW2 6996   4.481   6.238   1.178
 2033SOL     OW 6997   5.364   4.600   6.478
 2033SOL    HW1 6998   5.307   4.656   6.538
 2033SOL    HW2 6999   5.313   4.518   6.451
 2034SOL     OW 7000   2.145   6.960   3.221
 2034SOL    HW1 7001   2.228   7.016   3.223
 2034SOL    HW2 7002   2.139   6.906   3.305
 2035SOL     OW 7003   0.484   1.931   2.381
 2035SOL    HW1 7004   0.525   2.019   2.406
 2035SOL    HW2 7005   0.479   1.872   2.461
 2036SOL     OW 7006   0.740   5.234   0.492
 2036SOL    HW1 7007   0.735   5.159   0.558
 2036SOL    HW2 7008   0.705   5.318   0.534
 2037SOL     OW 7009   6.915   1.985   5.876
 2037SOL    HW1 7010   6.930   1.984   5.975
 2037SOL    HW2 7011   6.918   1.891   5.841
 2038SOL     OW 7012   0.242   1.066   4.462
 2038SOL    HW1 7013   0.308   1.140   4.457
 2038SOL    HW2 7014   0.242   1.025   4.553
 2039SOL     OW 7015   6.792   5.873   3.226
 2039SOL    HW1 7016   6.702   5.915   3.225
 2039SOL    HW2 7017   6.833   5.877   3.135
 2040SOL     OW 7018   4.062   3.281   4.769
 2040SOL    HW1 7019   4.064   3.278   4.669
 2040SOL    HW2 7020   4.155   3.298   4.803
 2041SOL     OW 7021   5.860   4.690   5.374
 2041SOL    HW1 7022   5.900   4.729   5.457
 2041SOL    HW2 7023   5.853   4.760   5.303
 2042SOL     OW 7024   4.723   5.494   0.085
 2042SOL    HW1 7025   4.747   5.584   0.122
 2042SOL    HW2 7026   4.638   5.463   0.127
 2043SOL     OW 7027   5.633   4.459   2.139
 2043SOL    HW1 7028   5.702   4.390   2.163
 2043SOL    HW2 7029   5.659   4.547   2.179
 2044SOL     OW 7030   6.061   6.982   1.699
 2044SOL    HW1 7031   6.060   0.064   1.721
 2044SOL    HW2 7032   5.968   6.945   1.709
 2045SOL     OW 7033   2.390   4.726   5.698
 2045SOL    HW1 7034   2.299   4.699   5.667
 2045SOL    HW2 7035   2.454   4.650   5.685
 2046SOL     OW 7036   6.205   0.057   4.128
 2046SOL    HW1 7037   6.113   0.089   4.151
 2046SOL    HW2 7038   6.216   6.979   4.161
 2047SOL     OW 7039   5.106   2.417   0.646
 2047SOL    HW1 7040   5.071   2.352   0.578
 2047SOL    HW2 7041   5.050   2.499   0.646
 2048SOL     OW 7042   4.897   0.712   6.423
 2048SOL    HW1 7043   4.851   0.634   6.381
 2048SOL    HW2 7044   4.903   0.698   6.522
 2049SOL     OW 7045   4.097   1.067   0.173
 2049SOL    HW1 7046   4.012   1.038   0.130
 2049SOL    HW2 7047   4.147   1.127   0.111
 2050SOL     OW 7048   6.219   2.838   4.322
 2050SOL    HW1 7049   6.156   2.914   4.306
 2050SOL    HW2 7050   6.241   2.833   4.419
 2051SOL     OW 7051   1.367   6.187   0.377
 2051SOL    HW1 7052   1.403   6.230   0.295
 2051SOL    HW2 7053   1.268   6.196   0.380
 2052SOL     OW 7054   1.069   2.816   6.627
 2052SOL    HW1 7055   1.003   2.755   6.584
 2052SOL    HW2 7056   1.076   2.793   6.724
 2053SOL     OW 7057   6.284   0.784   6.719
 2053SOL    HW1 7058   6.184   0.795   6.717
 2053SOL    HW2 7059   6.311   0.737   6.803
 2054SOL     OW 7060   5.662   2.619   0.338
 2054SOL    HW1 7061   5.732   2.575   0.395
 2054SOL    HW2 7062   5.699   2.633   0.246
 2055SOL     OW 7063   5.015   2.560   3.697
 2055SOL    HW1 7064   5.050   2.479   3.744
 2055SOL    HW2 7065   5.053   2.642   3.740
 2056SOL     OW 7066   2.142   1.021   2.901
 2056SOL    HW1 7067   2.191   0.963   2.966
 2056SOL    HW2 7068   2.072   1.074   2.950
 2057SOL     OW 7069   6.602   2.897   4.212
 2057SOL    HW1 7070   6.618   2.823   4.147
 2057SOL    HW2 7071   6.527   2.954   4.181
 2058SOL     OW 7072   6.825   2.016   2.707
 2058SOL    HW1 7073   6.884   1.972   2.639
 2058SOL    HW2 7074   6.821   1.959   2.789
 2059SOL     OW 7075   2.156   1.249   7.015
 2059SOL    HW1 7076   2.198   1.326   6.968
 2059SOL    HW2 7077   2.228   1.190   0.038
 2060SOL     OW 7078   0.108   4.568   1.827
 2060SOL    HW1 7079   0.103   4.497   1.757
 2060SOL    HW2 7080   0.190   4.556   1.882
 2061SOL     OW 7081   6.742   1.405   2.369
 2061SOL    HW1 7082   6.742   1.314   2.328
 2061SOL    HW2 7083   6.828   1.451   2.349
 2062SOL     OW 7084   4.744   0.290   2.431
 2062SOL    HW1 7085   4.778   0.330   2.346
 2062SOL    HW2 7086   4.778   0.343   2.509
 2063SOL     OW 7087   1.537   3.045   6.543
 2063SOL    HW1 7088   1.608   3.098   6.497
 2063SOL    HW2 7089   1.457   3.037   6.483
 2064SOL     OW 7090   0.890   2.329   6.203
 2064SOL    HW1 7091   0.819   2.303   6.269
 2064SOL    HW2 7092   0.971   2.360   6.253
 2065SOL     OW 7093   6.138   3.764   2.381
 2065SOL    HW1 7094   6.191   3.825   2.440
 2065SOL    HW2 7095   6.175   3.767   2.288
 2066SOL     OW 7096   6.912   6.817   4.980
 2066SOL    HW1 7097   6.993   6.853   5.027
 2066SOL    HW2 7098   6.866   6.891   4.931
 2067SOL     OW 7099   6.192   6.610   0.861
 2067SOL    HW1 7100   6.111   6.628   0.805
 2067SOL    HW2 7101   6.273   6.647   0.816
 2068SOL     OW 7102   2.102   1.467   5.672
 2068SOL    HW1 7103   2.125   1.378   5.633
 2068SOL    HW2 7104   2.179   1.501   5.725
 2069SOL     OW 7105   1.081   2.522   2.215
 2069SOL    HW1 7106   1.085   2.519   2.315
 2069SOL    HW2 7107   1.161   2.570   2.180
 2070SOL     OW 7108   1.371   1.503   2.830
 2070SOL    HW1 7109   1.321   1.426   2.870
 2070SOL    HW2 7110   1.455   1.469   2.787
 2071SOL     OW 7111   0.624   0.090   4.082
 2071SOL    HW1 7112   0.588   0.040   4.003
 2071SOL    HW2 7113   0.724   0.095   4.075
 2072SOL     OW 7114   4.723   6.168   1.586
 2072SOL    HW1 7115   4.722   6.091   1.650
 2072SOL    HW2 7116   4.636   6.216   1.592
 2073SOL     OW 7117   3.177   6.632   5.734
 2073SOL    HW1 7118   3.241   6.614   5.809
 2073SOL    HW2 7119   3.227   6.630   5.647
 2074SOL     OW 7120   6.834   1.458   1.042
 2074SOL    HW1 7121   6.930   1.436   1.060
 2074SOL    HW2 7122   6.786   1.374   1.014
 2075SOL     OW 7123   4.201   2.986   0.456
 2075SOL    HW1 7124   4.281   3.044   0.470
 2075SOL    HW2 7125   4.156   2.969   0.544
 2076SOL     OW 7126   5.130   5.862   0.718
 2076SOL    HW1 7127   5.135   5.952   0.676
 2076SOL    HW2 7128   5.035   5.834   0.727
 2077SOL     OW 7129   5.808   1.655   2.662
 2077SOL    HW1 7130   5.781   1.656   2.758
 2077SOL    HW2 7131   5.732   1.623   2.606
 2078SOL     OW 7132   3.258   4.978   6.713
 2078SOL    HW1 7133   3.308   4.919   6.649
 2078SOL    HW2 7134   3.306   5.064   6.724
 2079SOL     OW 7135   5.874   1.280   3.430
 2079SOL    HW1 7136   5.903   1.356   3.373
 2079SOL    HW2 7137   5.935   1.271   3.509
 2080SOL     OW 7138   2.635   2.235   4.962
 2080SOL    HW1 7139   2.606   2.329   4.974
 2080SOL    HW2 7140   2.706   2.230   4.892
 2081SOL     OW 7141   1.497   6.309   4.865
 2081SOL    HW1 7142   1.487   6.357   4.952
 2081SOL    HW2 7143   1.450   6.221   4.871
 2082SOL     OW 7144   5.640   1.153   0.775
 2082SOL    HW1 7145   5.646   1.237   0.830
 2082SOL    HW2 7146   5.712   1.090   0.804
 2083SOL     OW 7147   3.698   4.840   6.500
 2083SOL    HW1 7148   3.690   4.939   6.487
 2083SOL    HW2 7149   3.769   4.804   6.439
 2084SOL     OW 7150   6.969   2.232   3.179
 2084SOL    HW1 7151   6.975   2.213   3.081
 2084SOL    HW2 7152   0.006   2.164   3.229
 2085SOL     OW 7153   4.749   0.622   5.723
 2085SOL    HW1 7154   4.667   0.601   5.671
 2085SOL    HW2 7155   4.732   0.703   5.780
 2086SOL     OW 7156   3.064   4.937   0.392
 2086SOL    HW1 7157   3.152   4.892   0.399
 2086SOL    HW2 7158   3.077   5.034   0.368
 2087SOL     OW 7159   5.866   0.003   2.526
 2087SOL    HW1 7160   5.954   0.046   2.506
 2087SOL    HW2 7161   5.798   0.074   2.547
 2088SOL     OW 7162   3.410   6.551   0.784
 2088SOL    HW1 7163   3.349   6.503   0.847
 2088SOL    HW2 7164   3.356   6.610   0.724
 2089SOL     OW 7165   5.336   1.597   6.910
 2089SOL    HW1 7166   5.396   1.541   6.967
 2089SOL    HW2 7167   5.291   1.666   6.967
 2090SOL     OW 7168   3.925   3.606   4.856
 2090SOL    HW1 7169   4.014   3.606   4.810
 2090SOL    HW2 7170   3.916   3.523   4.910
 2091SOL     OW 7171   0.544   5.765   0.839
 2091SOL    HW1 7172   0.510   5.693   0.779
 2091SOL    HW2 7173   0.488   5.769   0.921
 2092SOL     OW 7174   6.335   6.285   1.144
 2092SOL    HW1 7175   6.332   6.256   1.239
 2092SOL    HW2 7176   6.355   6.383   1.139
 2093SOL     OW 7177   1.077   3.034   1.715
 2093SOL    HW1 7178   1.095   3.051   1.811
 2093SOL    HW2 7179   1.146   3.081   1.659
 2094SOL     OW 7180   5.915   6.814   2.136
 2094SOL    HW1 7181   5.952   6.906   2.145
 2094SOL    HW2 7182   5.832   6.806   2.192
 2095SOL     OW 7183   5.926   6.007   4.348
 2095SOL    HW1 7184   5.829   6.025   4.363
 2095SOL    HW2 7185   5.980   6.061   4.411
 2096SOL     OW 7186   4.786   4.016   2.692
 2096SOL    HW1 7187   4.722   4.092   2.701
 2096SOL    HW2 7188   4.798   3.995   2.595
 2097SOL     OW 7189   6.997   2.484   0.111
 2097SOL    HW1 7190   0.019   2.399   0.073
 2097SOL    HW2 7191   6.969   2.544   0.037
 2098SOL     OW 7192   4.250   6.863   3.876
 2098SOL    HW1 7193   4.255   6.783   3.935
 2098SOL    HW2 7194   4.312   6.851   3.798
 2099SOL     OW 7195   2.398   1.014   4.744
 2099SOL    HW1 7196   2.308   0.976   4.765
 2099SOL    HW2 7197   2.431   1.068   4.822
 2100SOL     OW 7198   4.271   4.013   6.691
 2100SOL    HW1 7199   4.364   4.034   6.718
 2100SOL    HW2 7200   4.260   4.027   6.593
 2101SOL     OW 7201   0.442   0.633   3.049
 2101SOL    HW1 7202   0.489   0.551   3.015
 2101SOL    HW2 7203   0.508   0.693   3.095
 2102SOL     OW 7204   0.200   5.653   2.756
 2102SOL    HW1 7205   0.268   5.673   2.686
 2102SOL    HW2 7206   0.108   5.656   2.717
 2103SOL     OW 7207   3.288   3.043   0.047
 2103SOL    HW1 7208   3.372   3.014   0.092
 2103SOL    HW2 7209   3.230   2.964   0.030
 2104SOL     OW 7210   1.640   3.344   5.770
 2104SOL    HW1 7211   1.722   3.399   5.753
 2104SOL    HW2 7212   1.666   3.247   5.777
 2105SOL     OW 7213   5.444   5.003   2.972
 2105SOL    HW1 7214   5.530   4.972   2.932
 2105SOL    HW2 7215   5.378   5.022   2.898
 2106SOL     OW 7216   4.642   5.890   6.668
 2106SOL    HW1 7217   4.620   5.920   6.575
 2106SOL    HW2 7218   4.565   5.910   6.729
 2107SOL     OW 7219   3.907   4.228   5.532
 2107SOL    HW1 7220   3.835   4.246   5.465
 2107SOL    HW2 7221   3.984   4.184   5.486
 2108SOL     OW 7222   6.149   5.521   5.823
 2108SOL    HW1 7223   6.098   5.555   5.743
 2108SOL    HW2 7224   6.096   5.537   5.906
 2109SOL     OW 7225   5.747   5.907   2.768
 2109SOL    HW1 7226   5.672   5.958   2.811
 2109SOL    HW2 7227   5.834   5.954   2.788
 2110SOL     OW 7228   2.686   4.252   6.297
 2110SOL    HW1 7229   2.645   4.295   6.217
 2110SOL    HW2 7230   2.774   4.296   6.317
 2111SOL     OW 7231   1.119   2.603   6.198
 2111SOL    HW1 7232   1.151   2.633   6.108
 2111SOL    HW2 7233   1.103   2.683   6.255
 2112SOL     OW 7234   4.659   2.423   1.621
 2112SOL    HW1 7235   4.572   2.375   1.610
 2112SOL    HW2 7236   4.734   2.360   1.599
 2113SOL     OW 7237   1.285   0.588   2.745
 2113SOL    HW1 7238   1.298   0.640   2.829
 2113SOL    HW2 7239   1.289   0.650   2.666
 2114SOL     OW 7240   1.400   4.393   0.044
 2114SOL    HW1 7241   1.301   4.387   0.061
 2114SOL    HW2 7242   1.449   4.379   0.130
 2115SOL     OW 7243   2.084   4.929   2.417
 2115SOL    HW1 7244   2.028   4.849   2.395
 2115SOL    HW2 7245   2.157   4.938   2.349
 2116SOL     OW 7246   0.144   3.548   2.617
 2116SOL    HW1 7247   0.066   3.605   2.590
 2116SOL    HW2 7248   0.229   3.601   2.606
 2117SOL     OW 7249   0.232   4.507   1.562
 2117SOL    HW1 7250   0.220   4.416   1.522
 2117SOL    HW2 7251   0.307   4.554   1.516
 2118SOL     OW 7252   6.797   3.864   2.653
 2118SOL    HW1 7253   6.718   3.849   2.595
 2118SOL    HW2 7254   6.844   3.777   2.668
 2119SOL     OW 7255   2.285   5.687   1.260
 2119SOL    HW1 7256   2.248   5.685   1.167
 2119SOL    HW2 7257   2.216   5.721   1.323
 2120SOL     OW 7258   6.385   4.611   1.770
 2120SOL    HW1 7259   6.300   4.563   1.792
 2120SOL    HW2 7260   6.461   4.546   1.769
 2121SOL     OW 7261   0.375   5.206   5.196
 2121SOL    HW1 7262   0.466   5.185   5.159
 2121SOL    HW2 7263   0.346   5.296   5.165
 2122SOL     OW 7264   5.422   4.690   4.755
 2122SOL    HW1 7265   5.363   4.630   4.702
 2122SOL    HW2 7266   5.470   4.637   4.825
 2123SOL     OW 7267   6.864   4.659   2.607
 2123SOL    HW1 7268   6.883   4.738   2.665
 2123SOL    HW2 7269   6.945   4.639   2.551
 2124SOL     OW 7270   2.142   1.576   1.480
 2124SOL    HW1 7271   2.064   1.611   1.427
 2124SOL    HW2 7272   2.221   1.566   1.419
 2125SOL     OW 7273   2.683   0.728   0.295
 2125SOL    HW1 7274   2.757   0.774   0.345
 2125SOL    HW2 7275   2.674   0.634   0.328
 2126SOL     OW 7276   2.751   0.912   6.663
 2126SOL    HW1 7277   2.712   0.983   6.604
 2126SOL    HW2 7278   2.808   0.954   6.733
 2127SOL     OW 7279   5.724   2.812   4.380
 2127SOL    HW1 7280   5.765   2.817   4.471
 2127SOL    HW2 7281   5.784   2.760   4.319
 2128SOL     OW 7282   0.617   4.364   4.777
 2128SOL    HW1 7283   0.541   4.359   4.843
 2128SOL    HW2 7284   0.660   4.274   4.770
 2129SOL     OW 7285   4.770   3.127   5.136
 2129SOL    HW1 7286   4.771   3.036   5.177
 2129SOL    HW2 7287   4.714   3.188   5.192
 2130SOL     OW 7288   4.855   6.831   2.317
 2130SOL    HW1 7289   4.755   6.823   2.326
 2130SOL    HW2 7290   4.889   6.903   2.378
 2131SOL     OW 7291   0.257   0.735   0.674
 2131SOL    HW1 7292   0.182   0.791   0.639
 2131SOL    HW2 7293   0.327   0.794   0.713
 2132SOL     OW 7294   2.778   2.872   1.011
 2132SOL    HW1 7295   2.781   2.793   0.950
 2132SOL    HW2 7296   2.868   2.915   1.014
 2133SOL     OW 7297   3.234   2.325   6.279
 2133SOL    HW1 7298   3.225   2.308   6.377
 2133SOL    HW2 7299   3.282   2.411   6.264
 2134SOL     OW 7300   0.102   1.518   1.099
 2134SOL    HW1 7301   0.139   1.441   1.046
 2134SOL    HW2 7302   0.115   1.500   1.197
 2135SOL     OW 7303   1.014   3.927   4.546
 2135SOL    HW1 7304   1.026   4.024   4.564
 2135SOL    HW2 7305   0.922   3.899   4.574
 2136SOL     OW 7306   2.247   5.395   1.799
 2136SOL    HW1 7307   2.200   5.311   1.828
 2136SOL    HW2 7308   2.326   5.372   1.744
 2137SOL     OW 7309   3.509   5.756   4.733
 2137SOL    HW1 7310   3.591   5.804   4.762
 2137SOL    HW2 7311   3.460   5.811   4.665
 2138SOL     OW 7312   6.018   1.272   2.763
 2138SOL    HW1 7313   6.108   1.229   2.761
 2138SOL    HW2 7314   5.994   1.303   2.671
 2139SOL     OW 7315   3.437   0.773   5.590
 2139SOL    HW1 7316   3.347   0.810   5.566
 2139SOL    HW2 7317   3.489   0.755   5.506
 2140SOL     OW 7318   2.872   0.778   4.823
 2140SOL    HW1 7319   2.891   0.854   4.762
 2140SOL    HW2 7320   2.876   0.692   4.771
 2141SOL     OW 7321   6.197   4.330   2.081
 2141SOL    HW1 7322   6.208   4.354   1.984
 2141SOL    HW2 7323   6.151   4.406   2.128
 2142SOL     OW 7324   1.857   2.838   3.417
 2142SOL    HW1 7325   1.877   2.757   3.472
 2142SOL    HW2 7326   1.762   2.835   3.388
 2143SOL     OW 7327   2.461   4.702   1.158
 2143SOL    HW1 7328   2.550   4.669   1.191
 2143SOL    HW2 7329   2.470   4.728   1.061
 2144SOL     OW 7330   6.670   5.596   3.925
 2144SOL    HW1 7331   6.592   5.657   3.936
 2144SOL    HW2 7332   6.718   5.585   4.012
 2145SOL     OW 7333   4.258   6.663   4.246
 2145SOL    HW1 7334   4.224   6.757   4.236
 2145SOL    HW2 7335   4.344   6.664   4.296
 2146SOL     OW 7336   2.562   2.786   1.209
 2146SOL    HW1 7337   2.527   2.865   1.260
 2146SOL    HW2 7338   2.491   2.750   1.149
 2147SOL     OW 7339   6.572   1.345   5.642
 2147SOL    HW1 7340   6.564   1.276   5.570
 2147SOL    HW2 7341   6.665   1.380   5.644
 2148SOL     OW 7342   7.007   3.267   6.699
 2148SOL    HW1 7343   6.918   3.308   6.680
 2148SOL    HW2 7344   0.063   3.322   6.658
 2149SOL     OW 7345   1.123   0.188   7.001
 2149SOL    HW1 7346   1.081   0.208   6.913
 2149SOL    HW2 7347   1.055   0.145   0.046
 2150SOL     OW 7348   2.431   2.854   1.766
 2150SOL    HW1 7349   2.352   2.915   1.752
 2150SOL    HW2 7350   2.409   2.788   1.839
 2151SOL     OW 7351   0.853   6.360   0.012
 2151SOL    HW1 7352   0.791   6.291   0.048
 2151SOL    HW2 7353   0.929   6.315   6.981
 2152SOL     OW 7354   3.966   6.085   2.385
 2152SOL    HW1 7355   4.011   6.152   2.326
 2152SOL    HW2 7356   4.026   6.063   2.462
 2153SOL     OW 7357   4.611   1.264   2.574
 2153SOL    HW1 7358   4.563   1.317   2.644
 2153SOL    HW2 7359   4.640   1.326   2.500
 2154SOL     OW 7360   3.429   6.500   3.566
 2154SOL    HW1 7361   3.371   6.577   3.590
 2154SOL    HW2 7362   3.413   6.425   3.631
 2155SOL     OW 7363   4.237   6.563   0.441
 2155SOL    HW1 7364   4.288   6.506   0.375
 2155SOL    HW2 7365   4.199   6.642   0.393
 2156SOL     OW 7366   5.291   1.578   4.217
 2156SOL    HW1 7367   5.293   1.676   4.194
 2156SOL    HW2 7368   5.322   1.566   4.311
 2157SOL     OW 7369   4.183   4.880   3.906
 2157SOL    HW1 7370   4.148   4.901   3.997
 2157SOL    HW2 7371   4.266   4.825   3.914
 2158SOL     OW 7372   3.210   0.276   0.707
 2158SOL    HW1 7373   3.307   0.254   0.693
 2158SOL    HW2 7374   3.169   0.209   0.769
 2159SOL     OW 7375   1.490   0.243   5.868
 2159SOL    HW1 7376   1.449   0.223   5.779
 2159SOL    HW2 7377   1.498   0.159   5.921
 2160SOL     OW 7378   5.006   6.043   0.325
 2160SOL    HW1 7379   5.054   6.056   0.412
 2160SOL    HW2 7380   5.051   6.096   0.254
 2161SOL     OW 7381   1.353   4.019   2.554
 2161SOL    HW1 7382   1.431   3.956   2.555
 2161SOL    HW2 7383   1.322   4.035   2.647
 2162SOL     OW 7384   1.597   6.854   3.240
 2162SOL    HW1 7385   1.524   6.797   3.203
 2162SOL    HW2 7386   1.654   6.800   3.302
 2163SOL     OW 7387   1.332   3.196   1.233
 2163SOL    HW1 7388   1.268   3.120   1.237
 2163SOL    HW2 7389   1.325   3.242   1.145
 2164SOL     OW 7390   2.112   2.892   1.407
 2164SOL    HW1 7391   2.170   2.812   1.418
 2164SOL    HW2 7392   2.150   2.969   1.458
 2165SOL     OW 7393   0.124   2.060   3.829
 2165SOL    HW1 7394   0.137   2.135   3.894
 2165SOL    HW2 7395   0.105   2.097   3.738
 2166SOL     OW 7396   0.707   4.452   3.514
 2166SOL    HW1 7397   0.640   4.399   3.462
 2166SOL    HW2 7398   0.738   4.399   3.593
 2167SOL     OW 7399   1.811   2.543   3.982
 2167SOL    HW1 7400   1.849   2.540   4.074
 2167SOL    HW2 7401   1.713   2.522   3.986
 2168SOL     OW 7402   1.701   1.919   3.143
 2168SOL    HW1 7403   1.629   1.947   3.206
 2168SOL    HW2 7404   1.790   1.948   3.179
 2169SOL     OW 7405   0.375   0.766   1.450
 2169SOL    HW1 7406   0.329   0.711   1.519
 2169SOL    HW2 7407   0.445   0.710   1.405
 2170SOL     OW 7408   0.894   3.785   5.883
 2170SOL    HW1 7409   0.909   3.828   5.794
 2170SOL    HW2 7410   0.797   3.762   5.893
 2171SOL     OW 7411   0.261   5.270   1.447
 2171SOL    HW1 7412   0.304   5.187   1.483
 2171SOL    HW2 7413   0.174   5.285   1.494
 2172SOL     OW 7414   6.964   1.598   4.994
 2172SOL    HW1 7415   0.007   1.522   4.965
 2172SOL    HW2 7416   6.870   1.579   4.967
 2173SOL     OW 7417   5.834   0.456   4.972
 2173SOL    HW1 7418   5.915   0.490   4.923
 2173SOL    HW2 7419   5.833   0.357   4.969
 2174SOL     OW 7420   6.939   5.980   4.893
 2174SOL    HW1 7421   6.908   5.992   4.988
 2174SOL    HW2 7422   0.016   5.943   4.892
 2175SOL     OW 7423   3.164   3.011   5.533
 2175SOL    HW1 7424   3.253   3.055   5.526
 2175SOL    HW2 7425   3.176   2.916   5.563
 2176SOL     OW 7426   5.540   2.600   0.818
 2176SOL    HW1 7427   5.468   2.543   0.778
 2176SOL    HW2 7428   5.504   2.648   0.897
 2177SOL     OW 7429   0.092   1.032   3.472
 2177SOL    HW1 7430   0.051   1.059   3.385
 2177SOL    HW2 7431   0.055   1.088   3.545
 2178SOL     OW 7432   0.785   1.589   2.245
 2178SOL    HW1 7433   0.866   1.631   2.204
 2178SOL    HW2 7434   0.811   1.540   2.329
 2179SOL     OW 7435   2.193   4.289   6.731
 2179SOL    HW1 7436   2.111   4.335   6.764
 2179SOL    HW2 7437   2.226   4.334   6.649
 2180SOL     OW 7438   1.100   4.764   1.920
 2180SOL    HW1 7439   1.130   4.796   1.830
 2180SOL    HW2 7440   1.128   4.669   1.932
 2181SOL     OW 7441   4.946   4.969   4.260
 2181SOL    HW1 7442   4.892   5.051   4.279
 2181SOL    HW2 7443   4.907   4.892   4.312
 2182SOL     OW 7444   0.669   5.361   3.300
 2182SOL    HW1 7445   0.697   5.270   3.332
 2182SOL    HW2 7446   0.750   5.417   3.284
 2183SOL     OW 7447   3.345   3.356   0.341
 2183SOL    HW1 7448   3.386   3.335   0.430
 2183SOL    HW2 7449   3.397   3.430   0.298
 2184SOL     OW 7450   6.653   0.119   0.265
 2184SOL    HW1 7451   6.569   0.096   0.315
 2184SOL    HW2 7452   6.713   0.172   0.325
 2185SOL     OW 7453   0.620   1.778   6.829
 2185SOL    HW1 7454   0.623   1.725   6.914
 2185SOL    HW2 7455   0.653   1.871   6.847
 2186SOL     OW 7456   6.821   5.450   4.695
 2186SOL    HW1 7457   6.743   5.483   4.642
 2186SOL    HW2 7458   6.894   5.421   4.633
 2187SOL     OW 7459   0.986   5.603   2.655
 2187SOL    HW1 7460   0.903   5.616   2.600
 2187SOL    HW2 7461   0.972   5.525   2.717
 2188SOL     OW 7462   2.099   6.695   0.219
 2188SOL    HW1 7463   2.018   6.705   0.161
 2188SOL    HW2 7464   2.078   6.634   0.295
 2189SOL     OW 7465   1.872   1.590   2.335
 2189SOL    HW1 7466   1.915   1.551   2.417
 2189SOL    HW2 7467   1.940   1.642   2.284
 2190SOL     OW 7468   6.651   4.490   2.708
 2190SOL    HW1 7469   6.565   4.536   2.689
 2190SOL    HW2 7470   6.727   4.551   2.688
 2191SOL     OW 7471   1.946   0.880   5.778
 2191SOL    HW1 7472   2.036   0.921   5.763
 2191SOL    HW2 7473   1.956   0.786   5.809
 2192SOL     OW 7474   5.289   0.792   2.014
 2192SOL    HW1 7475   5.245   0.830   2.095
 2192SOL    HW2 7476   5.384   0.823   2.010
 2193SOL     OW 7477   7.004   6.883   6.370
 2193SOL    HW1 7478   6.971   6.976   6.354
 2193SOL    HW2 7479   0.044   6.881   6.453
 2194SOL     OW 7480   0.748   4.408   5.416
 2194SOL    HW1 7481   0.816   4.341   5.385
 2194SOL    HW2 7482   0.681   4.423   5.344
 2195SOL     OW 7483   0.905   4.691   6.691
 2195SOL    HW1 7484   0.920   4.775   6.744
 2195SOL    HW2 7485   0.818   4.650   6.718
 2196SOL     OW 7486   2.611   6.019   5.424
 2196SOL    HW1 7487   2.622   5.920   5.416
 2196SOL    HW2 7488   2.674   6.054   5.494
 2197SOL     OW 7489   3.243   3.399   5.628
 2197SOL    HW1 7490   3.235   3.499   5.624
 2197SOL    HW2 7491   3.269   3.365   5.537
 2198SOL     OW 7492   0.625   0.194   6.479
 2198SOL    HW1 7493   0.611   0.292   6.465
 2198SOL    HW2 7494   0.662   0.179   6.571
 2199SOL     OW 7495   4.844   6.972   3.967
 2199SOL    HW1 7496   4.780   6.953   3.893
 2199SOL    HW2 7497   4.917   0.016   3.933
 2200SOL     OW 7498   2.909   0.691   4.491
 2200SOL    HW1 7499   2.902   0.779   4.536
 2200SOL    HW2 7500   2.885   0.618   4.555
 2201SOL     OW 7501   6.858   2.699   3.414
 2201SOL    HW1 7502   6.880   2.611   3.371
 2201SOL    HW2 7503   6.849   2.769   3.344
 2202SOL     OW 7504   3.342   4.986   2.510
 2202SOL    HW1 7505   3.319   5.079   2.538
 2202SOL    HW2 7506   3.423   4.955   2.561
 2203SOL     OW 7507   2.374   3.777   0.887
 2203SOL    HW1 7508   2.336   3.825   0.965
 2203SOL    HW2 7509   2.316   3.699   0.863
 2204SOL     OW 7510   4.401   2.926   0.998
 2204SOL    HW1 7511   4.488   2.892   1.036
 2204SOL    HW2 7512   4.326   2.901   1.059
 2205SOL     OW 7513   1.531   6.196   0.782
 2205SOL    HW1 7514   1.607   6.134   0.800
 2205SOL    HW2 7515   1.527   6.266   0.854
 2206SOL     OW 7516   2.587   3.221   6.393
 2206SOL    HW1 7517   2.502   3.226   6.340
 2206SOL    HW2 7518   2.601   3.126   6.423
 2207SOL     OW 7519   4.232   5.575   0.749
 2207SOL    HW1 7520   4.220   5.643   0.676
 2207SOL    HW2 7521   4.306   5.606   0.810
 2208SOL     OW 7522   1.071   5.602   3.887
 2208SOL    HW1 7523   1.160   5.588   3.844
 2208SOL    HW2 7524   1.082   5.601   3.986
 2209SOL     OW 7525   2.777   5.444   5.182
 2209SOL    HW1 7526   2.758   5.505   5.104
 2209SOL    HW2 7527   2.813   5.357   5.148
 2210SOL     OW 7528   5.867   5.913   1.297
 2210SOL    HW1 7529   5.954   5.864   1.301
 2210SOL    HW2 7530   5.837   5.937   1.389
 2211SOL     OW 7531   6.088   0.345   0.958
 2211SOL    HW1 7532   6.056   0.375   0.869
 2211SOL    HW2 7533   6.051   0.254   0.978
 2212SOL     OW 7534   2.590   6.228   6.646
 2212SOL    HW1 7535   2.625   6.191   6.732
 2212SOL    HW2 7536   2.541   6.313   6.664
 2213SOL     OW 7537   4.392   2.409   4.414
 2213SOL    HW1 7538   4.465   2.434   4.478
 2213SOL    HW2 7539   4.403   2.462   4.330
 2214SOL     OW 7540   4.290   2.947   5.896
 2214SOL    HW1 7541   4.247   3.010   5.961
 2214SOL    HW2 7542   4.222   2.914   5.831
 2215SOL     OW 7543   5.470   1.294   6.435
 2215SOL    HW1 7544   5.382   1.336   6.457
 2215SOL    HW2 7545   5.543   1.358   6.457
 2216SOL     OW 7546   0.690   5.509   6.517
 2216SOL    HW1 7547   0.627   5.578   6.481
 2216SOL    HW2 7548   0.637   5.433   6.555
 2217SOL     OW 7549   4.414   0.943   3.140
 2217SOL    HW1 7550   4.456   1.033   3.128
 2217SOL    HW2 7551   4.348   0.927   3.067
 2218SOL     OW 7552   0.629   5.204   6.839
 2218SOL    HW1 7553   0.610   5.135   6.909
 2218SOL    HW2 7554   0.717   5.184   6.796
 2219SOL     OW 7555   5.921   1.586   0.513
 2219SOL    HW1 7556   5.888   1.619   0.424
 2219SOL    HW2 7557   5.889   1.647   0.585
 2220SOL     OW 7558   1.659   6.069   5.447
 2220SOL    HW1 7559   1.714   6.036   5.370
 2220SOL    HW2 7560   1.682   6.165   5.466
 2221SOL     OW 7561   6.474   1.166   4.651
 2221SOL    HW1 7562   6.568   1.140   4.628
 2221SOL    HW2 7563   6.413   1.140   4.576
 2222SOL     OW 7564   6.042   6.833   0.504
 2222SOL    HW1 7565   6.048   6.915   0.447
 2222SOL    HW2 7566   6.126   6.780   0.497
 2223SOL     OW 7567   6.827   0.734   5.585
 2223SOL    HW1 7568   6.776   0.654   5.554
 2223SOL    HW2 7569   6.764   0.806   5.613
 2224SOL     OW 7570   5.876   3.895   1.931
 2224SOL    HW1 7571   5.951   3.957   1.907
 2224SOL    HW2 7572   5.885   3.810   1.880
 2225SOL     OW 7573   0.502   6.393   3.885
 2225SOL    HW1 7574   0.508   6.302   3.844
 2225SOL    HW2 7575   0.499   6.462   3.813
 2226SOL     OW 7576   3.503   5.217   0.735
 2226SOL    HW1 7577   3.449   5.259   0.809
 2226SOL    HW2 7578   3.496   5.118   0.741
 2227SOL     OW 7579   4.384   2.369   1.650
 2227SOL    HW1 7580   4.296   2.333   1.682
 2227SOL    HW2 7581   4.368   2.433   1.575
 2228SOL     OW 7582   4.460   5.453   0.104
 2228SOL    HW1 7583   4.416   5.439   0.015
 2228SOL    HW2 7584   4.401   5.512   0.160
 2229SOL     OW 7585   3.264   3.665   4.775
 2229SOL    HW1 7586   3.338   3.607   4.740
 2229SOL    HW2 7587   3.177   3.618   4.763
 2230SOL     OW 7588   5.126   6.305   1.372
 2230SOL    HW1 7589   5.213   6.256   1.378
 2230SOL    HW2 7590   5.126   6.365   1.292
 2231SOL     OW 7591   0.387   1.206   6.810
 2231SOL    HW1 7592   0.447   1.191   6.889
 2231SOL    HW2 7593   0.371   1.304   6.799
 2232SOL     OW 7594   1.226   0.783   5.302
 2232SOL    HW1 7595   1.156   0.795   5.232
 2232SOL    HW2 7596   1.191   0.815   5.390
 2233SOL     OW 7597   3.241   3.360   0.909
 2233SOL    HW1 7598   3.280   3.289   0.850
 2233SOL    HW2 7599   3.161   3.399   0.866
 2234SOL     OW 7600   3.739   1.737   0.657
 2234SOL    HW1 7601   3.775   1.670   0.592
 2234SOL    HW2 7602   3.672   1.692   0.716
 2235SOL     OW 7603   2.583   0.280   2.420
 2235SOL    HW1 7604   2.574   0.369   2.374
 2235SOL    HW2 7605   2.528   0.280   2.503
 2236SOL     OW 7606   2.018   3.722   6.178
 2236SOL    HW1 7607   2.072   3.644   6.148
 2236SOL    HW2 7608   2.047   3.804   6.130
 2237SOL     OW 7609   6.217   5.248   4.923
 2237SOL    HW1 7610   6.306   5.239   4.880
 2237SOL    HW2 7611   6.226   5.243   5.022
 2238SOL     OW 7612   4.509   4.744   2.795
 2238SOL    HW1 7613   4.424   4.727   2.746
 2238SOL    HW2 7614   4.548   4.657   2.825
 2239SOL     OW 7615   3.571   5.854   3.971
 2239SOL    HW1 7616   3.508   5.929   3.989
 2239SOL    HW2 7617   3.655   5.891   3.931
 2240SOL     OW 7618   3.507   5.612   2.878
 2240SOL    HW1 7619   3.542   5.701   2.848
 2240SOL    HW2 7620   3.540   5.541   2.817
 2241SOL     OW 7621   6.917   6.508   1.634
 2241SOL    HW1 7622   6.843   6.481   1.573
 2241SOL    HW2 7623   6.937   6.605   1.622
 2242SOL     OW 7624   5.463   3.217   2.940
 2242SOL    HW1 7625   5.404   3.297   2.949
 2242SOL    HW2 7626   5.408   3.134   2.948
 2243SOL     OW 7627   2.679   6.232   0.180
 2243SOL    HW1 7628   2.583   6.219   0.158
 2243SOL    HW2 7629   2.734   6.167   0.129
 2244SOL     OW 7630   3.268   0.286   1.389
 2244SOL    HW1 7631   3.260   0.218   1.462
 2244SOL    HW2 7632   3.363   0.317   1.381
 2245SOL     OW 7633   0.632   1.333   0.720
 2245SOL    HW1 7634   0.586   1.409   0.674
 2245SOL    HW2 7635   0.703   1.369   0.781
 2246SOL     OW 7636   1.938   0.637   4.257
 2246SOL    HW1 7637   1.938   0.641   4.357
 2246SOL    HW2 7638   1.848   0.664   4.223
 2247SOL     OW 7639   3.458   4.121   2.508
 2247SOL    HW1 7640   3.367   4.120   2.550
 2247SOL    HW2 7641   3.449   4.113   2.409
 2248SOL     OW 7642   5.990   4.347   4.081
 2248SOL    HW1 7643   5.939   4.402   4.147
 2248SOL    HW2 7644   6.066   4.302   4.127
 2249SOL     OW 7645   3.191   6.637   3.726
 2249SOL    HW1 7646   3.175   6.729   3.690
 2249SOL    HW2 7647   3.234   6.642   3.816
 2250SOL     OW 7648   3.686   3.717   5.559
 2250SOL    HW1 7649   3.738   3.775   5.496
 2250SOL    HW2 7650   3.666   3.768   5.642
 2251SOL     OW 7651   5.186   6.746   6.382
 2251SOL    HW1 7652   5.109   6.810   6.386
 2251SOL    HW2 7653   5.170   6.678   6.310
 2252SOL     OW 7654   5.684   1.703   2.904
 2252SOL    HW1 7655   5.681   1.750   2.992
 2252SOL    HW2 7656   5.599   1.718   2.854
 2253SOL     OW 7657   0.659   3.231   0.288
 2253SOL    HW1 7658   0.684   3.282   0.370
 2253SOL    HW2 7659   0.565   3.254   0.261
 2254SOL     OW 7660   3.543   4.079   2.905
 2254SOL    HW1 7661   3.579   4.116   2.819
 2254SOL    HW2 7662   3.443   4.083   2.903
 2255SOL     OW 7663   2.999   3.933   5.687
 2255SOL    HW1 7664   3.077   3.947   5.627
 2255SOL    HW2 7665   3.030   3.927   5.782
 2256SOL     OW 7666   4.530   6.286   2.407
 2256SOL    HW1 7667   4.591   6.363   2.425
 2256SOL    HW2 7668   4.563   6.236   2.327
 2257SOL     OW 7669   0.474   1.774   4.664
 2257SOL    HW1 7670   0.391   1.722   4.685
 2257SOL    HW2 7671   0.454   1.872   4.667
 2258SOL     OW 7672   2.203   6.413   4.502
 2258SOL    HW1 7673   2.297   6.380   4.502
 2258SOL    HW2 7674   2.189   6.476   4.426
 2259SOL     OW 7675   5.918   2.664   4.764
 2259SOL    HW1 7676   5.978   2.594   4.725
 2259SOL    HW2 7677   5.947   2.683   4.858
 2260SOL     OW 7678   0.675   3.383   1.365
 2260SOL    HW1 7679   0.736   3.462   1.359
 2260SOL    HW2 7680   0.586   3.406   1.326
 2261SOL     OW 7681   6.407   3.886   0.770
 2261SOL    HW1 7682   6.368   3.794   0.781
 2261SOL    HW2 7683   6.446   3.895   0.678
 2262SOL     OW 7684   6.412   0.685   3.443
 2262SOL    HW1 7685   6.381   0.777   3.419
 2262SOL    HW2 7686   6.507   0.674   3.414
 2263SOL     OW 7687   1.367   5.343   0.620
 2263SOL    HW1 7688   1.306   5.351   0.541
 2263SOL    HW2 7689   1.444   5.406   0.610
 2264SOL     OW 7690   2.507   6.783   6.688
 2264SOL    HW1 7691   2.601   6.772   6.722
 2264SOL    HW2 7692   2.507   6.776   6.588
 2265SOL     OW 7693   1.402   0.577   4.178
 2265SOL    HW1 7694   1.345   0.643   4.127
 2265SOL    HW2 7695   1.472   0.540   4.118
 2266SOL     OW 7696   5.605   1.073   5.891
 2266SOL    HW1 7697   5.561   1.006   5.831
 2266SOL    HW2 7698   5.679   1.119   5.842
 2267SOL     OW 7699   4.597   2.656   4.774
 2267SOL    HW1 7700   4.630   2.637   4.682
 2267SOL    HW2 7701   4.651   2.731   4.813
 2268SOL     OW 7702   5.981   3.853   6.692
 2268SOL    HW1 7703   6.035   3.832   6.774
 2268SOL    HW2 7704   6.039   3.899   6.625
 2269SOL     OW 7705   0.441   3.442   5.592
 2269SOL    HW1 7706   0.425   3.343   5.600
 2269SOL    HW2 7707   0.523   3.459   5.539
 2270SOL     OW 7708   4.370   3.281   6.266
 2270SOL    HW1 7709   4.457   3.330   6.260
 2270SOL    HW2 7710   4.300   3.343   6.302
 2271SOL     OW 7711   5.847   4.460   6.842
 2271SOL    HW1 7712   5.809   4.546   6.807
 2271SOL    HW2 7713   5.885   4.408   6.765
 2272SOL     OW 7714   6.741   1.396   6.465
 2272SOL    HW1 7715   6.819   1.336   6.448
 2272SOL    HW2 7716   6.709   1.433   6.378
 2273SOL     OW 7717   2.183   2.381   1.845
 2273SOL    HW1 7718   2.256   2.316   1.866
 2273SOL    HW2 7719   2.103   2.361   1.901
 2274SOL     OW 7720   0.345   1.926   6.944
 2274SOL    HW1 7721   0.295   1.968   0.003
 2274SOL    HW2 7722   0.443   1.930   6.963
 2275SOL     OW 7723   5.849   5.331   2.137
 2275SOL    HW1 7724   5.903   5.293   2.062
 2275SOL    HW2 7725   5.900   5.404   2.183
 2276SOL     OW 7726   1.647   6.566   1.346
 2276SOL    HW1 7727   1.555   6.566   1.307
 2276SOL    HW2 7728   1.714   6.569   1.271
 2277SOL     OW 7729   3.588   3.800   4.256
 2277SOL    HW1 7730   3.665   3.741   4.280
 2277SOL    HW2 7731   3.521   3.800   4.330
 2278SOL     OW 7732   6.849   3.068   4.154
 2278SOL    HW1 7733   6.842   3.125   4.072
 2278SOL    HW2 7734   6.770   3.007   4.158
 2279SOL     OW 7735   6.647   5.858   5.566
 2279SOL    HW1 7736   6.576   5.824   5.505
 2279SOL    HW2 7737   6.634   5.956   5.580
 2280SOL     OW 7738   6.274   0.534   5.113
 2280SOL    HW1 7739   6.179   0.558   5.096
 2280SOL    HW2 7740   6.323   0.613   5.149
 2281SOL     OW 7741   4.200   0.350   2.449
 2281SOL    HW1 7742   4.185   0.358   2.547
 2281SOL    HW2 7743   4.235   0.258   2.428
 2282SOL     OW 7744   4.584   5.916   5.233
 2282SOL    HW1 7745   4.617   6.010   5.231
 2282SOL    HW2 7746   4.662   5.853   5.242
 2283SOL     OW 7747   1.504   0.653   2.497
 2283SOL    HW1 7748   1.533   0.557   2.495
 2283SOL    HW2 7749   1.530   0.693   2.585
 2284SOL     OW 7750   0.681   3.503   5.497
 2284SOL    HW1 7751   0.727   3.475   5.582
 2284SOL    HW2 7752   0.747   3.549   5.438
 2285SOL     OW 7753   1.322   3.553   6.709
 2285SOL    HW1 7754   1.307   3.473   6.767
 2285SOL    HW2 7755   1.297   3.530   6.614
 2286SOL     OW 7756   5.110   7.003   2.772
 2286SOL    HW1 7757   5.015   0.006   2.747
 2286SOL    HW2 7758   5.132   6.908   2.751
 2287SOL     OW 7759   2.577   1.262   3.540
 2287SOL    HW1 7760   2.512   1.336   3.526
 2287SOL    HW2 7761   2.574   1.232   3.635
 2288SOL     OW 7762   0.567   5.182   4.113
 2288SOL    HW1 7763   0.473   5.152   4.097
 2288SOL    HW2 7764   0.599   5.146   4.201
 2289SOL     OW 7765   6.951   4.512   1.222
 2289SOL    HW1 7766   6.998   4.425   1.207
 2289SOL    HW2 7767   6.940   4.527   1.321
 2290SOL     OW 7768   1.080   3.871   0.759
 2290SOL    HW1 7769   1.148   3.846   0.690
 2290SOL    HW2 7770   1.052   3.966   0.747
 2291SOL     OW 7771   3.202   2.056   5.944
 2291SOL    HW1 7772   3.189   2.050   6.043
 2291SOL    HW2 7773   3.159   2.140   5.910
 2292SOL     OW 7774   1.446   1.327   4.659
 2292SOL    HW1 7775   1.368   1.383   4.685
 2292SOL    HW2 7776   1.531   1.379   4.673
 2293SOL     OW 7777   5.542   5.685   1.574
 2293SOL    HW1 7778   5.550   5.588   1.598
 2293SOL    HW2 7779   5.452   5.702   1.536
 2294SOL     OW 7780   3.617   6.931   0.639
 2294SOL    HW1 7781   3.588   6.886   0.554
 2294SOL    HW2 7782   3.671   6.867   0.694
 2295SOL     OW 7783   0.208   1.843   2.444
 2295SOL    HW1 7784   0.274   1.899   2.393
 2295SOL    HW2 7785   0.243   1.828   2.537
 2296SOL     OW 7786   3.127   0.016   0.825
 2296SOL    HW1 7787   3.226   0.007   0.837
 2296SOL    HW2 7788   3.098   6.980   0.744
 2297SOL     OW 7789   4.131   4.113   5.715
 2297SOL    HW1 7790   4.114   4.193   5.658
 2297SOL    HW2 7791   4.146   4.033   5.657
 2298SOL     OW 7792   3.960   2.230   1.122
 2298SOL    HW1 7793   3.902   2.247   1.202
 2298SOL    HW2 7794   4.012   2.146   1.137
 2299SOL     OW 7795   5.151   6.814   6.826
 2299SOL    HW1 7796   5.192   6.736   6.873
 2299SOL    HW2 7797   5.217   6.854   6.763
 2300SOL     OW 7798   1.395   5.317   1.343
 2300SOL    HW1 7799   1.450   5.249   1.391
 2300SOL    HW2 7800   1.338   5.367   1.409
 2301SOL     OW 7801   2.999   3.220   3.047
 2301SOL    HW1 7802   3.080   3.264   3.085
 2301SOL    HW2 7803   2.942   3.289   3.001
 2302SOL     OW 7804   4.247   6.501   2.751
 2302SOL    HW1 7805   4.164   6.446   2.753
 2302SOL    HW2 7806   4.300   6.478   2.669
 2303SOL     OW 7807   1.223   3.365   5.372
 2303SOL    HW1 7808   1.192   3.456   5.401
 2303SOL    HW2 7809   1.256   3.369   5.278
 2304SOL     OW 7810   2.553   0.281   3.863
 2304SOL    HW1 7811   2.623   0.352   3.865
 2304SOL    HW2 7812   2.570   0.219   3.786
 2305SOL     OW 7813   3.712   5.590   3.092
 2305SOL    HW1 7814   3.682   5.510   3.144
 2305SOL    HW2 7815   3.667   5.591   3.003
 2306SOL     OW 7816   1.997   5.125   1.486
 2306SOL    HW1 7817   1.927   5.187   1.522
 2306SOL    HW2 7818   2.064   5.178   1.433
 2307SOL     OW 7819   2.260   4.230   2.881
 2307SOL    HW1 7820   2.303   4.280   2.806
 2307SOL    HW2 7821   2.213   4.150   2.845
 2308SOL     OW 7822   0.676   0.697   6.654
 2308SOL    HW1 7823   0.600   0.741   6.701
 2308SOL    HW2 7824   0.707   0.755   6.580
 2309SOL     OW 7825   2.840   6.011   6.546
 2309SOL    HW1 7826   2.935   6.017   6.576
 2309SOL    HW2 7827   2.819   6.087   6.484
 2310SOL     OW 7828   6.578   6.607   1.032
 2310SOL    HW1 7829   6.488   6.574   1.060
 2310SOL    HW2 7830   6.570   6.703   1.003
 2311SOL     OW 7831   2.542   6.886   2.846
 2311SOL    HW1 7832   2.444   6.906   2.845
 2311SOL    HW2 7833   2.559   6.810   2.908
 2312SOL     OW 7834   3.006   6.907   3.294
 2312SOL    HW1 7835   2.951   6.824   3.297
 2312SOL    HW2 7836   2.951   6.982   3.257
 2313SOL     OW 7837   4.735   5.099   2.078
 2313SOL    HW1 7838   4.831   5.087   2.104
 2313SOL    HW2 7839   4.731   5.143   1.988
 2314SOL     OW 7840   6.196   0.767   3.206
 2314SOL    HW1 7841   6.154   0.834   3.267
 2314SOL    HW2 7842   6.136   0.687   3.198
 2315SOL     OW 7843   5.111   3.474   5.335
 2315SOL    HW1 7844   5.027   3.524   5.355
 2315SOL    HW2 7845   5.183   3.539   5.311
 2316SOL     OW 7846   2.516   1.208   5.740
 2316SOL    HW1 7847   2.427   1.163   5.724
 2316SOL    HW2 7848   2.564   1.160   5.813
 2317SOL     OW 7849   6.910   6.830   3.906
 2317SOL    HW1 7850   6.913   6.731   3.919
 2317SOL    HW2 7851   6.822   6.855   3.866
 2318SOL     OW 7852   2.017   3.455   4.414
 2318SOL    HW1 7853   2.025   3.467   4.315
 2318SOL    HW2 7854   2.031   3.543   4.460
 2319SOL     OW 7855   3.464   5.372   4.874
 2319SOL    HW1 7856   3.395   5.422   4.927
 2319SOL    HW2 7857   3.439   5.275   4.870
 2320SOL     OW 7858   1.156   2.542   5.630
 2320SOL    HW1 7859   1.240   2.543   5.575
 2320SOL    HW2 7860   1.149   2.454   5.678
 2321SOL     OW 7861   2.708   5.266   6.213
 2321SOL    HW1 7862   2.672   5.194   6.155
 2321SOL    HW2 7863   2.781   5.315   6.165
 2322SOL     OW 7864   1.774   4.541   2.132
 2322SOL    HW1 7865   1.867   4.535   2.168
 2322SOL    HW2 7866   1.745   4.451   2.100
 2323SOL     OW 7867   3.348   4.925   2.007
 2323SOL    HW1 7868   3.419   4.854   2.010
 2323SOL    HW2 7869   3.259   4.883   2.022
 2324SOL     OW 7870   7.000   5.988   1.212
 2324SOL    HW1 7871   0.059   5.988   1.278
 2324SOL    HW2 7872   6.966   6.081   1.200
 2325SOL     OW 7873   0.020   4.865   1.444
 2325SOL    HW1 7874   6.991   4.782   1.476
 2325SOL    HW2 7875   6.967   4.935   1.425
 2326SOL     OW 7876   1.952   6.246   6.437
 2326SOL    HW1 7877   1.883   6.257   6.366
 2326SOL    HW2 7878   1.999   6.158   6.425
 2327SOL     OW 7879   0.418   1.011   3.078
 2327SOL    HW1 7880   0.382   0.958   3.156
 2327SOL    HW2 7881   0.470   0.950   3.018
 2328SOL     OW 7882   1.452   1.959   2.684
 2328SOL    HW1 7883   1.431   2.052   2.656
 2328SOL    HW2 7884   1.528   1.959   2.749
 2329SOL     OW 7885   1.220   4.272   4.768
 2329SOL    HW1 7886   1.143   4.263   4.831
 2329SOL    HW2 7887   1.303   4.234   4.811
 2330SOL     OW 7888   0.285   2.685   0.440
 2330SOL    HW1 7889   0.201   2.701   0.388
 2330SOL    HW2 7890   0.265   2.628   0.520
 2331SOL     OW 7891   2.982   5.025   6.752
 2331SOL    HW1 7892   2.981   5.100   6.818
 2331SOL    HW2 7893   3.075   5.012   6.718
 2332SOL     OW 7894   6.846   6.903   5.839
 2332SOL    HW1 7895   6.926   6.858   5.879
 2332SOL    HW2 7896   6.836   6.874   5.744
 2333SOL     OW 7897   0.217   5.036   3.193
 2333SOL    HW1 7898   0.233   4.945   3.232
 2333SOL    HW2 7899   0.299   5.092   3.202
 2334SOL     OW 7900   1.293   1.683   6.670
 2334SOL    HW1 7901   1.368   1.686   6.603
 2334SOL    HW2 7902   1.300   1.763   6.730
 2335SOL     OW 7903   5.883   0.434   3.837
 2335SOL    HW1 7904   5.932   0.349   3.815
 2335SOL    HW2 7905   5.929   0.511   3.792
 2336SOL     OW 7906   3.205   1.515   4.116
 2336SOL    HW1 7907   3.231   1.428   4.073
 2336SOL    HW2 7908   3.106   1.525   4.114
 2337SOL     OW 7909   4.301   1.081   1.888
 2337SOL    HW1 7910   4.202   1.075   1.879
 2337SOL    HW2 7911   4.340   0.989   1.888
 2338SOL     OW 7912   0.806   3.219   4.233
 2338SOL    HW1 7913   0.901   3.191   4.222
 2338SOL    HW2 7914   0.753   3.188   4.154
 2339SOL     OW 7915   2.914   3.476   3.296
 2339SOL    HW1 7916   3.007   3.454   3.268
 2339SOL    HW2 7917   2.851   3.450   3.222
 2340SOL     OW 7918   0.339   4.667   6.906
 2340SOL    HW1 7919   0.385   4.588   6.947
 2340SOL    HW2 7920   0.364   4.674   6.810
 2341SOL     OW 7921   2.901   4.774   1.949
 2341SOL    HW1 7922   2.872   4.679   1.937
 2341SOL    HW2 7923   2.862   4.830   1.876
 2342SOL     OW 7924   1.895   0.049   4.875
 2342SOL    HW1 7925   1.933   0.142   4.876
 2342SOL    HW2 7926   1.950   7.006   4.817
 2343SOL     OW 7927   1.977   5.252   3.039
 2343SOL    HW1 7928   2.042   5.207   2.978
 2343SOL    HW2 7929   1.925   5.321   2.988
 2344SOL     OW 7930   0.136   6.042   6.837
 2344SOL    HW1 7931   0.217   5.985   6.854
 2344SOL    HW2 7932   0.065   5.987   6.794
 2345SOL     OW 7933   2.612   5.077   4.585
 2345SOL    HW1 7934   2.535   5.096   4.645
 2345SOL    HW2 7935   2.694   5.063   4.639
 2346SOL     OW 7936   4.082   3.167   5.969
 2346SOL    HW1 7937   4.108   3.167   5.873
 2346SOL    HW2 7938   4.087   3.260   6.006
 2347SOL     OW 7939   2.482   1.771   1.347
 2347SOL    HW1 7940   2.498   1.806   1.255
 2347SOL    HW2 7941   2.441   1.679   1.340
 2348SOL     OW 7942   1.672   6.345   3.931
 2348SOL    HW1 7943   1.735   6.353   4.009
 2348SOL    HW2 7944   1.722   6.310   3.852
 2349SOL     OW 7945   0.903   4.725   6.277
 2349SOL    HW1 7946   0.985   4.725   6.334
 2349SOL    HW2 7947   0.876   4.820   6.258
 2350SOL     OW 7948   5.857   5.181   6.093
 2350SOL    HW1 7949   5.935   5.191   6.031
 2350SOL    HW2 7950   5.846   5.085   6.118
 2351SOL     OW 7951   3.407   4.879   4.459
 2351SOL    HW1 7952   3.396   4.853   4.363
 2351SOL    HW2 7953   3.318   4.875   4.504
 2352SOL     OW 7954   0.403   2.928   2.640
 2352SOL    HW1 7955   0.436   3.021   2.652
 2352SOL    HW2 7956   0.383   2.888   2.729
 2353SOL     OW 7957   3.559   4.910   4.662
 2353SOL    HW1 7958   3.561   4.823   4.710
 2353SOL    HW2 7959   3.508   4.900   4.576
 2354SOL     OW 7960   2.179   2.115   4.545
 2354SOL    HW1 7961   2.161   2.135   4.449
 2354SOL    HW2 7962   2.216   2.022   4.553
 2355SOL     OW 7963   2.146   6.576   5.795
 2355SOL    HW1 7964   2.059   6.533   5.772
 2355SOL    HW2 7965   2.179   6.628   5.716
 2356SOL     OW 7966   1.335   3.022   6.363
 2356SOL    HW1 7967   1.281   2.938   6.357
 2356SOL    HW2 7968   1.294   3.093   6.305
 2357SOL     OW 7969   4.483   1.115   2.250
 2357SOL    HW1 7970   4.461   1.174   2.173
 2357SOL    HW2 7971   4.487   1.020   2.219
 2358SOL     OW 7972   3.109   5.335   5.484
 2358SOL    HW1 7973   3.042   5.265   5.508
 2358SOL    HW2 7974   3.195   5.291   5.455
 2359SOL     OW 7975   0.053   0.672   5.648
 2359SOL    HW1 7976   6.974   0.684   5.619
 2359SOL    HW2 7977   0.055   0.644   5.745
 2360SOL     OW 7978   6.132   3.477   0.196
 2360SOL    HW1 7979   6.120   3.576   0.189
 2360SOL    HW2 7980   6.067   3.431   0.136
 2361SOL     OW 7981   2.676   0.684   6.816
 2361SOL    HW1 7982   2.584   0.694   6.853
 2361SOL    HW2 7983   2.700   0.765   6.763
 2362SOL     OW 7984   2.670   5.775   4.531
 2362SOL    HW1 7985   2.751   5.807   4.482
 2362SOL    HW2 7986   2.638   5.690   4.491
 2363SOL     OW 7987   3.634   2.114   4.556
 2363SOL    HW1 7988   3.702   2.188   4.558
 2363SOL    HW2 7989   3.643   2.058   4.638
 2364SOL     OW 7990   1.254   2.610   2.441
 2364SOL    HW1 7991   1.342   2.588   2.483
 2364SOL    HW2 7992   1.203   2.672   2.502
 2365SOL     OW 7993   6.651   2.393   6.454
 2365SOL    HW1 7994   6.591   2.323   6.414
 2365SOL    HW2 7995   6.731   2.348   6.494
 2366SOL     OW 7996   2.176   5.932   6.625
 2366SOL    HW1 7997   2.266   5.910   6.588
 2366SOL    HW2 7998   2.185   6.002   6.696
 2367SOL     OW 7999   2.133   3.183   0.840
 2367SOL    HW1 8000   2.038   3.172   0.870
 2367SOL    HW2 8001   2.183   3.098   0.855
 2368SOL     OW 8002   5.515   6.481   4.479
 2368SOL    HW1 8003   5.431   6.469   4.426
 2368SOL    HW2 8004   5.578   6.406   4.459
 2369SOL     OW 8005   1.504   0.504   4.616
 2369SOL    HW1 8006   1.533   0.572   4.548
 2369SOL    HW2 8007   1.422   0.538   4.663
 2370SOL     OW 8008   5.777   3.154   0.217
 2370SOL    HW1 8009   5.733   3.238   0.186
 2370SOL    HW2 8010   5.707   3.087   0.241
 2371SOL     OW 8011   1.667   6.926   1.707
 2371SOL    HW1 8012   1.705   6.931   1.800
 2371SOL    HW2 8013   1.715   6.855   1.656
 2372SOL     OW 8014   6.611   2.824   2.355
 2372SOL    HW1 8015   6.637   2.858   2.264
 2372SOL    HW2 8016   6.546   2.888   2.397
 2373SOL     OW 8017   0.650   3.211   5.862
 2373SOL    HW1 8018   0.690   3.127   5.825
 2373SOL    HW2 8019   0.556   3.220   5.830
 2374SOL     OW 8020   5.855   1.736   4.521
 2374SOL    HW1 8021   5.888   1.642   4.518
 2374SOL    HW2 8022   5.933   1.799   4.514
 2375SOL     OW 8023   3.365   5.923   5.317
 2375SOL    HW1 8024   3.387   5.826   5.327
 2375SOL    HW2 8025   3.412   5.975   5.388
 2376SOL     OW 8026   6.389   3.175   4.343
 2376SOL    HW1 8027   6.320   3.243   4.320
 2376SOL    HW2 8028   6.476   3.220   4.363
 2377SOL     OW 8029   3.319   4.134   3.834
 2377SOL    HW1 8030   3.305   4.174   3.743
 2377SOL    HW2 8031   3.417   4.121   3.849
 2378SOL     OW 8032   5.120   2.032   6.981
 2378SOL    HW1 8033   5.044   2.046   0.030
 2378SOL    HW2 8034   5.171   2.117   6.971
 2379SOL     OW 8035   0.042   0.900   0.551
 2379SOL    HW1 8036   6.987   0.969   0.558
 2379SOL    HW2 8037   0.092   0.911   0.465
 2380SOL     OW 8038   0.327   2.211   6.520
 2380SOL    HW1 8039   0.279   2.144   6.575
 2380SOL    HW2 8040   0.265   2.286   6.497
 2381SOL     OW 8041   2.112   5.520   4.169
 2381SOL    HW1 8042   2.143   5.596   4.112
 2381SOL    HW2 8043   2.125   5.434   4.119
 2382SOL     OW 8044   1.758   3.438   4.521
 2382SOL    HW1 8045   1.764   3.338   4.527
 2382SOL    HW2 8046   1.834   3.472   4.465
 2383SOL     OW 8047   5.371   6.824   0.830
 2383SOL    HW1 8048   5.336   6.740   0.789
 2383SOL    HW2 8049   5.468   6.834   0.809
 2384SOL     OW 8050   5.808   1.067   2.702
 2384SOL    HW1 8051   5.888   1.115   2.738
 2384SOL    HW2 8052   5.740   1.057   2.774
 2385SOL     OW 8053   0.669   0.608   0.594
 2385SOL    HW1 8054   0.655   0.704   0.618
 2385SOL    HW2 8055   0.665   0.598   0.494
 2386SOL     OW 8056   5.280   6.103   4.872
 2386SOL    HW1 8057   5.233   6.020   4.902
 2386SOL    HW2 8058   5.376   6.081   4.851
 2387SOL     OW 8059   1.511   1.691   4.081
 2387SOL    HW1 8060   1.523   1.592   4.069
 2387SOL    HW2 8061   1.529   1.715   4.176
 2388SOL     OW 8062   0.066   1.946   4.137
 2388SOL    HW1 8063   0.111   1.969   4.051
 2388SOL    HW2 8064   0.104   1.860   4.172
 2389SOL     OW 8065   4.669   4.338   3.421
 2389SOL    HW1 8066   4.753   4.350   3.368
 2389SOL    HW2 8067   4.678   4.256   3.479
 2390SOL     OW 8068   3.898   3.494   3.638
 2390SOL    HW1 8069   3.845   3.431   3.694
 2390SOL    HW2 8070   3.869   3.487   3.543
 2391SOL     OW 8071   5.576   4.005   5.771
 2391SOL    HW1 8072   5.580   3.979   5.675
 2391SOL    HW2 8073   5.496   3.964   5.814
 2392SOL     OW 8074   3.445   6.313   5.579
 2392SOL    HW1 8075   3.349   6.314   5.606
 2392SOL    HW2 8076   3.503   6.309   5.661
 2393SOL     OW 8077   5.323   3.863   5.731
 2393SOL    HW1 8078   5.242   3.835   5.784
 2393SOL    HW2 8079   5.344   3.792   5.664
 2394SOL     OW 8080   0.985   3.997   5.023
 2394SOL    HW1 8081   1.068   4.003   5.079
 2394SOL    HW2 8082   1.000   3.933   4.948
 2395SOL     OW 8083   5.101   0.456   5.856
 2395SOL    HW1 8084   5.127   0.461   5.759
 2395SOL    HW2 8085   5.116   0.544   5.900
 2396SOL     OW 8086   3.743   5.031   0.947
 2396SOL    HW1 8087   3.790   4.948   0.976
 2396SOL    HW2 8088   3.692   5.070   1.023
 2397SOL     OW 8089   0.003   3.897   5.607
 2397SOL    HW1 8090   6.989   3.991   5.592
 2397SOL    HW2 8091   0.065   3.894   5.685
 2398SOL     OW 8092   4.358   4.283   6.421
 2398SOL    HW1 8093   4.357   4.330   6.333
 2398SOL    HW2 8094   4.282   4.219   6.426
 2399SOL     OW 8095   4.575   0.803   0.899
 2399SOL    HW1 8096   4.556   0.805   0.801
 2399SOL    HW2 8097   4.497   0.839   0.949
 2400SOL     OW 8098   2.903   4.215   1.319
 2400SOL    HW1 8099   2.917   4.156   1.239
 2400SOL    HW2 8100   2.877   4.307   1.289
 2401SOL     OW 8101   5.110   6.152   0.105
 2401SOL    HW1 8102   5.156   6.240   0.105
 2401SOL    HW2 8103   5.056   6.142   0.021
 2402SOL     OW 8104   0.357   0.350   3.826
 2402SOL    HW1 8105   0.306   0.310   3.902
 2402SOL    HW2 8106   0.341   0.297   3.743
 2403SOL     OW 8107   1.692   2.314   6.322
 2403SOL    HW1 8108   1.612   2.316   6.381
 2403SOL    HW2 8109   1.716   2.407   6.295
 2404SOL     OW 8110   2.548   0.430   0.955
 2404SOL    HW1 8111   2.619   0.499   0.967
 2404SOL    HW2 8112   2.544   0.402   0.859
 2405SOL     OW 8113   3.206   3.706   2.118
 2405SOL    HW1 8114   3.240   3.746   2.033
 2405SOL    HW2 8115   3.219   3.771   2.193
 2406SOL     OW 8116   3.291   0.095   1.583
 2406SOL    HW1 8117   3.389   0.113   1.594
 2406SOL    HW2 8118   3.270   0.003   1.615
 2407SOL     OW 8119   5.684   1.888   3.172
 2407SOL    HW1 8120   5.609   1.943   3.135
 2407SOL    HW2 8121   5.675   1.882   3.271
 2408SOL     OW 8122   4.339   4.576   3.174
 2408SOL    HW1 8123   4.424   4.523   3.181
 2408SOL    HW2 8124   4.299   4.586   3.265
 2409SOL     OW 8125   2.285   4.531   1.952
 2409SOL    HW1 8126   2.383   4.548   1.960
 2409SOL    HW2 8127   2.268   4.433   1.946
 2410SOL     OW 8128   3.926   2.953   5.386
 2410SOL    HW1 8129   3.936   2.856   5.365
 2410SOL    HW2 8130   3.971   2.974   5.473
 2411SOL     OW 8131   5.087   6.185   4.433
 2411SOL    HW1 8132   5.128   6.151   4.348
 2411SOL    HW2 8133   4.988   6.173   4.429
 2412SOL     OW 8134   5.981   3.998   1.489
 2412SOL    HW1 8135   6.033   3.926   1.535
 2412SOL    HW2 8136   5.886   3.995   1.521
 2413SOL     OW 8137   6.642   0.826   0.700
 2413SOL    HW1 8138   6.723   0.842   0.756
 2413SOL    HW2 8139   6.596   0.742   0.731
 2414SOL     OW 8140   4.728   4.066   3.506
 2414SOL    HW1 8141   4.727   3.971   3.538
 2414SOL    HW2 8142   4.790   4.120   3.563
 2415SOL     OW 8143   6.409   1.699   3.268
 2415SOL    HW1 8144   6.331   1.719   3.208
 2415SOL    HW2 8145   6.391   1.616   3.320
 2416SOL     OW 8146   4.742   2.433   4.911
 2416SOL    HW1 8147   4.668   2.380   4.872
 2416SOL    HW2 8148   4.734   2.528   4.883
 2417SOL     OW 8149   3.674   3.807   4.864
 2417SOL    HW1 8150   3.770   3.778   4.870
 2417SOL    HW2 8151   3.654   3.838   4.771
 2418SOL     OW 8152   4.095   3.226   4.492
 2418SOL    HW1 8153   4.018   3.168   4.519
 2418SOL    HW2 8154   4.117   3.209   4.396
 2419SOL     OW 8155   0.284   6.968   4.109
 2419SOL    HW1 8156   0.330   6.880   4.120
 2419SOL    HW2 8157   0.227   6.965   4.027
 2420SOL     OW 8158   3.300   0.855   3.294
 2420SOL    HW1 8159   3.246   0.917   3.350
 2420SOL    HW2 8160   3.394   0.889   3.288
 2421SOL     OW 8161   2.354   2.334   4.970
 2421SOL    HW1 8162   2.260   2.363   4.988
 2421SOL    HW2 8163   2.417   2.404   5.004
 2422SOL     OW 8164   5.157   1.745   0.477
 2422SOL    HW1 8165   5.108   1.735   0.563
 2422SOL    HW2 8166   5.093   1.777   0.406
 2423SOL     OW 8167   1.831   5.953   2.241
 2423SOL    HW1 8168   1.807   6.049   2.227
 2423SOL    HW2 8169   1.907   5.928   2.182
 2424SOL     OW 8170   6.421   6.739   0.058
 2424SOL    HW1 8171   6.444   6.801   0.133
 2424SOL    HW2 8172   6.323   6.717   0.063
 2425SOL     OW 8173   5.596   0.337   3.664
 2425SOL    HW1 8174   5.552   0.248   3.652
 2425SOL    HW2 8175   5.679   0.326   3.719
 2426SOL     OW 8176   1.381   5.478   5.354
 2426SOL    HW1 8177   1.290   5.444   5.374
 2426SOL    HW2 8178   1.449   5.414   5.389
 2427SOL     OW 8179   5.755   5.863   5.699
 2427SOL    HW1 8180   5.832   5.855   5.762
 2427SOL    HW2 8181   5.705   5.947   5.718
 2428SOL     OW 8182   0.314   0.611   1.954
 2428SOL    HW1 8183   0.409   0.631   1.928
 2428SOL    HW2 8184   0.280   0.684   2.013
 2429SOL     OW 8185   5.902   5.523   1.784
 2429SOL    HW1 8186   5.887   5.426   1.764
 2429SOL    HW2 8187   5.926   5.571   1.700
 2430SOL     OW 8188   6.130   1.352   1.967
 2430SOL    HW1 8189   6.178   1.383   1.885
 2430SOL    HW2 8190   6.186   1.372   2.048
 2431SOL     OW 8191   4.283   0.806   2.321
 2431SOL    HW1 8192   4.316   0.712   2.326
 2431SOL    HW2 8193   4.320   0.858   2.398
 2432SOL     OW 8194   4.351   6.563   2.249
 2432SOL    HW1 8195   4.415   6.601   2.317
 2432SOL    HW2 8196   4.365   6.609   2.161
 2433SOL     OW 8197   4.457   1.746   0.627
 2433SOL    HW1 8198   4.538   1.758   0.685
 2433SOL    HW2 8199   4.482   1.758   0.531
 2434SOL     OW 8200   4.102   1.445   6.376
 2434SOL    HW1 8201   4.161   1.512   6.330
 2434SOL    HW2 8202   4.106   1.358   6.327
 2435SOL     OW 8203   4.746   5.683   5.327
 2435SOL    HW1 8204   4.763   5.596   5.374
 2435SOL    HW2 8205   4.781   5.758   5.383
 2436SOL     OW 8206   1.875   6.028   6.131
 2436SOL    HW1 8207   1.814   6.107   6.124
 2436SOL    HW2 8208   1.926   6.033   6.217
 2437SOL     OW 8209   5.616   6.898   6.143
 2437SOL    HW1 8210   5.713   6.917   6.129
 2437SOL    HW2 8211   5.579   6.849   6.064
 2438SOL     OW 8212   3.333   2.299   0.754
 2438SOL    HW1 8213   3.409   2.335   0.808
 2438SOL    HW2 8214   3.352   2.203   0.730
 2439SOL     OW 8215   0.750   4.255   6.572
 2439SOL    HW1 8216   0.829   4.315   6.588
 2439SOL    HW2 8217   0.666   4.308   6.581
 2440SOL     OW 8218   4.903   5.491   5.856
 2440SOL    HW1 8219   4.897   5.399   5.817
 2440SOL    HW2 8220   4.829   5.504   5.922
 2441SOL     OW 8221   6.886   2.773   0.983
 2441SOL    HW1 8222   6.827   2.816   0.914
 2441SOL    HW2 8223   6.860   2.677   0.994
 2442SOL     OW 8224   1.225   3.876   5.576
 2442SOL    HW1 8225   1.183   3.963   5.603
 2442SOL    HW2 8226   1.239   3.819   5.656
 2443SOL     OW 8227   2.918   3.989   6.301
 2443SOL    HW1 8228   2.863   3.913   6.338
 2443SOL    HW2 8229   2.941   3.969   6.206
 2444SOL     OW 8230   2.518   4.508   5.645
 2444SOL    HW1 8231   2.543   4.469   5.557
 2444SOL    HW2 8232   2.471   4.439   5.700
 2445SOL     OW 8233   0.560   0.693   0.986
 2445SOL    HW1 8234   0.485   0.740   0.938
 2445SOL    HW2 8235   0.646   0.742   0.969
 2446SOL     OW 8236   5.925   4.133   4.314
 2446SOL    HW1 8237   5.977   4.218   4.311
 2446SOL    HW2 8238   5.963   4.073   4.384
 2447SOL     OW 8239   1.646   2.196   0.019
 2447SOL    HW1 8240   1.667   2.240   6.948
 2447SOL    HW2 8241   1.552   2.218   0.046
 2448SOL     OW 8242   0.487   6.962   4.645
 2448SOL    HW1 8243   0.523   6.992   4.557
 2448SOL    HW2 8244   0.419   6.890   4.630
 2449SOL     OW 8245   0.272   3.702   0.038
 2449SOL    HW1 8246   0.254   3.800   0.050
 2449SOL    HW2 8247   0.281   3.658   0.127
 2450SOL     OW 8248   2.705   4.784   2.733
 2450SOL    HW1 8249   2.641   4.739   2.671
 2450SOL    HW2 8250   2.675   4.877   2.751
 2451SOL     OW 8251   1.823   6.687   3.816
 2451SOL    HW1 8252   1.885   6.644   3.751
 2451SOL    HW2 8253   1.829   6.786   3.808
 2452SOL     OW 8254   0.756   3.471   2.761
 2452SOL    HW1 8255   0.732   3.418   2.679
 2452SOL    HW2 8256   0.673   3.500   2.807
 2453SOL     OW 8257   6.578   4.448   1.787
 2453SOL    HW1 8258   6.626   4.367   1.753
 2453SOL    HW2 8259   6.619   4.478   1.873
 2454SOL     OW 8260   3.151   0.234   1.962
 2454SOL    HW1 8261   3.243   0.237   2.000
 2454SOL    HW2 8262   3.086   0.209   2.035
 2455SOL     OW 8263   5.467   5.428   1.072
 2455SOL    HW1 8264   5.429   5.405   1.161
 2455SOL    HW2 8265   5.505   5.520   1.075
 2456SOL     OW 8266   4.910   6.320   1.917
 2456SOL    HW1 8267   4.972   6.394   1.889
 2456SOL    HW2 8268   4.950   6.232   1.892
 2457SOL     OW 8269   5.282   0.043   1.545
 2457SOL    HW1 8270   5.260   0.015   1.452
 2457SOL    HW2 8271   5.222   7.011   1.609
 2458SOL     OW 8272   2.437   5.817   2.844
 2458SOL    HW1 8273   2.492   5.788   2.766
 2458SOL    HW2 8274   2.473   5.903   2.880
 2459SOL     OW 8275   2.273   0.381   0.899
 2459SOL    HW1 8276   2.361   0.404   0.940
 2459SOL    HW2 8277   2.225   0.465   0.874
 2460SOL     OW 8278   3.331   5.979   2.028
 2460SOL    HW1 8279   3.408   5.948   2.083
 2460SOL    HW2 8280   3.356   5.974   1.931
 2461SOL     OW 8281   5.770   0.629   1.957
 2461SOL    HW1 8282   5.720   0.656   2.039
 2461SOL    HW2 8283   5.835   0.700   1.932
 2462SOL     OW 8284   2.515   5.332   6.733
 2462SOL    HW1 8285   2.569   5.365   6.655
 2462SOL    HW2 8286   2.575   5.318   6.812
 2463SOL     OW 8287   6.545   1.860   3.455
 2463SOL    HW1 8288   6.503   1.808   3.381
 2463SOL    HW2 8289   6.630   1.901   3.422
 2464SOL     OW 8290   1.096   3.611   1.111
 2464SOL    HW1 8291   1.015   3.650   1.065
 2464SOL    HW2 8292   1.072   3.522   1.150
 2465SOL     OW 8293   6.772   5.975   2.356
 2465SOL    HW1 8294   6.725   6.063   2.364
 2465SOL    HW2 8295   6.848   5.983   2.292
 2466SOL     OW 8296   3.958   1.856   2.782
 2466SOL    HW1 8297   3.935   1.857   2.684
 2466SOL    HW2 8298   3.914   1.934   2.826
 2467SOL     OW 8299   6.875   0.727   5.897
 2467SOL    HW1 8300   6.834   0.799   5.840
 2467SOL    HW2 8301   6.805   0.685   5.954
 2468SOL     OW 8302   6.746   5.816   1.241
 2468SOL    HW1 8303   6.755   5.720   1.213
 2468SOL    HW2 8304   6.829   5.843   1.291
 2469SOL     OW 8305   2.370   3.220   5.617
 2469SOL    HW1 8306   2.278   3.236   5.651
 2469SOL    HW2 8307   2.368   3.208   5.518
 2470SOL     OW 8308   4.759   3.346   6.924
 2470SOL    HW1 8309   4.751   3.444   6.944
 2470SOL    HW2 8310   4.797   3.299   7.003
 2471SOL     OW 8311   0.640   6.401   2.791
 2471SOL    HW1 8312   0.713   6.416   2.857
 2471SOL    HW2 8313   0.579   6.480   2.790
 2472SOL     OW 8314   5.674   2.261   4.272
 2472SOL    HW1 8315   5.630   2.182   4.314
 2472SOL    HW2 8316   5.633   2.280   4.183
 2473SOL     OW 8317   1.056   5.938   4.691
 2473SOL    HW1 8318   0.960   5.912   4.678
 2473SOL    HW2 8319   1.087   5.909   4.781
 2474SOL     OW 8320   6.697   4.411   5.331
 2474SOL    HW1 8321   6.709   4.510   5.340
 2474SOL    HW2 8322   6.727   4.382   5.240
 2475SOL     OW 8323   4.151   2.484   0.350
 2475SOL    HW1 8324   4.129   2.529   0.263
 2475SOL    HW2 8325   4.164   2.552   0.421
 2476SOL     OW 8326   0.438   2.148   4.044
 2476SOL    HW1 8327   0.426   2.208   3.965
 2476SOL    HW2 8328   0.468   2.202   4.123
 2477SOL     OW 8329   5.128   5.012   0.990
 2477SOL    HW1 8330   5.199   5.031   0.922
 2477SOL    HW2 8331   5.055   5.078   0.981
 2478SOL     OW 8332   6.004   6.972   2.870
 2478SOL    HW1 8333   6.039   6.894   2.921
 2478SOL    HW2 8334   5.909   6.955   2.844
 2479SOL     OW 8335   0.679   2.707   0.569
 2479SOL    HW1 8336   0.666   2.745   0.477
 2479SOL    HW2 8337   0.600   2.652   0.595
 2480SOL     OW 8338   0.752   3.474   1.069
 2480SOL    HW1 8339   0.761   3.462   0.970
 2480SOL    HW2 8340   0.774   3.568   1.093
 2481SOL     OW 8341   4.268   4.956   1.964
 2481SOL    HW1 8342   4.206   5.031   1.986
 2481SOL    HW2 8343   4.226   4.898   1.894
 2482SOL     OW 8344   4.719   2.681   5.082
 2482SOL    HW1 8345   4.635   2.627   5.075
 2482SOL    HW2 8346   4.717   2.755   5.015
 2483SOL     OW 8347   1.061   2.079   6.719
 2483SOL    HW1 8348   1.062   1.979   6.719
 2483SOL    HW2 8349   1.007   2.112   6.797
 2484SOL     OW 8350   3.055   1.684   6.971
 2484SOL    HW1 8351   2.962   1.651   6.958
 2484SOL    HW2 8352   3.053   1.776   7.010
 2485SOL     OW 8353   0.203   5.395   2.453
 2485SOL    HW1 8354   0.238   5.454   2.525
 2485SOL    HW2 8355   0.133   5.333   2.490
 2486SOL     OW 8356   1.532   5.308   3.010
 2486SOL    HW1 8357   1.609   5.299   3.073
 2486SOL    HW2 8358   1.476   5.386   3.037
 2487SOL     OW 8359   3.799   0.662   0.967
 2487SOL    HW1 8360   3.728   0.676   0.899
 2487SOL    HW2 8361   3.757   0.658   1.058
 2488SOL     OW 8362   3.064   5.396   1.175
 2488SOL    HW1 8363   3.134   5.404   1.246
 2488SOL    HW2 8364   3.058   5.482   1.124
 2489SOL     OW 8365   1.422   5.546   4.434
 2489SOL    HW1 8366   1.393   5.628   4.484
 2489SOL    HW2 8367   1.514   5.520   4.463
 2490SOL     OW 8368   5.471   3.409   1.053
 2490SOL    HW1 8369   5.495   3.315   1.029
 2490SOL    HW2 8370   5.372   3.416   1.063
 2491SOL     OW 8371   2.795   5.169   2.431
 2491SOL    HW1 8372   2.723   5.115   2.475
 2491SOL    HW2 8373   2.868   5.108   2.400
 2492SOL     OW 8374   4.780   3.471   6.676
 2492SOL    HW1 8375   4.770   3.405   6.751
 2492SOL    HW2 8376   4.742   3.432   6.592
 2493SOL     OW 8377   6.250   1.790   3.616
 2493SOL    HW1 8378   6.262   1.768   3.520
 2493SOL    HW2 8379   6.337   1.777   3.665
 2494SOL     OW 8380   4.903   3.483   2.409
 2494SOL    HW1 8381   4.865   3.392   2.396
 2494SOL    HW2 8382   4.856   3.548   2.348
 2495SOL     OW 8383   5.408   0.925   5.088
 2495SOL    HW1 8384   5.386   0.971   5.174
 2495SOL    HW2 8385   5.382   0.984   5.011
 2496SOL     OW 8386   1.397   6.615   0.404
 2496SOL    HW1 8387   1.325   6.556   0.368
 2496SOL    HW2 8388   1.483   6.594   0.359
 2497SOL     OW 8389   6.142   1.756   6.369
 2497SOL    HW1 8390   6.236   1.762   6.337
 2497SOL    HW2 8391   6.129   1.670   6.419
 2498SOL     OW 8392   1.875   3.428   4.784
 2498SOL    HW1 8393   1.964   3.389   4.761
 2498SOL    HW2 8394   1.824   3.449   4.701
 2499SOL     OW 8395   6.074   0.583   4.838
 2499SOL    HW1 8396   6.035   0.554   4.750
 2499SOL    HW2 8397   6.159   0.633   4.821
 2500SOL     OW 8398   4.409   3.465   6.898
 2500SOL    HW1 8399   4.428   3.367   6.910
 2500SOL    HW2 8400   4.325   3.476   6.846
 2501SOL     OW 8401   0.157   3.957   0.105
 2501SOL    HW1 8402   0.060   3.980   0.102
 2501SOL    HW2 8403   0.203   4.018   0.170
 2502SOL     OW 8404   1.771   6.300   3.481
 2502SOL    HW1 8405   1.848   6.283   3.420
 2502SOL    HW2 8406   1.686   6.272   3.437
 2503SOL     OW 8407   4.478   5.028   4.924
 2503SOL    HW1 8408   4.517   5.026   5.016
 2503SOL    HW2 8409   4.528   5.094   4.868
 2504SOL     OW 8410   1.208   4.292   4.121
 2504SOL    HW1 8411   1.196   4.202   4.165
 2504SOL    HW2 8412   1.136   4.354   4.153
 2505SOL     OW 8413   4.498   5.705   4.208
 2505SOL    HW1 8414   4.582   5.674   4.164
 2505SOL    HW2 8415   4.446   5.626   4.240
 2506SOL     OW 8416   0.153   2.456   6.530
 2506SOL    HW1 8417   0.133   2.542   6.577
 2506SOL    HW2 8418   0.091   2.446   6.452
 2507SOL     OW 8419   6.684   6.027   0.051
 2507SOL    HW1 8420   6.778   5.997   0.034
 2507SOL    HW2 8421   6.621   5.973   7.010
 2508SOL     OW 8422   2.427   2.634   2.419
 2508SOL    HW1 8423   2.378   2.654   2.504
 2508SOL    HW2 8424   2.385   2.684   2.343
 2509SOL     OW 8425   4.934   2.938   3.793
 2509SOL    HW1 8426   4.967   2.895   3.877
 2509SOL    HW2 8427   4.851   2.892   3.762
 2510SOL     OW 8428   4.155   5.752   0.531
 2510SOL    HW1 8429   4.064   5.791   0.548
 2510SOL    HW2 8430   4.155   5.706   0.442
 2511SOL     OW 8431   1.553   0.342   4.847
 2511SOL    HW1 8432   1.464   0.333   4.891
 2511SOL    HW2 8433   1.545   0.397   4.764
 2512SOL     OW 8434   5.164   3.548   5.028
 2512SOL    HW1 8435   5.092   3.487   5.060
 2512SOL    HW2 8436   5.127   3.608   4.956
 2513SOL     OW 8437   0.803   3.351   0.530
 2513SOL    HW1 8438   0.811   3.442   0.572
 2513SOL    HW2 8439   0.889   3.328   0.484
 2514SOL     OW 8440   1.251   0.997   3.686
 2514SOL    HW1 8441   1.286   0.905   3.702
 2514SOL    HW2 8442   1.155   0.992   3.657
 2515SOL     OW 8443   0.733   5.843   0.382
 2515SOL    HW1 8444   0.681   5.924   0.354
 2515SOL    HW2 8445   0.749   5.847   0.481
 2516SOL     OW 8446   5.408   6.533   3.896
 2516SOL    HW1 8447   5.311   6.528   3.870
 2516SOL    HW2 8448   5.424   6.617   3.949
 2517SOL     OW 8449   2.165   4.770   0.105
 2517SOL    HW1 8450   2.175   4.848   0.044
 2517SOL    HW2 8451   2.183   4.685   0.055
 2518SOL     OW 8452   2.348   2.374   6.566
 2518SOL    HW1 8453   2.426   2.360   6.504
 2518SOL    HW2 8454   2.266   2.391   6.512
 2519SOL     OW 8455   4.721   4.220   4.674
 2519SOL    HW1 8456   4.642   4.280   4.661
 2519SOL    HW2 8457   4.719   4.181   4.767
 2520SOL     OW 8458   2.178   4.187   2.186
 2520SOL    HW1 8459   2.247   4.216   2.253
 2520SOL    HW2 8460   2.193   4.090   2.164
 2521SOL     OW 8461   5.368   6.455   5.351
 2521SOL    HW1 8462   5.288   6.514   5.361
 2521SOL    HW2 8463   5.368   6.413   5.260
 2522SOL     OW 8464   1.211   2.958   4.736
 2522SOL    HW1 8465   1.253   2.929   4.822
 2522SOL    HW2 8466   1.214   2.883   4.670
 2523SOL     OW 8467   0.495   3.059   6.786
 2523SOL    HW1 8468   0.528   3.102   6.870
 2523SOL    HW2 8469   0.565   3.067   6.715
 2524SOL     OW 8470   1.063   7.007   4.741
 2524SOL    HW1 8471   1.038   6.910   4.745
 2524SOL    HW2 8472   1.161   0.000   4.729
 2525SOL     OW 8473   1.258   3.472   3.421
 2525SOL    HW1 8474   1.294   3.548   3.475
 2525SOL    HW2 8475   1.278   3.488   3.324
 2526SOL     OW 8476   6.806   1.160   4.991
 2526SOL    HW1 8477   6.871   1.192   4.922
 2526SOL    HW2 8478   6.779   1.066   4.970
 2527SOL     OW 8479   5.656   6.452   3.810
 2527SOL    HW1 8480   5.562   6.482   3.828
 2527SOL    HW2 8481   5.713   6.472   3.889
 2528SOL     OW 8482   6.417   5.648   0.246
 2528SOL    HW1 8483   6.384   5.565   0.291
 2528SOL    HW2 8484   6.517   5.653   0.253
 2529SOL     OW 8485   4.904   3.750   4.561
 2529SOL    HW1 8486   4.996   3.782   4.586
 2529SOL    HW2 8487   4.884   3.665   4.610
 2530SOL     OW 8488   0.214   0.581   4.268
 2530SOL    HW1 8489   0.228   0.680   4.273
 2530SOL    HW2 8490   0.302   0.536   4.256
 2531SOL     OW 8491   3.983   1.920   6.329
 2531SOL    HW1 8492   3.995   1.986   6.255
 2531SOL    HW2 8493   3.994   1.966   6.417
 2532SOL     OW 8494   1.817   5.043   6.696
 2532SOL    HW1 8495   1.793   4.990   6.615
 2532SOL    HW2 8496   1.852   4.982   6.767
 2533SOL     OW 8497   5.812   6.719   5.875
 2533SOL    HW1 8498   5.809   6.664   5.792
 2533SOL    HW2 8499   5.730   6.776   5.881
 2534SOL     OW 8500   0.872   2.291   3.818
 2534SOL    HW1 8501   0.862   2.295   3.917
 2534SOL    HW2 8502   0.791   2.331   3.775
 2535SOL     OW 8503   1.721   0.935   2.925
 2535SOL    HW1 8504   1.718   1.020   2.976
 2535SOL    HW2 8505   1.800   0.881   2.954
 2536SOL     OW 8506   5.897   1.067   4.019
 2536SOL    HW1 8507   5.824   1.086   4.084
 2536SOL    HW2 8508   5.953   1.149   4.007
 2537SOL     OW 8509   4.601   5.540   1.208
 2537SOL    HW1 8510   4.664   5.607   1.170
 2537SOL    HW2 8511   4.643   5.495   1.287
 2538SOL     OW 8512   2.483   4.766   4.795
 2538SOL    HW1 8513   2.460   4.671   4.816
 2538SOL    HW2 8514   2.425   4.799   4.721
 2539SOL     OW 8515   2.815   0.162   5.181
 2539SOL    HW1 8516   2.743   0.098   5.153
 2539SOL    HW2 8517   2.887   0.113   5.229
 2540SOL     OW 8518   5.354   1.933   2.394
 2540SOL    HW1 8519   5.326   2.027   2.373
 2540SOL    HW2 8520   5.436   1.935   2.452
 2541SOL     OW 8521   0.919   6.407   5.715
 2541SOL    HW1 8522   0.922   6.507   5.710
 2541SOL    HW2 8523   0.830   6.378   5.750
 2542SOL     OW 8524   3.579   2.149   4.044
 2542SOL    HW1 8525   3.511   2.217   4.071
 2542SOL    HW2 8526   3.576   2.137   3.944
 2543SOL     OW 8527   0.322   1.881   3.877
 2543SOL    HW1 8528   0.387   1.938   3.927
 2543SOL    HW2 8529   0.233   1.927   3.874
 2544SOL     OW 8530   6.276   5.346   1.903
 2544SOL    HW1 8531   6.287   5.353   1.804
 2544SOL    HW2 8532   6.365   5.355   1.948
 2545SOL     OW 8533   0.080   1.860   1.670
 2545SOL    HW1 8534   7.011   1.912   1.682
 2545SOL    HW2 8535   0.085   1.827   1.575
 2546SOL     OW 8536   0.028   4.445   2.906
 2546SOL    HW1 8537   7.007   4.537   2.890
 2546SOL    HW2 8538   6.996   4.404   2.985
 2547SOL     OW 8539   5.791   3.633   0.968
 2547SOL    HW1 8540   5.804   3.619   1.066
 2547SOL    HW2 8541   5.868   3.685   0.931
 2548SOL     OW 8542   6.911   6.887   5.440
 2548SOL    HW1 8543   6.989   6.924   5.491
 2548SOL    HW2 8544   6.937   6.799   5.401
 2549SOL     OW 8545   2.536   2.527   0.894
 2549SOL    HW1 8546   2.444   2.566   0.896
 2549SOL    HW2 8547   2.531   2.427   0.892
 2550SOL     OW 8548   4.516   6.837   6.261
 2550SOL    HW1 8549   4.423   6.840   6.296
 2550SOL    HW2 8550   4.526   6.760   6.198
 2551SOL     OW 8551   3.344   5.230   0.249
 2551SOL    HW1 8552   3.357   5.239   0.348
 2551SOL    HW2 8553   3.363   5.317   0.204
 2552SOL     OW 8554   2.716   6.068   0.863
 2552SOL    HW1 8555   2.766   6.006   0.924
 2552SOL    HW2 8556   2.635   6.022   0.828
 2553SOL     OW 8557   4.610   1.031   6.718
 2553SOL    HW1 8558   4.640   1.100   6.652
 2553SOL    HW2 8559   4.592   0.945   6.671
 2554SOL     OW 8560   1.438   5.956   1.497
 2554SOL    HW1 8561   1.366   5.892   1.525
 2554SOL    HW2 8562   1.426   6.043   1.545
 2555SOL     OW 8563   5.547   6.110   5.064
 2555SOL    HW1 8564   5.462   6.148   5.099
 2555SOL    HW2 8565   5.596   6.063   5.139
 2556SOL     OW 8566   3.994   0.482   0.963
 2556SOL    HW1 8567   4.068   0.539   1.000
 2556SOL    HW2 8568   3.917   0.540   0.938
 2557SOL     OW 8569   3.339   0.233   0.087
 2557SOL    HW1 8570   3.246   0.231   0.123
 2557SOL    HW2 8571   3.341   0.186   7.015
 2558SOL     OW 8572   5.981   3.800   6.319
 2558SOL    HW1 8573   5.952   3.716   6.364
 2558SOL    HW2 8574   6.080   3.812   6.331
 2559SOL     OW 8575   0.922   4.434   4.545
 2559SOL    HW1 8576   0.929   4.403   4.640
 2559SOL    HW2 8577   0.837   4.484   4.532
 2560SOL     OW 8578   4.939   2.248   3.372
 2560SOL    HW1 8579   5.037   2.233   3.361
 2560SOL    HW2 8580   4.912   2.230   3.467
 2561SOL     OW 8581   3.417   0.648   4.682
 2561SOL    HW1 8582   3.420   0.747   4.691
 2561SOL    HW2 8583   3.471   0.606   4.755
 2562SOL     OW 8584   3.495   0.071   3.194
 2562SOL    HW1 8585   3.563   0.109   3.130
 2562SOL    HW2 8586   3.409   0.057   3.145
 2563SOL     OW 8587   3.682   1.271   0.023
 2563SOL    HW1 8588   3.690   1.171   0.026
 2563SOL    HW2 8589   3.592   1.297   7.003
 2564SOL     OW 8590   1.866   1.443   0.816
 2564SOL    HW1 8591   1.873   1.372   0.887
 2564SOL    HW2 8592   1.905   1.408   0.731
 2565SOL     OW 8593   1.383   2.183   0.100
 2565SOL    HW1 8594   1.297   2.166   0.052
 2565SOL    HW2 8595   1.372   2.162   0.197
 2566SOL     OW 8596   2.481   0.693   1.281
 2566SOL    HW1 8597   2.418   0.615   1.284
 2566SOL    HW2 8598   2.488   0.727   1.187
 2567SOL     OW 8599   1.556   0.408   0.387
 2567SOL    HW1 8600   1.566   0.313   0.359
 2567SOL    HW2 8601   1.565   0.415   0.486
 2568SOL     OW 8602   2.907   6.430   1.108
 2568SOL    HW1 8603   2.871   6.396   1.022
 2568SOL    HW2 8604   2.980   6.497   1.090
 2569SOL     OW 8605   0.974   0.377   1.203
 2569SOL    HW1 8606   1.051   0.383   1.267
 2569SOL    HW2 8607   0.912   0.453   1.220
 2570SOL     OW 8608   5.989   6.638   6.071
 2570SOL    HW1 8609   6.063   6.698   6.041
 2570SOL    HW2 8610   5.907   6.657   6.017
 2571SOL     OW 8611   3.595   3.423   4.290
 2571SOL    HW1 8612   3.588   3.391   4.195
 2571SOL    HW2 8613   3.671   3.488   4.297
 2572SOL     OW 8614   1.842   6.584   1.807
 2572SOL    HW1 8615   1.810   6.619   1.719
 2572SOL    HW2 8616   1.938   6.608   1.819
 2573SOL     OW 8617   0.112   2.156   4.795
 2573SOL    HW1 8618   0.210   2.171   4.795
 2573SOL    HW2 8619   0.090   2.073   4.744
 2574SOL     OW 8620   0.927   3.924   1.757
 2574SOL    HW1 8621   0.970   4.011   1.734
 2574SOL    HW2 8622   0.896   3.925   1.852
 2575SOL     OW 8623   6.399   3.875   0.231
 2575SOL    HW1 8624   6.445   3.964   0.219
 2575SOL    HW2 8625   6.384   3.860   0.329
 2576SOL     OW 8626   1.553   0.058   3.680
 2576SOL    HW1 8627   1.561   0.039   3.778
 2576SOL    HW2 8628   1.484   7.013   3.640
 2577SOL     OW 8629   2.299   6.108   2.553
 2577SOL    HW1 8630   2.393   6.124   2.523
 2577SOL    HW2 8631   2.246   6.191   2.541
 2578SOL     OW 8632   5.011   2.577   4.438
 2578SOL    HW1 8633   5.089   2.571   4.499
 2578SOL    HW2 8634   5.002   2.492   4.386
 2579SOL     OW 8635   6.789   2.663   6.390
 2579SOL    HW1 8636   6.739   2.734   6.340
 2579SOL    HW2 8637   6.725   2.610   6.446
 2580SOL     OW 8638   1.307   2.507   6.456
 2580SOL    HW1 8639   1.369   2.441   6.414
 2580SOL    HW2 8640   1.263   2.466   6.535
 2581SOL     OW 8641   6.460   6.783   3.790
 2581SOL    HW1 8642   6.411   6.767   3.704
 2581SOL    HW2 8643   6.554   6.811   3.770
 2582SOL     OW 8644   0.708   5.376   2.463
 2582SOL    HW1 8645   0.687   5.415   2.552
 2582SOL    HW2 8646   0.804   5.392   2.441
 2583SOL     OW 8647   1.720   0.085   0.668
 2583SOL    HW1 8648   1.693   0.149   0.740
 2583SOL    HW2 8649   1.757   0.002   0.710
 2584SOL     OW 8650   4.241   6.626   1.885
 2584SOL    HW1 8651   4.206   6.534   1.868
 2584SOL    HW2 8652   4.193   6.691   1.826
 2585SOL     OW 8653   4.007   0.413   1.263
 2585SOL    HW1 8654   3.932   0.451   1.316
 2585SOL    HW2 8655   3.996   0.439   1.167
 2586SOL     OW 8656   6.506   2.361   3.972
 2586SOL    HW1 8657   6.458   2.274   3.963
 2586SOL    HW2 8658   6.506   2.408   3.884
 2587SOL     OW 8659   5.814   6.228   3.132
 2587SOL    HW1 8660   5.854   6.222   3.223
 2587SOL    HW2 8661   5.821   6.322   3.098
 2588SOL     OW 8662   5.486   1.134   1.216
 2588SOL    HW1 8663   5.504   1.084   1.131
 2588SOL    HW2 8664   5.535   1.220   1.215
 2589SOL     OW 8665   6.615   6.432   6.821
 2589SOL    HW1 8666   6.681   6.368   6.859
 2589SOL    HW2 8667   6.633   6.443   6.723
 2590SOL     OW 8668   4.549   0.130   2.601
 2590SOL    HW1 8669   4.609   0.167   2.530
 2590SOL    HW2 8670   4.513   0.206   2.656
 2591SOL     OW 8671   5.454   6.571   1.585
 2591SOL    HW1 8672   5.435   6.477   1.614
 2591SOL    HW2 8673   5.440   6.633   1.661
 2592SOL     OW 8674   3.863   5.379   1.844
 2592SOL    HW1 8675   3.787   5.315   1.857
 2592SOL    HW2 8676   3.832   5.457   1.789
 2593SOL     OW 8677   3.254   6.358   2.416
 2593SOL    HW1 8678   3.227   6.270   2.378
 2593SOL    HW2 8679   3.250   6.354   2.516
 2594SOL     OW 8680   0.736   6.323   6.221
 2594SOL    HW1 8681   0.820   6.310   6.275
 2594SOL    HW2 8682   0.677   6.244   6.233
 2595SOL     OW 8683   5.994   3.574   4.316
 2595SOL    HW1 8684   5.983   3.663   4.271
 2595SOL    HW2 8685   5.905   3.528   4.320
 2596SOL     OW 8686   3.945   2.151   2.026
 2596SOL    HW1 8687   3.963   2.121   1.932
 2596SOL    HW2 8688   3.860   2.203   2.029
 2597SOL     OW 8689   2.078   3.075   0.216
 2597SOL    HW1 8690   2.112   2.981   0.206
 2597SOL    HW2 8691   1.978   3.074   0.216
 2598SOL     OW 8692   6.480   3.305   3.695
 2598SOL    HW1 8693   6.428   3.241   3.638
 2598SOL    HW2 8694   6.423   3.332   3.773
 2599SOL     OW 8695   3.483   5.822   0.222
 2599SOL    HW1 8696   3.529   5.876   0.151
 2599SOL    HW2 8697   3.384   5.834   0.214
 2600SOL     OW 8698   5.873   3.819   3.519
 2600SOL    HW1 8699   5.943   3.801   3.449
 2600SOL    HW2 8700   5.906   3.889   3.582
 2601SOL     OW 8701   4.321   3.309   6.605
 2601SOL    HW1 8702   4.374   3.393   6.603
 2601SOL    HW2 8703   4.368   3.238   6.553
 2602SOL     OW 8704   6.328   5.211   3.629
 2602SOL    HW1 8705   6.383   5.134   3.597
 2602SOL    HW2 8706   6.322   5.280   3.558
 2603SOL     OW 8707   3.225   1.825   1.256
 2603SOL    HW1 8708   3.246   1.884   1.178
 2603SOL    HW2 8709   3.127   1.802   1.255
 2604SOL     OW 8710   6.264   0.230   1.203
 2604SOL    HW1 8711   6.233   0.296   1.270
 2604SOL    HW2 8712   6.317   0.276   1.131
 2605SOL     OW 8713   4.753   5.199   4.281
 2605SOL    HW1 8714   4.682   5.138   4.317
 2605SOL    HW2 8715   4.714   5.257   4.210
 2606SOL     OW 8716   0.161   4.557   0.233
 2606SOL    HW1 8717   0.116   4.609   0.160
 2606SOL    HW2 8718   0.094   4.530   0.302
 2607SOL     OW 8719   0.453   1.082   3.889
 2607SOL    HW1 8720   0.512   1.162   3.891
 2607SOL    HW2 8721   0.398   1.082   3.805
 2608SOL     OW 8722   5.140   0.605   1.319
 2608SOL    HW1 8723   5.236   0.596   1.294
 2608SOL    HW2 8724   5.132   0.655   1.406
 2609SOL     OW 8725   0.971   2.192   2.389
 2609SOL    HW1 8726   1.062   2.229   2.374
 2609SOL    HW2 8727   0.966   2.099   2.353
 2610SOL     OW 8728   5.771   6.323   4.685
 2610SOL    HW1 8729   5.741   6.392   4.752
 2610SOL    HW2 8730   5.827   6.255   4.730
 2611SOL     OW 8731   4.493   6.668   1.275
 2611SOL    HW1 8732   4.474   6.626   1.364
 2611SOL    HW2 8733   4.421   6.733   1.253
 2612SOL     OW 8734   5.839   6.507   3.127
 2612SOL    HW1 8735   5.820   6.554   3.213
 2612SOL    HW2 8736   5.825   6.569   3.051
 2613SOL     OW 8737   3.760   0.444   1.429
 2613SOL    HW1 8738   3.667   0.457   1.465
 2613SOL    HW2 8739   3.825   0.443   1.504
 2614SOL     OW 8740   0.088   6.360   6.083
 2614SOL    HW1 8741   0.175   6.366   6.132
 2614SOL    HW2 8742   0.044   6.273   6.105
 2615SOL     OW 8743   5.351   5.716   2.867
 2615SOL    HW1 8744   5.291   5.743   2.942
 2615SOL    HW2 8745   5.394   5.628   2.889
 2616SOL     OW 8746   3.774   2.952   2.968
 2616SOL    HW1 8747   3.772   2.936   3.067
 2616SOL    HW2 8748   3.680   2.952   2.932
 2617SOL     OW 8749   3.992   6.568   1.611
 2617SOL    HW1 8750   3.967   6.512   1.690
 2617SOL    HW2 8751   3.956   6.527   1.528
 2618SOL     OW 8752   1.106   0.336   0.545
 2618SOL    HW1 8753   1.133   0.432   0.543
 2618SOL    HW2 8754   1.007   0.329   0.549
 2619SOL     OW 8755   4.551   2.055   1.978
 2619SOL    HW1 8756   4.525   2.044   2.074
 2619SOL    HW2 8757   4.577   2.150   1.962
 2620SOL     OW 8758   1.016   4.494   4.188
 2620SOL    HW1 8759   0.933   4.439   4.197
 2620SOL    HW2 8760   1.018   4.563   4.261
 2621SOL     OW 8761   0.659   5.085   3.414
 2621SOL    HW1 8762   0.703   5.077   3.504
 2621SOL    HW2 8763   0.560   5.086   3.426
 2622SOL     OW 8764   2.509   2.795   6.670
 2622SOL    HW1 8765   2.438   2.742   6.716
 2622SOL    HW2 8766   2.474   2.830   6.583
 2623SOL     OW 8767   2.929   1.185   5.812
 2623SOL    HW1 8768   2.890   1.235   5.889
 2623SOL    HW2 8769   2.947   1.248   5.737
 2624SOL     OW 8770   5.687   2.544   3.730
 2624SOL    HW1 8771   5.748   2.525   3.807
 2624SOL    HW2 8772   5.595   2.564   3.764
 2625SOL     OW 8773   3.058   2.280   5.840
 2625SOL    HW1 8774   3.117   2.316   5.769
 2625SOL    HW2 8775   3.033   2.353   5.904
 2626SOL     OW 8776   2.074   6.694   3.103
 2626SOL    HW1 8777   2.108   6.788   3.106
 2626SOL    HW2 8778   1.995   6.684   3.163
 2627SOL     OW 8779   6.468   0.534   4.125
 2627SOL    HW1 8780   6.500   0.473   4.053
 2627SOL    HW2 8781   6.448   0.481   4.208
 2628SOL     OW 8782   3.892   6.216   6.865
 2628SOL    HW1 8783   3.959   6.233   6.937
 2628SOL    HW2 8784   3.918   6.267   6.783
 2629SOL     OW 8785   3.486   4.199   1.405
 2629SOL    HW1 8786   3.486   4.129   1.333
 2629SOL    HW2 8787   3.391   4.221   1.429
 2630SOL     OW 8788   2.899   2.142   2.519
 2630SOL    HW1 8789   2.955   2.143   2.436
 2630SOL    HW2 8790   2.808   2.107   2.496
 2631SOL     OW 8791   4.393   6.486   3.763
 2631SOL    HW1 8792   4.326   6.517   3.830
 2631SOL    HW2 8793   4.346   6.435   3.691
 2632SOL     OW 8794   3.694   2.167   0.272
 2632SOL    HW1 8795   3.603   2.202   0.250
 2632SOL    HW2 8796   3.688   2.068   0.288
 2633SOL     OW 8797   5.677   2.466   6.839
 2633SOL    HW1 8798   5.577   2.462   6.836
 2633SOL    HW2 8799   5.710   2.410   6.915
 2634SOL     OW 8800   2.014   4.325   1.374
 2634SOL    HW1 8801   1.920   4.321   1.406
 2634SOL    HW2 8802   2.068   4.253   1.420
 2635SOL     OW 8803   5.609   4.847   5.061
 2635SOL    HW1 8804   5.708   4.840   5.071
 2635SOL    HW2 8805   5.570   4.756   5.048
 2636SOL     OW 8806   4.665   0.215   5.676
 2636SOL    HW1 8807   4.724   0.135   5.691
 2636SOL    HW2 8808   4.694   0.289   5.736
 2637SOL     OW 8809   5.634   6.603   2.731
 2637SOL    HW1 8810   5.632   6.554   2.644
 2637SOL    HW2 8811   5.589   6.548   2.801
 2638SOL     OW 8812   5.524   6.028   1.137
 2638SOL    HW1 8813   5.486   6.052   1.048
 2638SOL    HW2 8814   5.621   6.055   1.140
 2639SOL     OW 8815   6.298   5.996   1.041
 2639SOL    HW1 8816   6.354   5.957   1.114
 2639SOL    HW2 8817   6.311   6.095   1.038
 2640SOL     OW 8818   6.750   6.122   5.380
 2640SOL    HW1 8819   6.687   6.046   5.366
 2640SOL    HW2 8820   6.722   6.200   5.324
 2641SOL     OW 8821   5.196   4.397   6.908
 2641SOL    HW1 8822   5.294   4.412   6.925
 2641SOL    HW2 8823   5.180   4.299   6.891
 2642SOL     OW 8824   4.848   0.631   3.541
 2642SOL    HW1 8825   4.809   0.559   3.483
 2642SOL    HW2 8826   4.886   0.703   3.483
 2643SOL     OW 8827   0.054   0.298   2.721
 2643SOL    HW1 8828   0.108   0.225   2.678
 2643SOL    HW2 8829   0.112   0.350   2.783
 2644SOL     OW 8830   0.573   4.484   6.217
 2644SOL    HW1 8831   0.487   4.483   6.166
 2644SOL    HW2 8832   0.627   4.402   6.194
 2645SOL     OW 8833   5.178   5.625   6.303
 2645SOL    HW1 8834   5.155   5.613   6.207
 2645SOL    HW2 8835   5.232   5.547   6.334
 2646SOL     OW 8836   6.758   6.861   6.639
 2646SOL    HW1 8837   6.693   6.789   6.615
 2646SOL    HW2 8838   6.835   6.821   6.689
 2647SOL     OW 8839   4.452   2.141   1.509
 2647SOL    HW1 8840   4.471   2.082   1.588
 2647SOL    HW2 8841   4.406   2.224   1.540
 2648SOL     OW 8842   5.686   0.242   2.209
 2648SOL    HW1 8843   5.587   0.241   2.197
 2648SOL    HW2 8844   5.708   0.249   2.307
 2649SOL     OW 8845   3.270   1.698   6.527
 2649SOL    HW1 8846   3.316   1.616   6.494
 2649SOL    HW2 8847   3.321   1.738   6.603
 2650SOL     OW 8848   6.704   6.228   2.835
 2650SOL    HW1 8849   6.636   6.301   2.839
 2650SOL    HW2 8850   6.763   6.232   2.916
 2651SOL     OW 8851   6.747   1.184   2.204
 2651SOL    HW1 8852   6.650   1.193   2.182
 2651SOL    HW2 8853   6.779   1.092   2.179
 2652SOL     OW 8854   3.377   3.286   3.013
 2652SOL    HW1 8855   3.305   3.319   2.953
 2652SOL    HW2 8856   3.456   3.347   3.008
 2653SOL     OW 8857   6.774   6.605   6.155
 2653SOL    HW1 8858   6.850   6.596   6.090
 2653SOL    HW2 8859   6.689   6.575   6.110
 2654SOL     OW 8860   5.116   2.490   5.596
 2654SOL    HW1 8861   5.061   2.406   5.608
 2654SOL    HW2 8862   5.149   2.520   5.686
 2655SOL     OW 8863   4.763   6.184   4.493
 2655SOL    HW1 8864   4.713   6.146   4.414
 2655SOL    HW2 8865   4.739   6.281   4.502
 2656SOL     OW 8866   5.415   3.766   3.559
 2656SOL    HW1 8867   5.453   3.834   3.495
 2656SOL    HW2 8868   5.378   3.813   3.639
 2657SOL     OW 8869   1.820   3.780   6.805
 2657SOL    HW1 8870   1.774   3.697   6.837
 2657SOL    HW2 8871   1.861   3.827   6.883
 2658SOL     OW 8872   6.499   4.313   5.690
 2658SOL    HW1 8873   6.410   4.294   5.730
 2658SOL    HW2 8874   6.530   4.404   5.720
 2659SOL     OW 8875   6.945   2.312   4.461
 2659SOL    HW1 8876   6.983   2.352   4.545
 2659SOL    HW2 8877   6.983   2.359   4.382
 2660SOL     OW 8878   5.981   2.350   2.616
 2660SOL    HW1 8879   5.922   2.348   2.696
 2660SOL    HW2 8880   5.998   2.257   2.584
 2661SOL     OW 8881   3.670   6.062   0.977
 2661SOL    HW1 8882   3.739   5.990   0.971
 2661SOL    HW2 8883   3.581   6.020   0.999
 2662SOL     OW 8884   4.065   6.660   4.602
 2662SOL    HW1 8885   3.968   6.680   4.616
 2662SOL    HW2 8886   4.074   6.577   4.546
 2663SOL     OW 8887   2.021   4.414   2.199
 2663SOL    HW1 8888   2.087   4.458   2.259
 2663SOL    HW2 8889   2.040   4.316   2.193
 2664SOL     OW 8890   3.881   3.423   2.650
 2664SOL    HW1 8891   3.819   3.447   2.575
 2664SOL    HW2 8892   3.975   3.428   2.618
 2665SOL     OW 8893   3.503   1.181   4.818
 2665SOL    HW1 8894   3.415   1.157   4.859
 2665SOL    HW2 8895   3.512   1.135   4.730
 2666SOL     OW 8896   5.441   4.279   0.838
 2666SOL    HW1 8897   5.423   4.277   0.936
 2666SOL    HW2 8898   5.528   4.326   0.821
 2667SOL     OW 8899   2.472   5.707   4.705
 2667SOL    HW1 8900   2.551   5.749   4.661
 2667SOL    HW2 8901   2.496   5.679   4.798
 2668SOL     OW 8902   6.981   3.181   5.417
 2668SOL    HW1 8903   6.959   3.211   5.510
 2668SOL    HW2 8904   6.928   3.100   5.394
 2669SOL     OW 8905   4.355   4.820   5.412
 2669SOL    HW1 8906   4.274   4.762   5.420
 2669SOL    HW2 8907   4.408   4.814   5.497
 2670SOL     OW 8908   0.939   1.454   0.123
 2670SOL    HW1 8909   1.033   1.477   0.148
 2670SOL    HW2 8910   0.882   1.452   0.206
 2671SOL     OW 8911   2.389   3.439   6.019
 2671SOL    HW1 8912   2.432   3.419   5.931
 2671SOL    HW2 8913   2.448   3.501   6.071
 2672SOL     OW 8914   1.844   5.681   0.598
 2672SOL    HW1 8915   1.844   5.739   0.516
 2672SOL    HW2 8916   1.786   5.722   0.668
 2673SOL     OW 8917   4.012   2.086   3.189
 2673SOL    HW1 8918   3.991   1.994   3.156
 2673SOL    HW2 8919   3.932   2.123   3.237
 2674SOL     OW 8920   6.868   4.889   4.947
 2674SOL    HW1 8921   6.851   4.941   5.031
 2674SOL    HW2 8922   6.946   4.930   4.898
 2675SOL     OW 8923   0.335   4.628   5.969
 2675SOL    HW1 8924   0.285   4.555   6.016
 2675SOL    HW2 8925   0.379   4.590   5.887
 2676SOL     OW 8926   4.707   1.816   1.596
 2676SOL    HW1 8927   4.681   1.722   1.574
 2676SOL    HW2 8928   4.735   1.821   1.692
 2677SOL     OW 8929   2.186   4.659   1.465
 2677SOL    HW1 8930   2.241   4.724   1.518
 2677SOL    HW2 8931   2.146   4.591   1.526
 2678SOL     OW 8932   0.865   5.078   6.599
 2678SOL    HW1 8933   0.939   5.109   6.539
 2678SOL    HW2 8934   0.782   5.063   6.546
 2679SOL     OW 8935   3.096   5.257   0.853
 2679SOL    HW1 8936   3.119   5.347   0.815
 2679SOL    HW2 8937   3.011   5.264   0.904
 2680SOL     OW 8938   2.101   1.229   1.429
 2680SOL    HW1 8939   2.012   1.194   1.458
 2680SOL    HW2 8940   2.171   1.198   1.493
 2681SOL     OW 8941   1.356   2.824   3.170
 2681SOL    HW1 8942   1.319   2.741   3.129
 2681SOL    HW2 8943   1.288   2.865   3.230
 2682SOL     OW 8944   5.438   2.989   2.611
 2682SOL    HW1 8945   5.477   2.995   2.519
 2682SOL    HW2 8946   5.359   3.051   2.618
 2683SOL     OW 8947   0.924   5.771   1.053
 2683SOL    HW1 8948   0.875   5.693   1.092
 2683SOL    HW2 8949   0.984   5.740   0.980
 2684SOL     OW 8950   2.444   6.400   3.236
 2684SOL    HW1 8951   2.477   6.409   3.142
 2684SOL    HW2 8952   2.352   6.439   3.242
 2685SOL     OW 8953   4.859   6.259   5.140
 2685SOL    HW1 8954   4.959   6.257   5.144
 2685SOL    HW2 8955   4.830   6.338   5.086
 2686SOL     OW 8956   2.146   2.991   4.003
 2686SOL    HW1 8957   2.167   3.034   3.915
 2686SOL    HW2 8958   2.079   2.918   3.990
 2687SOL     OW 8959   3.740   5.358   2.176
 2687SOL    HW1 8960   3.692   5.364   2.264
 2687SOL    HW2 8961   3.673   5.360   2.102
 2688SOL     OW 8962   4.491   4.729   6.416
 2688SOL    HW1 8963   4.541   4.741   6.330
 2688SOL    HW2 8964   4.555   4.711   6.490
 2689SOL     OW 8965   0.501   2.667   3.830
 2689SOL    HW1 8966   0.420   2.615   3.805
 2689SOL    HW2 8967   0.497   2.758   3.789
 2690SOL     OW 8968   4.148   3.551   3.755
 2690SOL    HW1 8969   4.206   3.475   3.727
 2690SOL    HW2 8970   4.053   3.531   3.731
 2691SOL     OW 8971   1.666   5.789   2.041
 2691SOL    HW1 8972   1.733   5.799   2.115
 2691SOL    HW2 8973   1.685   5.857   1.970
 2692SOL     OW 8974   6.968   6.523   3.269
 2692SOL    HW1 8975   6.877   6.552   3.240
 2692SOL    HW2 8976   6.997   6.445   3.214
 2693SOL     OW 8977   2.018   3.746   3.436
 2693SOL    HW1 8978   2.080   3.797   3.377
 2693SOL    HW2 8979   2.052   3.653   3.448
 2694SOL     OW 8980   1.806   6.769   3.470
 2694SOL    HW1 8981   1.707   6.774   3.484
 2694SOL    HW2 8982   1.849   6.854   3.500
 2695SOL     OW 8983   4.444   2.381   2.769
 2695SOL    HW1 8984   4.419   2.391   2.673
 2695SOL    HW2 8985   4.362   2.386   2.825
 2696SOL     OW 8986   3.805   3.944   5.436
 2696SOL    HW1 8987   3.713   3.980   5.451
 2696SOL    HW2 8988   3.872   4.016   5.453
 2697SOL     OW 8989   3.359   1.711   4.217
 2697SOL    HW1 8990   3.291   1.652   4.173
 2697SOL    HW2 8991   3.317   1.799   4.240
 2698SOL     OW 8992   1.382   4.258   0.597
 2698SOL    HW1 8993   1.369   4.351   0.564
 2698SOL    HW2 8994   1.449   4.257   0.671
 2699SOL     OW 8995   3.659   6.129   1.342
 2699SOL    HW1 8996   3.747   6.093   1.312
 2699SOL    HW2 8997   3.642   6.217   1.298
 2700SOL     OW 8998   1.585   3.407   2.804
 2700SOL    HW1 8999   1.493   3.422   2.769
 2700SOL    HW2 9000   1.630   3.335   2.752
 2701SOL     OW 9001   3.534   0.253   6.710
 2701SOL    HW1 9002   3.561   0.320   6.780
 2701SOL    HW2 9003   3.616   0.207   6.675
 2702SOL     OW 9004   0.047   1.163   3.769
 2702SOL    HW1 9005   0.070   1.191   3.862
 2702SOL    HW2 9006   6.964   1.146   3.763
 2703SOL     OW 9007   1.883   1.995   2.557
 2703SOL    HW1 9008   1.809   1.928   2.557
 2703SOL    HW2 9009   1.908   2.017   2.463
 2704SOL     OW 9010   2.591   5.178   1.427
 2704SOL    HW1 9011   2.543   5.093   1.406
 2704SOL    HW2 9012   2.590   5.237   1.346
 2705SOL     OW 9013   6.494   5.634   3.245
 2705SOL    HW1 9014   6.550   5.717   3.244
 2705SOL    HW2 9015   6.443   5.630   3.331
 2706SOL     OW 9016   6.339   1.465   1.836
 2706SOL    HW1 9017   6.427   1.491   1.875
 2706SOL    HW2 9018   6.281   1.546   1.827
 2707SOL     OW 9019   1.932   1.687   6.413
 2707SOL    HW1 9020   1.873   1.646   6.343
 2707SOL    HW2 9021   1.924   1.786   6.409
 2708SOL     OW 9022   1.366   2.569   1.645
 2708SOL    HW1 9023   1.326   2.484   1.678
 2708SOL    HW2 9024   1.293   2.630   1.612
 2709SOL     OW 9025   5.074   5.568   1.187
 2709SOL    HW1 9026   5.118   5.658   1.190
 2709SOL    HW2 9027   5.112   5.515   1.112
 2710SOL     OW 9028   7.011   3.940   2.453
 2710SOL    HW1 9029   6.992   3.894   2.366
 2710SOL    HW2 9030   6.932   3.931   2.513
 2711SOL     OW 9031   0.927   0.338   2.014
 2711SOL    HW1 9032   1.013   0.338   1.964
 2711SOL    HW2 9033   0.936   0.283   2.097
 2712SOL     OW 9034   2.579   4.565   0.688
 2712SOL    HW1 9035   2.636   4.554   0.770
 2712SOL    HW2 9036   2.602   4.494   0.622
 2713SOL     OW 9037   2.359   3.173   5.340
 2713SOL    HW1 9038   2.404   3.091   5.304
 2713SOL    HW2 9039   2.262   3.156   5.351
 2714SOL     OW 9040   4.898   0.506   6.111
 2714SOL    HW1 9041   4.881   0.436   6.041
 2714SOL    HW2 9042   4.928   0.591   6.066
 2715SOL     OW 9043   6.039   1.269   6.794
 2715SOL    HW1 9044   6.118   1.324   6.765
 2715SOL    HW2 9045   6.070   1.176   6.814
 2716SOL     OW 9046   0.479   5.820   2.307
 2716SOL    HW1 9047   0.381   5.818   2.290
 2716SOL    HW2 9048   0.502   5.898   2.366
 2717SOL     OW 9049   0.809   0.200   2.947
 2717SOL    HW1 9050   0.730   0.172   2.893
 2717SOL    HW2 9051   0.806   0.155   3.036
 2718SOL     OW 9052   1.967   4.311   4.167
 2718SOL    HW1 9053   2.043   4.257   4.131
 2718SOL    HW2 9054   1.902   4.250   4.212
 2719SOL     OW 9055   4.169   5.356   1.919
 2719SOL    HW1 9056   4.159   5.310   2.007
 2719SOL    HW2 9057   4.265   5.357   1.892
 2720SOL     OW 9058   1.607   0.051   3.955
 2720SOL    HW1 9059   1.637   0.001   4.037
 2720SOL    HW2 9060   1.562   0.136   3.983
 2721SOL     OW 9061   3.504   7.013   4.043
 2721SOL    HW1 9062   3.584   6.963   4.077
 2721SOL    HW2 9063   3.466   0.053   4.117
 2722SOL     OW 9064   1.142   6.044   2.701
 2722SOL    HW1 9065   1.088   6.011   2.623
 2722SOL    HW2 9066   1.126   6.142   2.712
 2723SOL     OW 9067   1.857   1.129   5.738
 2723SOL    HW1 9068   1.880   1.032   5.750
 2723SOL    HW2 9069   1.850   1.172   5.827
 2724SOL     OW 9070   4.014   5.664   6.295
 2724SOL    HW1 9071   4.082   5.644   6.365
 2724SOL    HW2 9072   3.927   5.688   6.339
 2725SOL     OW 9073   4.257   4.713   4.152
 2725SOL    HW1 9074   4.158   4.713   4.165
 2725SOL    HW2 9075   4.278   4.700   4.055
 2726SOL     OW 9076   5.069   5.693   2.436
 2726SOL    HW1 9077   5.161   5.723   2.463
 2726SOL    HW2 9078   5.050   5.723   2.342
 2727SOL     OW 9079   1.310   5.246   2.703
 2727SOL    HW1 9080   1.231   5.295   2.739
 2727SOL    HW2 9081   1.291   5.148   2.702
 2728SOL     OW 9082   2.328   6.560   5.356
 2728SOL    HW1 9083   2.322   6.471   5.401
 2728SOL    HW2 9084   2.423   6.579   5.330
 2729SOL     OW 9085   5.721   4.965   2.910
 2729SOL    HW1 9086   5.719   4.979   3.009
 2729SOL    HW2 9087   5.811   4.928   2.883
 2730SOL     OW 9088   1.899   0.289   1.101
 2730SOL    HW1 9089   1.998   0.287   1.089
 2730SOL    HW2 9090   1.872   0.214   1.162
 2731SOL     OW 9091   2.900   3.767   1.847
 2731SOL    HW1 9092   2.952   3.835   1.900
 2731SOL    HW2 9093   2.956   3.686   1.833
 2732SOL     OW 9094   5.554   2.262   2.599
 2732SOL    HW1 9095   5.621   2.192   2.623
 2732SOL    HW2 9096   5.462   2.222   2.599
 2733SOL     OW 9097   1.003   6.909   5.711
 2733SOL    HW1 9098   0.973   6.814   5.704
 2733SOL    HW2 9099   1.058   6.921   5.794
 2734SOL     OW 9100   1.841   6.243   4.175
 2734SOL    HW1 9101   1.881   6.330   4.202
 2734SOL    HW2 9102   1.850   6.177   4.250
 2735SOL     OW 9103   1.759   4.897   2.421
 2735SOL    HW1 9104   1.736   4.964   2.491
 2735SOL    HW2 9105   1.835   4.840   2.453
 2736SOL     OW 9106   4.034   0.486   4.861
 2736SOL    HW1 9107   4.098   0.523   4.928
 2736SOL    HW2 9108   3.952   0.453   4.907
 2737SOL     OW 9109   4.766   3.814   6.087
 2737SOL    HW1 9110   4.699   3.885   6.109
 2737SOL    HW2 9111   4.775   3.752   6.165
 2738SOL     OW 9112   5.737   5.054   4.732
 2738SOL    HW1 9113   5.712   5.085   4.641
 2738SOL    HW2 9114   5.831   5.080   4.752
 2739SOL     OW 9115   5.229   3.367   1.130
 2739SOL    HW1 9116   5.183   3.427   1.196
 2739SOL    HW2 9117   5.178   3.282   1.120
 2740SOL     OW 9118   5.793   2.588   3.480
 2740SOL    HW1 9119   5.713   2.588   3.420
 2740SOL    HW2 9120   5.764   2.565   3.573
 2741SOL     OW 9121   0.605   2.311   5.655
 2741SOL    HW1 9122   0.607   2.270   5.747
 2741SOL    HW2 9123   0.544   2.390   5.656
 2742SOL     OW 9124   1.828   6.692   6.776
 2742SOL    HW1 9125   1.884   6.775   6.776
 2742SOL    HW2 9126   1.810   6.664   6.682
 2743SOL     OW 9127   5.063   4.738   1.238
 2743SOL    HW1 9128   5.086   4.835   1.253
 2743SOL    HW2 9129   4.963   4.727   1.238
 2744SOL     OW 9130   3.941   2.421   6.056
 2744SOL    HW1 9131   4.007   2.383   5.992
 2744SOL    HW2 9132   3.921   2.354   6.127
 2745SOL     OW 9133   2.541   6.019   1.157
 2745SOL    HW1 9134   2.569   5.926   1.180
 2745SOL    HW2 9135   2.621   6.072   1.128
 2746SOL     OW 9136   2.039   2.112   6.035
 2746SOL    HW1 9137   2.117   2.134   5.976
 2746SOL    HW2 9138   1.956   2.109   5.980
 2747SOL     OW 9139   5.386   6.766   4.035
 2747SOL    HW1 9140   5.359   6.863   4.032
 2747SOL    HW2 9141   5.370   6.730   4.127
 2748SOL     OW 9142   3.702   1.410   2.846
 2748SOL    HW1 9143   3.699   1.316   2.811
 2748SOL    HW2 9144   3.789   1.453   2.820
 2749SOL     OW 9145   4.524   4.937   4.035
 2749SOL    HW1 9146   4.438   4.939   4.086
 2749SOL    HW2 9147   4.534   5.022   3.983
 2750SOL     OW 9148   0.636   5.921   2.648
 2750SOL    HW1 9149   0.560   5.862   2.675
 2750SOL    HW2 9150   0.663   5.978   2.725
 2751SOL     OW 9151   1.846   0.182   6.793
 2751SOL    HW1 9152   1.746   0.179   6.802
 2751SOL    HW2 9153   1.885   0.218   6.877
 2752SOL     OW 9154   5.779   6.180   5.504
 2752SOL    HW1 9155   5.761   6.155   5.599
 2752SOL    HW2 9156   5.875   6.207   5.495
 2753SOL     OW 9157   3.677   5.762   6.227
 2753SOL    HW1 9158   3.702   5.671   6.195
 2753SOL    HW2 9159   3.749   5.797   6.287
 2754SOL     OW 9160   0.422   0.906   4.689
 2754SOL    HW1 9161   0.455   0.999   4.675
 2754SOL    HW2 9162   0.332   0.909   4.731
 2755SOL     OW 9163   2.762   6.612   2.046
 2755SOL    HW1 9164   2.784   6.515   2.038
 2755SOL    HW2 9165   2.700   6.626   2.124
 2756SOL     OW 9166   0.046   2.926   5.748
 2756SOL    HW1 9167   0.121   2.861   5.737
 2756SOL    HW2 9168   6.977   2.887   5.711
 2757SOL     OW 9169   4.495   3.076   6.686
 2757SOL    HW1 9170   4.507   3.118   6.776
 2757SOL    HW2 9171   4.398   3.074   6.662
 2758SOL     OW 9172   5.934   5.973   2.322
 2758SOL    HW1 9173   5.920   6.049   2.386
 2758SOL    HW2 9174   5.998   6.000   2.251
 2759SOL     OW 9175   3.336   4.370   6.344
 2759SOL    HW1 9176   3.380   4.440   6.287
 2759SOL    HW2 9177   3.293   4.301   6.285
 2760SOL     OW 9178   5.273   6.099   3.447
 2760SOL    HW1 9179   5.187   6.151   3.450
 2760SOL    HW2 9180   5.332   6.127   3.523
 2761SOL     OW 9181   1.975   3.286   2.783
 2761SOL    HW1 9182   1.892   3.238   2.812
 2761SOL    HW2 9183   2.007   3.345   2.857
 2762SOL     OW 9184   2.545   2.241   0.847
 2762SOL    HW1 9185   2.474   2.172   0.856
 2762SOL    HW2 9186   2.611   2.212   0.777
 2763SOL     OW 9187   4.884   1.797   5.080
 2763SOL    HW1 9188   4.971   1.759   5.113
 2763SOL    HW2 9189   4.902   1.857   5.001
 2764SOL     OW 9190   1.071   3.896   2.106
 2764SOL    HW1 9191   1.132   3.964   2.066
 2764SOL    HW2 9192   0.978   3.931   2.106
 2765SOL     OW 9193   0.119   6.612   6.501
 2765SOL    HW1 9194   0.191   6.580   6.440
 2765SOL    HW2 9195   0.122   6.712   6.507
 2766SOL     OW 9196   5.599   1.137   6.698
 2766SOL    HW1 9197   5.640   1.194   6.769
 2766SOL    HW2 9198   5.566   1.194   6.624
 2767SOL     OW 9199   6.823   4.894   6.338
 2767SOL    HW1 9200   6.724   4.903   6.347
 2767SOL    HW2 9201   6.845   4.843   6.255
 2768SOL     OW 9202   4.690   0.279   0.902
 2768SOL    HW1 9203   4.680   0.242   0.810
 2768SOL    HW2 9204   4.604   0.269   0.951
 2769SOL     OW 9205   1.416   4.182   5.546
 2769SOL    HW1 9206   1.467   4.245   5.604
 2769SOL    HW2 9207   1.457   4.091   5.553
 2770SOL     OW 9208   2.793   6.329   0.882
 2770SOL    HW1 9209   2.809   6.360   0.788
 2770SOL    HW2 9210   2.747   6.240   0.880
 2771SOL     OW 9211   4.479   0.314   4.493
 2771SOL    HW1 9212   4.440   0.354   4.411
 2771SOL    HW2 9213   4.451   0.367   4.573
 2772SOL     OW 9214   3.731   0.226   3.304
 2772SOL    HW1 9215   3.755   0.309   3.354
 2772SOL    HW2 9216   3.726   0.149   3.367
 2773SOL     OW 9217   5.924   2.732   4.185
 2773SOL    HW1 9218   5.929   2.745   4.086
 2773SOL    HW2 9219   5.989   2.661   4.212
 2774SOL     OW 9220   5.153   1.468   3.927
 2774SOL    HW1 9221   5.062   1.505   3.946
 2774SOL    HW2 9222   5.216   1.542   3.905
 2775SOL     OW 9223   0.530   4.327   4.366
 2775SOL    HW1 9224   0.583   4.258   4.416
 2775SOL    HW2 9225   0.589   4.372   4.299
 2776SOL     OW 9226   4.945   4.100   5.826
 2776SOL    HW1 9227   4.877   4.168   5.797
 2776SOL    HW2 9228   5.032   4.146   5.846
 2777SOL     OW 9229   3.162   2.048   6.216
 2777SOL    HW1 9230   3.241   2.003   6.258
 2777SOL    HW2 9231   3.168   2.147   6.232
 2778SOL     OW 9232   2.921   6.396   6.230
 2778SOL    HW1 9233   2.975   6.388   6.146
 2778SOL    HW2 9234   2.879   6.487   6.234
 2779SOL     OW 9235   6.003   0.016   1.230
 2779SOL    HW1 9236   6.093   6.989   1.245
 2779SOL    HW2 9237   6.002   0.060   1.140
 2780SOL     OW 9238   0.638   1.762   5.327
 2780SOL    HW1 9239   0.628   1.847   5.275
 2780SOL    HW2 9240   0.547   1.728   5.352
 2781SOL     OW 9241   6.157   0.603   2.909
 2781SOL    HW1 9242   6.103   0.645   2.982
 2781SOL    HW2 9243   6.230   0.666   2.882
 2782SOL     OW 9244   4.548   0.797   6.597
 2782SOL    HW1 9245   4.579   0.703   6.601
 2782SOL    HW2 9246   4.454   0.803   6.630
 2783SOL     OW 9247   5.713   3.944   1.561
 2783SOL    HW1 9248   5.648   3.877   1.597
 2783SOL    HW2 9249   5.704   4.029   1.613
 2784SOL     OW 9250   1.613   1.527   1.150
 2784SOL    HW1 9251   1.680   1.601   1.143
 2784SOL    HW2 9252   1.655   1.448   1.195
 2785SOL     OW 9253   5.579   2.743   1.539
 2785SOL    HW1 9254   5.628   2.753   1.625
 2785SOL    HW2 9255   5.522   2.824   1.524
 2786SOL     OW 9256   0.016   6.643   0.062
 2786SOL    HW1 9257   6.964   6.716   0.075
 2786SOL    HW2 9258   0.047   6.611   0.152
 2787SOL     OW 9259   6.428   4.981   6.336
 2787SOL    HW1 9260   6.330   5.003   6.337
 2787SOL    HW2 9261   6.444   4.898   6.389
 2788SOL     OW 9262   3.138   6.372   5.636
 2788SOL    HW1 9263   3.119   6.468   5.656
 2788SOL    HW2 9264   3.095   6.315   5.706
 2789SOL     OW 9265   0.846   2.371   5.127
 2789SOL    HW1 9266   0.865   2.363   5.224
 2789SOL    HW2 9267   0.747   2.376   5.113
 2790SOL     OW 9268   1.653   5.680   1.733
 2790SOL    HW1 9269   1.579   5.626   1.772
 2790SOL    HW2 9270   1.726   5.619   1.701
 2791SOL     OW 9271   0.176   3.688   3.048
 2791SOL    HW1 9272   0.110   3.714   2.978
 2791SOL    HW2 9273   0.251   3.754   3.052
 2792SOL     OW 9274   3.247   1.517   5.490
 2792SOL    HW1 9275   3.286   1.434   5.450
 2792SOL    HW2 9276   3.151   1.524   5.463
 2793SOL     OW 9277   3.326   4.229   0.953
 2793SOL    HW1 9278   3.261   4.293   0.995
 2793SOL    HW2 9279   3.295   4.136   0.967
 2794SOL     OW 9280   0.892   2.643   6.502
 2794SOL    HW1 9281   0.900   2.694   6.417
 2794SOL    HW2 9282   0.800   2.655   6.539
 2795SOL     OW 9283   0.829   4.903   1.234
 2795SOL    HW1 9284   0.844   4.986   1.181
 2795SOL    HW2 9285   0.874   4.911   1.323
 2796SOL     OW 9286   1.502   6.193   6.014
 2796SOL    HW1 9287   1.502   6.210   5.916
 2796SOL    HW2 9288   1.441   6.117   6.036
 2797SOL     OW 9289   5.718   6.941   3.496
 2797SOL    HW1 9290   5.627   6.963   3.461
 2797SOL    HW2 9291   5.786   6.993   3.445
 2798SOL     OW 9292   5.848   0.327   1.970
 2798SOL    HW1 9293   5.848   0.426   1.958
 2798SOL    HW2 9294   5.777   0.301   2.035
 2799SOL     OW 9295   3.558   5.785   5.582
 2799SOL    HW1 9296   3.479   5.766   5.524
 2799SOL    HW2 9297   3.635   5.728   5.552
 2800SOL     OW 9298   5.840   6.876   6.420
 2800SOL    HW1 9299   5.896   6.952   6.390
 2800SOL    HW2 9300   5.830   6.809   6.346
 2801SOL     OW 9301   0.603   4.952   5.405
 2801SOL    HW1 9302   0.589   4.936   5.502
 2801SOL    HW2 9303   0.517   4.936   5.355
 2802SOL     OW 9304   7.007   5.481   5.678
 2802SOL    HW1 9305   6.952   5.404   5.710
 2802SOL    HW2 9306   6.947   5.557   5.651
 2803SOL     OW 9307   3.971   2.529   6.910
 2803SOL    HW1 9308   3.874   2.519   6.933
 2803SOL    HW2 9309   4.017   2.441   6.918
 2804SOL     OW 9310   0.425   2.735   4.087
 2804SOL    HW1 9311   0.431   2.717   3.988
 2804SOL    HW2 9312   0.385   2.826   4.101
 2805SOL     OW 9313   4.757   3.389   1.404
 2805SOL    HW1 9314   4.685   3.447   1.443
 2805SOL    HW2 9315   4.798   3.334   1.477
 2806SOL     OW 9316   0.119   3.873   5.874
 2806SOL    HW1 9317   0.137   3.778   5.848
 2806SOL    HW2 9318   0.205   3.917   5.899
 2807SOL     OW 9319   3.464   0.303   3.618
 2807SOL    HW1 9320   3.460   0.231   3.548
 2807SOL    HW2 9321   3.377   0.307   3.666
 2808SOL     OW 9322   6.636   5.049   6.746
 2808SOL    HW1 9323   6.629   5.081   6.652
 2808SOL    HW2 9324   6.705   4.976   6.751
 2809SOL     OW 9325   6.696   4.908   2.011
 2809SOL    HW1 9326   6.760   4.861   2.071
 2809SOL    HW2 9327   6.616   4.850   1.994
 2810SOL     OW 9328   2.611   5.419   2.964
 2810SOL    HW1 9329   2.513   5.405   2.975
 2810SOL    HW2 9330   2.643   5.369   2.884
 2811SOL     OW 9331   0.615   0.449   1.857
 2811SOL    HW1 9332   0.670   0.375   1.820
 2811SOL    HW2 9333   0.539   0.469   1.794
 2812SOL     OW 9334   0.589   2.707   1.299
 2812SOL    HW1 9335   0.641   2.626   1.271
 2812SOL    HW2 9336   0.524   2.731   1.227
 2813SOL     OW 9337   0.691   2.284   1.768
 2813SOL    HW1 9338   0.771   2.255   1.820
 2813SOL    HW2 9339   0.609   2.240   1.806
 2814SOL     OW 9340   2.285   4.329   0.119
 2814SOL    HW1 9341   2.361   4.334   0.183
 2814SOL    HW2 9342   2.317   4.288   0.033
 2815SOL     OW 9343   0.494   5.280   5.443
 2815SOL    HW1 9344   0.432   5.278   5.365
 2815SOL    HW2 9345   0.477   5.199   5.501
 2816SOL     OW 9346   0.647   5.878   6.354
 2816SOL    HW1 9347   0.652   5.871   6.254
 2816SOL    HW2 9348   0.581   5.812   6.389
 2817SOL     OW 9349   4.464   0.824   1.882
 2817SOL    HW1 9350   4.407   0.744   1.865
 2817SOL    HW2 9351   4.482   0.833   1.980
 2818SOL     OW 9352   1.339   0.488   0.874
 2818SOL    HW1 9353   1.371   0.564   0.818
 2818SOL    HW2 9354   1.258   0.447   0.832
 2819SOL     OW 9355   0.822   0.808   0.406
 2819SOL    HW1 9356   0.898   0.832   0.467
 2819SOL    HW2 9357   0.834   0.853   0.318
 2820SOL     OW 9358   0.830   2.519   1.289
 2820SOL    HW1 9359   0.925   2.536   1.315
 2820SOL    HW2 9360   0.822   2.431   1.243
 2821SOL     OW 9361   3.114   3.685   6.203
 2821SOL    HW1 9362   3.124   3.612   6.136
 2821SOL    HW2 9363   3.080   3.648   6.289
 2822SOL     OW 9364   4.685   2.418   1.038
 2822SOL    HW1 9365   4.654   2.327   1.068
 2822SOL    HW2 9366   4.773   2.409   0.991
 2823SOL     OW 9367   5.981   2.048   1.241
 2823SOL    HW1 9368   5.916   1.987   1.195
 2823SOL    HW2 9369   6.046   1.993   1.295
 2824SOL     OW 9370   1.342   3.950   4.975
 2824SOL    HW1 9371   1.323   3.883   5.046
 2824SOL    HW2 9372   1.306   3.917   4.888
 2825SOL     OW 9373   4.968   1.591   6.402
 2825SOL    HW1 9374   4.947   1.649   6.323
 2825SOL    HW2 9375   4.961   1.645   6.486
 2826SOL     OW 9376   2.215   2.928   6.988
 2826SOL    HW1 9377   2.162   2.873   0.036
 2826SOL    HW2 9378   2.280   2.985   0.023
 2827SOL     OW 9379   6.496   0.459   6.053
 2827SOL    HW1 9380   6.431   0.481   5.980
 2827SOL    HW2 9381   6.447   0.430   6.135
 2828SOL     OW 9382   1.557   3.641   0.351
 2828SOL    HW1 9383   1.647   3.673   0.381
 2828SOL    HW2 9384   1.551   3.645   0.251
 2829SOL     OW 9385   3.361   4.140   3.137
 2829SOL    HW1 9386   3.410   4.165   3.054
 2829SOL    HW2 9387   3.425   4.095   3.201
 2830SOL     OW 9388   2.950   4.878   5.492
 2830SOL    HW1 9389   3.024   4.825   5.534
 2830SOL    HW2 9390   2.862   4.848   5.527
 2831SOL     OW 9391   6.053   1.577   1.780
 2831SOL    HW1 9392   6.129   1.625   1.825
 2831SOL    HW2 9393   5.973   1.577   1.840
 2832SOL     OW 9394   0.711   3.721   1.191
 2832SOL    HW1 9395   0.778   3.699   1.262
 2832SOL    HW2 9396   0.633   3.659   1.198
 2833SOL     OW 9397   1.954   2.327   2.004
 2833SOL    HW1 9398   1.908   2.375   2.079
 2833SOL    HW2 9399   1.910   2.239   1.988
 2834SOL     OW 9400   3.020   6.179   5.805
 2834SOL    HW1 9401   2.976   6.109   5.861
 2834SOL    HW2 9402   3.089   6.136   5.746
 2835SOL     OW 9403   0.189   6.889   0.495
 2835SOL    HW1 9404   0.094   6.911   0.519
 2835SOL    HW2 9405   0.207   6.920   0.402
 2836SOL     OW 9406   3.641   6.112   2.791
 2836SOL    HW1 9407   3.680   6.166   2.716
 2836SOL    HW2 9408   3.707   6.042   2.820
 2837SOL     OW 9409   4.899   4.421   2.159
 2837SOL    HW1 9410   4.808   4.449   2.187
 2837SOL    HW2 9411   4.903   4.322   2.152
 2838SOL     OW 9412   5.171   4.322   5.702
 2838SOL    HW1 9413   5.210   4.332   5.794
 2838SOL    HW2 9414   5.211   4.243   5.657
 2839SOL     OW 9415   5.654   2.974   5.023
 2839SOL    HW1 9416   5.596   2.893   5.031
 2839SOL    HW2 9417   5.750   2.948   5.030
 2840SOL     OW 9418   0.032   6.430   4.151
 2840SOL    HW1 9419   6.996   6.367   4.092
 2840SOL    HW2 9420   0.129   6.426   4.128
 2841SOL     OW 9421   6.399   3.107   2.066
 2841SOL    HW1 9422   6.331   3.100   1.993
 2841SOL    HW2 9423   6.378   3.187   2.123
 2842SOL     OW 9424   1.301   0.093   2.796
 2842SOL    HW1 9425   1.394   0.129   2.787
 2842SOL    HW2 9426   1.247   0.153   2.855
 2843SOL     OW 9427   2.212   2.707   3.281
 2843SOL    HW1 9428   2.133   2.682   3.338
 2843SOL    HW2 9429   2.244   2.626   3.231
 2844SOL     OW 9430   4.980   4.482   0.555
 2844SOL    HW1 9431   4.980   4.474   0.456
 2844SOL    HW2 9432   5.050   4.421   0.594
 2845SOL     OW 9433   3.338   1.914   3.175
 2845SOL    HW1 9434   3.271   1.846   3.146
 2845SOL    HW2 9435   3.425   1.896   3.130
 2846SOL     OW 9436   5.753   0.291   0.277
 2846SOL    HW1 9437   5.733   0.379   0.235
 2846SOL    HW2 9438   5.774   0.224   0.205
 2847SOL     OW 9439   4.320   5.126   2.338
 2847SOL    HW1 9440   4.411   5.140   2.298
 2847SOL    HW2 9441   4.305   5.029   2.353
 2848SOL     OW 9442   0.632   3.833   5.560
 2848SOL    HW1 9443   0.720   3.857   5.600
 2848SOL    HW2 9444   0.602   3.744   5.595
 2849SOL     OW 9445   5.047   0.462   2.458
 2849SOL    HW1 9446   4.994   0.494   2.536
 2849SOL    HW2 9447   5.102   0.382   2.485
 2850SOL     OW 9448   1.884   6.742   2.822
 2850SOL    HW1 9449   1.823   6.681   2.872
 2850SOL    HW2 9450   1.857   6.744   2.725
 2851SOL     OW 9451   4.073   3.281   0.355
 2851SOL    HW1 9452   4.015   3.299   0.434
 2851SOL    HW2 9453   4.156   3.234   0.385
 2852SOL     OW 9454   6.059   4.281   6.075
 2852SOL    HW1 9455   6.063   4.360   6.137
 2852SOL    HW2 9456   6.131   4.216   6.099
 2853SOL     OW 9457   0.311   3.635   6.789
 2853SOL    HW1 9458   0.379   3.569   6.760
 2853SOL    HW2 9459   0.306   3.636   6.889
 2854SOL     OW 9460   3.639   1.573   5.874
 2854SOL    HW1 9461   3.588   1.624   5.804
 2854SOL    HW2 9462   3.717   1.628   5.905
 2855SOL     OW 9463   2.045   1.203   5.562
 2855SOL    HW1 9464   2.029   1.165   5.471
 2855SOL    HW2 9465   1.972   1.173   5.624
 2856SOL     OW 9466   1.404   5.287   3.254
 2856SOL    HW1 9467   1.450   5.283   3.343
 2856SOL    HW2 9468   1.333   5.217   3.250
 2857SOL     OW 9469   0.337   3.632   0.300
 2857SOL    HW1 9470   0.351   3.535   0.280
 2857SOL    HW2 9471   0.283   3.642   0.383
 2858SOL     OW 9472   4.609   5.153   2.973
 2858SOL    HW1 9473   4.525   5.141   3.026
 2858SOL    HW2 9474   4.678   5.197   3.029
 2859SOL     OW 9475   4.998   4.447   0.931
 2859SOL    HW1 9476   5.004   4.495   1.018
 2859SOL    HW2 9477   4.933   4.494   0.871
 2860SOL     OW 9478   0.348   6.779   2.045
 2860SOL    HW1 9479   0.382   6.761   1.952
 2860SOL    HW2 9480   0.419   6.754   2.111
 2861SOL     OW 9481   4.455   5.477   6.725
 2861SOL    HW1 9482   4.541   5.520   6.755
 2861SOL    HW2 9483   4.388   5.482   6.798
 2862SOL     OW 9484   4.272   2.700   0.519
 2862SOL    HW1 9485   4.303   2.657   0.604
 2862SOL    HW2 9486   4.281   2.799   0.527
 2863SOL     OW 9487   5.380   6.794   5.587
 2863SOL    HW1 9488   5.452   6.830   5.527
 2863SOL    HW2 9489   5.348   6.866   5.648
 2864SOL     OW 9490   3.708   3.914   0.172
 2864SOL    HW1 9491   3.722   3.840   0.237
 2864SOL    HW2 9492   3.610   3.934   0.164
 2865SOL     OW 9493   5.163   5.841   4.278
 2865SOL    HW1 9494   5.184   5.938   4.262
 2865SOL    HW2 9495   5.069   5.833   4.310
 2866SOL     OW 9496   4.567   4.722   6.985
 2866SOL    HW1 9497   4.469   4.742   6.994
 2866SOL    HW2 9498   4.583   4.626   7.011
 2867SOL     OW 9499   5.257   6.187   1.865
 2867SOL    HW1 9500   5.213   6.098   1.849
 2867SOL    HW2 9501   5.303   6.186   1.953
 2868SOL     OW 9502   1.012   1.800   5.942
 2868SOL    HW1 9503   0.955   1.877   5.971
 2868SOL    HW2 9504   1.023   1.736   6.018
 2869SOL     OW 9505   5.682   5.572   4.601
 2869SOL    HW1 9506   5.626   5.539   4.525
 2869SOL    HW2 9507   5.717   5.493   4.653
 2870SOL     OW 9508   6.582   1.761   1.335
 2870SOL    HW1 9509   6.659   1.708   1.299
 2870SOL    HW2 9510   6.615   1.849   1.369
 2871SOL     OW 9511   5.410   1.633   1.326
 2871SOL    HW1 9512   5.438   1.606   1.235
 2871SOL    HW2 9513   5.402   1.733   1.330
 2872SOL     OW 9514   2.711   2.307   2.271
 2872SOL    HW1 9515   2.742   2.221   2.312
 2872SOL    HW2 9516   2.770   2.331   2.194
 2873SOL     OW 9517   1.025   6.017   0.888
 2873SOL    HW1 9518   1.114   5.974   0.876
 2873SOL    HW2 9519   0.996   6.008   0.983
 2874SOL     OW 9520   2.584   0.569   2.875
 2874SOL    HW1 9521   2.485   0.586   2.878
 2874SOL    HW2 9522   2.610   0.537   2.784
 2875SOL     OW 9523   2.977   6.816   2.944
 2875SOL    HW1 9524   2.888   6.770   2.940
 2875SOL    HW2 9525   2.963   6.915   2.947
 2876SOL     OW 9526   1.271   6.296   1.919
 2876SOL    HW1 9527   1.201   6.360   1.887
 2876SOL    HW2 9528   1.244   6.203   1.896
 2877SOL     OW 9529   1.247   2.006   6.360
 2877SOL    HW1 9530   1.246   2.067   6.281
 2877SOL    HW2 9531   1.341   1.987   6.386
 2878SOL     OW 9532   3.851   3.653   4.031
 2878SOL    HW1 9533   3.797   3.655   3.947
 2878SOL    HW2 9534   3.891   3.743   4.047
 2879SOL     OW 9535   4.340   3.915   0.389
 2879SOL    HW1 9536   4.409   3.941   0.322
 2879SOL    HW2 9537   4.385   3.886   0.473
 2880SOL     OW 9538   1.801   1.631   4.280
 2880SOL    HW1 9539   1.807   1.620   4.181
 2880SOL    HW2 9540   1.813   1.543   4.325
 2881SOL     OW 9541   4.652   6.638   6.545
 2881SOL    HW1 9542   4.606   6.727   6.540
 2881SOL    HW2 9543   4.647   6.603   6.639
 2882SOL     OW 9544   4.605   6.337   0.492
 2882SOL    HW1 9545   4.629   6.276   0.567
 2882SOL    HW2 9546   4.566   6.284   0.416
 2883SOL     OW 9547   6.280   6.092   3.756
 2883SOL    HW1 9548   6.232   6.005   3.766
 2883SOL    HW2 9549   6.288   6.137   3.845
 2884SOL     OW 9550   6.624   5.096   3.311
 2884SOL    HW1 9551   6.607   5.030   3.238
 2884SOL    HW2 9552   6.721   5.099   3.332
 2885SOL     OW 9553   1.037   2.878   2.875
 2885SOL    HW1 9554   0.995   2.968   2.888
 2885SOL    HW2 9555   0.969   2.807   2.893
 2886SOL     OW 9556   2.088   4.592   6.302
 2886SOL    HW1 9557   2.045   4.682   6.304
 2886SOL    HW2 9558   2.057   4.538   6.381
 2887SOL     OW 9559   1.006   5.245   3.610
 2887SOL    HW1 9560   0.963   5.328   3.646
 2887SOL    HW2 9561   1.018   5.254   3.511
 2888SOL     OW 9562   6.466   6.899   0.296
 2888SOL    HW1 9563   6.412   6.843   0.359
 2888SOL    HW2 9564   6.563   6.886   0.314
 2889SOL     OW 9565   3.270   6.589   3.120
 2889SOL    HW1 9566   3.351   6.547   3.079
 2889SOL    HW2 9567   3.288   6.687   3.136
 2890SOL     OW 9568   3.024   0.421   1.473
 2890SOL    HW1 9569   3.113   0.385   1.444
 2890SOL    HW2 9570   2.951   0.364   1.436
 2891SOL     OW 9571   0.452   1.889   4.274
 2891SOL    HW1 9572   0.487   1.861   4.184
 2891SOL    HW2 9573   0.456   1.988   4.282
 2892SOL     OW 9574   6.778   4.287   2.602
 2892SOL    HW1 9575   6.747   4.373   2.643
 2892SOL    HW2 9576   6.850   4.247   2.659
 2893SOL     OW 9577   6.576   5.353   4.254
 2893SOL    HW1 9578   6.557   5.449   4.236
 2893SOL    HW2 9579   6.561   5.333   4.351
 2894SOL     OW 9580   1.698   5.324   2.641
 2894SOL    HW1 9581   1.615   5.379   2.631
 2894SOL    HW2 9582   1.675   5.227   2.632
 2895SOL     OW 9583   4.254   6.838   6.375
 2895SOL    HW1 9584   4.269   6.775   6.451
 2895SOL    HW2 9585   4.285   6.930   6.400
 2896SOL     OW 9586   5.166   6.341   4.928
 2896SOL    HW1 9587   5.208   6.252   4.907
 2896SOL    HW2 9588   5.086   6.354   4.869
 2897SOL     OW 9589   3.900   4.926   3.441
 2897SOL    HW1 9590   3.929   4.866   3.366
 2897SOL    HW2 9591   3.950   4.902   3.524
 2898SOL     OW 9592   5.444   3.828   2.895
 2898SOL    HW1 9593   5.381   3.875   2.833
 2898SOL    HW2 9594   5.397   3.808   2.981
 2899SOL     OW 9595   0.008   3.659   1.244
 2899SOL    HW1 9596   0.033   3.625   1.335
 2899SOL    HW2 9597   0.041   3.753   1.234
 2900SOL     OW 9598   2.548   3.614   6.193
 2900SOL    HW1 9599   2.589   3.703   6.174
 2900SOL    HW2 9600   2.593   3.574   6.273
 2901SOL     OW 9601   1.078   4.048   3.872
 2901SOL    HW1 9602   1.171   4.064   3.906
 2901SOL    HW2 9603   1.073   4.073   3.775
 2902SOL     OW 9604   0.363   6.157   3.615
 2902SOL    HW1 9605   0.312   6.240   3.597
 2902SOL    HW2 9606   0.377   6.147   3.714
 2903SOL     OW 9607   4.552   5.591   0.561
 2903SOL    HW1 9608   4.623   5.627   0.500
 2903SOL    HW2 9609   4.489   5.665   0.586
 2904SOL     OW 9610   2.498   4.144   5.314
 2904SOL    HW1 9611   2.581   4.088   5.322
 2904SOL    HW2 9612   2.426   4.091   5.269
 2905SOL     OW 9613   0.529   5.142   1.807
 2905SOL    HW1 9614   0.560   5.185   1.892
 2905SOL    HW2 9615   0.592   5.166   1.733
 2906SOL     OW 9616   5.933   6.432   2.358
 2906SOL    HW1 9617   5.870   6.501   2.392
 2906SOL    HW2 9618   5.885   6.344   2.349
 2907SOL     OW 9619   0.304   0.899   4.027
 2907SOL    HW1 9620   0.363   0.949   3.964
 2907SOL    HW2 9621   0.341   0.807   4.041
 2908SOL     OW 9622   4.554   6.623   2.408
 2908SOL    HW1 9623   4.616   6.624   2.330
 2908SOL    HW2 9624   4.602   6.588   2.488
 2909SOL     OW 9625   1.028   5.849   2.478
 2909SOL    HW1 9626   0.934   5.814   2.473
 2909SOL    HW2 9627   1.091   5.773   2.494
 2910SOL     OW 9628   6.717   0.697   4.150
 2910SOL    HW1 9629   6.628   0.653   4.149
 2910SOL    HW2 9630   6.713   0.782   4.097
 2911SOL     OW 9631   6.581   4.393   4.817
 2911SOL    HW1 9632   6.571   4.459   4.891
 2911SOL    HW2 9633   6.609   4.305   4.854
 2912SOL     OW 9634   0.481   0.013   1.819
 2912SOL    HW1 9635   0.518   0.036   1.909
 2912SOL    HW2 9636   0.531   0.064   1.749
 2913SOL     OW 9637   2.790   6.420   1.483
 2913SOL    HW1 9638   2.786   6.327   1.445
 2913SOL    HW2 9639   2.839   6.480   1.420
 2914SOL     OW 9640   4.852   5.488   0.517
 2914SOL    HW1 9641   4.929   5.468   0.456
 2914SOL    HW2 9642   4.845   5.417   0.587
 2915SOL     OW 9643   2.565   0.229   2.733
 2915SOL    HW1 9644   2.606   0.212   2.822
 2915SOL    HW2 9645   2.572   0.147   2.676
 2916SOL     OW 9646   1.307   5.984   0.207
 2916SOL    HW1 9647   1.350   6.018   0.290
 2916SOL    HW2 9648   1.229   5.926   0.232
 2917SOL     OW 9649   2.443   6.313   4.491
 2917SOL    HW1 9650   2.431   6.226   4.538
 2917SOL    HW2 9651   2.536   6.348   4.507
 2918SOL     OW 9652   5.696   2.924   1.995
 2918SOL    HW1 9653   5.780   2.978   1.997
 2918SOL    HW2 9654   5.618   2.984   1.978
 2919SOL     OW 9655   1.370   5.466   4.171
 2919SOL    HW1 9656   1.374   5.501   4.264
 2919SOL    HW2 9657   1.331   5.373   4.172
 2920SOL     OW 9658   1.366   2.215   2.662
 2920SOL    HW1 9659   1.283   2.238   2.712
 2920SOL    HW2 9660   1.383   2.285   2.593
 2921SOL     OW 9661   1.107   0.443   4.685
 2921SOL    HW1 9662   1.009   0.447   4.665
 2921SOL    HW2 9663   1.143   0.536   4.690
 2922SOL     OW 9664   3.691   0.421   3.509
 2922SOL    HW1 9665   3.624   0.368   3.562
 2922SOL    HW2 9666   3.780   0.416   3.554
 2923SOL     OW 9667   6.172   5.841   4.777
 2923SOL    HW1 9668   6.073   5.831   4.767
 2923SOL    HW2 9669   6.217   5.816   4.692
 2924SOL     OW 9670   5.777   2.802   5.306
 2924SOL    HW1 9671   5.837   2.811   5.385
 2924SOL    HW2 9672   5.698   2.862   5.317
 2925SOL     OW 9673   5.006   0.097   6.095
 2925SOL    HW1 9674   5.069   0.094   6.018
 2925SOL    HW2 9675   5.022   0.179   6.149
 2926SOL     OW 9676   7.003   1.965   4.663
 2926SOL    HW1 9677   0.005   1.867   4.672
 2926SOL    HW2 9678   0.012   1.995   4.571
 2927SOL     OW 9679   0.911   2.223   1.900
 2927SOL    HW1 9680   0.884   2.196   1.993
 2927SOL    HW2 9681   0.950   2.315   1.903
 2928SOL     OW 9682   6.945   3.005   0.056
 2928SOL    HW1 9683   7.010   2.964   0.121
 2928SOL    HW2 9684   6.852   2.997   0.094
 2929SOL     OW 9685   2.585   2.515   5.005
 2929SOL    HW1 9686   2.643   2.547   5.080
 2929SOL    HW2 9687   2.620   2.552   4.919
 2930SOL     OW 9688   6.672   4.664   5.144
 2930SOL    HW1 9689   6.710   4.676   5.052
 2930SOL    HW2 9690   6.691   4.746   5.198
 2931SOL     OW 9691   5.276   4.646   5.341
 2931SOL    HW1 9692   5.232   4.565   5.302
 2931SOL    HW2 9693   5.371   4.626   5.362
 2932SOL     OW 9694   6.570   5.214   0.611
 2932SOL    HW1 9695   6.537   5.228   0.705
 2932SOL    HW2 9696   6.643   5.280   0.592
 2933SOL     OW 9697   1.647   0.459   1.331
 2933SOL    HW1 9698   1.620   0.407   1.412
 2933SOL    HW2 9699   1.567   0.476   1.274
 2934SOL     OW 9700   4.300   5.003   0.453
 2934SOL    HW1 9701   4.240   5.017   0.375
 2934SOL    HW2 9702   4.300   4.907   0.480
 2935SOL     OW 9703   0.339   2.377   6.004
 2935SOL    HW1 9704   0.285   2.296   6.026
 2935SOL    HW2 9705   0.429   2.371   6.049
 2936SOL     OW 9706   4.254   6.038   0.576
 2936SOL    HW1 9707   4.300   6.125   0.593
 2936SOL    HW2 9708   4.176   6.029   0.637
 2937SOL     OW 9709   4.541   4.887   2.409
 2937SOL    HW1 9710   4.557   4.903   2.311
 2937SOL    HW2 9711   4.591   4.955   2.462
 2938SOL     OW 9712   6.159   5.936   0.042
 2938SOL    HW1 9713   6.165   5.914   0.140
 2938SOL    HW2 9714   6.211   6.019   0.023
 2939SOL     OW 9715   0.011   5.680   1.578
 2939SOL    HW1 9716   0.073   5.649   1.650
 2939SOL    HW2 9717   0.036   5.773   1.551
 2940SOL     OW 9718   4.825   6.734   3.510
 2940SOL    HW1 9719   4.842   6.830   3.492
 2940SOL    HW2 9720   4.751   6.725   3.576
 2941SOL     OW 9721   1.552   3.978   3.468
 2941SOL    HW1 9722   1.509   4.035   3.538
 2941SOL    HW2 9723   1.605   3.906   3.512
 2942SOL     OW 9724   3.782   1.778   1.626
 2942SOL    HW1 9725   3.834   1.808   1.546
 2942SOL    HW2 9726   3.699   1.834   1.634
 2943SOL     OW 9727   5.856   4.114   3.304
 2943SOL    HW1 9728   5.909   4.076   3.228
 2943SOL    HW2 9729   5.914   4.121   3.385
 2944SOL     OW 9730   1.655   5.594   3.063
 2944SOL    HW1 9731   1.592   5.558   3.132
 2944SOL    HW2 9732   1.716   5.661   3.105
 2945SOL     OW 9733   5.209   4.521   1.376
 2945SOL    HW1 9734   5.214   4.610   1.332
 2945SOL    HW2 9735   5.173   4.531   1.469
 2946SOL     OW 9736   3.198   3.689   5.701
 2946SOL    HW1 9737   3.254   3.759   5.658
 2946SOL    HW2 9738   3.114   3.676   5.649
 2947SOL     OW 9739   5.910   6.506   0.818
 2947SOL    HW1 9740   5.956   6.438   0.876
 2947SOL    HW2 9741   5.814   6.513   0.846
 2948SOL     OW 9742   6.363   3.983   2.399
 2948SOL    HW1 9743   6.292   4.053   2.411
 2948SOL    HW2 9744   6.351   3.912   2.469
 2949SOL     OW 9745   1.278   7.008   0.936
 2949SOL    HW1 9746   1.191   7.015   0.888
 2949SOL    HW2 9747   1.296   6.912   0.959
 2950SOL     OW 9748   5.554   4.362   3.044
 2950SOL    HW1 9749   5.589   4.443   2.997
 2950SOL    HW2 9750   5.586   4.279   2.996
 2951SOL     OW 9751   6.521   1.354   1.622
 2951SOL    HW1 9752   6.460   1.411   1.677
 2951SOL    HW2 9753   6.526   1.263   1.662
 2952SOL     OW 9754   5.697   1.498   4.061
 2952SOL    HW1 9755   5.648   1.449   4.134
 2952SOL    HW2 9756   5.630   1.538   3.998
 2953SOL     OW 9757   0.887   5.490   4.110
 2953SOL    HW1 9758   0.905   5.588   4.114
 2953SOL    HW2 9759   0.947   5.442   4.173
 2954SOL     OW 9760   6.755   4.606   6.137
 2954SOL    HW1 9761   6.695   4.680   6.106
 2954SOL    HW2 9762   6.847   4.622   6.103
 2955SOL     OW 9763   2.395   4.994   6.546
 2955SOL    HW1 9764   2.350   4.908   6.571
 2955SOL    HW2 9765   2.328   5.055   6.505
 2956SOL     OW 9766   6.120   4.342   3.600
 2956SOL    HW1 9767   6.042   4.403   3.585
 2956SOL    HW2 9768   6.202   4.396   3.615
 2957SOL     OW 9769   2.771   4.832   1.177
 2957SOL    HW1 9770   2.806   4.739   1.168
 2957SOL    HW2 9771   2.776   4.861   1.273
 2958SOL     OW 9772   2.479   5.313   2.088
 2958SOL    HW1 9773   2.444   5.369   2.012
 2958SOL    HW2 9774   2.416   5.318   2.165
 2959SOL     OW 9775   6.982   3.027   2.956
 2959SOL    HW1 9776   0.050   3.012   3.008
 2959SOL    HW2 9777   6.977   2.961   2.881
 2960SOL     OW 9778   4.690   0.690   0.040
 2960SOL    HW1 9779   4.710   0.782   0.006
 2960SOL    HW2 9780   4.772   0.633   0.029
 2961SOL     OW 9781   5.593   4.171   2.367
 2961SOL    HW1 9782   5.512   4.117   2.345
 2961SOL    HW2 9783   5.665   4.154   2.299
 2962SOL     OW 9784   0.199   0.101   2.631
 2962SOL    HW1 9785   0.297   0.086   2.621
 2962SOL    HW2 9786   0.155   0.015   2.659
 2963SOL     OW 9787   1.856   1.105   4.644
 2963SOL    HW1 9788   1.939   1.114   4.589
 2963SOL    HW2 9789   1.860   1.168   4.721
 2964SOL     OW 9790   1.085   1.967   0.172
 2964SOL    HW1 9791   1.156   1.982   0.241
 2964SOL    HW2 9792   1.120   1.904   0.102
 2965SOL     OW 9793   0.991   0.256   4.888
 2965SOL    HW1 9794   1.013   0.165   4.853
 2965SOL    HW2 9795   0.936   0.305   4.821
 2966SOL     OW 9796   3.387   6.024   3.039
 2966SOL    HW1 9797   3.378   5.997   2.944
 2966SOL    HW2 9798   3.337   5.960   3.097
 2967SOL     OW 9799   5.668   0.086   5.281
 2967SOL    HW1 9800   5.701   0.003   5.325
 2967SOL    HW2 9801   5.594   0.125   5.336
 2968SOL     OW 9802   1.892   2.760   1.292
 2968SOL    HW1 9803   1.969   2.824   1.291
 2968SOL    HW2 9804   1.852   2.758   1.384
 2969SOL     OW 9805   5.120   3.227   4.545
 2969SOL    HW1 9806   5.049   3.242   4.614
 2969SOL    HW2 9807   5.201   3.188   4.590
 2970SOL     OW 9808   2.487   2.259   4.387
 2970SOL    HW1 9809   2.577   2.296   4.363
 2970SOL    HW2 9810   2.416   2.323   4.359
 2971SOL     OW 9811   5.416   2.761   6.166
 2971SOL    HW1 9812   5.463   2.808   6.241
 2971SOL    HW2 9813   5.436   2.663   6.169
 2972SOL     OW 9814   5.822   5.142   7.011
 2972SOL    HW1 9815   5.795   5.077   6.938
 2972SOL    HW2 9816   5.778   5.115   0.081
 2973SOL     OW 9817   4.647   1.372   2.330
 2973SOL    HW1 9818   4.575   1.441   2.338
 2973SOL    HW2 9819   4.607   1.285   2.301
 2974SOL     OW 9820   4.806   6.378   3.126
 2974SOL    HW1 9821   4.816   6.288   3.084
 2974SOL    HW2 9822   4.717   6.384   3.171
 2975SOL     OW 9823   4.751   4.044   3.931
 2975SOL    HW1 9824   4.803   4.059   3.847
 2975SOL    HW2 9825   4.766   3.951   3.964
 2976SOL     OW 9826   4.223   2.182   2.069
 2976SOL    HW1 9827   4.126   2.202   2.079
 2976SOL    HW2 9828   4.269   2.260   2.027
 2977SOL     OW 9829   1.289   1.014   1.443
 2977SOL    HW1 9830   1.372   0.983   1.489
 2977SOL    HW2 9831   1.257   0.943   1.381
 2978SOL     OW 9832   4.523   5.110   6.367
 2978SOL    HW1 9833   4.557   5.086   6.276
 2978SOL    HW2 9834   4.524   5.209   6.378
 2979SOL     OW 9835   3.254   0.736   4.200
 2979SOL    HW1 9836   3.330   0.799   4.183
 2979SOL    HW2 9837   3.286   0.662   4.259
 2980SOL     OW 9838   3.732   3.333   5.892
 2980SOL    HW1 9839   3.657   3.359   5.832
 2980SOL    HW2 9840   3.726   3.385   5.977
 2981SOL     OW 9841   1.516   0.894   1.225
 2981SOL    HW1 9842   1.427   0.874   1.185
 2981SOL    HW2 9843   1.579   0.819   1.205
 2982SOL     OW 9844   0.492   0.224   1.582
 2982SOL    HW1 9845   0.492   0.234   1.483
 2982SOL    HW2 9846   0.422   0.284   1.622
 2983SOL     OW 9847   6.259   2.950   5.762
 2983SOL    HW1 9848   6.247   2.884   5.688
 2983SOL    HW2 9849   6.208   3.034   5.740
 2984SOL     OW 9850   0.378   4.773   0.751
 2984SOL    HW1 9851   0.311   4.700   0.760
 2984SOL    HW2 9852   0.347   4.840   0.683
 2985SOL     OW 9853   6.944   6.635   5.284
 2985SOL    HW1 9854   6.860   6.615   5.234
 2985SOL    HW2 9855   7.011   6.563   5.264
 2986SOL     OW 9856   3.966   3.723   2.428
 2986SOL    HW1 9857   3.998   3.725   2.522
 2986SOL    HW2 9858   3.875   3.682   2.424
 2987SOL     OW 9859   1.845   0.505   4.504
 2987SOL    HW1 9860   1.768   0.567   4.491
 2987SOL    HW2 9861   1.810   0.413   4.523
 2988SOL     OW 9862   0.340   1.466   6.770
 2988SOL    HW1 9863   0.428   1.510   6.788
 2988SOL    HW2 9864   0.301   1.502   6.685
 2989SOL     OW 9865   5.208   3.474   4.131
 2989SOL    HW1 9866   5.271   3.536   4.083
 2989SOL    HW2 9867   5.114   3.493   4.102
 2990SOL     OW 9868   5.023   1.450   4.233
 2990SOL    HW1 9869   5.103   1.498   4.196
 2990SOL    HW2 9870   4.983   1.505   4.306
 2991SOL     OW 9871   6.757   4.189   1.235
 2991SOL    HW1 9872   6.715   4.244   1.162
 2991SOL    HW2 9873   6.696   4.188   1.315
 2992SOL     OW 9874   0.300   3.583   5.384
 2992SOL    HW1 9875   0.334   3.674   5.359
 2992SOL    HW2 9876   0.357   3.544   5.456
 2993SOL     OW 9877   1.133   4.374   0.183
 2993SOL    HW1 9878   1.063   4.426   0.135
 2993SOL    HW2 9879   1.097   4.343   0.271
 2994SOL     OW 9880   4.270   6.617   6.551
 2994SOL    HW1 9881   4.273   6.679   6.629
 2994SOL    HW2 9882   4.227   6.531   6.579
 2995SOL     OW 9883   5.406   0.604   1.298
 2995SOL    HW1 9884   5.449   0.677   1.351
 2995SOL    HW2 9885   5.470   0.526   1.290
 2996SOL     OW 9886   0.142   1.400   4.942
 2996SOL    HW1 9887   0.123   1.312   4.899
 2996SOL    HW2 9888   0.220   1.443   4.896
 2997SOL     OW 9889   5.017   0.467   3.670
 2997SOL    HW1 9890   4.959   0.528   3.617
 2997SOL    HW2 9891   5.090   0.431   3.612
 2998SOL     OW 9892   2.699   1.691   2.861
 2998SOL    HW1 9893   2.609   1.655   2.886
 2998SOL    HW2 9894   2.689   1.786   2.830
 2999SOL     OW 9895   2.306   4.509   0.542
 2999SOL    HW1 9896   2.245   4.442   0.584
 2999SOL    HW2 9897   2.365   4.548   0.612
 3000SOL     OW 9898   3.151   3.964   4.887
 3000SOL    HW1 9899   3.234   3.908   4.891
 3000SOL    HW2 9900   3.074   3.911   4.923
 3001SOL     OW 9901   5.964   0.401   5.816
 3001SOL    HW1 9902   5.870   0.418   5.847
 3001SOL    HW2 9903   5.965   0.394   5.717
 3002SOL     OW 9904   1.915   2.121   1.737
 3002SOL    HW1 9905   1.997   2.138   1.682
 3002SOL    HW2 9906   1.931   2.041   1.795
 3003SOL     OW 9907   1.623   6.556   0.211
 3003SOL    HW1 9908   1.665   6.480   0.161
 3003SOL    HW2 9909   1.586   6.623   0.146
 3004SOL     OW 9910   2.211   6.549   3.645
 3004SOL    HW1 9911   2.117   6.555   3.614
 3004SOL    HW2 9912   2.237   6.634   3.690
 3005SOL     OW 9913   1.004   2.290   5.760
 3005SOL    HW1 9914   0.927   2.353   5.770
 3005SOL    HW2 9915   1.001   2.248   5.669
 3006SOL     OW 9916   5.040   1.516   5.635
 3006SOL    HW1 9917   5.104   1.469   5.574
 3006SOL    HW2 9918   4.973   1.567   5.581
 3007SOL     OW 9919   5.445   5.176   0.024
 3007SOL    HW1 9920   5.482   5.197   6.949
 3007SOL    HW2 9921   5.439   5.261   0.077
 3008SOL     OW 9922   5.176   2.631   5.885
 3008SOL    HW1 9923   5.143   2.576   5.962
 3008SOL    HW2 9924   5.108   2.702   5.864
 3009SOL     OW 9925   6.962   3.499   2.180
 3009SOL    HW1 9926   0.028   3.489   2.237
 3009SOL    HW2 9927   6.987   3.486   2.084
 3010SOL     OW 9928   3.850   5.843   6.431
 3010SOL    HW1 9929   3.944   5.824   6.460
 3010SOL    HW2 9930   3.810   5.914   6.489
 3011SOL     OW 9931   6.870   0.070   1.010
 3011SOL    HW1 9932   6.939   0.139   0.989
 3011SOL    HW2 9933   6.780   0.113   1.014
 3012SOL     OW 9934   2.304   2.559   5.553
 3012SOL    HW1 9935   2.338   2.578   5.645
 3012SOL    HW2 9936   2.376   2.513   5.500
 3013SOL     OW 9937   0.759   4.779   5.069
 3013SOL    HW1 9938   0.763   4.866   5.020
 3013SOL    HW2 9939   0.742   4.705   5.004
 3014SOL     OW 9940   5.100   7.007   5.717
 3014SOL    HW1 9941   5.003   0.011   5.698
 3014SOL    HW2 9942   5.134   0.056   5.786
 3015SOL     OW 9943   1.383   1.013   6.966
 3015SOL    HW1 9944   1.305   0.977   6.915
 3015SOL    HW2 9945   1.361   1.018   0.047
 3016SOL     OW 9946   1.483   6.726   4.294
 3016SOL    HW1 9947   1.493   6.636   4.336
 3016SOL    HW2 9948   1.573   6.768   4.283
 3017SOL     OW 9949   0.228   5.224   0.758
 3017SOL    HW1 9950   0.238   5.170   0.841
 3017SOL    HW2 9951   0.135   5.262   0.753
 3018SOL     OW 9952   3.344   0.027   0.502
 3018SOL    HW1 9953   3.411   6.985   0.454
 3018SOL    HW2 9954   3.391   0.104   0.544
 3019SOL     OW 9955   1.978   0.594   5.387
 3019SOL    HW1 9956   2.015   0.606   5.295
 3019SOL    HW2 9957   2.052   0.607   5.454
 3020SOL     OW 9958   5.896   3.682   0.137
 3020SOL    HW1 9959   5.875   3.690   0.040
 3020SOL    HW2 9960   5.955   3.757   0.166
 3021SOL     OW 9961   4.322   6.762   4.672
 3021SOL    HW1 9962   4.229   6.725   4.675
 3021SOL    HW2 9963   4.330   6.824   4.594
 3022SOL     OW 9964   3.811   5.906   3.836
 3022SOL    HW1 9965   3.858   5.918   3.749
 3022SOL    HW2 9966   3.854   5.830   3.886
 3023SOL     OW 9967   5.264   6.540   2.915
 3023SOL    HW1 9968   5.225   6.584   2.834
 3023SOL    HW2 9969   5.191   6.502   2.970
 3024SOL     OW 9970   6.969   6.470   6.654
 3024SOL    HW1 9971   7.000   6.514   6.739
 3024SOL    HW2 9972   0.013   6.499   6.578
 3025SOL     OW 9973   3.046   6.076   0.188
 3025SOL    HW1 9974   2.996   5.991   0.174
 3025SOL    HW2 9975   3.096   6.072   0.274
 3026SOL     OW 9976   6.480   1.046   0.782
 3026SOL    HW1 9977   6.391   1.004   0.764
 3026SOL    HW2 9978   6.550   1.000   0.728
 3027SOL     OW 9979   4.514   1.456   1.264
 3027SOL    HW1 9980   4.550   1.518   1.194
 3027SOL    HW2 9981   4.486   1.370   1.220
 3028SOL     OW 9982   3.230   3.937   5.493
 3028SOL    HW1 9983   3.299   3.912   5.425
 3028SOL    HW2 9984   3.182   4.020   5.462
 3029SOL     OW 9985   0.489   2.858   4.442
 3029SOL    HW1 9986   0.425   2.818   4.507
 3029SOL    HW2 9987   0.581   2.823   4.459
 3030SOL     OW 9988   2.629   3.153   1.114
 3030SOL    HW1 9989   2.686   3.131   1.034
 3030SOL    HW2 9990   2.670   3.112   1.195
 3031SOL     OW 9991   1.027   6.398   1.340
 3031SOL    HW1 9992   1.012   6.301   1.318
 3031SOL    HW2 9993   1.105   6.433   1.288
 3032SOL     OW 9994   1.852   0.473   2.579
 3032SOL    HW1 9995   1.813   0.381   2.569
 3032SOL    HW2 9996   1.797   0.525   2.644
 3033SOL     OW 9997   7.003   2.050   4.368
 3033SOL    HW1 9998   6.982   2.021   4.275
 3033SOL    HW2 9999   6.941   2.124   4.395
 3034SOL     OW10000   6.872   5.614   3.208
 3034SOL    HW110001   6.819   5.568   3.136
 3034SOL    HW210002   6.856   5.713   3.203
 3035SOL     OW10003   1.420   3.023   0.130
 3035SOL    HW110004   1.324   3.009   0.104
 3035SOL    HW210005   1.460   3.093   0.070
 3036SOL     OW10006   3.069   2.217   6.508
 3036SOL    HW110007   3.163   2.225   6.541
 3036SOL    HW210008   3.022   2.145   6.559
 3037SOL     OW10009   0.152   5.399   0.246
 3037SOL    HW110010   0.199   5.404   0.334
 3037SOL    HW210011   0.118   5.306   0.232
 3038SOL     OW10012   5.740   4.700   6.737
 3038SOL    HW110013   5.789   4.773   6.783
 3038SOL    HW210014   5.699   4.734   6.652
 3039SOL     OW10015   0.092   4.074   6.816
 3039SOL    HW110016   0.099   4.165   6.774
 3039SOL    HW210017   0.066   4.084   6.912
 3040SOL     OW10018   5.236   4.076   5.583
 3040SOL    HW110019   5.262   3.995   5.636
 3040SOL    HW210020   5.143   4.065   5.549
 3041SOL     OW10021   1.835   4.041   5.134
 3041SOL    HW110022   1.788   4.123   5.103
 3041SOL    HW210023   1.806   4.019   5.227
 3042SOL     OW10024   6.753   5.250   2.912
 3042SOL    HW110025   6.713   5.329   2.959
 3042SOL    HW210026   6.838   5.224   2.957
 3043SOL     OW10027   3.030   4.661   0.495
 3043SOL    HW110028   3.026   4.749   0.447
 3043SOL    HW210029   2.991   4.670   0.586
 3044SOL     OW10030   3.604   3.803   5.157
 3044SOL    HW110031   3.702   3.808   5.170
 3044SOL    HW210032   3.581   3.834   5.064
 3045SOL     OW10033   4.756   1.807   1.872
 3045SOL    HW110034   4.785   1.725   1.922
 3045SOL    HW210035   4.735   1.879   1.938
 3046SOL     OW10036   5.399   6.170   1.439
 3046SOL    HW110037   5.496   6.146   1.448
 3046SOL    HW210038   5.384   6.261   1.478
 3047SOL     OW10039   5.796   1.037   5.339
 3047SOL    HW110040   5.892   1.060   5.323
 3047SOL    HW210041   5.791   0.948   5.384
 3048SOL     OW10042   3.663   4.130   0.918
 3048SOL    HW110043   3.736   4.126   0.850
 3048SOL    HW210044   3.612   4.044   0.917
 3049SOL     OW10045   1.400   0.779   3.829
 3049SOL    HW110046   1.389   0.703   3.765
 3049SOL    HW210047   1.350   0.759   3.913
 3050SOL     OW10048   2.980   2.132   1.461
 3050SOL    HW110049   2.908   2.164   1.400
 3050SOL    HW210050   2.969   2.174   1.551
 3051SOL     OW10051   2.218   5.037   5.625
 3051SOL    HW110052   2.213   4.999   5.533
 3051SOL    HW210053   2.228   4.962   5.691
 3052SOL     OW10054   6.744   6.588   2.249
 3052SOL    HW110055   6.667   6.623   2.196
 3052SOL    HW210056   6.740   6.624   2.342
 3053SOL     OW10057   1.546   4.186   6.850
 3053SOL    HW110058   1.475   4.232   6.902
 3053SOL    HW210059   1.504   4.123   6.784
 3054SOL     OW10060   5.736   1.248   2.479
 3054SOL    HW110061   5.771   1.177   2.540
 3054SOL    HW210062   5.656   1.292   2.521
 3055SOL     OW10063   5.950   5.942   6.742
 3055SOL    HW110064   5.959   6.018   6.807
 3055SOL    HW210065   5.953   5.855   6.792
 3056SOL     OW10066   4.615   1.583   5.848
 3056SOL    HW110067   4.634   1.641   5.769
 3056SOL    HW210068   4.674   1.609   5.924
 3057SOL     OW10069   5.517   5.115   3.529
 3057SOL    HW110070   5.592   5.163   3.485
 3057SOL    HW210071   5.477   5.172   3.600
 3058SOL     OW10072   0.694   4.580   6.828
 3058SOL    HW110073   0.717   4.506   6.890
 3058SOL    HW210074   0.688   4.666   6.879
 3059SOL     OW10075   2.077   2.147   4.244
 3059SOL    HW110076   1.987   2.121   4.212
 3059SOL    HW210077   2.124   2.200   4.173
 3060SOL     OW10078   5.197   5.469   4.951
 3060SOL    HW110079   5.272   5.459   5.016
 3060SOL    HW210080   5.181   5.566   4.934
 3061SOL     OW10081   5.319   5.730   5.305
 3061SOL    HW110082   5.357   5.679   5.227
 3061SOL    HW210083   5.298   5.667   5.379
 3062SOL     OW10084   4.750   4.422   1.382
 3062SOL    HW110085   4.752   4.337   1.435
 3062SOL    HW210086   4.748   4.500   1.444
 3063SOL     OW10087   0.076   4.305   1.721
 3063SOL    HW110088   0.130   4.308   1.805
 3063SOL    HW210089   0.048   4.211   1.702
 3064SOL     OW10090   4.631   1.831   6.575
 3064SOL    HW110091   4.668   1.848   6.666
 3064SOL    HW210092   4.541   1.787   6.583
 3065SOL     OW10093   6.951   1.225   6.431
 3065SOL    HW110094   0.001   1.285   6.384
 3065SOL    HW210095   6.912   1.161   6.365
 3066SOL     OW10096   5.194   6.192   5.762
 3066SOL    HW110097   5.235   6.167   5.850
 3066SOL    HW210098   5.233   6.135   5.689
 3067SOL     OW10099   1.621   1.901   6.165
 3067SOL    HW110100   1.580   1.945   6.086
 3067SOL    HW210101   1.653   1.810   6.139
 3068SOL     OW10102   1.136   0.894   0.832
 3068SOL    HW110103   1.064   0.826   0.817
 3068SOL    HW210104   1.176   0.879   0.923
 3069SOL     OW10105   5.277   0.202   2.602
 3069SOL    HW110106   5.294   0.148   2.685
 3069SOL    HW210107   5.256   0.296   2.627
 3070SOL     OW10108   2.065   0.529   1.131
 3070SOL    HW110109   2.080   0.477   1.047
 3070SOL    HW210110   1.999   0.603   1.112
 3071SOL     OW10111   0.091   3.963   4.427
 3071SOL    HW110112   0.025   3.932   4.496
 3071SOL    HW210113   0.066   4.055   4.396
 3072SOL     OW10114   2.186   0.196   6.245
 3072SOL    HW110115   2.087   0.198   6.257
 3072SOL    HW210116   2.214   0.108   6.207
 3073SOL     OW10117   6.010   4.872   0.891
 3073SOL    HW110118   6.054   4.796   0.843
 3073SOL    HW210119   5.924   4.840   0.932
 3074SOL     OW10120   1.578   3.012   1.375
 3074SOL    HW110121   1.517   3.055   1.308
 3074SOL    HW210122   1.553   2.916   1.387
 3075SOL     OW10123   3.422   5.673   2.345
 3075SOL    HW110124   3.344   5.713   2.393
 3075SOL    HW210125   3.394   5.641   2.255
 3076SOL     OW10126   0.583   0.484   5.058
 3076SOL    HW110127   0.660   0.477   5.121
 3076SOL    HW210128   0.573   0.397   5.009
 3077SOL     OW10129   6.401   4.052   2.886
 3077SOL    HW110130   6.418   4.123   2.818
 3077SOL    HW210131   6.478   4.047   2.949
 3078SOL     OW10132   6.539   2.782   1.991
 3078SOL    HW110133   6.492   2.772   2.078
 3078SOL    HW210134   6.635   2.755   2.002
 3079SOL     OW10135   1.939   3.384   5.446
 3079SOL    HW110136   1.986   3.297   5.462
 3079SOL    HW210137   1.953   3.412   5.351
 3080SOL     OW10138   4.538   5.080   0.543
 3080SOL    HW110139   4.445   5.067   0.509
 3080SOL    HW210140   4.592   4.997   0.526
 3081SOL     OW10141   1.648   3.992   7.008
 3081SOL    HW110142   1.724   3.954   6.955
 3081SOL    HW210143   1.605   4.065   6.956
 3082SOL     OW10144   4.832   5.517   4.716
 3082SOL    HW110145   4.855   5.445   4.782
 3082SOL    HW210146   4.839   5.481   4.623
 3083SOL     OW10147   3.397   6.007   1.774
 3083SOL    HW110148   3.307   6.023   1.733
 3083SOL    HW210149   3.446   6.093   1.782
 3084SOL     OW10150   0.442   3.467   4.163
 3084SOL    HW110151   0.451   3.424   4.074
 3084SOL    HW210152   0.506   3.424   4.227
 3085SOL     OW10153   5.286   4.328   0.267
 3085SOL    HW110154   5.312   4.409   0.213
 3085SOL    HW210155   5.298   4.246   0.211
 3086SOL     OW10156   5.919   6.694   6.669
 3086SOL    HW110157   5.944   6.692   6.572
 3086SOL    HW210158   5.992   6.651   6.723
 3087SOL     OW10159   2.766   0.070   2.052
 3087SOL    HW110160   2.846   0.113   2.094
 3087SOL    HW210161   2.794   0.020   1.970
 3088SOL     OW10162   1.670   2.752   5.798
 3088SOL    HW110163   1.576   2.781   5.781
 3088SOL    HW210164   1.708   2.805   5.874
 3089SOL     OW10165   4.131   6.362   5.024
 3089SOL    HW110166   4.111   6.439   4.964
 3089SOL    HW210167   4.156   6.283   4.969
 3090SOL     OW10168   1.641   1.845   2.502
 3090SOL    HW110169   1.561   1.891   2.541
 3090SOL    HW210170   1.611   1.765   2.450
 3091SOL     OW10171   0.766   2.252   1.501
 3091SOL    HW110172   0.735   2.277   1.593
 3091SOL    HW210173   0.866   2.249   1.500
 3092SOL     OW10174   6.505   1.190   2.538
 3092SOL    HW110175   6.461   1.273   2.504
 3092SOL    HW210176   6.523   1.128   2.462
 3093SOL     OW10177   5.576   4.889   6.957
 3093SOL    HW110178   5.519   4.842   0.009
 3093SOL    HW210179   5.530   4.972   6.927
 3094SOL     OW10180   2.959   1.845   6.196
 3094SOL    HW110181   3.032   1.912   6.206
 3094SOL    HW210182   2.872   1.886   6.221
 3095SOL     OW10183   1.745   3.552   5.153
 3095SOL    HW110184   1.780   3.472   5.104
 3095SOL    HW210185   1.795   3.633   5.123
 3096SOL     OW10186   0.537   3.908   4.570
 3096SOL    HW110187   0.517   3.989   4.516
 3096SOL    HW210188   0.597   3.847   4.519
 3097SOL     OW10189   5.260   2.297   5.423
 3097SOL    HW110190   5.218   2.376   5.467
 3097SOL    HW210191   5.224   2.287   5.330
 3098SOL     OW10192   1.970   2.888   1.836
 3098SOL    HW110193   1.945   2.918   1.744
 3098SOL    HW210194   1.960   2.789   1.843
 3099SOL     OW10195   0.790   5.865   4.631
 3099SOL    HW110196   0.731   5.917   4.569
 3099SOL    HW210197   0.749   5.863   4.722
 3100SOL     OW10198   6.506   5.464   2.344
 3100SOL    HW110199   6.521   5.556   2.307
 3100SOL    HW210200   6.589   5.410   2.334
 3101SOL     OW10201   3.582   6.485   5.437
 3101SOL    HW110202   3.591   6.446   5.346
 3101SOL    HW210203   3.515   6.433   5.490
 3102SOL     OW10204   6.989   5.107   0.944
 3102SOL    HW110205   6.943   5.115   0.856
 3102SOL    HW210206   7.014   5.198   0.977
 3103SOL     OW10207   3.456   0.842   1.494
 3103SOL    HW110208   3.420   0.908   1.561
 3103SOL    HW210209   3.488   0.891   1.413
 3104SOL     OW10210   4.700   0.841   5.846
 3104SOL    HW110211   4.642   0.903   5.794
 3104SOL    HW210212   4.665   0.833   5.940
 3105SOL     OW10213   6.150   3.769   0.215
 3105SOL    HW110214   6.132   3.733   0.307
 3105SOL    HW210215   6.231   3.828   0.217
 3106SOL     OW10216   6.331   0.103   5.270
 3106SOL    HW110217   6.334   0.171   5.197
 3106SOL    HW210218   6.412   0.113   5.329
 3107SOL     OW10219   3.717   1.313   6.008
 3107SOL    HW110220   3.704   1.410   5.989
 3107SOL    HW210221   3.763   1.302   6.096
 3108SOL     OW10222   2.160   4.106   3.644
 3108SOL    HW110223   2.209   4.107   3.731
 3108SOL    HW210224   2.223   4.128   3.570
 3109SOL     OW10225   6.469   5.808   3.943
 3109SOL    HW110226   6.481   5.905   3.921
 3109SOL    HW210227   6.409   5.799   4.022
 3110SOL     OW10228   1.078   4.392   3.379
 3110SOL    HW110229   1.007   4.321   3.374
 3110SOL    HW210230   1.067   4.443   3.465
 3111SOL     OW10231   5.807   4.736   4.036
 3111SOL    HW110232   5.794   4.822   3.988
 3111SOL    HW210233   5.718   4.698   4.063
 3112SOL     OW10234   3.742   1.842   0.069
 3112SOL    HW110235   3.661   1.823   0.125
 3112SOL    HW210236   3.723   1.920   0.009
 3113SOL     OW10237   2.461   5.797   3.282
 3113SOL    HW110238   2.425   5.787   3.375
 3113SOL    HW210239   2.545   5.851   3.285
 3114SOL     OW10240   4.608   0.917   6.358
 3114SOL    HW110241   4.591   0.870   6.444
 3114SOL    HW210242   4.707   0.934   6.348
 3115SOL     OW10243   5.055   5.350   5.388
 3115SOL    HW110244   5.006   5.362   5.302
 3115SOL    HW210245   5.015   5.274   5.438
 3116SOL     OW10246   0.807   1.477   1.156
 3116SOL    HW110247   0.737   1.472   1.084
 3116SOL    HW210248   0.898   1.469   1.115
 3117SOL     OW10249   4.932   1.310   5.776
 3117SOL    HW110250   4.920   1.244   5.703
 3117SOL    HW210251   4.994   1.383   5.746
 3118SOL     OW10252   1.317   0.658   3.602
 3118SOL    HW110253   1.292   0.692   3.512
 3118SOL    HW210254   1.405   0.609   3.597
 3119SOL     OW10255   4.172   4.682   5.607
 3119SOL    HW110256   4.128   4.769   5.631
 3119SOL    HW210257   4.107   4.624   5.558
 3120SOL     OW10258   1.663   6.312   4.622
 3120SOL    HW110259   1.743   6.369   4.639
 3120SOL    HW210260   1.607   6.307   4.704
 3121SOL     OW10261   4.817   1.125   4.739
 3121SOL    HW110262   4.895   1.114   4.678
 3121SOL    HW210263   4.777   1.216   4.725
 3122SOL     OW10264   4.071   5.534   4.235
 3122SOL    HW110265   4.116   5.578   4.312
 3122SOL    HW210266   4.084   5.589   4.152
 3123SOL     OW10267   1.882   1.771   3.776
 3123SOL    HW110268   1.853   1.794   3.683
 3123SOL    HW210269   1.981   1.780   3.784
 3124SOL     OW10270   5.100   0.048   3.713
 3124SOL    HW110271   5.154   0.105   3.775
 3124SOL    HW210272   5.057   0.107   3.644
 3125SOL     OW10273   1.232   1.552   5.395
 3125SOL    HW110274   1.184   1.536   5.481
 3125SOL    HW210275   1.329   1.571   5.413
 3126SOL     OW10276   5.883   5.552   5.068
 3126SOL    HW110277   5.879   5.476   5.003
 3126SOL    HW210278   5.976   5.588   5.072
 3127SOL     OW10279   0.316   1.129   4.947
 3127SOL    HW110280   0.405   1.083   4.940
 3127SOL    HW210281   0.261   1.084   5.017
 3128SOL     OW10282   4.478   0.569   6.858
 3128SOL    HW110283   4.438   0.498   6.916
 3128SOL    HW210284   4.546   0.620   6.909
 3129SOL     OW10285   4.321   3.632   0.342
 3129SOL    HW110286   4.347   3.727   0.356
 3129SOL    HW210287   4.325   3.583   0.429
 3130SOL     OW10288   1.158   4.500   2.005
 3130SOL    HW110289   1.223   4.476   2.077
 3130SOL    HW210290   1.086   4.430   2.001
 3131SOL     OW10291   6.892   4.675   2.985
 3131SOL    HW110292   6.794   4.697   2.987
 3131SOL    HW210293   6.934   4.702   3.072
 3132SOL     OW10294   4.041   4.751   6.994
 3132SOL    HW110295   4.123   4.696   6.974
 3132SOL    HW210296   3.960   4.702   6.962
 3133SOL     OW10297   3.714   0.694   4.495
 3133SOL    HW110298   3.620   0.682   4.529
 3133SOL    HW210299   3.751   0.605   4.469
 3134SOL     OW10300   4.470   5.413   2.828
 3134SOL    HW110301   4.375   5.444   2.822
 3134SOL    HW210302   4.493   5.359   2.747
 3135SOL     OW10303   4.907   6.311   6.306
 3135SOL    HW110304   4.831   6.324   6.370
 3135SOL    HW210305   4.877   6.257   6.228
 3136SOL     OW10306   6.161   2.051   2.902
 3136SOL    HW110307   6.222   2.030   2.825
 3136SOL    HW210308   6.171   2.147   2.928
 3137SOL     OW10309   6.177   6.932   6.735
 3137SOL    HW110310   6.175   6.855   6.671
 3137SOL    HW210311   6.266   6.936   6.780
 3138SOL     OW10312   5.689   5.799   3.876
 3138SOL    HW110313   5.690   5.711   3.830
 3138SOL    HW210314   5.778   5.844   3.864
 3139SOL     OW10315   2.241   4.938   1.088
 3139SOL    HW110316   2.179   4.906   1.159
 3139SOL    HW210317   2.254   4.867   1.020
 3140SOL     OW10318   6.975   0.316   6.003
 3140SOL    HW110319   6.981   0.283   5.908
 3140SOL    HW210320   6.880   0.314   6.033
 3141SOL     OW10321   6.766   2.375   6.112
 3141SOL    HW110322   6.735   2.369   6.206
 3141SOL    HW210323   6.702   2.429   6.058
 3142SOL     OW10324   4.944   1.478   2.870
 3142SOL    HW110325   4.928   1.531   2.786
 3142SOL    HW210326   4.858   1.466   2.919
 3143SOL     OW10327   6.789   0.931   0.480
 3143SOL    HW110328   6.704   0.939   0.532
 3143SOL    HW210329   6.784   0.989   0.399
 3144SOL     OW10330   3.900   3.426   6.355
 3144SOL    HW110331   3.893   3.484   6.274
 3144SOL    HW210332   3.854   3.470   6.432
 3145SOL     OW10333   0.743   6.204   0.950
 3145SOL    HW110334   0.710   6.120   0.993
 3145SOL    HW210335   0.784   6.263   1.020
 3146SOL     OW10336   0.638   0.219   4.961
 3146SOL    HW110337   0.590   0.134   4.940
 3146SOL    HW210338   0.733   0.213   4.932
 3147SOL     OW10339   4.048   4.995   6.889
 3147SOL    HW110340   4.016   4.982   6.795
 3147SOL    HW210341   4.031   4.912   6.942
 3148SOL     OW10342   6.744   5.083   2.501
 3148SOL    HW110343   6.695   5.158   2.546
 3148SOL    HW210344   6.712   4.996   2.537
 3149SOL     OW10345   3.141   0.972   0.531
 3149SOL    HW110346   3.170   0.976   0.626
 3149SOL    HW210347   3.142   1.064   0.491
 3150SOL     OW10348   6.615   5.728   4.675
 3150SOL    HW110349   6.594   5.805   4.734
 3150SOL    HW210350   6.535   5.669   4.667
 3151SOL     OW10351   6.016   1.424   5.940
 3151SOL    HW110352   5.980   1.394   6.028
 3151SOL    HW210353   6.104   1.379   5.923
 3152SOL     OW10354   0.959   2.967   5.932
 3152SOL    HW110355   0.962   2.999   6.026
 3152SOL    HW210356   1.051   2.973   5.892
 3153SOL     OW10357   6.115   5.053   1.071
 3153SOL    HW110358   6.037   5.039   1.133
 3153SOL    HW210359   6.105   4.994   0.991
 3154SOL     OW10360   4.856   1.602   0.619
 3154SOL    HW110361   4.813   1.615   0.530
 3154SOL    HW210362   4.893   1.510   0.625
 3155SOL     OW10363   0.299   5.044   1.049
 3155SOL    HW110364   0.269   4.960   1.004
 3155SOL    HW210365   0.393   5.033   1.081
 3156SOL     OW10366   3.648   4.211   1.914
 3156SOL    HW110367   3.657   4.307   1.888
 3156SOL    HW210368   3.722   4.186   1.976
 3157SOL     OW10369   0.812   1.934   5.526
 3157SOL    HW110370   0.822   1.878   5.608
 3157SOL    HW210371   0.727   1.910   5.479
 3158SOL     OW10372   2.292   0.971   5.970
 3158SOL    HW110373   2.234   0.923   6.036
 3158SOL    HW210374   2.246   0.974   5.881
 3159SOL     OW10375   6.326   6.724   0.496
 3159SOL    HW110376   6.381   6.708   0.579
 3159SOL    HW210377   6.310   6.637   0.450
 3160SOL     OW10378   2.190   0.639   6.567
 3160SOL    HW110379   2.225   0.679   6.482
 3160SOL    HW210380   2.186   0.540   6.559
 3161SOL     OW10381   2.034   2.593   3.028
 3161SOL    HW110382   1.938   2.618   3.043
 3161SOL    HW210383   2.052   2.503   3.068
 3162SOL     OW10384   1.720   5.411   0.858
 3162SOL    HW110385   1.623   5.395   0.874
 3162SOL    HW210386   1.774   5.338   0.900
 3163SOL     OW10387   4.051   3.772   0.287
 3163SOL    HW110388   4.073   3.870   0.286
 3163SOL    HW210389   4.135   3.718   0.292
 3164SOL     OW10390   2.706   5.956   3.298
 3164SOL    HW110391   2.646   6.029   3.330
 3164SOL    HW210392   2.773   5.934   3.370
 3165SOL     OW10393   0.984   6.568   0.117
 3165SOL    HW110394   0.910   6.616   0.163
 3165SOL    HW210395   0.947   6.500   0.055
 3166SOL     OW10396   3.847   1.128   5.515
 3166SOL    HW110397   3.870   1.207   5.572
 3166SOL    HW210398   3.783   1.069   5.565
 3167SOL     OW10399   5.394   3.584   0.379
 3167SOL    HW110400   5.479   3.627   0.349
 3167SOL    HW210401   5.334   3.653   0.420
 3168SOL     OW10402   4.719   1.729   0.800
 3168SOL    HW110403   4.765   1.810   0.837
 3168SOL    HW210404   4.780   1.682   0.737
 3169SOL     OW10405   1.677   4.321   1.997
 3169SOL    HW110406   1.686   4.241   2.056
 3169SOL    HW210407   1.610   4.302   1.925
 3170SOL     OW10408   3.443   5.515   3.632
 3170SOL    HW110409   3.397   5.481   3.715
 3170SOL    HW210410   3.513   5.449   3.604
 3171SOL     OW10411   5.131   2.816   3.352
 3171SOL    HW110412   5.070   2.740   3.331
 3171SOL    HW210413   5.137   2.877   3.273
 3172SOL     OW10414   0.288   4.566   1.087
 3172SOL    HW110415   0.222   4.624   1.133
 3172SOL    HW210416   0.362   4.622   1.050
 3173SOL     OW10417   3.753   2.012   0.611
 3173SOL    HW110418   3.765   1.918   0.645
 3173SOL    HW210419   3.808   2.026   0.530
 3174SOL     OW10420   2.700   3.604   5.632
 3174SOL    HW110421   2.788   3.593   5.585
 3174SOL    HW210422   2.714   3.596   5.731
 3175SOL     OW10423   0.069   0.357   4.157
 3175SOL    HW110424   6.986   0.352   4.171
 3175SOL    HW210425   0.106   0.432   4.213
 3176SOL     OW10426   1.255   4.569   5.189
 3176SOL    HW110427   1.238   4.643   5.124
 3176SOL    HW210428   1.316   4.600   5.261
 3177SOL     OW10429   5.711   3.620   3.580
 3177SOL    HW110430   5.700   3.553   3.506
 3177SOL    HW210431   5.775   3.691   3.552
 3178SOL     OW10432   6.928   0.667   1.552
 3178SOL    HW110433   6.996   0.604   1.514
 3178SOL    HW210434   6.854   0.615   1.595
 3179SOL     OW10435   0.690   1.874   1.852
 3179SOL    HW110436   0.677   1.777   1.872
 3179SOL    HW210437   0.701   1.887   1.754
 3180SOL     OW10438   6.359   5.545   6.955
 3180SOL    HW110439   6.311   5.614   6.901
 3180SOL    HW210440   6.319   5.540   0.031
 3181SOL     OW10441   0.507   0.901   4.958
 3181SOL    HW110442   0.572   0.920   5.031
 3181SOL    HW210443   0.541   0.826   4.901
 3182SOL     OW10444   2.743   0.201   0.611
 3182SOL    HW110445   2.758   0.168   0.705
 3182SOL    HW210446   2.720   0.123   0.552
 3183SOL     OW10447   4.439   4.533   1.842
 3183SOL    HW110448   4.497   4.463   1.884
 3183SOL    HW210449   4.427   4.513   1.745
 3184SOL     OW10450   0.708   2.334   4.776
 3184SOL    HW110451   0.611   2.347   4.797
 3184SOL    HW210452   0.720   2.325   4.677
 3185SOL     OW10453   0.377   5.436   6.194
 3185SOL    HW110454   0.312   5.455   6.269
 3185SOL    HW210455   0.378   5.514   6.131
 3186SOL     OW10456   0.288   1.618   6.513
 3186SOL    HW110457   0.365   1.670   6.548
 3186SOL    HW210458   0.322   1.537   6.464
 3187SOL     OW10459   4.035   5.777   2.412
 3187SOL    HW110460   4.066   5.801   2.321
 3187SOL    HW210461   3.954   5.718   2.406
 3188SOL     OW10462   1.972   4.360   5.688
 3188SOL    HW110463   1.890   4.340   5.634
 3188SOL    HW210464   2.009   4.274   5.725
 3189SOL     OW10465   3.097   1.207   6.963
 3189SOL    HW110466   3.115   1.299   6.929
 3189SOL    HW210467   3.184   1.163   6.987
 3190SOL     OW10468   6.690   5.362   3.799
 3190SOL    HW110469   6.699   5.299   3.876
 3190SOL    HW210470   6.689   5.456   3.832
 3191SOL     OW10471   4.233   5.574   2.267
 3191SOL    HW110472   4.224   5.656   2.210
 3191SOL    HW210473   4.148   5.521   2.263
 3192SOL     OW10474   5.988   2.101   2.490
 3192SOL    HW110475   5.918   2.078   2.422
 3192SOL    HW210476   6.047   2.022   2.506
 3193SOL     OW10477   4.068   0.269   5.457
 3193SOL    HW110478   4.027   0.357   5.483
 3193SOL    HW210479   4.007   0.221   5.395
 3194SOL     OW10480   1.028   1.144   6.278
 3194SOL    HW110481   1.062   1.115   6.368
 3194SOL    HW210482   1.065   1.235   6.257
 3195SOL     OW10483   6.989   1.800   2.178
 3195SOL    HW110484   0.034   1.872   2.143
 3195SOL    HW210485   6.987   1.724   2.114
 3196SOL     OW10486   6.345   0.237   4.581
 3196SOL    HW110487   6.348   0.151   4.529
 3196SOL    HW210488   6.314   0.311   4.521
 3197SOL     OW10489   2.236   1.335   6.410
 3197SOL    HW110490   2.255   1.388   6.328
 3197SOL    HW210491   2.145   1.295   6.404
 3198SOL     OW10492   6.897   2.899   3.854
 3198SOL    HW110493   6.899   2.996   3.880
 3198SOL    HW210494   6.804   2.874   3.827
 3199SOL     OW10495   5.288   4.361   3.141
 3199SOL    HW110496   5.374   4.389   3.097
 3199SOL    HW210497   5.304   4.276   3.191
 3200SOL     OW10498   5.558   3.185   4.220
 3200SOL    HW110499   5.489   3.225   4.161
 3200SOL    HW210500   5.610   3.116   4.169
 3201SOL     OW10501   6.056   4.333   2.518
 3201SOL    HW110502   5.959   4.307   2.522
 3201SOL    HW210503   6.073   4.411   2.578
 3202SOL     OW10504   1.408   5.035   0.244
 3202SOL    HW110505   1.344   4.959   0.252
 3202SOL    HW210506   1.433   5.067   0.336
 3203SOL     OW10507   4.294   6.397   0.917
 3203SOL    HW110508   4.358   6.455   0.866
 3203SOL    HW210509   4.255   6.449   0.993
 3204SOL     OW10510   2.329   1.426   3.553
 3204SOL    HW110511   2.234   1.426   3.583
 3204SOL    HW210512   2.387   1.466   3.625
 3205SOL     OW10513   5.345   3.082   5.334
 3205SOL    HW110514   5.399   3.115   5.257
 3205SOL    HW210515   5.296   3.158   5.376
 3206SOL     OW10516   2.877   3.018   1.604
 3206SOL    HW110517   2.780   3.022   1.625
 3206SOL    HW210518   2.909   3.109   1.577
 3207SOL     OW10519   0.981   6.632   5.413
 3207SOL    HW110520   0.886   6.626   5.444
 3207SOL    HW210521   0.996   6.568   5.338
 3208SOL     OW10522   6.404   5.591   5.827
 3208SOL    HW110523   6.455   5.550   5.751
 3208SOL    HW210524   6.309   5.561   5.823
 3209SOL     OW10525   5.260   5.995   6.192
 3209SOL    HW110526   5.216   5.945   6.267
 3209SOL    HW210527   5.291   6.084   6.225
 3210SOL     OW10528   6.754   4.800   1.497
 3210SOL    HW110529   6.707   4.886   1.515
 3210SOL    HW210530   6.738   4.737   1.574
 3211SOL     OW10531   1.087   5.721   6.601
 3211SOL    HW110532   1.164   5.670   6.640
 3211SOL    HW210533   1.121   5.781   6.529
 3212SOL     OW10534   2.270   6.998   2.834
 3212SOL    HW110535   2.222   0.055   2.784
 3212SOL    HW210536   2.283   0.010   2.929
 3213SOL     OW10537   1.606   0.683   5.872
 3213SOL    HW110538   1.533   0.618   5.894
 3213SOL    HW210539   1.608   0.756   5.940
 3214SOL     OW10540   3.740   1.114   3.120
 3214SOL    HW110541   3.745   1.035   3.181
 3214SOL    HW210542   3.700   1.087   3.033
 3215SOL     OW10543   1.499   2.766   0.866
 3215SOL    HW110544   1.597   2.769   0.884
 3215SOL    HW210545   1.480   2.814   0.780
 3216SOL     OW10546   5.496   4.061   0.639
 3216SOL    HW110547   5.449   4.149   0.645
 3216SOL    HW210548   5.588   4.074   0.601
 3217SOL     OW10549   0.906   5.365   2.766
 3217SOL    HW110550   0.812   5.335   2.781
 3217SOL    HW210551   0.955   5.295   2.713
 3218SOL     OW10552   6.487   1.414   3.293
 3218SOL    HW110553   6.568   1.457   3.254
 3218SOL    HW210554   6.458   1.338   3.234
 3219SOL     OW10555   5.963   0.416   5.534
 3219SOL    HW110556   5.882   0.435   5.478
 3219SOL    HW210557   6.004   0.330   5.503
 3220SOL     OW10558   6.685   4.708   6.752
 3220SOL    HW110559   6.689   4.747   6.844
 3220SOL    HW210560   6.770   4.728   6.704
 3221SOL     OW10561   4.021   0.413   2.003
 3221SOL    HW110562   4.097   0.474   2.028
 3221SOL    HW210563   4.026   0.391   1.906
 3222SOL     OW10564   2.631   1.408   2.491
 3222SOL    HW110565   2.689   1.328   2.507
 3222SOL    HW210566   2.536   1.378   2.482
 3223SOL     OW10567   1.522   0.039   1.516
 3223SOL    HW110568   1.581   6.997   1.572
 3223SOL    HW210569   1.530   0.134   1.544
 3224SOL     OW10570   4.193   2.244   4.348
 3224SOL    HW110571   4.283   2.288   4.355
 3224SOL    HW210572   4.145   2.252   4.435
 3225SOL     OW10573   3.972   0.414   4.267
 3225SOL    HW110574   3.889   0.380   4.312
 3225SOL    HW210575   3.949   0.443   4.174
 3226SOL     OW10576   0.214   0.061   1.138
 3226SOL    HW110577   0.233   6.981   1.161
 3226SOL    HW210578   0.291   0.100   1.088
 3227SOL     OW10579   4.660   2.922   5.567
 3227SOL    HW110580   4.609   2.943   5.650
 3227SOL    HW210581   4.736   2.986   5.557
 3228SOL     OW10582   1.479   4.273   0.923
 3228SOL    HW110583   1.476   4.350   0.987
 3228SOL    HW210584   1.388   4.257   0.885
 3229SOL     OW10585   1.777   1.550   0.134
 3229SOL    HW110586   1.870   1.564   0.100
 3229SOL    HW210587   1.714   1.541   0.056
 3230SOL     OW10588   1.936   5.546   5.841
 3230SOL    HW110589   2.000   5.597   5.899
 3230SOL    HW210590   1.941   5.449   5.863
 3231SOL     OW10591   2.472   1.048   2.012
 3231SOL    HW110592   2.547   1.086   2.066
 3231SOL    HW210593   2.506   0.972   1.956
 3232SOL     OW10594   4.052   6.099   4.011
 3232SOL    HW110595   4.035   6.167   4.082
 3232SOL    HW210596   4.009   6.012   4.037
 3233SOL     OW10597   0.753   2.380   6.989
 3233SOL    HW110598   0.710   2.341   0.055
 3233SOL    HW210599   0.813   2.455   0.001
 3234SOL     OW10600   2.999   2.496   0.939
 3234SOL    HW110601   3.081   2.551   0.925
 3234SOL    HW210602   2.998   2.461   1.033
 3235SOL     OW10603   6.742   6.285   2.309
 3235SOL    HW110604   6.698   6.272   2.398
 3235SOL    HW210605   6.779   6.378   2.303
 3236SOL     OW10606   3.167   3.590   0.392
 3236SOL    HW110607   3.230   3.512   0.389
 3236SOL    HW210608   3.218   3.674   0.408
 3237SOL     OW10609   5.984   1.090   5.548
 3237SOL    HW110610   6.067   1.084   5.492
 3237SOL    HW210611   5.981   1.012   5.611
 3238SOL     OW10612   6.533   5.267   1.508
 3238SOL    HW110613   6.549   5.279   1.606
 3238SOL    HW210614   6.436   5.282   1.488
 3239SOL     OW10615   6.633   0.622   3.710
 3239SOL    HW110616   6.578   0.549   3.669
 3239SOL    HW210617   6.703   0.581   3.768
 3240SOL     OW10618   0.463   0.813   6.766
 3240SOL    HW110619   0.388   0.757   6.730
 3240SOL    HW210620   0.434   0.909   6.770
 3241SOL     OW10621   5.733   1.842   6.629
 3241SOL    HW110622   5.719   1.922   6.571
 3241SOL    HW210623   5.724   1.759   6.575
 3242SOL     OW10624   4.866   4.565   5.456
 3242SOL    HW110625   4.921   4.645   5.430
 3242SOL    HW210626   4.775   4.594   5.483
 3243SOL     OW10627   4.992   5.241   5.828
 3243SOL    HW110628   4.943   5.180   5.891
 3243SOL    HW210629   5.055   5.299   5.879
 3244SOL     OW10630   5.399   6.019   0.124
 3244SOL    HW110631   5.431   6.112   0.103
 3244SOL    HW210632   5.303   6.010   0.096
 3245SOL     OW10633   3.971   1.448   4.306
 3245SOL    HW110634   3.936   1.529   4.352
 3245SOL    HW210635   4.002   1.473   4.214
 3246SOL     OW10636   0.332   0.807   2.152
 3246SOL    HW110637   0.285   0.893   2.130
 3246SOL    HW210638   0.431   0.821   2.146
 3247SOL     OW10639   0.639   4.173   3.124
 3247SOL    HW110640   0.582   4.139   3.199
 3247SOL    HW210641   0.613   4.267   3.103
 3248SOL     OW10642   5.293   2.251   3.690
 3248SOL    HW110643   5.278   2.153   3.702
 3248SOL    HW210644   5.332   2.269   3.600
 3249SOL     OW10645   3.317   3.762   3.462
 3249SOL    HW110646   3.258   3.840   3.484
 3249SOL    HW210647   3.304   3.690   3.531
 3250SOL     OW10648   5.453   5.759   2.171
 3250SOL    HW110649   5.388   5.697   2.127
 3250SOL    HW210650   5.501   5.711   2.244
 3251SOL     OW10651   2.864   1.098   3.835
 3251SOL    HW110652   2.861   1.106   3.934
 3251SOL    HW210653   2.789   1.151   3.795
 3252SOL     OW10654   2.499   1.316   4.071
 3252SOL    HW110655   2.434   1.285   4.140
 3252SOL    HW210656   2.571   1.371   4.115
 3253SOL     OW10657   6.694   3.479   1.355
 3253SOL    HW110658   6.657   3.387   1.361
 3253SOL    HW210659   6.755   3.486   1.276
 3254SOL     OW10660   5.993   0.426   0.693
 3254SOL    HW110661   5.913   0.402   0.639
 3254SOL    HW210662   5.986   0.521   0.723
 3255SOL     OW10663   5.625   4.906   0.911
 3255SOL    HW110664   5.671   4.957   0.839
 3255SOL    HW210665   5.551   4.962   0.950
 3256SOL     OW10666   4.990   2.287   0.937
 3256SOL    HW110667   5.038   2.357   0.883
 3256SOL    HW210668   4.967   2.210   0.877
 3257SOL     OW10669   2.557   2.182   3.032
 3257SOL    HW110670   2.628   2.127   3.077
 3257SOL    HW210671   2.600   2.257   2.982
 3258SOL     OW10672   2.494   6.155   3.389
 3258SOL    HW110673   2.528   6.194   3.475
 3258SOL    HW210674   2.484   6.228   3.322
 3259SOL     OW10675   4.856   4.147   4.247
 3259SOL    HW110676   4.875   4.052   4.219
 3259SOL    HW210677   4.852   4.152   4.346
 3260SOL     OW10678   1.886   3.979   1.680
 3260SOL    HW110679   1.800   4.029   1.682
 3260SOL    HW210680   1.920   3.974   1.586
 3261SOL     OW10681   4.252   0.585   2.976
 3261SOL    HW110682   4.315   0.599   3.052
 3261SOL    HW210683   4.180   0.522   3.003
 3262SOL     OW10684   3.503   1.977   2.542
 3262SOL    HW110685   3.410   2.014   2.537
 3262SOL    HW210686   3.541   1.998   2.632
 3263SOL     OW10687   1.571   1.398   2.693
 3263SOL    HW110688   1.578   1.458   2.614
 3263SOL    HW210689   1.653   1.406   2.749
 3264SOL     OW10690   2.386   5.820   0.279
 3264SOL    HW110691   2.338   5.839   0.194
 3264SOL    HW210692   2.322   5.781   0.346
 3265SOL     OW10693   6.007   5.066   5.862
 3265SOL    HW110694   5.917   5.024   5.847
 3265SOL    HW210695   6.029   5.126   5.786
 3266SOL     OW10696   3.292   4.629   0.205
 3266SOL    HW110697   3.353   4.590   0.136
 3266SOL    HW210698   3.200   4.593   0.192
 3267SOL     OW10699   4.183   0.190   0.413
 3267SOL    HW110700   4.191   0.278   0.366
 3267SOL    HW210701   4.128   0.201   0.496
 3268SOL     OW10702   6.797   4.612   1.715
 3268SOL    HW110703   6.836   4.625   1.806
 3268SOL    HW210704   6.702   4.581   1.724
 3269SOL     OW10705   1.631   5.134   2.208
 3269SOL    HW110706   1.630   5.094   2.299
 3269SOL    HW210707   1.715   5.108   2.160
 3270SOL     OW10708   0.945   2.848   5.072
 3270SOL    HW110709   0.946   2.900   4.987
 3270SOL    HW210710   0.931   2.911   5.149
 3271SOL     OW10711   0.544   3.580   2.381
 3271SOL    HW110712   0.638   3.612   2.391
 3271SOL    HW210713   0.481   3.655   2.399
 3272SOL     OW10714   4.370   6.429   0.270
 3272SOL    HW110715   4.408   6.487   0.198
 3272SOL    HW210716   4.424   6.345   0.278
 3273SOL     OW10717   5.003   3.153   6.186
 3273SOL    HW110718   4.904   3.160   6.188
 3273SOL    HW210719   5.044   3.233   6.230
 3274SOL     OW10720   5.660   0.886   0.100
 3274SOL    HW110721   5.594   0.873   0.025
 3274SOL    HW210722   5.748   0.915   0.062
 3275SOL     OW10723   5.004   0.392   1.242
 3275SOL    HW110724   4.983   0.332   1.319
 3275SOL    HW210725   5.049   0.475   1.275
 3276SOL     OW10726   4.565   0.036   0.098
 3276SOL    HW110727   4.504   7.013   0.167
 3276SOL    HW210728   4.639   0.086   0.144
 3277SOL     OW10729   3.360   1.763   2.207
 3277SOL    HW110730   3.352   1.840   2.144
 3277SOL    HW210731   3.447   1.770   2.257
 3278SOL     OW10732   6.683   0.259   6.773
 3278SOL    HW110733   6.778   0.235   6.790
 3278SOL    HW210734   6.632   0.176   6.748
 3279SOL     OW10735   4.109   6.686   0.797
 3279SOL    HW110736   4.125   6.784   0.782
 3279SOL    HW210737   4.196   6.638   0.800
 3280SOL     OW10738   5.375   3.677   4.445
 3280SOL    HW110739   5.312   3.744   4.407
 3280SOL    HW210740   5.329   3.588   4.453
 3281SOL     OW10741   6.499   4.408   2.169
 3281SOL    HW110742   6.522   4.350   2.247
 3281SOL    HW210743   6.476   4.351   2.090
 3282SOL     OW10744   0.547   4.253   5.525
 3282SOL    HW110745   0.599   4.338   5.531
 3282SOL    HW210746   0.555   4.203   5.611
 3283SOL     OW10747   4.073   0.683   1.167
 3283SOL    HW110748   4.109   0.724   1.083
 3283SOL    HW210749   4.120   0.720   1.246
 3284SOL     OW10750   1.793   5.618   4.848
 3284SOL    HW110751   1.725   5.687   4.827
 3284SOL    HW210752   1.884   5.652   4.825
 3285SOL     OW10753   5.382   1.025   4.810
 3285SOL    HW110754   5.432   1.029   4.724
 3285SOL    HW210755   5.378   0.930   4.841
 3286SOL     OW10756   3.145   1.765   1.758
 3286SOL    HW110757   3.241   1.775   1.784
 3286SOL    HW210758   3.126   1.823   1.679
 3287SOL     OW10759   2.554   0.152   6.874
 3287SOL    HW110760   2.594   0.174   6.963
 3287SOL    HW210761   2.624   0.161   6.803
 3288SOL     OW10762   2.046   6.231   0.938
 3288SOL    HW110763   2.027   6.177   1.020
 3288SOL    HW210764   1.972   6.297   0.924
 3289SOL     OW10765   3.864   1.498   6.727
 3289SOL    HW110766   3.883   1.401   6.747
 3289SOL    HW210767   3.785   1.528   6.780
 3290SOL     OW10768   6.531   5.218   0.232
 3290SOL    HW110769   6.492   5.129   0.209
 3290SOL    HW210770   6.460   5.277   0.270
 3291SOL     OW10771   4.634   0.173   5.179
 3291SOL    HW110772   4.576   0.247   5.212
 3291SOL    HW210773   4.730   0.200   5.187
 3292SOL     OW10774   0.200   1.778   1.417
 3292SOL    HW110775   0.189   1.862   1.363
 3292SOL    HW210776   0.276   1.725   1.381
 3293SOL     OW10777   6.646   5.475   3.075
 3293SOL    HW110778   6.598   5.528   3.145
 3293SOL    HW210779   6.604   5.491   2.986
 3294SOL     OW10780   5.246   2.823   5.233
 3294SOL    HW110781   5.219   2.768   5.313
 3294SOL    HW210782   5.279   2.912   5.264
 3295SOL     OW10783   1.920   2.966   1.597
 3295SOL    HW110784   1.860   3.033   1.554
 3295SOL    HW210785   1.972   2.918   1.527
 3296SOL     OW10786   0.657   0.273   6.081
 3296SOL    HW110787   0.684   0.190   6.130
 3296SOL    HW210788   0.722   0.290   6.007
 3297SOL     OW10789   3.319   1.687   5.183
 3297SOL    HW110790   3.281   1.732   5.263
 3297SOL    HW210791   3.385   1.617   5.211
 3298SOL     OW10792   5.856   4.165   4.765
 3298SOL    HW110793   5.776   4.177   4.707
 3298SOL    HW210794   5.927   4.231   4.738
 3299SOL     OW10795   3.137   4.885   3.829
 3299SOL    HW110796   3.221   4.911   3.781
 3299SOL    HW210797   3.145   4.910   3.925
 3300SOL     OW10798   1.692   6.977   5.165
 3300SOL    HW110799   1.773   0.010   5.196
 3300SOL    HW210800   1.663   7.013   5.076
 3301SOL     OW10801   1.977   2.894   2.782
 3301SOL    HW110802   1.959   2.845   2.697
 3301SOL    HW210803   2.041   2.969   2.765
 3302SOL     OW10804   2.557   4.941   5.636
 3302SOL    HW110805   2.545   4.949   5.537
 3302SOL    HW210806   2.501   4.864   5.670
 3303SOL     OW10807   3.373   2.949   0.855
 3303SOL    HW110808   3.333   2.868   0.896
 3303SOL    HW210809   3.466   2.962   0.891
 3304SOL     OW10810   2.740   5.142   5.737
 3304SOL    HW110811   2.718   5.238   5.721
 3304SOL    HW210812   2.659   5.086   5.720
 3305SOL     OW10813   3.666   0.903   1.286
 3305SOL    HW110814   3.674   0.921   1.384
 3305SOL    HW210815   3.722   0.824   1.262
 3306SOL     OW10816   2.047   0.548   0.119
 3306SOL    HW110817   1.969   0.610   0.125
 3306SOL    HW210818   2.057   0.499   0.206
 3307SOL     OW10819   0.695   0.031   4.455
 3307SOL    HW110820   0.719   6.964   4.406
 3307SOL    HW210821   0.778   0.081   4.479
 3308SOL     OW10822   3.495   4.582   1.026
 3308SOL    HW110823   3.558   4.564   1.101
 3308SOL    HW210824   3.441   4.664   1.046
 3309SOL     OW10825   5.300   3.920   3.773
 3309SOL    HW110826   5.203   3.919   3.799
 3309SOL    HW210827   5.355   3.951   3.851
 3310SOL     OW10828   0.311   5.066   4.802
 3310SOL    HW110829   0.406   5.098   4.803
 3310SOL    HW210830   0.252   5.135   4.845
 3311SOL     OW10831   3.429   3.618   0.565
 3311SOL    HW110832   3.394   3.664   0.483
 3311SOL    HW210833   3.525   3.593   0.551
 3312SOL     OW10834   5.104   2.507   6.139
 3312SOL    HW110835   5.203   2.524   6.144
 3312SOL    HW210836   5.055   2.584   6.178
 3313SOL     OW10837   0.666   0.968   3.477
 3313SOL    HW110838   0.640   0.893   3.537
 3313SOL    HW210839   0.733   1.026   3.522
 3314SOL     OW10840   1.953   6.065   2.575
 3314SOL    HW110841   1.963   6.164   2.568
 3314SOL    HW210842   2.012   6.030   2.648
 3315SOL     OW10843   0.158   4.737   5.130
 3315SOL    HW110844   0.077   4.691   5.166
 3315SOL    HW210845   0.228   4.743   5.201
 3316SOL     OW10846   2.844   1.433   6.810
 3316SOL    HW110847   2.895   1.347   6.810
 3316SOL    HW210848   2.747   1.414   6.825
 3317SOL     OW10849   4.922   2.449   2.361
 3317SOL    HW110850   5.020   2.454   2.345
 3317SOL    HW210851   4.897   2.511   2.436
 3318SOL     OW10852   3.110   2.279   0.433
 3318SOL    HW110853   3.077   2.294   0.527
 3318SOL    HW210854   3.053   2.331   0.370
 3319SOL     OW10855   6.482   6.744   3.154
 3319SOL    HW110856   6.565   6.760   3.100
 3319SOL    HW210857   6.445   6.654   3.132
 3320SOL     OW10858   5.928   0.142   1.000
 3320SOL    HW110859   5.974   0.111   0.916
 3320SOL    HW210860   5.857   0.207   0.976
 3321SOL     OW10861   5.718   1.870   0.354
 3321SOL    HW110862   5.751   1.953   0.307
 3321SOL    HW210863   5.777   1.793   0.330
 3322SOL     OW10864   6.734   3.656   0.869
 3322SOL    HW110865   6.833   3.652   0.857
 3322SOL    HW210866   6.706   3.751   0.883
 3323SOL     OW10867   1.811   1.522   1.799
 3323SOL    HW110868   1.727   1.566   1.767
 3323SOL    HW210869   1.813   1.522   1.899
 3324SOL     OW10870   4.990   5.124   5.592
 3324SOL    HW110871   4.993   5.194   5.664
 3324SOL    HW210872   5.076   5.073   5.592
 3325SOL     OW10873   1.642   3.313   6.691
 3325SOL    HW110874   1.615   3.318   6.595
 3325SOL    HW210875   1.731   3.268   6.698
 3326SOL     OW10876   5.342   1.495   2.779
 3326SOL    HW110877   5.259   1.530   2.735
 3326SOL    HW210878   5.327   1.491   2.878
 3327SOL     OW10879   1.673   5.836   1.509
 3327SOL    HW110880   1.594   5.895   1.496
 3327SOL    HW210881   1.663   5.783   1.594
 3328SOL     OW10882   3.967   1.944   0.945
 3328SOL    HW110883   3.996   1.975   1.035
 3328SOL    HW210884   4.014   1.998   0.875
 3329SOL     OW10885   5.644   5.572   5.862
 3329SOL    HW110886   5.666   5.585   5.959
 3329SOL    HW210887   5.717   5.611   5.806
 3330SOL     OW10888   6.002   3.086   2.370
 3330SOL    HW110889   6.088   3.071   2.419
 3330SOL    HW210890   5.927   3.086   2.435
 3331SOL     OW10891   1.408   1.977   1.527
 3331SOL    HW110892   1.486   2.013   1.578
 3331SOL    HW210893   1.413   2.007   1.432
 3332SOL     OW10894   5.756   4.152   0.584
 3332SOL    HW110895   5.710   4.234   0.619
 3332SOL    HW210896   5.853   4.171   0.570
 3333SOL     OW10897   4.021   4.931   5.927
 3333SOL    HW110898   4.015   4.835   5.956
 3333SOL    HW210899   3.942   4.981   5.963
 3334SOL     OW10900   3.082   3.590   1.287
 3334SOL    HW110901   3.071   3.663   1.355
 3334SOL    HW210902   2.995   3.542   1.276
 3335SOL     OW10903   5.031   4.778   5.376
 3335SOL    HW110904   5.032   4.834   5.294
 3335SOL    HW210905   5.101   4.708   5.370
 3336SOL     OW10906   3.436   5.385   6.103
 3336SOL    HW110907   3.442   5.291   6.069
 3336SOL    HW210908   3.360   5.393   6.168
 3337SOL     OW10909   3.592   2.822   1.477
 3337SOL    HW110910   3.525   2.762   1.521
 3337SOL    HW210911   3.664   2.845   1.542
 3338SOL     OW10912   0.180   4.087   0.870
 3338SOL    HW110913   0.144   3.996   0.891
 3338SOL    HW210914   0.117   4.157   0.905
 3339SOL     OW10915   6.510   5.853   6.951
 3339SOL    HW110916   6.465   5.805   0.010
 3339SOL    HW210917   6.581   5.795   6.911
 3340SOL     OW10918   3.245   6.527   2.169
 3340SOL    HW110919   3.341   6.552   2.160
 3340SOL    HW210920   3.230   6.482   2.257
 3341SOL     OW10921   0.618   0.462   2.667
 3341SOL    HW110922   0.559   0.540   2.648
 3341SOL    HW210923   0.710   0.495   2.690
 3342SOL     OW10924   1.834   6.956   3.797
 3342SOL    HW110925   1.771   7.009   3.853
 3342SOL    HW210926   1.821   6.979   3.701
 3343SOL     OW10927   5.093   2.986   0.736
 3343SOL    HW110928   5.112   3.019   0.644
 3343SOL    HW210929   5.112   2.888   0.741
 3344SOL     OW10930   5.860   3.259   5.688
 3344SOL    HW110931   5.760   3.260   5.698
 3344SOL    HW210932   5.885   3.202   5.609
 3345SOL     OW10933   3.210   3.614   5.950
 3345SOL    HW110934   3.192   3.664   5.866
 3345SOL    HW210935   3.295   3.562   5.941
 3346SOL     OW10936   0.035   0.376   1.835
 3346SOL    HW110937   6.966   0.332   1.805
 3346SOL    HW210938   0.023   0.475   1.834
 3347SOL     OW10939   5.903   3.936   4.874
 3347SOL    HW110940   5.847   4.011   4.837
 3347SOL    HW210941   5.851   3.887   4.944
 3348SOL     OW10942   3.572   3.101   3.945
 3348SOL    HW110943   3.528   3.157   4.014
 3348SOL    HW210944   3.526   3.011   3.941
 3349SOL     OW10945   6.794   3.907   4.408
 3349SOL    HW110946   6.858   3.918   4.485
 3349SOL    HW210947   6.701   3.902   4.443
 3350SOL     OW10948   1.648   1.066   0.354
 3350SOL    HW110949   1.567   1.064   0.414
 3350SOL    HW210950   1.657   0.977   0.309
 3351SOL     OW10951   5.474   1.618   1.058
 3351SOL    HW110952   5.551   1.572   1.014
 3351SOL    HW210953   5.446   1.697   1.004
 3352SOL     OW10954   0.901   3.686   0.924
 3352SOL    HW110955   0.927   3.737   0.843
 3352SOL    HW210956   0.810   3.715   0.955
 3353SOL     OW10957   1.972   6.929   6.763
 3353SOL    HW110958   2.057   6.928   6.711
 3353SOL    HW210959   1.947   0.008   6.786
 3354SOL     OW10960   6.987   2.448   4.229
 3354SOL    HW110961   0.008   2.528   4.182
 3354SOL    HW210962   6.927   2.397   4.168
 3355SOL     OW10963   6.948   1.410   2.097
 3355SOL    HW110964   6.988   1.478   2.035
 3355SOL    HW210965   0.004   1.373   2.156
 3356SOL     OW10966   2.877   3.337   0.100
 3356SOL    HW110967   2.894   3.423   0.148
 3356SOL    HW210968   2.964   3.299   0.067
 3357SOL     OW10969   3.092   5.150   1.762
 3357SOL    HW110970   3.107   5.161   1.664
 3357SOL    HW210971   3.086   5.240   1.805
 3358SOL     OW10972   5.081   6.169   2.780
 3358SOL    HW110973   5.087   6.070   2.766
 3358SOL    HW210974   5.128   6.194   2.865
 3359SOL     OW10975   1.141   0.190   2.470
 3359SOL    HW110976   1.111   0.104   2.510
 3359SOL    HW210977   1.098   0.266   2.519
 3360SOL     OW10978   0.480   0.701   0.387
 3360SOL    HW110979   0.550   0.649   0.338
 3360SOL    HW210980   0.520   0.742   0.469
 3361SOL     OW10981   6.153   5.771   2.932
 3361SOL    HW110982   6.247   5.738   2.944
 3361SOL    HW210983   6.089   5.706   2.972
 3362SOL     OW10984   2.598   1.607   4.984
 3362SOL    HW110985   2.541   1.529   4.957
 3362SOL    HW210986   2.661   1.630   4.910
 3363SOL     OW10987   0.192   1.992   0.180
 3363SOL    HW110988   0.166   1.909   0.230
 3363SOL    HW210989   0.114   2.053   0.173
 3364SOL     OW10990   2.054   5.294   5.917
 3364SOL    HW110991   2.153   5.296   5.907
 3364SOL    HW210992   2.026   5.211   5.965
 3365SOL     OW10993   6.813   2.858   4.591
 3365SOL    HW110994   6.773   2.925   4.654
 3365SOL    HW210995   6.861   2.906   4.518
 3366SOL     OW10996   5.402   0.182   5.344
 3366SOL    HW110997   5.393   0.240   5.263
 3366SOL    HW210998   5.314   0.138   5.363
 3367SOL     OW10999   1.566   2.365   3.096
 3367SOL    HW111000   1.468   2.368   3.117
 3367SOL    HW211001   1.615   2.430   3.155
 3368SOL     OW11002   6.779   5.675   6.164
 3368SOL    HW111003   6.691   5.715   6.188
 3368SOL    HW211004   6.830   5.738   6.106
 3369SOL     OW11005   3.825   0.440   0.115
 3369SOL    HW111006   3.832   0.404   0.208
 3369SOL    HW211007   3.915   0.436   0.071
 3370SOL     OW11008   6.126   6.658   4.708
 3370SOL    HW111009   6.134   6.756   4.721
 3370SOL    HW211010   6.071   6.639   4.626
 3371SOL     OW11011   0.885   4.981   1.881
 3371SOL    HW111012   0.959   4.916   1.899
 3371SOL    HW211013   0.923   5.073   1.872
 3372SOL     OW11014   0.952   1.121   2.616
 3372SOL    HW111015   1.043   1.095   2.649
 3372SOL    HW211016   0.920   1.053   2.550
 3373SOL     OW11017   5.903   1.397   5.187
 3373SOL    HW111018   5.930   1.323   5.127
 3373SOL    HW211019   5.949   1.389   5.275
 3374SOL     OW11020   2.753   5.732   5.911
 3374SOL    HW111021   2.830   5.674   5.936
 3374SOL    HW211022   2.724   5.709   5.818
 3375SOL     OW11023   4.601   4.289   5.092
 3375SOL    HW111024   4.680   4.308   5.150
 3375SOL    HW211025   4.569   4.196   5.109
 3376SOL     OW11026   3.127   3.048   2.401
 3376SOL    HW111027   3.152   2.969   2.346
 3376SOL    HW211028   3.135   3.132   2.346
 3377SOL     OW11029   1.114   6.823   5.267
 3377SOL    HW111030   1.178   6.771   5.210
 3377SOL    HW211031   1.093   6.771   5.350
 3378SOL     OW11032   6.701   1.501   1.446
 3378SOL    HW111033   6.780   1.549   1.484
 3378SOL    HW211034   6.646   1.463   1.520
 3379SOL     OW11035   0.572   4.803   6.067
 3379SOL    HW111036   0.485   4.766   6.034
 3379SOL    HW211037   0.637   4.809   5.991
 3380SOL     OW11038   6.950   4.497   6.768
 3380SOL    HW111039   6.888   4.444   6.826
 3380SOL    HW211040   6.916   4.496   6.674
 3381SOL     OW11041   3.016   2.626   0.547
 3381SOL    HW111042   2.999   2.542   0.599
 3381SOL    HW211043   3.114   2.633   0.527
 3382SOL     OW11044   6.906   1.824   0.733
 3382SOL    HW111045   6.897   1.728   0.708
 3382SOL    HW211046   6.840   1.847   0.804
 3383SOL     OW11047   6.222   4.744   2.555
 3383SOL    HW111048   6.214   4.819   2.620
 3383SOL    HW211049   6.168   4.764   2.473
 3384SOL     OW11050   3.567   3.045   4.483
 3384SOL    HW111051   3.530   2.981   4.415
 3384SOL    HW211052   3.500   3.116   4.503
 3385SOL     OW11053   6.526   3.528   3.508
 3385SOL    HW111054   6.474   3.463   3.564
 3385SOL    HW211055   6.547   3.609   3.562
 3386SOL     OW11056   6.240   4.483   4.945
 3386SOL    HW111057   6.265   4.440   4.858
 3386SOL    HW211058   6.196   4.415   5.004
 3387SOL     OW11059   2.338   2.493   3.118
 3387SOL    HW111060   2.327   2.415   3.056
 3387SOL    HW211061   2.377   2.570   3.067
 3388SOL     OW11062   5.726   1.991   1.388
 3388SOL    HW111063   5.814   1.951   1.361
 3388SOL    HW211064   5.714   1.982   1.487
 3389SOL     OW11065   4.786   4.532   3.641
 3389SOL    HW111066   4.690   4.515   3.664
 3389SOL    HW211067   4.839   4.541   3.724
 3390SOL     OW11068   5.183   3.180   5.958
 3390SOL    HW111069   5.196   3.083   5.980
 3390SOL    HW211070   5.085   3.198   5.948
 3391SOL     OW11071   3.491   1.884   5.034
 3391SOL    HW111072   3.521   1.801   4.988
 3391SOL    HW211073   3.391   1.885   5.039
 3392SOL     OW11074   2.369   0.882   4.144
 3392SOL    HW111075   2.339   0.845   4.232
 3392SOL    HW211076   2.468   0.878   4.138
 3393SOL     OW11077   6.405   6.269   6.714
 3393SOL    HW111078   6.367   6.193   6.766
 3393SOL    HW211079   6.482   6.309   6.764
 3394SOL     OW11080   6.286   2.776   1.220
 3394SOL    HW111081   6.198   2.789   1.173
 3394SOL    HW211082   6.271   2.730   1.308
 3395SOL     OW11083   0.604   3.371   4.361
 3395SOL    HW111084   0.578   3.311   4.436
 3395SOL    HW211085   0.696   3.347   4.329
 3396SOL     OW11086   0.302   3.467   3.620
 3396SOL    HW111087   0.223   3.507   3.573
 3396SOL    HW211088   0.322   3.378   3.580
 3397SOL     OW11089   3.922   6.940   5.984
 3397SOL    HW111090   4.019   6.915   5.972
 3397SOL    HW211091   3.865   6.864   5.953
 3398SOL     OW11092   1.060   0.342   4.122
 3398SOL    HW111093   1.097   0.405   4.190
 3398SOL    HW211094   1.115   0.347   4.038
 3399SOL     OW11095   4.903   5.322   4.011
 3399SOL    HW111096   4.824   5.293   4.065
 3399SOL    HW211097   4.891   5.293   3.916
 3400SOL     OW11098   4.863   2.049   6.764
 3400SOL    HW111099   4.951   2.076   6.725
 3400SOL    HW211100   4.855   2.085   6.857
 3401SOL     OW11101   6.483   3.509   0.806
 3401SOL    HW111102   6.443   3.555   0.885
 3401SOL    HW211103   6.576   3.541   0.792
 3402SOL     OW11104   5.242   5.957   1.486
 3402SOL    HW111105   5.293   6.040   1.463
 3402SOL    HW211106   5.175   5.978   1.557
 3403SOL     OW11107   3.386   0.512   5.057
 3403SOL    HW111108   3.371   0.433   4.998
 3403SOL    HW211109   3.305   0.527   5.114
 3404SOL     OW11110   4.328   1.479   0.940
 3404SOL    HW111111   4.409   1.536   0.928
 3404SOL    HW211112   4.337   1.396   0.886
 3405SOL     OW11113   6.124   4.020   6.500
 3405SOL    HW111114   6.203   4.036   6.440
 3405SOL    HW211115   6.040   4.046   6.452
 3406SOL     OW11116   2.076   4.175   1.749
 3406SOL    HW111117   2.021   4.098   1.779
 3406SOL    HW211118   2.027   4.226   1.678
 3407SOL     OW11119   1.075   5.823   1.497
 3407SOL    HW111120   1.155   5.829   1.557
 3407SOL    HW211121   1.105   5.824   1.402
 3408SOL     OW11122   5.049   4.189   2.621
 3408SOL    HW111123   4.970   4.249   2.637
 3408SOL    HW211124   5.023   4.095   2.642
 3409SOL     OW11125   3.854   0.182   5.985
 3409SOL    HW111126   3.885   0.088   6.001
 3409SOL    HW211127   3.756   0.183   5.965
 3410SOL     OW11128   6.040   6.006   0.310
 3410SOL    HW111129   5.985   5.944   0.255
 3410SOL    HW211130   6.128   5.962   0.331
 3411SOL     OW11131   4.659   2.246   2.626
 3411SOL    HW111132   4.736   2.256   2.689
 3411SOL    HW211133   4.573   2.264   2.674
 3412SOL     OW11134   3.881   3.593   6.813
 3412SOL    HW111135   3.882   3.693   6.805
 3412SOL    HW211136   3.905   3.567   6.907
 3413SOL     OW11137   3.799   1.825   3.394
 3413SOL    HW111138   3.748   1.910   3.384
 3413SOL    HW211139   3.743   1.758   3.443
 3414SOL     OW11140   2.908   2.206   5.111
 3414SOL    HW111141   2.848   2.283   5.130
 3414SOL    HW211142   2.989   2.238   5.062
 3415SOL     OW11143   0.871   4.876   4.168
 3415SOL    HW111144   0.830   4.797   4.214
 3415SOL    HW211145   0.852   4.959   4.221
 3416SOL     OW11146   0.319   4.313   5.787
 3416SOL    HW111147   0.301   4.238   5.850
 3416SOL    HW211148   0.417   4.335   5.788
 3417SOL     OW11149   6.673   6.741   2.517
 3417SOL    HW111150   6.638   6.663   2.567
 3417SOL    HW211151   6.601   6.810   2.508
 3418SOL     OW11152   2.481   1.048   5.020
 3418SOL    HW111153   2.391   1.021   5.055
 3418SOL    HW211154   2.546   1.053   5.095
 3419SOL     OW11155   4.178   4.672   0.258
 3419SOL    HW111156   4.111   4.640   0.325
 3419SOL    HW211157   4.141   4.752   0.210
 3420SOL     OW11158   4.839   1.852   4.312
 3420SOL    HW111159   4.743   1.835   4.331
 3420SOL    HW211160   4.864   1.810   4.224
 3421SOL     OW11161   6.655   6.327   5.222
 3421SOL    HW111162   6.621   6.385   5.148
 3421SOL    HW211163   6.640   6.373   5.309
 3422SOL     OW11164   3.516   0.186   1.154
 3422SOL    HW111165   3.534   0.103   1.101
 3422SOL    HW211166   3.463   0.251   1.099
 3423SOL     OW11167   2.299   0.526   0.566
 3423SOL    HW111168   2.277   0.520   0.663
 3423SOL    HW211169   2.299   0.434   0.526
 3424SOL     OW11170   4.403   0.983   2.493
 3424SOL    HW111171   4.454   1.041   2.430
 3424SOL    HW211172   4.372   1.037   2.571
 3425SOL     OW11173   4.718   4.171   2.197
 3425SOL    HW111174   4.636   4.213   2.159
 3425SOL    HW211175   4.759   4.110   2.128
 3426SOL     OW11176   3.700   2.995   0.543
 3426SOL    HW111177   3.672   2.900   0.528
 3426SOL    HW211178   3.764   3.023   0.471
 3427SOL     OW11179   6.918   0.433   0.132
 3427SOL    HW111180   6.957   0.506   0.188
 3427SOL    HW211181   6.985   0.403   0.064
 3428SOL     OW11182   4.112   4.754   2.180
 3428SOL    HW111183   4.173   4.678   2.160
 3428SOL    HW211184   4.085   4.798   2.094
 3429SOL     OW11185   1.159   3.026   0.040
 3429SOL    HW111186   1.112   2.943   0.010
 3429SOL    HW211187   1.104   3.106   0.017
 3430SOL     OW11188   1.645   6.898   0.303
 3430SOL    HW111189   1.620   6.988   0.338
 3430SOL    HW211190   1.720   6.861   0.358
 3431SOL     OW11191   1.871   6.145   1.421
 3431SOL    HW111192   1.822   6.072   1.469
 3431SOL    HW211193   1.856   6.232   1.469
 3432SOL     OW11194   2.931   1.815   5.664
 3432SOL    HW111195   3.017   1.855   5.633
 3432SOL    HW211196   2.892   1.759   5.590
 3433SOL     OW11197   3.260   1.110   6.032
 3433SOL    HW111198   3.287   1.138   5.940
 3433SOL    HW211199   3.283   1.014   6.047
 3434SOL     OW11200   4.370   2.465   1.395
 3434SOL    HW111201   4.464   2.444   1.367
 3434SOL    HW211202   4.308   2.448   1.319
 3435SOL     OW11203   6.901   2.716   1.916
 3435SOL    HW111204   6.976   2.781   1.929
 3435SOL    HW211205   6.861   2.693   2.005
 3436SOL     OW11206   4.295   6.994   4.474
 3436SOL    HW111207   4.320   7.014   4.379
 3436SOL    HW211208   4.254   0.060   4.516
 3437SOL     OW11209   4.152   0.231   5.147
 3437SOL    HW111210   4.235   0.270   5.185
 3437SOL    HW211211   4.074   0.288   5.172
 3438SOL     OW11212   2.065   2.662   6.668
 3438SOL    HW111213   2.077   2.759   6.693
 3438SOL    HW211214   1.990   2.654   6.602
 3439SOL     OW11215   2.664   6.536   5.234
 3439SOL    HW111216   2.630   6.615   5.182
 3439SOL    HW211217   2.690   6.463   5.171
 3440SOL     OW11218   4.582   3.636   1.437
 3440SOL    HW111219   4.671   3.638   1.392
 3440SOL    HW211220   4.542   3.728   1.437
 3441SOL     OW11221   3.822   0.054   4.058
 3441SOL    HW111222   3.813   7.006   4.135
 3441SOL    HW211223   3.871   0.009   3.983
 3442SOL     OW11224   2.182   5.324   3.991
 3442SOL    HW111225   2.143   5.232   3.982
 3442SOL    HW211226   2.282   5.318   3.993
 3443SOL     OW11227   5.843   2.015   3.438
 3443SOL    HW111228   5.866   2.110   3.457
 3443SOL    HW211229   5.748   1.997   3.463
 3444SOL     OW11230   4.939   5.556   6.416
 3444SOL    HW111231   5.023   5.571   6.364
 3444SOL    HW211232   4.933   5.623   6.490
 3445SOL     OW11233   6.488   4.199   4.377
 3445SOL    HW111234   6.476   4.102   4.397
 3445SOL    HW211235   6.568   4.234   4.426
 3446SOL     OW11236   3.844   0.547   3.173
 3446SOL    HW111237   3.906   0.527   3.097
 3446SOL    HW211238   3.759   0.586   3.137
 3447SOL     OW11239   5.617   5.571   6.983
 3447SOL    HW111240   5.670   5.528   6.910
 3447SOL    HW211241   5.571   5.500   0.021
 3448SOL     OW11242   3.078   0.531   0.960
 3448SOL    HW111243   2.994   0.508   0.911
 3448SOL    HW211244   3.059   0.604   1.025
 3449SOL     OW11245   6.737   6.943   1.648
 3449SOL    HW111246   6.821   6.923   1.697
 3449SOL    HW211247   6.745   6.910   1.554
 3450SOL     OW11248   0.795   1.664   1.383
 3450SOL    HW111249   0.885   1.696   1.409
 3450SOL    HW211250   0.803   1.572   1.344
 3451SOL     OW11251   0.991   5.684   3.574
 3451SOL    HW111252   1.031   5.746   3.643
 3451SOL    HW211253   0.959   5.601   3.619
 3452SOL     OW11254   6.850   0.881   6.720
 3452SOL    HW111255   6.945   0.850   6.718
 3452SOL    HW211256   6.849   0.981   6.726
 3453SOL     OW11257   5.177   5.866   4.977
 3453SOL    HW111258   5.171   5.902   5.070
 3453SOL    HW211259   5.259   5.809   4.968
 3454SOL     OW11260   1.689   1.547   0.531
 3454SOL    HW111261   1.706   1.571   0.626
 3454SOL    HW211262   1.772   1.564   0.477
 3455SOL     OW11263   1.645   3.162   4.303
 3455SOL    HW111264   1.579   3.235   4.283
 3455SOL    HW211265   1.653   3.102   4.224
 3456SOL     OW11266   5.953   6.514   1.680
 3456SOL    HW111267   6.014   6.480   1.608
 3456SOL    HW211268   5.867   6.544   1.640
 3457SOL     OW11269   2.563   4.997   3.885
 3457SOL    HW111270   2.482   4.944   3.856
 3457SOL    HW211271   2.645   4.942   3.870
 3458SOL     OW11272   5.865   6.722   0.277
 3458SOL    HW111273   5.929   6.645   0.285
 3458SOL    HW211274   5.867   6.776   0.361
 3459SOL     OW11275   0.379   3.724   3.415
 3459SOL    HW111276   0.338   3.651   3.361
 3459SOL    HW211277   0.321   3.743   3.495
 3460SOL     OW11278   2.690   2.699   6.894
 3460SOL    HW111279   2.650   2.712   6.804
 3460SOL    HW211280   2.723   2.786   6.929
 3461SOL     OW11281   3.695   5.265   4.187
 3461SOL    HW111282   3.676   5.167   4.196
 3461SOL    HW211283   3.737   5.298   4.272
 3462SOL     OW11284   5.852   2.860   2.994
 3462SOL    HW111285   5.815   2.871   2.902
 3462SOL    HW211286   5.849   2.764   3.020
 3463SOL     OW11287   1.471   3.257   1.727
 3463SOL    HW111288   1.482   3.160   1.702
 3463SOL    HW211289   1.383   3.270   1.773
 3464SOL     OW11290   5.496   2.845   6.426
 3464SOL    HW111291   5.474   2.943   6.429
 3464SOL    HW211292   5.451   2.798   6.502
 3465SOL     OW11293   2.139   3.620   1.679
 3465SOL    HW111294   2.197   3.568   1.743
 3465SOL    HW211295   2.159   3.718   1.689
 3466SOL     OW11296   5.539   4.220   5.217
 3466SOL    HW111297   5.536   4.121   5.201
 3466SOL    HW211298   5.456   4.248   5.267
 3467SOL     OW11299   3.564   1.660   0.913
 3467SOL    HW111300   3.555   1.610   1.000
 3467SOL    HW211301   3.507   1.742   0.916
 3468SOL     OW11302   4.457   1.694   1.881
 3468SOL    HW111303   4.473   1.793   1.872
 3468SOL    HW211304   4.486   1.664   1.972
 3469SOL     OW11305   4.504   0.413   5.967
 3469SOL    HW111306   4.562   0.336   5.941
 3469SOL    HW211307   4.410   0.380   5.980
 3470SOL     OW11308   0.110   2.916   1.036
 3470SOL    HW111309   0.037   2.848   1.025
 3470SOL    HW211310   0.147   2.910   1.129
 3471SOL     OW11311   4.647   4.277   3.789
 3471SOL    HW111312   4.652   4.190   3.836
 3471SOL    HW211313   4.740   4.306   3.763
 3472SOL     OW11314   4.445   2.463   3.208
 3472SOL    HW111315   4.377   2.472   3.136
 3472SOL    HW211316   4.402   2.477   3.297
 3473SOL     OW11317   6.953   3.555   3.716
 3473SOL    HW111318   0.031   3.552   3.752
 3473SOL    HW211319   6.949   3.620   3.640
 3474SOL     OW11320   0.129   4.306   4.171
 3474SOL    HW111321   0.087   4.264   4.091
 3474SOL    HW211322   0.097   4.260   4.254
 3475SOL     OW11323   6.927   4.922   4.484
 3475SOL    HW111324   7.007   4.955   4.533
 3475SOL    HW211325   6.903   4.987   4.412
 3476SOL     OW11326   2.132   1.783   3.863
 3476SOL    HW111327   2.151   1.880   3.847
 3476SOL    HW211328   2.153   1.760   3.958
 3477SOL     OW11329   0.473   3.526   1.243
 3477SOL    HW111330   0.417   3.450   1.275
 3477SOL    HW211331   0.416   3.590   1.191
 3478SOL     OW11332   2.418   6.587   0.356
 3478SOL    HW111333   2.384   6.500   0.392
 3478SOL    HW211334   2.423   6.581   0.256
 3479SOL     OW11335   0.505   2.933   3.720
 3479SOL    HW111336   0.476   3.014   3.771
 3479SOL    HW211337   0.541   2.961   3.631
 3480SOL     OW11338   0.864   5.731   6.750
 3480SOL    HW111339   0.816   5.646   6.727
 3480SOL    HW211340   0.946   5.739   6.694
 3481SOL     OW11341   5.676   0.518   0.128
 3481SOL    HW111342   5.608   0.579   0.170
 3481SOL    HW211343   5.747   0.574   0.085
 3482SOL     OW11344   6.360   2.949   4.044
 3482SOL    HW111345   6.295   2.989   3.979
 3482SOL    HW211346   6.311   2.893   4.110
 3483SOL     OW11347   4.791   2.572   3.534
 3483SOL    HW111348   4.873   2.567   3.590
 3483SOL    HW211349   4.730   2.496   3.557
 3484SOL     OW11350   1.860   3.449   6.462
 3484SOL    HW111351   1.924   3.494   6.525
 3484SOL    HW211352   1.801   3.518   6.420
 3485SOL     OW11353   6.871   1.781   5.608
 3485SOL    HW111354   6.817   1.812   5.529
 3485SOL    HW211355   6.940   1.715   5.578
 3486SOL     OW11356   1.698   6.935   4.215
 3486SOL    HW111357   1.766   6.997   4.177
 3486SOL    HW211358   1.683   6.957   4.311
 3487SOL     OW11359   6.592   1.545   6.898
 3487SOL    HW111360   6.581   1.537   6.997
 3487SOL    HW211361   6.533   1.618   6.863
 3488SOL     OW11362   5.529   0.510   5.131
 3488SOL    HW111363   5.470   0.432   5.114
 3488SOL    HW211364   5.612   0.502   5.076
 3489SOL     OW11365   3.192   6.801   1.371
 3489SOL    HW111366   3.127   6.845   1.310
 3489SOL    HW211367   3.283   6.801   1.328
 3490SOL     OW11368   3.715   5.111   1.215
 3490SOL    HW111369   3.687   5.099   1.310
 3490SOL    HW211370   3.811   5.084   1.204
 3491SOL     OW11371   5.229   3.996   6.717
 3491SOL    HW111372   5.246   3.904   6.754
 3491SOL    HW211373   5.240   4.064   6.789
 3492SOL     OW11374   6.989   3.811   2.215
 3492SOL    HW111375   0.029   3.804   2.132
 3492SOL    HW211376   6.908   3.753   2.206
 3493SOL     OW11377   6.540   3.897   4.135
 3493SOL    HW111378   6.521   3.803   4.162
 3493SOL    HW211379   6.626   3.927   4.176
 3494SOL     OW11380   3.225   1.911   2.575
 3494SOL    HW111381   3.140   1.889   2.528
 3494SOL    HW211382   3.287   1.833   2.570
 3495SOL     OW11383   0.814   3.969   2.006
 3495SOL    HW111384   0.742   4.037   2.017
 3495SOL    HW211385   0.785   3.883   2.048
 3496SOL     OW11386   6.064   4.601   0.255
 3496SOL    HW111387   6.038   4.641   0.343
 3496SOL    HW211388   5.990   4.543   0.221
 3497SOL     OW11389   3.456   0.871   3.645
 3497SOL    HW111390   3.398   0.790   3.652
 3497SOL    HW211391   3.546   0.852   3.685
 3498SOL     OW11392   2.790   1.876   2.213
 3498SOL    HW111393   2.774   1.833   2.302
 3498SOL    HW211394   2.788   1.807   2.141
 3499SOL     OW11395   6.105   5.707   5.478
 3499SOL    HW111396   6.172   5.714   5.552
 3499SOL    HW211397   6.086   5.799   5.442
 3500SOL     OW11398   1.805   2.205   3.883
 3500SOL    HW111399   1.867   2.244   3.815
 3500SOL    HW211400   1.852   2.130   3.931
 3501SOL     OW11401   2.311   6.706   6.852
 3501SOL    HW111402   2.392   6.739   6.804
 3501SOL    HW211403   2.288   6.770   6.926
 3502SOL     OW11404   5.969   3.512   2.034
 3502SOL    HW111405   5.924   3.550   1.953
 3502SOL    HW211406   5.961   3.576   2.110
 3503SOL     OW11407   6.827   5.908   5.986
 3503SOL    HW111408   6.847   5.970   5.911
 3503SOL    HW211409   6.727   5.901   5.998
 3504SOL     OW11410   2.272   0.646   2.007
 3504SOL    HW111411   2.356   0.634   1.955
 3504SOL    HW211412   2.292   0.697   2.091
 3505SOL     OW11413   5.553   5.718   5.505
 3505SOL    HW111414   5.542   5.753   5.598
 3505SOL    HW211415   5.639   5.753   5.466
 3506SOL     OW11416   6.156   4.670   5.173
 3506SOL    HW111417   6.192   4.624   5.091
 3506SOL    HW211418   6.209   4.643   5.253
 3507SOL     OW11419   2.210   6.507   0.678
 3507SOL    HW111420   2.267   6.590   0.676
 3507SOL    HW211421   2.242   6.446   0.751
 3508SOL     OW11422   3.188   2.733   6.133
 3508SOL    HW111423   3.245   2.811   6.157
 3508SOL    HW211424   3.237   2.674   6.068
 3509SOL     OW11425   5.324   6.790   0.416
 3509SOL    HW111426   5.227   6.768   0.424
 3509SOL    HW211427   5.371   6.716   0.369
 3510SOL     OW11428   2.375   0.994   1.375
 3510SOL    HW111429   2.334   0.969   1.287
 3510SOL    HW211430   2.397   0.911   1.426
 3511SOL     OW11431   1.814   4.519   1.658
 3511SOL    HW111432   1.873   4.484   1.731
 3511SOL    HW211433   1.813   4.619   1.662
 3512SOL     OW11434   1.029   3.579   0.580
 3512SOL    HW111435   1.114   3.621   0.546
 3512SOL    HW211436   0.954   3.645   0.574
 3513SOL     OW11437   6.381   2.146   1.245
 3513SOL    HW111438   6.350   2.051   1.237
 3513SOL    HW211439   6.412   2.163   1.339
 3514SOL     OW11440   5.597   0.707   2.498
 3514SOL    HW111441   5.542   0.684   2.418
 3514SOL    HW211442   5.558   0.787   2.544
 3515SOL     OW11443   5.840   6.031   3.601
 3515SOL    HW111444   5.861   5.985   3.687
 3515SOL    HW211445   5.873   5.976   3.525
 3516SOL     OW11446   5.009   0.167   1.040
 3516SOL    HW111447   5.061   0.243   1.078
 3516SOL    HW211448   5.042   0.148   0.947
 3517SOL     OW11449   0.372   1.033   1.196
 3517SOL    HW111450   0.330   1.013   1.285
 3517SOL    HW211451   0.382   0.948   1.145
 3518SOL     OW11452   5.557   2.192   5.145
 3518SOL    HW111453   5.499   2.111   5.154
 3518SOL    HW211454   5.515   2.256   5.081
 3519SOL     OW11455   2.577   1.407   6.814
 3519SOL    HW111456   2.555   1.356   6.731
 3519SOL    HW211457   2.523   1.491   6.818
 3520SOL     OW11458   3.747   6.323   6.199
 3520SOL    HW111459   3.730   6.224   6.206
 3520SOL    HW211460   3.781   6.344   6.108
 3521SOL     OW11461   3.450   2.688   6.682
 3521SOL    HW111462   3.436   2.638   6.768
 3521SOL    HW211463   3.363   2.694   6.633
 3522SOL     OW11464   6.442   5.369   6.585
 3522SOL    HW111465   6.460   5.376   6.683
 3522SOL    HW211466   6.352   5.406   6.565
 3523SOL     OW11467   1.049   4.503   5.892
 3523SOL    HW111468   1.064   4.404   5.903
 3523SOL    HW211469   1.105   4.536   5.816
 3524SOL     OW11470   5.119   1.993   2.565
 3524SOL    HW111471   5.161   1.904   2.580
 3524SOL    HW211472   5.054   1.986   2.489
 3525SOL     OW11473   5.880   3.712   3.808
 3525SOL    HW111474   5.842   3.689   3.719
 3525SOL    HW211475   5.824   3.670   3.880
 3526SOL     OW11476   2.096   6.185   3.633
 3526SOL    HW111477   2.083   6.246   3.555
 3526SOL    HW211478   2.105   6.091   3.600
 3527SOL     OW11479   6.261   3.072   6.055
 3527SOL    HW111480   6.216   3.017   5.985
 3527SOL    HW211481   6.216   3.057   6.143
 3528SOL     OW11482   2.583   6.338   4.909
 3528SOL    HW111483   2.564   6.405   4.837
 3528SOL    HW211484   2.665   6.364   4.959
 3529SOL     OW11485   4.277   6.833   6.730
 3529SOL    HW111486   4.289   6.828   6.829
 3529SOL    HW211487   4.320   6.915   6.695
 3530SOL     OW11488   0.028   4.981   1.914
 3530SOL    HW111489   6.984   4.956   1.838
 3530SOL    HW211490   6.988   5.003   1.995
 3531SOL     OW11491   5.582   2.237   1.455
 3531SOL    HW111492   5.604   2.141   1.439
 3531SOL    HW211493   5.654   2.278   1.511
 3532SOL     OW11494   2.740   0.649   2.130
 3532SOL    HW111495   2.798   0.725   2.156
 3532SOL    HW211496   2.682   0.675   2.053
 3533SOL     OW11497   0.395   2.073   2.596
 3533SOL    HW111498   0.398   2.091   2.694
 3533SOL    HW211499   0.313   2.114   2.557
 3534SOL     OW11500   0.780   2.192   2.149
 3534SOL    HW111501   0.693   2.232   2.120
 3534SOL    HW211502   0.800   2.221   2.243
 3535SOL     OW11503   2.634   5.499   5.409
 3535SOL    HW111504   2.542   5.478   5.375
 3535SOL    HW211505   2.702   5.452   5.352
 3536SOL     OW11506   3.543   1.718   3.065
 3536SOL    HW111507   3.501   1.689   3.151
 3536SOL    HW211508   3.492   1.679   2.988
 3537SOL     OW11509   1.089   5.787   2.159
 3537SOL    HW111510   1.025   5.763   2.232
 3537SOL    HW211511   1.177   5.813   2.198
 3538SOL     OW11512   3.445   5.279   5.720
 3538SOL    HW111513   3.387   5.208   5.679
 3538SOL    HW211514   3.505   5.318   5.650
 3539SOL     OW11515   3.767   3.542   4.636
 3539SOL    HW111516   3.815   3.588   4.561
 3539SOL    HW211517   3.805   3.572   4.723
 3540SOL     OW11518   2.311   2.487   4.362
 3540SOL    HW111519   2.316   2.564   4.299
 3540SOL    HW211520   2.243   2.505   4.433
 3541SOL     OW11521   2.994   2.930   5.317
 3541SOL    HW111522   2.900   2.961   5.332
 3541SOL    HW211523   3.050   2.958   5.395
 3542SOL     OW11524   1.751   5.295   3.193
 3542SOL    HW111525   1.841   5.308   3.151
 3542SOL    HW211526   1.759   5.303   3.292
 3543SOL     OW11527   5.678   2.899   3.729
 3543SOL    HW111528   5.660   2.837   3.653
 3543SOL    HW211529   5.620   2.980   3.720
 3544SOL     OW11530   1.901   4.143   6.737
 3544SOL    HW111531   1.951   4.116   6.819
 3544SOL    HW211532   1.862   4.234   6.750
 3545SOL     OW11533   3.959   6.320   6.364
 3545SOL    HW111534   4.052   6.335   6.329
 3545SOL    HW211535   3.894   6.361   6.300
 3546SOL     OW11536   0.542   5.546   3.115
 3546SOL    HW111537   0.458   5.509   3.076
 3546SOL    HW211538   0.577   5.484   3.185
 3547SOL     OW11539   4.116   5.117   3.795
 3547SOL    HW111540   4.121   5.104   3.696
 3547SOL    HW211541   4.157   5.040   3.841
 3548SOL     OW11542   4.985   2.279   5.771
 3548SOL    HW111543   4.961   2.330   5.854
 3548SOL    HW211544   5.066   2.223   5.789
 3549SOL     OW11545   6.693   4.757   4.390
 3549SOL    HW111546   6.640   4.754   4.306
 3549SOL    HW211547   6.790   4.769   4.369
 3550SOL     OW11548   5.168   2.296   3.035
 3550SOL    HW111549   5.123   2.272   2.949
 3550SOL    HW211550   5.200   2.391   3.030
 3551SOL     OW11551   3.408   6.299   3.096
 3551SOL    HW111552   3.406   6.202   3.072
 3551SOL    HW211553   3.416   6.309   3.196
 3552SOL     OW11554   4.667   5.687   2.684
 3552SOL    HW111555   4.626   5.605   2.724
 3552SOL    HW211556   4.735   5.660   2.616
 3553SOL     OW11557   5.545   2.987   2.380
 3553SOL    HW111558   5.557   3.081   2.347
 3553SOL    HW211559   5.634   2.949   2.404
 3554SOL     OW11560   3.971   3.601   0.061
 3554SOL    HW111561   3.987   3.680   0.120
 3554SOL    HW211562   4.058   3.553   0.046
 3555SOL     OW11563   0.516   3.352   3.129
 3555SOL    HW111564   0.593   3.412   3.153
 3555SOL    HW211565   0.430   3.403   3.136
 3556SOL     OW11566   3.291   0.417   5.474
 3556SOL    HW111567   3.309   0.320   5.456
 3556SOL    HW211568   3.271   0.464   5.388
 3557SOL     OW11569   0.883   1.059   4.760
 3557SOL    HW111570   0.920   0.967   4.769
 3557SOL    HW211571   0.858   1.095   4.850
 3558SOL     OW11572   0.140   5.586   1.827
 3558SOL    HW111573   0.118   5.494   1.794
 3558SOL    HW211574   0.229   5.584   1.873
 3559SOL     OW11575   0.043   0.169   4.922
 3559SOL    HW111576   0.097   0.144   4.841
 3559SOL    HW211577   0.057   0.265   4.943
 3560SOL     OW11578   1.470   5.626   0.984
 3560SOL    HW111579   1.491   5.669   0.896
 3560SOL    HW211580   1.549   5.573   1.015
 3561SOL     OW11581   5.008   4.693   5.930
 3561SOL    HW111582   5.083   4.700   5.864
 3561SOL    HW211583   5.030   4.621   5.997
 3562SOL     OW11584   4.549   0.558   3.882
 3562SOL    HW111585   4.475   0.606   3.928
 3562SOL    HW211586   4.604   0.623   3.829
 3563SOL     OW11587   5.349   1.252   1.591
 3563SOL    HW111588   5.365   1.177   1.655
 3563SOL    HW211589   5.435   1.302   1.576
 3564SOL     OW11590   0.678   4.550   4.575
 3564SOL    HW111591   0.642   4.460   4.600
 3564SOL    HW211592   0.680   4.609   4.656
 3565SOL     OW11593   3.132   6.406   4.855
 3565SOL    HW111594   3.182   6.491   4.876
 3565SOL    HW211595   3.115   6.356   4.940
 3566SOL     OW11596   6.820   3.348   5.999
 3566SOL    HW111597   6.790   3.431   5.952
 3566SOL    HW211598   6.786   3.349   6.093
 3567SOL     OW11599   0.867   2.289   0.702
 3567SOL    HW111600   0.797   2.352   0.736
 3567SOL    HW211601   0.841   2.258   0.610
 3568SOL     OW11602   4.976   4.929   2.467
 3568SOL    HW111603   5.052   4.932   2.532
 3568SOL    HW211604   4.983   4.846   2.412
 3569SOL     OW11605   3.161   3.237   4.924
 3569SOL    HW111606   3.259   3.250   4.943
 3569SOL    HW211607   3.150   3.196   4.834
 3570SOL     OW11608   5.714   1.190   5.533
 3570SOL    HW111609   5.747   1.121   5.469
 3570SOL    HW211610   5.770   1.273   5.525
 3571SOL     OW11611   1.748   0.739   4.767
 3571SOL    HW111612   1.782   0.735   4.673
 3571SOL    HW211613   1.824   0.761   4.829
 3572SOL     OW11614   5.228   4.276   2.303
 3572SOL    HW111615   5.302   4.227   2.349
 3572SOL    HW211616   5.170   4.322   2.371
 3573SOL     OW11617   6.611   4.753   2.277
 3573SOL    HW111618   6.515   4.736   2.254
 3573SOL    HW211619   6.655   4.666   2.302
 3574SOL     OW11620   2.237   3.070   6.291
 3574SOL    HW111621   2.295   3.115   6.223
 3574SOL    HW211622   2.157   3.127   6.308
 3575SOL     OW11623   4.897   5.718   0.688
 3575SOL    HW111624   4.816   5.716   0.747
 3575SOL    HW211625   4.899   5.637   0.630
 3576SOL     OW11626   0.305   2.798   0.130
 3576SOL    HW111627   0.372   2.727   0.107
 3576SOL    HW211628   0.352   2.884   0.150
 3577SOL     OW11629   2.315   2.809   5.447
 3577SOL    HW111630   2.393   2.853   5.401
 3577SOL    HW211631   2.341   2.717   5.475
 3578SOL     OW11632   3.091   2.917   0.760
 3578SOL    HW111633   3.168   2.855   0.771
 3578SOL    HW211634   3.031   2.910   0.840
 3579SOL     OW11635   0.723   3.704   2.128
 3579SOL    HW111636   0.798   3.716   2.193
 3579SOL    HW211637   0.704   3.606   2.118
 3580SOL     OW11638   0.503   3.069   1.276
 3580SOL    HW111639   0.602   3.076   1.273
 3580SOL    HW211640   0.472   3.079   1.370
 3581SOL     OW11641   0.649   0.020   3.277
 3581SOL    HW111642   0.657   6.948   3.323
 3581SOL    HW211643   0.697   0.090   3.330
 3582SOL     OW11644   3.206   4.288   6.045
 3582SOL    HW111645   3.265   4.368   6.058
 3582SOL    HW211646   3.126   4.316   5.992
 3583SOL     OW11647   0.476   4.415   0.544
 3583SOL    HW111648   0.457   4.448   0.451
 3583SOL    HW211649   0.570   4.437   0.569
 3584SOL     OW11650   5.979   4.471   5.478
 3584SOL    HW111651   6.059   4.435   5.429
 3584SOL    HW211652   5.933   4.539   5.422
 3585SOL     OW11653   2.601   2.454   4.678
 3585SOL    HW111654   2.645   2.399   4.749
 3585SOL    HW211655   2.508   2.421   4.663
 3586SOL     OW11656   6.157   3.060   3.853
 3586SOL    HW111657   6.083   3.066   3.920
 3586SOL    HW211658   6.188   3.152   3.829
 3587SOL     OW11659   3.496   6.417   6.365
 3587SOL    HW111660   3.568   6.462   6.417
 3587SOL    HW211661   3.526   6.407   6.270
 3588SOL     OW11662   6.191   4.358   4.436
 3588SOL    HW111663   6.200   4.456   4.416
 3588SOL    HW211664   6.243   4.305   4.370
 3589SOL     OW11665   0.266   6.765   5.476
 3589SOL    HW111666   0.364   6.777   5.492
 3589SOL    HW211667   0.237   6.675   5.509
 3590SOL     OW11668   0.320   4.110   0.270
 3590SOL    HW111669   0.313   4.035   0.336
 3590SOL    HW211670   0.416   4.133   0.256
 3591SOL     OW11671   5.387   2.694   6.612
 3591SOL    HW111672   5.300   2.743   6.608
 3591SOL    HW211673   5.434   2.716   6.697
 3592SOL     OW11674   1.329   0.368   2.314
 3592SOL    HW111675   1.355   0.297   2.249
 3592SOL    HW211676   1.254   0.334   2.372
 3593SOL     OW11677   6.412   3.709   5.301
 3593SOL    HW111678   6.493   3.698   5.244
 3593SOL    HW211679   6.397   3.807   5.319
 3594SOL     OW11680   4.028   5.637   4.830
 3594SOL    HW111681   4.101   5.580   4.792
 3594SOL    HW211682   3.946   5.629   4.774
 3595SOL     OW11683   5.575   5.786   0.130
 3595SOL    HW111684   5.584   5.730   0.048
 3595SOL    HW211685   5.486   5.831   0.130
 3596SOL     OW11686   4.208   1.353   3.463
 3596SOL    HW111687   4.211   1.253   3.472
 3596SOL    HW211688   4.149   1.391   3.533
 3597SOL     OW11689   1.823   3.223   4.981
 3597SOL    HW111690   1.897   3.227   5.049
 3597SOL    HW211691   1.842   3.287   4.907
 3598SOL     OW11692   1.382   6.155   5.445
 3598SOL    HW111693   1.478   6.129   5.450
 3598SOL    HW211694   1.347   6.173   5.537
 3599SOL     OW11695   4.297   1.589   6.267
 3599SOL    HW111696   4.342   1.652   6.329
 3599SOL    HW211697   4.327   1.606   6.173
 3600SOL     OW11698   2.908   3.484   0.398
 3600SOL    HW111699   2.994   3.535   0.395
 3600SOL    HW211700   2.922   3.398   0.447
 3601SOL     OW11701   5.231   1.271   5.463
 3601SOL    HW111702   5.159   1.271   5.394
 3601SOL    HW211703   5.209   1.204   5.534
 3602SOL     OW11704   1.785   2.708   1.526
 3602SOL    HW111705   1.773   2.775   1.599
 3602SOL    HW211706   1.720   2.634   1.538
 3603SOL     OW11707   3.160   0.762   5.814
 3603SOL    HW111708   3.184   0.670   5.843
 3603SOL    HW211709   3.212   0.829   5.867
 3604SOL     OW11710   0.289   0.756   3.589
 3604SOL    HW111711   0.332   0.671   3.618
 3604SOL    HW211712   0.193   0.755   3.614
 3605SOL     OW11713   1.208   5.036   3.308
 3605SOL    HW111714   1.210   5.036   3.408
 3605SOL    HW211715   1.264   4.961   3.273
 3606SOL     OW11716   1.856   6.334   1.607
 3606SOL    HW111717   1.761   6.364   1.599
 3606SOL    HW211718   1.876   6.311   1.703
 3607SOL     OW11719   5.353   2.977   2.978
 3607SOL    HW111720   5.304   2.973   2.891
 3607SOL    HW211721   5.431   2.914   2.975
 3608SOL     OW11722   4.184   1.818   4.183
 3608SOL    HW111723   4.198   1.902   4.131
 3608SOL    HW211724   4.126   1.837   4.262
 3609SOL     OW11725   2.359   6.792   4.393
 3609SOL    HW111726   2.396   6.814   4.302
 3609SOL    HW211727   2.296   6.715   4.385
 3610SOL     OW11728   1.839   6.954   5.523
 3610SOL    HW111729   1.874   7.002   5.443
 3610SOL    HW211730   1.895   6.977   5.603
 3611SOL     OW11731   4.641   4.399   4.284
 3611SOL    HW111732   4.628   4.300   4.290
 3611SOL    HW211733   4.557   4.442   4.249
 3612SOL     OW11734   6.228   1.473   6.718
 3612SOL    HW111735   6.326   1.454   6.722
 3612SOL    HW211736   6.199   1.523   6.800
 3613SOL     OW11737   3.299   5.454   1.328
 3613SOL    HW111738   3.325   5.439   1.424
 3613SOL    HW211739   3.344   5.388   1.270
 3614SOL     OW11740   3.236   4.155   6.575
 3614SOL    HW111741   3.317   4.095   6.570
 3614SOL    HW211742   3.250   4.234   6.514
 3615SOL     OW11743   6.153   2.788   5.574
 3615SOL    HW111744   6.185   2.719   5.509
 3615SOL    HW211745   6.058   2.769   5.599
 3616SOL     OW11746   2.160   1.906   6.664
 3616SOL    HW111747   2.167   1.807   6.655
 3616SOL    HW211748   2.241   1.940   6.713
 3617SOL     OW11749   4.212   0.050   5.853
 3617SOL    HW111750   4.221   6.969   5.875
 3617SOL    HW211751   4.168   0.060   5.763
 3618SOL     OW11752   1.800   3.909   4.838
 3618SOL    HW111753   1.769   3.891   4.931
 3618SOL    HW211754   1.864   3.986   4.839
 3619SOL     OW11755   6.017   2.910   1.117
 3619SOL    HW111756   5.921   2.883   1.112
 3619SOL    HW211757   6.051   2.928   1.025
 3620SOL     OW11758   6.136   6.406   4.564
 3620SOL    HW111759   6.117   6.469   4.639
 3620SOL    HW211760   6.151   6.458   4.480
 3621SOL     OW11761   3.767   2.929   3.909
 3621SOL    HW111762   3.703   3.005   3.911
 3621SOL    HW211763   3.779   2.892   4.001
 3622SOL     OW11764   1.015   6.666   0.770
 3622SOL    HW111765   1.046   6.682   0.676
 3622SOL    HW211766   0.958   6.743   0.800
 3623SOL     OW11767   1.375   5.397   5.796
 3623SOL    HW111768   1.437   5.347   5.735
 3623SOL    HW211769   1.391   5.495   5.786
 3624SOL     OW11770   3.396   0.969   1.979
 3624SOL    HW111771   3.361   0.923   2.060
 3624SOL    HW211772   3.433   1.059   2.004
 3625SOL     OW11773   6.404   3.065   6.603
 3625SOL    HW111774   6.469   3.138   6.624
 3625SOL    HW211775   6.311   3.101   6.606
 3626SOL     OW11776   0.445   2.875   4.866
 3626SOL    HW111777   0.513   2.837   4.929
 3626SOL    HW211778   0.378   2.928   4.918
 3627SOL     OW11779   4.564   3.094   1.357
 3627SOL    HW111780   4.596   3.184   1.327
 3627SOL    HW211781   4.471   3.079   1.323
 3628SOL     OW11782   0.816   1.177   2.000
 3628SOL    HW111783   0.852   1.167   2.093
 3628SOL    HW211784   0.725   1.219   2.003
 3629SOL     OW11785   0.640   1.398   4.428
 3629SOL    HW111786   0.617   1.494   4.413
 3629SOL    HW211787   0.730   1.379   4.390
 3630SOL     OW11788   0.080   2.855   3.451
 3630SOL    HW111789   0.127   2.852   3.539
 3630SOL    HW211790   7.011   2.803   3.456
 3631SOL     OW11791   1.722   6.440   2.691
 3631SOL    HW111792   1.784   6.365   2.713
 3631SOL    HW211793   1.649   6.445   2.759
 3632SOL     OW11794   4.310   3.629   1.087
 3632SOL    HW111795   4.354   3.546   1.052
 3632SOL    HW211796   4.262   3.607   1.172
 3633SOL     OW11797   3.813   2.606   6.237
 3633SOL    HW111798   3.802   2.697   6.198
 3633SOL    HW211799   3.863   2.547   6.173
 3634SOL     OW11800   2.998   5.636   5.942
 3634SOL    HW111801   3.074   5.668   5.999
 3634SOL    HW211802   3.034   5.591   5.861
 3635SOL     OW11803   3.136   0.978   1.856
 3635SOL    HW111804   3.132   0.903   1.790
 3635SOL    HW211805   3.231   0.993   1.883
 3636SOL     OW11806   1.093   5.912   6.931
 3636SOL    HW111807   1.033   5.918   6.851
 3636SOL    HW211808   1.083   5.995   6.986
 3637SOL     OW11809   0.286   3.107   6.620
 3637SOL    HW111810   0.369   3.086   6.671
 3637SOL    HW211811   0.223   3.157   6.680
 3638SOL     OW11812   5.814   4.575   2.331
 3638SOL    HW111813   5.833   4.632   2.411
 3638SOL    HW211814   5.888   4.508   2.319
 3639SOL     OW11815   3.998   3.940   4.816
 3639SOL    HW111816   3.913   3.981   4.850
 3639SOL    HW211817   4.059   4.012   4.783
 3640SOL     OW11818   5.213   2.667   0.272
 3640SOL    HW111819   5.117   2.650   0.293
 3640SOL    HW211820   5.221   2.701   0.178
 3641SOL     OW11821   6.824   3.884   1.527
 3641SOL    HW111822   6.760   3.923   1.462
 3641SOL    HW211823   6.805   3.787   1.539
 3642SOL     OW11824   5.890   2.396   6.568
 3642SOL    HW111825   5.930   2.357   6.652
 3642SOL    HW211826   5.792   2.380   6.568
 3643SOL     OW11827   4.077   5.867   5.765
 3643SOL    HW111828   4.005   5.934   5.784
 3643SOL    HW211829   4.067   5.833   5.672
 3644SOL     OW11830   3.294   0.499   1.847
 3644SOL    HW111831   3.248   0.517   1.934
 3644SOL    HW211832   3.250   0.423   1.800
 3645SOL     OW11833   1.552   4.020   4.386
 3645SOL    HW111834   1.487   4.045   4.458
 3645SOL    HW211835   1.638   3.990   4.427
 3646SOL     OW11836   2.732   4.679   4.757
 3646SOL    HW111837   2.781   4.669   4.844
 3646SOL    HW211838   2.643   4.722   4.773
 3647SOL     OW11839   2.058   0.131   0.491
 3647SOL    HW111840   2.023   0.131   0.585
 3647SOL    HW211841   2.107   0.046   0.474
 3648SOL     OW11842   4.534   5.587   3.531
 3648SOL    HW111843   4.493   5.674   3.502
 3648SOL    HW211844   4.580   5.544   3.453
 3649SOL     OW11845   5.869   3.602   0.391
 3649SOL    HW111846   5.864   3.509   0.427
 3649SOL    HW211847   5.859   3.599   0.291
 3650SOL     OW11848   4.955   4.689   0.253
 3650SOL    HW111849   4.948   4.590   0.254
 3650SOL    HW211850   4.870   4.729   0.287
 3651SOL     OW11851   1.409   2.341   5.924
 3651SOL    HW111852   1.363   2.344   6.013
 3651SOL    HW211853   1.491   2.399   5.927
 3652SOL     OW11854   5.220   1.549   1.921
 3652SOL    HW111855   5.187   1.479   1.858
 3652SOL    HW211856   5.286   1.608   1.875
 3653SOL     OW11857   0.456   1.471   1.924
 3653SOL    HW111858   0.493   1.414   1.997
 3653SOL    HW211859   0.418   1.413   1.852
 3654SOL     OW11860   5.129   0.423   0.646
 3654SOL    HW111861   5.157   0.481   0.569
 3654SOL    HW211862   5.163   0.462   0.731
 3655SOL     OW11863   1.382   1.924   3.964
 3655SOL    HW111864   1.423   2.007   3.926
 3655SOL    HW211865   1.454   1.864   4.000
 3656SOL     OW11866   0.146   5.681   1.294
 3656SOL    HW111867   0.055   5.654   1.262
 3656SOL    HW211868   0.190   5.740   1.227
 3657SOL     OW11869   4.744   6.456   4.628
 3657SOL    HW111870   4.660   6.486   4.674
 3657SOL    HW211871   4.784   6.534   4.580
 3658SOL     OW11872   1.327   5.293   6.111
 3658SOL    HW111873   1.233   5.291   6.144
 3658SOL    HW211874   1.327   5.299   6.011
 3659SOL     OW11875   6.747   2.114   6.305
 3659SOL    HW111876   6.758   2.043   6.375
 3659SOL    HW211877   6.654   2.150   6.309
 3660SOL     OW11878   5.985   5.557   6.045
 3660SOL    HW111879   6.033   5.535   6.129
 3660SOL    HW211880   5.887   5.537   6.056
 3661SOL     OW11881   6.705   1.588   5.224
 3661SOL    HW111882   6.747   1.501   5.249
 3661SOL    HW211883   6.699   1.596   5.125
 3662SOL     OW11884   3.560   1.268   5.551
 3662SOL    HW111885   3.623   1.339   5.521
 3662SOL    HW211886   3.534   1.284   5.647
 3663SOL     OW11887   2.281   2.698   6.347
 3663SOL    HW111888   2.369   2.741   6.369
 3663SOL    HW211889   2.216   2.717   6.419
 3664SOL     OW11890   3.903   1.834   2.504
 3664SOL    HW111891   3.881   1.921   2.460
 3664SOL    HW211892   3.820   1.793   2.540
 3665SOL     OW11893   0.694   6.099   5.562
 3665SOL    HW111894   0.784   6.143   5.556
 3665SOL    HW211895   0.696   6.014   5.510
 3666SOL     OW11896   2.228   1.812   4.575
 3666SOL    HW111897   2.221   1.783   4.670
 3666SOL    HW211898   2.143   1.792   4.527
 3667SOL     OW11899   2.170   0.837   2.669
 3667SOL    HW111900   2.217   0.849   2.582
 3667SOL    HW211901   2.165   0.925   2.716
 3668SOL     OW11902   0.725   0.330   1.481
 3668SOL    HW111903   0.669   0.271   1.539
 3668SOL    HW211904   0.752   0.411   1.532
 3669SOL     OW11905   6.602   1.685   4.229
 3669SOL    HW111906   6.700   1.668   4.224
 3669SOL    HW211907   6.553   1.609   4.186
 3670SOL     OW11908   3.411   5.509   1.604
 3670SOL    HW111909   3.337   5.573   1.581
 3670SOL    HW211910   3.402   5.481   1.700
 3671SOL     OW11911   0.040   0.478   3.335
 3671SOL    HW111912   0.139   0.484   3.320
 3671SOL    HW211913   0.022   0.463   3.432
 3672SOL     OW11914   4.222   0.860   2.890
 3672SOL    HW111915   4.246   0.764   2.904
 3672SOL    HW211916   4.143   0.883   2.946
 3673SOL     OW11917   4.935   6.117   1.059
 3673SOL    HW111918   4.939   6.128   0.960
 3673SOL    HW211919   4.898   6.201   1.100
 3674SOL     OW11920   1.530   5.178   5.718
 3674SOL    HW111921   1.580   5.192   5.803
 3674SOL    HW211922   1.549   5.087   5.683
 3675SOL     OW11923   6.804   1.521   4.056
 3675SOL    HW111924   6.709   1.488   4.055
 3675SOL    HW211925   6.827   1.551   4.149
 3676SOL     OW11926   4.604   1.559   3.334
 3676SOL    HW111927   4.693   1.563   3.380
 3676SOL    HW211928   4.586   1.647   3.290
 3677SOL     OW11929   2.145   0.576   3.984
 3677SOL    HW111930   2.102   0.505   4.040
 3677SOL    HW211931   2.124   0.666   4.023
 3678SOL     OW11932   1.531   0.453   3.578
 3678SOL    HW111933   1.618   0.502   3.574
 3678SOL    HW211934   1.537   0.369   3.524
 3679SOL     OW11935   4.809   1.086   2.499
 3679SOL    HW111936   4.844   1.111   2.409
 3679SOL    HW211937   4.736   1.148   2.526
 3680SOL     OW11938   3.684   1.136   4.255
 3680SOL    HW111939   3.720   1.201   4.322
 3680SOL    HW211940   3.734   1.050   4.261
 3681SOL     OW11941   1.277   0.317   4.915
 3681SOL    HW111942   1.294   0.414   4.937
 3681SOL    HW211943   1.185   0.308   4.877
 3682SOL     OW11944   5.632   2.380   1.216
 3682SOL    HW111945   5.701   2.340   1.157
 3682SOL    HW211946   5.629   2.330   1.303
 3683SOL     OW11947   0.040   1.004   5.691
 3683SOL    HW111948   0.075   1.059   5.616
 3683SOL    HW211949   0.058   0.907   5.673
 3684SOL     OW11950   1.778   6.696   5.427
 3684SOL    HW111951   1.736   6.652   5.506
 3684SOL    HW211952   1.808   6.787   5.452
 3685SOL     OW11953   2.276   5.842   5.399
 3685SOL    HW111954   2.338   5.878   5.329
 3685SOL    HW211955   2.224   5.765   5.362
 3686SOL     OW11956   6.821   4.190   3.759
 3686SOL    HW111957   6.779   4.280   3.746
 3686SOL    HW211958   6.762   4.133   3.816
 3687SOL     OW11959   4.755   6.085   3.249
 3687SOL    HW111960   4.848   6.105   3.218
 3687SOL    HW211961   4.759   6.014   3.320
 3688SOL     OW11962   5.883   3.340   0.407
 3688SOL    HW111963   5.863   3.282   0.329
 3688SOL    HW211964   5.886   3.285   0.490
 3689SOL     OW11965   1.410   0.150   5.588
 3689SOL    HW111966   1.448   0.059   5.603
 3689SOL    HW211967   1.341   0.145   5.515
 3690SOL     OW11968   4.835   4.982   0.693
 3690SOL    HW111969   4.783   4.919   0.636
 3690SOL    HW211970   4.921   5.005   0.647
 3691SOL     OW11971   2.461   2.378   0.471
 3691SOL    HW111972   2.464   2.417   0.563
 3691SOL    HW211973   2.368   2.348   0.451
 3692SOL     OW11974   0.430   3.543   6.269
 3692SOL    HW111975   0.479   3.460   6.240
 3692SOL    HW211976   0.383   3.583   6.190
 3693SOL     OW11977   0.306   1.736   2.673
 3693SOL    HW111978   0.301   1.712   2.770
 3693SOL    HW211979   0.395   1.710   2.636
 3694SOL     OW11980   0.055   0.107   1.607
 3694SOL    HW111981   0.127   0.055   1.652
 3694SOL    HW211982   6.998   0.127   1.672
 3695SOL     OW11983   6.503   2.564   2.841
 3695SOL    HW111984   6.440   2.507   2.788
 3695SOL    HW211985   6.592   2.566   2.797
 3696SOL     OW11986   5.146   0.843   4.585
 3696SOL    HW111987   5.071   0.777   4.594
 3696SOL    HW211988   5.233   0.794   4.579
 3697SOL     OW11989   6.406   6.653   3.546
 3697SOL    HW111990   6.482   6.590   3.559
 3697SOL    HW211991   6.325   6.618   3.593
 3698SOL     OW11992   2.301   0.638   2.901
 3698SOL    HW111993   2.326   0.713   2.961
 3698SOL    HW211994   2.205   0.646   2.875
 3699SOL     OW11995   2.735   2.261   3.838
 3699SOL    HW111996   2.830   2.243   3.864
 3699SOL    HW211997   2.678   2.183   3.865
 3700SOL     OW11998   0.807   5.092   5.598
 3700SOL    HW111999   0.845   5.156   5.664
 3700SOL    HW212000   0.710   5.079   5.616
 3701SOL     OW12001   1.422   0.365   2.833
 3701SOL    HW112002   1.376   0.453   2.822
 3701SOL    HW212003   1.448   0.329   2.743
 3702SOL     OW12004   5.159   4.892   3.807
 3702SOL    HW112005   5.135   4.880   3.903
 3702SOL    HW212006   5.165   4.990   3.787
 3703SOL     OW12007   1.158   1.674   5.063
 3703SOL    HW112008   1.187   1.723   4.980
 3703SOL    HW212009   1.108   1.736   5.123
 3704SOL     OW12010   0.102   2.000   1.233
 3704SOL    HW112011   0.179   2.034   1.178
 3704SOL    HW212012   0.064   2.076   1.286
 3705SOL     OW12013   5.107   4.712   3.100
 3705SOL    HW112014   5.023   4.766   3.099
 3705SOL    HW212015   5.129   4.687   3.195
 3706SOL     OW12016   1.283   3.597   0.388
 3706SOL    HW112017   1.379   3.616   0.406
 3706SOL    HW212018   1.263   3.501   0.404
 3707SOL     OW12019   1.887   4.801   3.415
 3707SOL    HW112020   1.856   4.896   3.418
 3707SOL    HW212021   1.807   4.740   3.414
 3708SOL     OW12022   3.747   6.756   0.820
 3708SOL    HW112023   3.693   6.764   0.904
 3708SOL    HW212024   3.755   6.660   0.795
 3709SOL     OW12025   1.903   0.796   2.663
 3709SOL    HW112026   1.873   0.851   2.585
 3709SOL    HW212027   2.001   0.808   2.676
 3710SOL     OW12028   0.037   5.217   5.527
 3710SOL    HW112029   7.004   5.280   5.587
 3710SOL    HW212030   0.118   5.183   5.574
 3711SOL     OW12031   1.578   5.802   4.795
 3711SOL    HW112032   1.550   5.854   4.875
 3711SOL    HW212033   1.611   5.864   4.724
 3712SOL     OW12034   2.035   5.135   4.909
 3712SOL    HW112035   2.063   5.206   4.845
 3712SOL    HW212036   1.999   5.177   4.992
 3713SOL     OW12037   6.265   6.464   4.848
 3713SOL    HW112038   6.205   6.412   4.910
 3713SOL    HW212039   6.213   6.541   4.810
 3714SOL     OW12040   0.963   4.807   0.267
 3714SOL    HW112041   1.060   4.805   0.292
 3714SOL    HW212042   0.938   4.900   0.239
 3715SOL     OW12043   6.583   5.839   3.519
 3715SOL    HW112044   6.535   5.898   3.455
 3715SOL    HW212045   6.533   5.753   3.531
 3716SOL     OW12046   5.093   5.834   3.592
 3716SOL    HW112047   5.101   5.869   3.685
 3716SOL    HW212048   5.151   5.887   3.531
 3717SOL     OW12049   4.173   1.231   1.053
 3717SOL    HW112050   4.124   1.311   1.086
 3717SOL    HW212051   4.253   1.215   1.111
 3718SOL     OW12052   7.010   6.606   6.015
 3718SOL    HW112053   0.066   6.645   5.958
 3718SOL    HW212054   0.022   6.516   6.047
 3719SOL     OW12055   4.704   3.688   5.856
 3719SOL    HW112056   4.744   3.739   5.932
 3719SOL    HW212057   4.772   3.626   5.818
 3720SOL     OW12058   7.006   2.989   1.458
 3720SOL    HW112059   6.922   2.948   1.495
 3720SOL    HW212060   0.065   2.977   1.524
 3721SOL     OW12061   6.512   4.772   6.492
 3721SOL    HW112062   6.579   4.710   6.451
 3721SOL    HW212063   6.538   4.791   6.586
 3722SOL     OW12064   4.068   0.073   2.669
 3722SOL    HW112065   4.140   0.077   2.599
 3722SOL    HW212066   4.028   6.997   2.669
 3723SOL     OW12067   4.550   4.875   6.706
 3723SOL    HW112068   4.616   4.950   6.702
 3723SOL    HW212069   4.587   4.800   6.760
 3724SOL     OW12070   1.442   4.650   5.371
 3724SOL    HW112071   1.534   4.640   5.410
 3724SOL    HW212072   1.379   4.683   5.442
 3725SOL     OW12073   0.530   6.773   6.601
 3725SOL    HW112074   0.598   6.710   6.564
 3725SOL    HW212075   0.504   6.839   6.530
 3726SOL     OW12076   5.452   3.480   3.688
 3726SOL    HW112077   5.521   3.546   3.658
 3726SOL    HW212078   5.448   3.404   3.623
 3727SOL     OW12079   6.986   3.395   4.280
 3727SOL    HW112080   6.959   3.406   4.184
 3727SOL    HW212081   0.049   3.333   4.286
 3728SOL     OW12082   3.279   3.419   0.016
 3728SOL    HW112083   3.305   3.360   6.955
 3728SOL    HW212084   3.237   3.363   0.087
 3729SOL     OW12085   0.762   6.964   5.596
 3729SOL    HW112086   0.772   0.027   5.535
 3729SOL    HW212087   0.847   6.948   5.646
 3730SOL     OW12088   3.783   5.632   5.593
 3730SOL    HW112089   3.859   5.689   5.562
 3730SOL    HW212090   3.785   5.626   5.693
 3731SOL     OW12091   0.656   2.330   6.348
 3731SOL    HW112092   0.611   2.242   6.358
 3731SOL    HW212093   0.588   2.403   6.349
 3732SOL     OW12094   2.879   2.293   0.065
 3732SOL    HW112095   2.825   2.215   0.098
 3732SOL    HW212096   2.863   2.372   0.124
 3733SOL     OW12097   1.715   1.918   3.603
 3733SOL    HW112098   1.790   1.972   3.567
 3733SOL    HW212099   1.681   1.857   3.531
 3734SOL     OW12100   3.975   0.157   1.432
 3734SOL    HW112101   4.006   0.226   1.367
 3734SOL    HW212102   4.043   0.147   1.505
 3735SOL     OW12103   4.291   0.095   2.485
 3735SOL    HW112104   4.389   0.093   2.503
 3735SOL    HW212105   4.266   0.014   2.432
 3736SOL     OW12106   6.835   1.274   1.329
 3736SOL    HW112107   6.799   1.356   1.372
 3736SOL    HW212108   6.911   1.238   1.382
 3737SOL     OW12109   0.349   2.205   3.209
 3737SOL    HW112110   0.323   2.146   3.133
 3737SOL    HW212111   0.447   2.224   3.204
 3738SOL     OW12112   6.658   6.495   0.671
 3738SOL    HW112113   6.611   6.415   0.633
 3738SOL    HW212114   6.688   6.475   0.764
 3739SOL     OW12115   2.700   5.007   0.978
 3739SOL    HW112116   2.764   5.081   0.997
 3739SOL    HW212117   2.710   4.935   1.047
 3740SOL     OW12118   5.543   5.244   6.772
 3740SOL    HW112119   5.538   5.154   6.729
 3740SOL    HW212120   5.638   5.273   6.779
 3741SOL     OW12121   5.223   2.976   0.245
 3741SOL    HW112122   5.251   3.063   0.205
 3741SOL    HW212123   5.133   2.951   0.209
 3742SOL     OW12124   3.401   5.895   6.875
 3742SOL    HW112125   3.391   5.798   6.898
 3742SOL    HW212126   3.312   5.940   6.879
 3743SOL     OW12127   4.172   3.527   1.312
 3743SOL    HW112128   4.133   3.583   1.385
 3743SOL    HW212129   4.266   3.502   1.336
 3744SOL     OW12130   0.248   6.559   2.237
 3744SOL    HW112131   0.153   6.541   2.212
 3744SOL    HW212132   0.308   6.530   2.163
 3745SOL     OW12133   4.801   3.973   2.373
 3745SOL    HW112134   4.740   4.037   2.326
 3745SOL    HW212135   4.775   3.879   2.351
 3746SOL     OW12136   6.392   0.808   4.084
 3746SOL    HW112137   6.461   0.806   4.012
 3746SOL    HW212138   6.383   0.716   4.124
 3747SOL     OW12139   4.390   6.608   6.072
 3747SOL    HW112140   4.371   6.528   6.016
 3747SOL    HW212141   4.426   6.579   6.161
 3748SOL     OW12142   5.209   1.714   2.651
 3748SOL    HW112143   5.128   1.731   2.706
 3748SOL    HW212144   5.184   1.664   2.568
 3749SOL     OW12145   0.335   5.986   3.199
 3749SOL    HW112146   0.337   5.921   3.123
 3749SOL    HW212147   0.261   5.962   3.262
 3750SOL     OW12148   5.938   4.128   6.976
 3750SOL    HW112149   5.931   4.145   6.878
 3750SOL    HW212150   5.966   4.213   0.006
 3751SOL     OW12151   1.790   3.179   1.406
 3751SOL    HW112152   1.837   3.225   1.331
 3751SOL    HW212153   1.718   3.120   1.369
 3752SOL     OW12154   0.857   6.877   6.734
 3752SOL    HW112155   0.821   6.808   6.797
 3752SOL    HW212156   0.822   6.967   6.759
 3753SOL     OW12157   0.216   6.113   4.317
 3753SOL    HW112158   0.150   6.095   4.244
 3753SOL    HW212159   0.307   6.085   4.287
 3754SOL     OW12160   6.022   6.192   1.190
 3754SOL    HW112161   6.106   6.137   1.197
 3754SOL    HW212162   5.988   6.211   1.282
 3755SOL     OW12163   5.117   4.203   3.891
 3755SOL    HW112164   5.090   4.297   3.908
 3755SOL    HW212165   5.143   4.159   3.977
 3756SOL     OW12166   2.179   1.984   6.404
 3756SOL    HW112167   2.160   1.969   6.501
 3756SOL    HW212168   2.095   1.971   6.351
 3757SOL     OW12169   3.084   5.688   6.668
 3757SOL    HW112170   3.183   5.685   6.678
 3757SOL    HW212171   3.055   5.619   6.602
 3758SOL     OW12172   2.008   1.208   4.101
 3758SOL    HW112173   2.108   1.209   4.108
 3758SOL    HW212174   1.971   1.291   4.142
 3759SOL     OW12175   5.111   4.449   5.452
 3759SOL    HW112176   5.138   4.437   5.547
 3759SOL    HW212177   5.014   4.469   5.447
 3760SOL     OW12178   1.800   2.467   4.563
 3760SOL    HW112179   1.791   2.534   4.636
 3760SOL    HW212180   1.893   2.430   4.563
 3761SOL     OW12181   0.675   6.455   4.870
 3761SOL    HW112182   0.760   6.506   4.855
 3761SOL    HW212183   0.687   6.361   4.840
 3762SOL     OW12184   0.888   4.140   0.246
 3762SOL    HW112185   0.898   4.230   0.288
 3762SOL    HW212186   0.968   4.084   0.268
 3763SOL     OW12187   6.304   2.804   6.546
 3763SOL    HW112188   6.244   2.769   6.618
 3763SOL    HW212189   6.325   2.900   6.564
 3764SOL     OW12190   2.463   0.118   4.050
 3764SOL    HW112191   2.510   0.182   3.989
 3764SOL    HW212192   2.370   0.149   4.066
 3765SOL     OW12193   5.900   0.856   2.917
 3765SOL    HW112194   5.914   0.786   2.847
 3765SOL    HW212195   5.834   0.822   2.984
 3766SOL     OW12196   0.249   0.840   4.308
 3766SOL    HW112197   0.259   0.872   4.214
 3766SOL    HW212198   0.234   0.919   4.368
 3767SOL     OW12199   1.467   5.160   6.931
 3767SOL    HW112200   1.549   5.171   6.875
 3767SOL    HW212201   1.403   5.098   6.886
 3768SOL     OW12202   4.961   6.501   0.166
 3768SOL    HW112203   4.986   6.597   0.153
 3768SOL    HW212204   4.919   6.465   0.082
 3769SOL     OW12205   4.939   6.535   5.245
 3769SOL    HW112206   4.919   6.478   5.324
 3769SOL    HW212207   4.995   6.613   5.274
 3770SOL     OW12208   1.842   1.304   6.526
 3770SOL    HW112209   1.884   1.221   6.490
 3770SOL    HW212210   1.861   1.310   6.624
 3771SOL     OW12211   5.408   2.090   6.521
 3771SOL    HW112212   5.436   2.002   6.484
 3771SOL    HW212213   5.315   2.110   6.492
 3772SOL     OW12214   5.700   1.012   1.425
 3772SOL    HW112215   5.682   1.096   1.374
 3772SOL    HW212216   5.634   0.942   1.397
 3773SOL     OW12217   6.362   2.403   6.194
 3773SOL    HW112218   6.265   2.413   6.175
 3773SOL    HW212219   6.395   2.484   6.244
 3774SOL     OW12220   0.238   0.707   0.030
 3774SOL    HW112221   0.163   0.755   6.999
 3774SOL    HW212222   0.313   0.771   0.046
 3775SOL     OW12223   5.644   3.681   3.182
 3775SOL    HW112224   5.736   3.693   3.221
 3775SOL    HW212225   5.611   3.589   3.203
 3776SOL     OW12226   2.254   2.647   1.414
 3776SOL    HW112227   2.180   2.603   1.465
 3776SOL    HW212228   2.339   2.596   1.428
 3777SOL     OW12229   2.747   5.285   3.905
 3777SOL    HW112230   2.785   5.284   3.997
 3777SOL    HW212231   2.740   5.191   3.871
 3778SOL     OW12232   2.867   5.470   1.383
 3778SOL    HW112233   2.899   5.433   1.297
 3778SOL    HW212234   2.867   5.399   1.453
 3779SOL     OW12235   2.295   4.392   6.518
 3779SOL    HW112236   2.330   4.440   6.438
 3779SOL    HW212237   2.371   4.367   6.578
 3780SOL     OW12238   3.266   6.285   5.136
 3780SOL    HW112239   3.256   6.189   5.109
 3780SOL    HW212240   3.357   6.318   5.108
 3781SOL     OW12241   3.588   6.498   4.618
 3781SOL    HW112242   3.546   6.463   4.534
 3781SOL    HW212243   3.593   6.425   4.686
 3782SOL     OW12244   2.206   1.626   4.153
 3782SOL    HW112245   2.305   1.615   4.154
 3782SOL    HW212246   2.182   1.720   4.181
 3783SOL     OW12247   5.275   6.612   4.870
 3783SOL    HW112248   5.216   6.667   4.929
 3783SOL    HW212249   5.269   6.516   4.897
 3784SOL     OW12250   5.642   1.162   2.946
 3784SOL    HW112251   5.627   1.259   2.961
 3784SOL    HW212252   5.693   1.123   3.023
 3785SOL     OW12253   2.540   1.943   1.120
 3785SOL    HW112254   2.465   2.008   1.128
 3785SOL    HW212255   2.608   1.977   1.055
 3786SOL     OW12256   2.723   5.346   2.724
 3786SOL    HW112257   2.804   5.400   2.700
 3786SOL    HW212258   2.645   5.377   2.670
 3787SOL     OW12259   4.341   0.949   3.839
 3787SOL    HW112260   4.336   1.033   3.891
 3787SOL    HW212261   4.423   0.949   3.782
 3788SOL     OW12262   6.017   2.934   2.730
 3788SOL    HW112263   6.082   2.920   2.655
 3788SOL    HW212264   6.060   2.910   2.817
 3789SOL     OW12265   1.700   4.766   4.032
 3789SOL    HW112266   1.683   4.800   3.939
 3789SOL    HW212267   1.783   4.710   4.031
 3790SOL     OW12268   1.884   3.423   4.044
 3790SOL    HW112269   1.801   3.431   4.098
 3790SOL    HW212270   1.861   3.398   3.950
 3791SOL     OW12271   5.031   6.726   1.686
 3791SOL    HW112272   5.046   6.825   1.686
 3791SOL    HW212273   5.077   6.685   1.764
 3792SOL     OW12274   6.044   6.550   5.157
 3792SOL    HW112275   6.137   6.584   5.176
 3792SOL    HW212276   5.988   6.563   5.239
 3793SOL     OW12277   1.995   1.643   2.686
 3793SOL    HW112278   2.046   1.704   2.627
 3793SOL    HW212279   1.982   1.686   2.776
 3794SOL     OW12280   4.252   6.267   2.089
 3794SOL    HW112281   4.350   6.283   2.093
 3794SOL    HW212282   4.222   6.267   1.994
 3795SOL     OW12283   5.233   0.461   6.446
 3795SOL    HW112284   5.237   0.419   6.536
 3795SOL    HW212285   5.326   0.485   6.417
 3796SOL     OW12286   1.228   2.126   1.694
 3796SOL    HW112287   1.140   2.082   1.712
 3796SOL    HW212288   1.279   2.072   1.627
 3797SOL     OW12289   1.291   4.966   2.696
 3797SOL    HW112290   1.191   4.956   2.700
 3797SOL    HW212291   1.322   4.949   2.602
 3798SOL     OW12292   2.303   4.791   2.731
 3798SOL    HW112293   2.345   4.789   2.822
 3798SOL    HW212294   2.293   4.886   2.701
 3799SOL     OW12295   1.676   1.358   5.606
 3799SOL    HW112296   1.739   1.402   5.670
 3799SOL    HW212297   1.662   1.263   5.632
 3800SOL     OW12298   5.235   2.378   4.777
 3800SOL    HW112299   5.239   2.390   4.678
 3800SOL    HW212300   5.158   2.428   4.814
 3801SOL     OW12301   6.545   5.865   6.209
 3801SOL    HW112302   6.498   5.952   6.225
 3801SOL    HW212303   6.535   5.839   6.113
 3802SOL     OW12304   1.253   2.190   5.009
 3802SOL    HW112305   1.230   2.177   4.913
 3802SOL    HW212306   1.235   2.285   5.035
 3803SOL     OW12307   3.863   6.973   1.562
 3803SOL    HW112308   3.770   6.988   1.595
 3803SOL    HW212309   3.891   0.034   1.504
 3804SOL     OW12310   4.421   2.013   4.476
 3804SOL    HW112311   4.321   2.011   4.480
 3804SOL    HW212312   4.457   2.023   4.569
 3805SOL     OW12313   2.985   4.145   1.802
 3805SOL    HW112314   2.979   4.245   1.800
 3805SOL    HW212315   2.940   4.107   1.721
 3806SOL     OW12316   2.633   2.497   0.284
 3806SOL    HW112317   2.603   2.588   0.255
 3806SOL    HW212318   2.573   2.465   0.358
 3807SOL     OW12319   0.898   0.065   4.081
 3807SOL    HW112320   0.944   0.150   4.105
 3807SOL    HW212321   0.942   7.004   4.129
 3808SOL     OW12322   3.602   6.978   1.941
 3808SOL    HW112323   3.550   6.945   2.020
 3808SOL    HW212324   3.665   0.035   1.970
 3809SOL     OW12325   5.805   1.269   0.148
 3809SOL    HW112326   5.845   1.178   0.158
 3809SOL    HW212327   5.762   1.295   0.235
 3810SOL     OW12328   3.351   3.226   5.339
 3810SOL    HW112329   3.410   3.295   5.296
 3810SOL    HW212330   3.269   3.213   5.283
 3811SOL     OW12331   0.667   4.628   4.844
 3811SOL    HW112332   0.657   4.530   4.827
 3811SOL    HW212333   0.577   4.672   4.835
 3812SOL     OW12334   5.839   1.452   5.599
 3812SOL    HW112335   5.841   1.552   5.599
 3812SOL    HW212336   5.825   1.418   5.692
 3813SOL     OW12337   2.863   5.484   0.251
 3813SOL    HW112338   2.916   5.528   0.178
 3813SOL    HW212339   2.787   5.432   0.211
 3814SOL     OW12340   6.867   5.945   2.093
 3814SOL    HW112341   6.905   5.887   2.020
 3814SOL    HW212342   6.771   5.962   2.075
 3815SOL     OW12343   5.689   2.095   1.734
 3815SOL    HW112344   5.727   2.187   1.721
 3815SOL    HW212345   5.592   2.102   1.758
 3816SOL     OW12346   0.041   6.781   1.858
 3816SOL    HW112347   0.018   6.789   1.955
 3816SOL    HW212348   0.090   6.863   1.828
 3817SOL     OW12349   4.519   1.730   4.670
 3817SOL    HW112350   4.559   1.743   4.761
 3817SOL    HW212351   4.558   1.648   4.629
 3818SOL     OW12352   4.622   6.143   2.655
 3818SOL    HW112353   4.592   6.215   2.592
 3818SOL    HW212354   4.656   6.185   2.739
 3819SOL     OW12355   5.312   5.230   0.401
 3819SOL    HW112356   5.336   5.133   0.401
 3819SOL    HW212357   5.313   5.265   0.495
 3820SOL     OW12358   4.861   5.705   3.882
 3820SOL    HW112359   4.803   5.777   3.843
 3820SOL    HW212360   4.957   5.729   3.868
 3821SOL     OW12361   1.362   3.589   1.512
 3821SOL    HW112362   1.405   3.502   1.491
 3821SOL    HW212363   1.361   3.647   1.431
 3822SOL     OW12364   2.429   4.957   1.310
 3822SOL    HW112365   2.375   5.002   1.240
 3822SOL    HW212366   2.463   4.869   1.275
 3823SOL     OW12367   3.489   2.767   5.839
 3823SOL    HW112368   3.588   2.764   5.847
 3823SOL    HW212369   3.462   2.741   5.746
 3824SOL     OW12370   6.188   2.089   5.687
 3824SOL    HW112371   6.096   2.126   5.697
 3824SOL    HW212372   6.207   2.026   5.762
 3825SOL     OW12373   0.472   6.443   5.804
 3825SOL    HW112374   0.373   6.428   5.806
 3825SOL    HW212375   0.490   6.541   5.796
 3826SOL     OW12376   6.569   3.500   1.772
 3826SOL    HW112377   6.586   3.429   1.704
 3826SOL    HW212378   6.653   3.553   1.788
 3827SOL     OW12379   3.886   3.263   0.585
 3827SOL    HW112380   3.832   3.182   0.610
 3827SOL    HW212381   3.919   3.308   0.668
 3828SOL     OW12382   5.074   2.162   2.178
 3828SOL    HW112383   5.164   2.157   2.221
 3828SOL    HW212384   5.003   2.146   2.247
 3829SOL     OW12385   2.466   5.555   3.671
 3829SOL    HW112386   2.430   5.462   3.669
 3829SOL    HW212387   2.562   5.554   3.645
 3830SOL     OW12388   2.547   0.585   4.731
 3830SOL    HW112389   2.508   0.601   4.640
 3830SOL    HW212390   2.562   0.672   4.777
 3831SOL     OW12391   4.141   1.776   2.958
 3831SOL    HW112392   4.080   1.820   2.893
 3831SOL    HW212393   4.234   1.773   2.920
 3832SOL     OW12394   6.355   0.634   1.769
 3832SOL    HW112395   6.401   0.670   1.688
 3832SOL    HW212396   6.353   0.534   1.765
 3833SOL     OW12397   0.936   5.065   0.192
 3833SOL    HW112398   0.863   5.131   0.212
 3833SOL    HW212399   1.016   5.114   0.157
 3834SOL     OW12400   3.051   1.585   0.778
 3834SOL    HW112401   3.137   1.565   0.730
 3834SOL    HW212402   3.065   1.571   0.876
 3835SOL     OW12403   3.826   5.584   5.851
 3835SOL    HW112404   3.905   5.532   5.819
 3835SOL    HW212405   3.749   5.522   5.867
 3836SOL     OW12406   1.302   3.491   6.198
 3836SOL    HW112407   1.397   3.502   6.229
 3836SOL    HW212408   1.268   3.578   6.163
 3837SOL     OW12409   3.789   3.712   0.337
 3837SOL    HW112410   3.888   3.718   0.319
 3837SOL    HW212411   3.766   3.618   0.361
 3838SOL     OW12412   6.115   2.344   4.442
 3838SOL    HW112413   6.102   2.433   4.486
 3838SOL    HW212414   6.191   2.296   4.485
 3839SOL     OW12415   5.664   6.111   5.778
 3839SOL    HW112416   5.577   6.159   5.789
 3839SOL    HW212417   5.729   6.146   5.846
 3840SOL     OW12418   1.814   1.360   3.784
 3840SOL    HW112419   1.733   1.381   3.730
 3840SOL    HW212420   1.789   1.306   3.864
 3841SOL     OW12421   0.771   3.805   5.076
 3841SOL    HW112422   0.850   3.863   5.060
 3841SOL    HW212423   0.793   3.711   5.051
 3842SOL     OW12424   0.948   4.928   6.814
 3842SOL    HW112425   1.033   4.944   6.864
 3842SOL    HW212426   0.940   4.995   6.740
 3843SOL     OW12427   5.815   3.233   0.663
 3843SOL    HW112428   5.720   3.262   0.666
 3843SOL    HW212429   5.829   3.156   0.725
 3844SOL     OW12430   2.066   4.858   6.344
 3844SOL    HW112431   2.140   4.900   6.292
 3844SOL    HW212432   1.994   4.925   6.360
 3845SOL     OW12433   3.477   3.953   3.301
 3845SOL    HW112434   3.566   3.954   3.256
 3845SOL    HW212435   3.457   3.860   3.334
 3846SOL     OW12436   0.567   5.126   4.390
 3846SOL    HW112437   0.586   5.106   4.486
 3846SOL    HW212438   0.496   5.195   4.383
 3847SOL     OW12439   0.424   0.308   5.972
 3847SOL    HW112440   0.349   0.333   6.034
 3847SOL    HW212441   0.508   0.296   6.024
 3848SOL     OW12442   2.180   4.632   1.144
 3848SOL    HW112443   2.275   4.650   1.172
 3848SOL    HW212444   2.121   4.636   1.224
 3849SOL     OW12445   1.231   1.817   5.593
 3849SOL    HW112446   1.258   1.850   5.502
 3849SOL    HW212447   1.302   1.756   5.628
 3850SOL     OW12448   3.403   4.105   1.929
 3850SOL    HW112449   3.349   4.130   1.849
 3850SOL    HW212450   3.498   4.131   1.914
 3851SOL     OW12451   2.137   3.099   2.754
 3851SOL    HW112452   2.165   3.083   2.848
 3851SOL    HW212453   2.093   3.189   2.747
 3852SOL     OW12454   4.305   0.929   4.681
 3852SOL    HW112455   4.282   1.005   4.742
 3852SOL    HW212456   4.273   0.843   4.721
 3853SOL     OW12457   1.029   3.567   1.798
 3853SOL    HW112458   1.102   3.531   1.740
 3853SOL    HW212459   1.069   3.620   1.873
 3854SOL     OW12460   1.079   3.546   4.220
 3854SOL    HW112461   0.993   3.576   4.180
 3854SOL    HW212462   1.123   3.480   4.159
 3855SOL     OW12463   6.133   3.190   5.716
 3855SOL    HW112464   6.205   3.258   5.701
 3855SOL    HW212465   6.045   3.228   5.687
 3856SOL     OW12466   0.284   6.121   6.025
 3856SOL    HW112467   0.301   6.034   5.978
 3856SOL    HW212468   0.261   6.191   5.958
 3857SOL     OW12469   1.144   6.433   4.636
 3857SOL    HW112470   1.065   6.491   4.615
 3857SOL    HW212471   1.156   6.365   4.564
 3858SOL     OW12472   2.477   5.976   6.543
 3858SOL    HW112473   2.548   5.905   6.546
 3858SOL    HW212474   2.516   6.063   6.572
 3859SOL     OW12475   0.429   3.342   2.314
 3859SOL    HW112476   0.518   3.296   2.308
 3859SOL    HW212477   0.442   3.440   2.300
 3860SOL     OW12478   2.599   6.787   5.729
 3860SOL    HW112479   2.575   6.875   5.687
 3860SOL    HW212480   2.643   6.728   5.662
 3861SOL     OW12481   4.794   4.544   0.755
 3861SOL    HW112482   4.706   4.513   0.717
 3861SOL    HW212483   4.862   4.547   0.681
 3862SOL     OW12484   1.116   5.869   5.878
 3862SOL    HW112485   1.127   5.939   5.808
 3862SOL    HW212486   1.161   5.785   5.848
 3863SOL     OW12487   3.275   3.841   1.585
 3863SOL    HW112488   3.253   3.832   1.682
 3863SOL    HW212489   3.201   3.802   1.530
 3864SOL     OW12490   2.774   2.039   0.198
 3864SOL    HW112491   2.836   2.030   0.277
 3864SOL    HW212492   2.718   1.956   0.191
 3865SOL     OW12493   4.693   0.546   2.258
 3865SOL    HW112494   4.760   0.535   2.185
 3865SOL    HW212495   4.705   0.636   2.301
 3866SOL     OW12496   3.789   6.920   6.766
 3866SOL    HW112497   3.777   6.984   6.690
 3866SOL    HW212498   3.866   6.860   6.747
 3867SOL     OW12499   2.107   3.359   3.055
 3867SOL    HW112500   2.028   3.388   3.110
 3867SOL    HW212501   2.174   3.434   3.051
 3868SOL     OW12502   2.108   6.121   2.978
 3868SOL    HW112503   2.178   6.179   2.936
 3868SOL    HW212504   2.128   6.110   3.076
 3869SOL     OW12505   0.991   3.097   3.157
 3869SOL    HW112506   0.961   3.089   3.062
 3869SOL    HW212507   1.066   3.162   3.163
 3870SOL     OW12508   2.579   4.642   0.123
 3870SOL    HW112509   2.618   4.581   0.054
 3870SOL    HW212510   2.582   4.736   0.089
 3871SOL     OW12511   2.397   0.416   3.302
 3871SOL    HW112512   2.325   0.405   3.234
 3871SOL    HW212513   2.483   0.438   3.256
 3872SOL     OW12514   3.842   4.087   0.715
 3872SOL    HW112515   3.797   4.032   0.644
 3872SOL    HW212516   3.890   4.026   0.778
 3873SOL     OW12517   5.328   4.816   2.426
 3873SOL    HW112518   5.410   4.833   2.371
 3873SOL    HW212519   5.305   4.719   2.423
 3874SOL     OW12520   4.601   0.869   6.099
 3874SOL    HW112521   4.679   0.923   6.067
 3874SOL    HW212522   4.602   0.864   6.198
 3875SOL     OW12523   1.365   5.118   1.015
 3875SOL    HW112524   1.316   5.178   0.951
 3875SOL    HW212525   1.300   5.056   1.058
 3876SOL     OW12526   4.948   3.677   3.417
 3876SOL    HW112527   4.911   3.609   3.354
 3876SOL    HW212528   5.045   3.659   3.433
 3877SOL     OW12529   6.112   1.124   2.289
 3877SOL    HW112530   6.080   1.048   2.345
 3877SOL    HW212531   6.189   1.095   2.233
 3878SOL     OW12532   3.017   6.420   5.957
 3878SOL    HW112533   2.991   6.508   5.916
 3878SOL    HW212534   3.003   6.347   5.890
 3879SOL     OW12535   3.857   5.971   1.696
 3879SOL    HW112536   3.912   5.953   1.615
 3879SOL    HW212537   3.769   6.011   1.669
 3880SOL     OW12538   5.137   3.108   4.181
 3880SOL    HW112539   5.096   3.153   4.260
 3880SOL    HW212540   5.071   3.044   4.141
 3881SOL     OW12541   1.738   3.466   0.600
 3881SOL    HW112542   1.691   3.486   0.686
 3881SOL    HW212543   1.718   3.372   0.572
 3882SOL     OW12544   0.375   0.579   5.706
 3882SOL    HW112545   0.327   0.640   5.643
 3882SOL    HW212546   0.313   0.505   5.733
 3883SOL     OW12547   3.760   0.571   6.005
 3883SOL    HW112548   3.837   0.521   5.966
 3883SOL    HW212549   3.675   0.526   5.978
 3884SOL     OW12550   1.585   4.731   6.168
 3884SOL    HW112551   1.535   4.804   6.122
 3884SOL    HW212552   1.601   4.656   6.105
 3885SOL     OW12553   6.437   1.188   4.043
 3885SOL    HW112554   6.356   1.170   3.988
 3885SOL    HW212555   6.435   1.131   4.125
 3886SOL     OW12556   6.943   6.026   5.731
 3886SOL    HW112557   0.007   6.078   5.762
 3886SOL    HW212558   6.975   5.947   5.678
 3887SOL     OW12559   4.500   2.536   5.964
 3887SOL    HW112560   4.418   2.552   6.018
 3887SOL    HW212561   4.482   2.558   5.868
 3888SOL     OW12562   6.374   2.186   0.708
 3888SOL    HW112563   6.458   2.135   0.727
 3888SOL    HW212564   6.377   2.224   0.616
 3889SOL     OW12565   0.884   6.026   6.345
 3889SOL    HW112566   0.936   6.007   6.262
 3889SOL    HW212567   0.801   5.970   6.346
 3890SOL     OW12568   5.599   4.114   2.954
 3890SOL    HW112569   5.649   4.031   2.927
 3890SOL    HW212570   5.501   4.096   2.954
 3891SOL     OW12571   5.198   4.743   5.730
 3891SOL    HW112572   5.169   4.804   5.656
 3891SOL    HW212573   5.264   4.676   5.695
 3892SOL     OW12574   5.048   6.473   3.052
 3892SOL    HW112575   5.038   6.572   3.060
 3892SOL    HW212576   4.961   6.429   3.071
 3893SOL     OW12577   2.974   6.168   3.982
 3893SOL    HW112578   2.952   6.158   3.885
 3893SOL    HW212579   2.954   6.082   4.030
 3894SOL     OW12580   5.278   4.133   6.949
 3894SOL    HW112581   5.378   4.128   6.960
 3894SOL    HW212582   5.234   4.082   0.006
 3895SOL     OW12583   2.523   2.113   5.623
 3895SOL    HW112584   2.439   2.167   5.616
 3895SOL    HW212585   2.594   2.167   5.668
 3896SOL     OW12586   6.576   2.659   5.772
 3896SOL    HW112587   6.590   2.757   5.759
 3896SOL    HW212588   6.586   2.638   5.870
 3897SOL     OW12589   3.535   6.490   2.287
 3897SOL    HW112590   3.614   6.429   2.295
 3897SOL    HW212591   3.451   6.436   2.299
 3898SOL     OW12592   3.806   4.068   3.961
 3898SOL    HW112593   3.792   4.076   4.060
 3898SOL    HW212594   3.717   4.059   3.916
 3899SOL     OW12595   4.633   1.694   5.002
 3899SOL    HW112596   4.731   1.709   5.011
 3899SOL    HW212597   4.584   1.777   5.027
 3900SOL     OW12598   6.733   2.690   3.699
 3900SOL    HW112599   6.755   2.715   3.605
 3900SOL    HW212600   6.807   2.636   3.738
 3901SOL     OW12601   2.201   5.916   5.076
 3901SOL    HW112602   2.217   5.822   5.048
 3901SOL    HW212603   2.288   5.958   5.103
 3902SOL     OW12604   4.241   5.115   1.200
 3902SOL    HW112605   4.314   5.071   1.252
 3902SOL    HW212606   4.248   5.087   1.104
 3903SOL     OW12607   3.850   2.834   6.095
 3903SOL    HW112608   3.816   2.928   6.094
 3903SOL    HW212609   3.948   2.835   6.115
 3904SOL     OW12610   2.393   6.339   1.143
 3904SOL    HW112611   2.327   6.273   1.178
 3904SOL    HW212612   2.439   6.384   1.220
 3905SOL     OW12613   0.332   0.522   5.184
 3905SOL    HW112614   0.412   0.553   5.131
 3905SOL    HW212615   0.264   0.484   5.122
 3906SOL     OW12616   0.047   5.613   4.946
 3906SOL    HW112617   6.968   5.643   4.934
 3906SOL    HW212618   0.107   5.693   4.949
 3907SOL     OW12619   0.673   0.854   4.590
 3907SOL    HW112620   0.731   0.865   4.671
 3907SOL    HW212621   0.577   0.856   4.617
 3908SOL     OW12622   1.471   0.208   4.520
 3908SOL    HW112623   1.415   0.212   4.438
 3908SOL    HW212624   1.476   0.299   4.562
 3909SOL     OW12625   6.012   1.978   0.312
 3909SOL    HW112626   5.925   2.020   0.287
 3909SOL    HW212627   6.085   2.046   0.310
 3910SOL     OW12628   3.723   2.702   0.770
 3910SOL    HW112629   3.717   2.704   0.671
 3910SOL    HW212630   3.720   2.795   0.806
 3911SOL     OW12631   0.044   0.966   0.984
 3911SOL    HW112632   0.121   0.979   0.922
 3911SOL    HW212633   0.040   1.042   1.049
 3912SOL     OW12634   3.837   2.366   0.181
 3912SOL    HW112635   3.817   2.391   0.086
 3912SOL    HW212636   3.785   2.284   0.205
 3913SOL     OW12637   4.888   5.579   1.543
 3913SOL    HW112638   4.878   5.530   1.456
 3913SOL    HW212639   4.827   5.538   1.612
 3914SOL     OW12640   7.012   1.218   0.380
 3914SOL    HW112641   6.922   1.241   0.343
 3914SOL    HW212642   7.001   1.185   0.474
 3915SOL     OW12643   4.533   5.750   5.852
 3915SOL    HW112644   4.545   5.697   5.768
 3915SOL    HW212645   4.617   5.801   5.872
 3916SOL     OW12646   2.610   1.939   2.793
 3916SOL    HW112647   2.537   1.978   2.736
 3916SOL    HW212648   2.684   2.006   2.801
 3917SOL     OW12649   3.628   4.404   1.489
 3917SOL    HW112650   3.580   4.321   1.462
 3917SOL    HW212651   3.561   4.474   1.513
 3918SOL     OW12652   5.565   1.049   0.549
 3918SOL    HW112653   5.574   1.109   0.629
 3918SOL    HW212654   5.503   0.974   0.571
 3919SOL     OW12655   4.076   6.603   2.245
 3919SOL    HW112656   4.033   6.644   2.325
 3919SOL    HW212657   4.175   6.614   2.251
 3920SOL     OW12658   2.984   1.511   5.392
 3920SOL    HW112659   2.995   1.555   5.303
 3920SOL    HW212660   2.900   1.544   5.435
 3921SOL     OW12661   6.994   3.186   6.335
 3921SOL    HW112662   0.038   3.215   6.410
 3921SOL    HW212663   6.927   3.120   6.370
 3922SOL     OW12664   4.581   4.416   3.165
 3922SOL    HW112665   4.589   4.321   3.134
 3922SOL    HW212666   4.593   4.420   3.264
 3923SOL     OW12667   5.256   1.155   1.360
 3923SOL    HW112668   5.287   1.212   1.436
 3923SOL    HW212669   5.334   1.129   1.303
 3924SOL     OW12670   5.662   5.441   4.110
 3924SOL    HW112671   5.688   5.526   4.155
 3924SOL    HW212672   5.562   5.437   4.102
 3925SOL     OW12673   5.222   3.688   0.895
 3925SOL    HW112674   5.296   3.677   0.962
 3925SOL    HW212675   5.209   3.785   0.875
 3926SOL     OW12676   0.316   5.680   6.044
 3926SOL    HW112677   0.370   5.761   6.023
 3926SOL    HW212678   0.271   5.647   5.961
 3927SOL     OW12679   5.534   2.003   6.043
 3927SOL    HW112680   5.570   1.965   5.958
 3927SOL    HW212681   5.564   2.098   6.052
 3928SOL     OW12682   3.564   5.855   2.131
 3928SOL    HW112683   3.662   5.850   2.112
 3928SOL    HW212684   3.541   5.790   2.203
 3929SOL     OW12685   0.558   2.592   5.183
 3929SOL    HW112686   0.576   2.499   5.215
 3929SOL    HW212687   0.486   2.591   5.113
 3930SOL     OW12688   1.848   4.531   3.990
 3930SOL    HW112689   1.807   4.457   4.042
 3930SOL    HW212690   1.928   4.497   3.940
 3931SOL     OW12691   2.126   2.228   1.614
 3931SOL    HW112692   2.067   2.287   1.559
 3931SOL    HW212693   2.187   2.284   1.670
 3932SOL     OW12694   2.367   4.805   3.830
 3932SOL    HW112695   2.324   4.793   3.741
 3932SOL    HW212696   2.305   4.772   3.902
 3933SOL     OW12697   2.030   5.760   1.392
 3933SOL    HW112698   1.996   5.798   1.478
 3933SOL    HW212699   1.965   5.780   1.319
 3934SOL     OW12700   0.334   0.878   1.776
 3934SOL    HW112701   0.326   0.792   1.726
 3934SOL    HW212702   0.252   0.934   1.761
 3935SOL     OW12703   6.273   3.774   6.350
 3935SOL    HW112704   6.295   3.773   6.252
 3935SOL    HW212705   6.314   3.854   6.393
 3936SOL     OW12706   6.679   4.558   5.793
 3936SOL    HW112707   6.755   4.622   5.785
 3936SOL    HW212708   6.702   4.486   5.858
 3937SOL     OW12709   0.084   5.994   1.601
 3937SOL    HW112710   0.144   6.024   1.675
 3937SOL    HW212711   0.133   6.000   1.514
 3938SOL     OW12712   1.237   3.304   1.877
 3938SOL    HW112713   1.154   3.261   1.912
 3938SOL    HW212714   1.218   3.345   1.788
 3939SOL     OW12715   0.976   1.315   2.823
 3939SOL    HW112716   1.012   1.391   2.769
 3939SOL    HW212717   0.954   1.239   2.762
 3940SOL     OW12718   3.247   5.820   0.903
 3940SOL    HW112719   3.233   5.760   0.825
 3940SOL    HW212720   3.275   5.911   0.871
 3941SOL     OW12721   5.511   6.156   2.843
 3941SOL    HW112722   5.492   6.133   2.748
 3941SOL    HW212723   5.450   6.103   2.903
 3942SOL     OW12724   0.040   5.762   5.340
 3942SOL    HW112725   6.973   5.707   5.344
 3942SOL    HW212726   0.059   5.801   5.430
 3943SOL     OW12727   1.392   2.799   0.269
 3943SOL    HW112728   1.470   2.742   0.294
 3943SOL    HW212729   1.424   2.882   0.225
 3944SOL     OW12730   5.482   3.119   6.659
 3944SOL    HW112731   5.508   3.214   6.679
 3944SOL    HW212732   5.397   3.119   6.606
 3945SOL     OW12733   5.687   0.673   3.368
 3945SOL    HW112734   5.673   0.580   3.402
 3945SOL    HW212735   5.612   0.732   3.399
 3946SOL     OW12736   0.751   3.001   0.395
 3946SOL    HW112737   0.817   2.996   0.470
 3946SOL    HW212738   0.710   3.092   0.393
 3947SOL     OW12739   5.999   5.241   1.918
 3947SOL    HW112740   6.088   5.283   1.901
 3947SOL    HW212741   5.960   5.210   1.831
 3948SOL     OW12742   1.390   2.689   5.975
 3948SOL    HW112743   1.446   2.607   5.967
 3948SOL    HW212744   1.373   2.728   5.884
 3949SOL     OW12745   6.317   0.312   1.470
 3949SOL    HW112746   6.228   0.333   1.511
 3949SOL    HW212747   6.366   0.248   1.529
 3950SOL     OW12748   3.161   4.542   1.655
 3950SOL    HW112749   3.081   4.515   1.709
 3950SOL    HW212750   3.153   4.639   1.631
 3951SOL     OW12751   1.013   2.436   4.379
 3951SOL    HW112752   0.961   2.459   4.461
 3951SOL    HW212753   1.015   2.337   4.367
 3952SOL     OW12754   5.571   3.990   0.151
 3952SOL    HW112755   5.574   4.028   0.058
 3952SOL    HW212756   5.630   4.043   0.211
 3953SOL     OW12757   3.154   3.665   6.654
 3953SOL    HW112758   3.195   3.614   6.730
 3953SOL    HW212759   3.124   3.755   6.686
 3954SOL     OW12760   0.443   2.723   5.564
 3954SOL    HW112761   0.403   2.784   5.495
 3954SOL    HW212762   0.533   2.694   5.533
 3955SOL     OW12763   0.570   3.875   0.362
 3955SOL    HW112764   0.578   3.943   0.289
 3955SOL    HW212765   0.474   3.849   0.372
 3956SOL     OW12766   6.981   3.217   5.713
 3956SOL    HW112767   6.885   3.210   5.739
 3956SOL    HW212768   0.009   3.128   5.720
 3957SOL     OW12769   0.714   1.911   3.243
 3957SOL    HW112770   0.635   1.970   3.224
 3957SOL    HW212771   0.752   1.877   3.157
 3958SOL     OW12772   5.478   6.279   0.099
 3958SOL    HW112773   5.564   6.290   0.049
 3958SOL    HW212774   5.439   6.369   0.120
 3959SOL     OW12775   2.666   5.266   0.376
 3959SOL    HW112776   2.749   5.246   0.427
 3959SOL    HW212777   2.629   5.354   0.406
 3960SOL     OW12778   5.004   3.207   0.901
 3960SOL    HW112779   5.023   3.303   0.884
 3960SOL    HW212780   5.040   3.152   0.825
 3961SOL     OW12781   5.607   0.758   2.122
 3961SOL    HW112782   5.534   0.708   2.169
 3961SOL    HW212783   5.580   0.854   2.111
 3962SOL     OW12784   0.864   6.687   5.724
 3962SOL    HW112785   0.865   6.700   5.823
 3962SOL    HW212786   0.771   6.697   5.690
 3963SOL     OW12787   4.405   5.799   3.370
 3963SOL    HW112788   4.447   5.884   3.337
 3963SOL    HW212789   4.348   5.819   3.449
 3964SOL     OW12790   5.657   6.407   5.879
 3964SOL    HW112791   5.581   6.372   5.825
 3964SOL    HW212792   5.622   6.462   5.954
 3965SOL     OW12793   4.062   2.875   0.212
 3965SOL    HW112794   4.127   2.922   0.272
 3965SOL    HW212795   3.969   2.900   0.238
 3966SOL     OW12796   6.168   3.701   5.150
 3966SOL    HW112797   6.249   3.705   5.208
 3966SOL    HW212798   6.087   3.728   5.203
 3967SOL     OW12799   1.432   6.144   6.751
 3967SOL    HW112800   1.488   6.154   6.833
 3967SOL    HW212801   1.426   6.048   6.726
 3968SOL     OW12802   5.851   0.248   1.547
 3968SOL    HW112803   5.757   0.280   1.557
 3968SOL    HW212804   5.851   0.162   1.495
 3969SOL     OW12805   0.442   5.886   1.894
 3969SOL    HW112806   0.527   5.857   1.939
 3969SOL    HW212807   0.457   5.894   1.796
 3970SOL     OW12808   4.966   4.538   3.894
 3970SOL    HW112809   4.915   4.497   3.969
 3970SOL    HW212810   4.975   4.636   3.910
 3971SOL     OW12811   1.880   6.058   3.938
 3971SOL    HW112812   1.874   6.095   4.030
 3971SOL    HW212813   1.854   6.129   3.872
 3972SOL     OW12814   1.303   0.186   0.438
 3972SOL    HW112815   1.318   0.184   0.339
 3972SOL    HW212816   1.230   0.252   0.460
 3973SOL     OW12817   3.524   3.011   2.846
 3973SOL    HW112818   3.465   3.001   2.765
 3973SOL    HW212819   3.585   3.089   2.832
 3974SOL     OW12820   5.922   0.259   6.116
 3974SOL    HW112821   5.849   0.314   6.157
 3974SOL    HW212822   5.976   0.317   6.055
 3975SOL     OW12823   6.610   6.449   5.778
 3975SOL    HW112824   6.560   6.478   5.859
 3975SOL    HW212825   6.699   6.412   5.806
 3976SOL     OW12826   1.099   3.072   6.515
 3976SOL    HW112827   1.089   2.992   6.575
 3976SOL    HW212828   1.194   3.104   6.518
 3977SOL     OW12829   4.463   6.525   6.339
 3977SOL    HW112830   4.548   6.523   6.391
 3977SOL    HW212831   4.390   6.563   6.396
 3978SOL     OW12832   6.210   3.428   6.871
 3978SOL    HW112833   6.139   3.376   6.919
 3978SOL    HW212834   6.285   3.448   6.934
 3979SOL     OW12835   1.184   6.907   3.156
 3979SOL    HW112836   1.137   6.931   3.072
 3979SOL    HW212837   1.117   6.878   3.225
 3980SOL     OW12838   4.913   3.543   4.779
 3980SOL    HW112839   4.996   3.597   4.767
 3980SOL    HW212840   4.855   3.587   4.848
 3981SOL     OW12841   6.087   1.761   5.284
 3981SOL    HW112842   6.027   1.709   5.345
 3981SOL    HW212843   6.137   1.829   5.338
 3982SOL     OW12844   3.365   1.836   3.934
 3982SOL    HW112845   3.416   1.789   4.006
 3982SOL    HW212846   3.338   1.927   3.967
 3983SOL     OW12847   3.521   6.709   3.890
 3983SOL    HW112848   3.483   6.723   3.798
 3983SOL    HW212849   3.486   6.624   3.928
 3984SOL     OW12850   1.549   0.116   1.859
 3984SOL    HW112851   1.559   0.063   1.943
 3984SOL    HW212852   1.555   0.055   1.780
 3985SOL     OW12853   1.711   3.569   1.720
 3985SOL    HW112854   1.750   3.560   1.628
 3985SOL    HW212855   1.618   3.534   1.720
 3986SOL     OW12856   1.295   3.063   2.110
 3986SOL    HW112857   1.348   3.029   2.031
 3986SOL    HW212858   1.199   3.068   2.086
 3987SOL     OW12859   2.474   4.737   6.405
 3987SOL    HW112860   2.521   4.819   6.372
 3987SOL    HW212861   2.527   4.697   6.480
 3988SOL     OW12862   4.448   1.880   6.897
 3988SOL    HW112863   4.411   1.876   6.804
 3988SOL    HW212864   4.532   1.826   6.901
 3989SOL     OW12865   4.316   0.875   6.342
 3989SOL    HW112866   4.407   0.914   6.339
 3989SOL    HW212867   4.286   0.867   6.437
 3990SOL     OW12868   1.182   2.927   3.337
 3990SOL    HW112869   1.123   2.848   3.352
 3990SOL    HW212870   1.139   3.008   3.377
 3991SOL     OW12871   6.771   1.223   4.271
 3991SOL    HW112872   6.685   1.260   4.306
 3991SOL    HW212873   6.789   1.262   4.181
 3992SOL     OW12874   5.211   4.027   5.937
 3992SOL    HW112875   5.213   3.996   6.032
 3992SOL    HW212876   5.295   3.998   5.890
 3993SOL     OW12877   1.693   1.188   3.061
 3993SOL    HW112878   1.659   1.232   2.978
 3993SOL    HW212879   1.680   1.249   3.139
 3994SOL     OW12880   2.521   1.871   3.834
 3994SOL    HW112881   2.468   1.887   3.917
 3994SOL    HW212882   2.618   1.867   3.857
 3995SOL     OW12883   1.613   3.811   1.961
 3995SOL    HW112884   1.597   3.713   1.972
 3995SOL    HW212885   1.711   3.828   1.952
 3996SOL     OW12886   5.622   7.011   3.085
 3996SOL    HW112887   5.554   6.941   3.106
 3996SOL    HW212888   5.633   0.001   2.985
 3997SOL     OW12889   5.729   3.881   2.860
 3997SOL    HW112890   5.792   3.869   2.784
 3997SOL    HW212891   5.656   3.813   2.854
 3998SOL     OW12892   5.674   2.506   3.055
 3998SOL    HW112893   5.672   2.431   3.121
 3998SOL    HW212894   5.662   2.470   2.963
 3999SOL     OW12895   5.074   2.745   1.583
 3999SOL    HW112896   5.055   2.686   1.504
 3999SOL    HW212897   5.080   2.689   1.666
 4000SOL     OW12898   3.353   5.538   2.104
 4000SOL    HW112899   3.387   5.445   2.120
 4000SOL    HW212900   3.380   5.569   2.013
 4001SOL     OW12901   2.068   4.422   4.727
 4001SOL    HW112902   2.118   4.393   4.646
 4001SOL    HW212903   2.019   4.344   4.766
 4002SOL     OW12904   3.400   4.131   3.539
 4002SOL    HW112905   3.447   4.217   3.520
 4002SOL    HW212906   3.401   4.074   3.457
 4003SOL     OW12907   2.879   0.996   5.437
 4003SOL    HW112908   2.949   1.063   5.414
 4003SOL    HW212909   2.890   0.967   5.532
 4004SOL     OW12910   0.881   3.730   3.361
 4004SOL    HW112911   0.921   3.679   3.285
 4004SOL    HW212912   0.926   3.701   3.446
 4005SOL     OW12913   5.176   2.726   0.790
 4005SOL    HW112914   5.271   2.757   0.804
 4005SOL    HW212915   5.132   2.716   0.879
 4006SOL     OW12916   4.681   5.078   3.553
 4006SOL    HW112917   4.594   5.075   3.504
 4006SOL    HW212918   4.752   5.039   3.496
 4007SOL     OW12919   6.903   1.308   3.271
 4007SOL    HW112920   6.949   1.223   3.245
 4007SOL    HW212921   6.852   1.294   3.356
 4008SOL     OW12922   3.352   0.425   0.957
 4008SOL    HW112923   3.253   0.422   0.972
 4008SOL    HW212924   3.374   0.389   0.866
 4009SOL     OW12925   4.840   2.117   0.732
 4009SOL    HW112926   4.871   2.041   0.674
 4009SOL    HW212927   4.741   2.108   0.748
 4010SOL     OW12928   2.503   4.844   1.705
 4010SOL    HW112929   2.598   4.860   1.730
 4010SOL    HW212930   2.483   4.746   1.711
 4011SOL     OW12931   5.074   5.789   6.812
 4011SOL    HW112932   5.093   5.886   6.796
 4011SOL    HW212933   5.150   5.748   6.863
 4012SOL     OW12934   4.490   0.527   2.521
 4012SOL    HW112935   4.559   0.468   2.563
 4012SOL    HW212936   4.468   0.494   2.430
 4013SOL     OW12937   0.208   1.007   6.506
 4013SOL    HW112938   0.252   0.924   6.541
 4013SOL    HW212939   0.173   1.061   6.583
 4014SOL     OW12940   2.868   5.221   2.022
 4014SOL    HW112941   2.844   5.317   2.007
 4014SOL    HW212942   2.786   5.165   2.018
 4015SOL     OW12943   4.023   4.356   6.106
 4015SOL    HW112944   4.119   4.375   6.123
 4015SOL    HW212945   3.999   4.384   6.013
 4016SOL     OW12946   4.188   5.412   5.703
 4016SOL    HW112947   4.094   5.377   5.704
 4016SOL    HW212948   4.201   5.472   5.782
 4017SOL     OW12949   0.378   4.968   6.175
 4017SOL    HW112950   0.288   4.925   6.166
 4017SOL    HW212951   0.449   4.903   6.150
 4018SOL     OW12952   4.507   6.319   1.995
 4018SOL    HW112953   4.572   6.249   1.967
 4018SOL    HW212954   4.547   6.410   1.980
 4019SOL     OW12955   5.210   3.595   3.440
 4019SOL    HW112956   5.220   3.496   3.438
 4019SOL    HW212957   5.269   3.634   3.511
 4020SOL     OW12958   6.257   4.843   3.948
 4020SOL    HW112959   6.186   4.776   3.970
 4020SOL    HW212960   6.223   4.905   3.877
 4021SOL     OW12961   4.070   3.447   6.066
 4021SOL    HW112962   4.156   3.479   6.105
 4021SOL    HW212963   3.997   3.512   6.086
 4022SOL     OW12964   2.539   0.803   1.520
 4022SOL    HW112965   2.520   0.764   1.430
 4022SOL    HW212966   2.601   0.881   1.511
 4023SOL     OW12967   0.654   1.956   5.132
 4023SOL    HW112968   0.729   2.021   5.118
 4023SOL    HW212969   0.637   1.905   5.048
 4024SOL     OW12970   0.488   5.483   4.646
 4024SOL    HW112971   0.390   5.470   4.636
 4024SOL    HW212972   0.528   5.507   4.557
 4025SOL     OW12973   0.600   5.786   4.004
 4025SOL    HW112974   0.515   5.770   4.054
 4025SOL    HW212975   0.677   5.788   4.068
 4026SOL     OW12976   6.654   6.460   3.705
 4026SOL    HW112977   6.668   6.374   3.656
 4026SOL    HW212978   6.575   6.451   3.765
 4027SOL     OW12979   2.846   4.151   5.850
 4027SOL    HW112980   2.773   4.082   5.846
 4027SOL    HW212981   2.930   4.113   5.811
 4028SOL     OW12982   4.723   1.723   2.713
 4028SOL    HW112983   4.682   1.766   2.633
 4028SOL    HW212984   4.651   1.698   2.778
 4029SOL     OW12985   2.329   5.526   6.344
 4029SOL    HW112986   2.269   5.447   6.348
 4029SOL    HW212987   2.293   5.598   6.404
 4030SOL     OW12988   0.245   1.068   2.589
 4030SOL    HW112989   0.184   1.131   2.541
 4030SOL    HW212990   0.246   1.091   2.687
 4031SOL     OW12991   5.826   6.807   1.081
 4031SOL    HW112992   5.925   6.800   1.076
 4031SOL    HW212993   5.798   6.900   1.057
 4032SOL     OW12994   5.722   0.618   1.353
 4032SOL    HW112995   5.776   0.545   1.312
 4032SOL    HW212996   5.769   0.654   1.434
 4033SOL     OW12997   2.309   2.699   2.670
 4033SOL    HW112998   2.273   2.612   2.704
 4033SOL    HW212999   2.315   2.765   2.745
 4034SOL     OW13000   0.227   2.993   4.989
 4034SOL    HW113001   0.177   2.907   4.984
 4034SOL    HW213002   0.167   3.065   5.023
 4035SOL     OW13003   5.595   1.726   1.591
 4035SOL    HW113004   5.559   1.718   1.684
 4035SOL    HW213005   5.520   1.745   1.527
 4036SOL     OW13006   2.667   5.595   3.186
 4036SOL    HW113007   2.650   5.536   3.106
 4036SOL    HW213008   2.589   5.657   3.198
 4037SOL     OW13009   2.330   0.698   6.116
 4037SOL    HW113010   2.381   0.772   6.071
 4037SOL    HW213011   2.276   0.735   6.191
 4038SOL     OW13012   3.421   3.906   5.847
 4038SOL    HW113013   3.517   3.876   5.842
 4038SOL    HW213014   3.411   3.991   5.796
 4039SOL     OW13015   6.032   4.833   1.655
 4039SOL    HW113016   5.973   4.770   1.606
 4039SOL    HW213017   5.992   4.855   1.744
 4040SOL     OW13018   3.478   5.214   5.198
 4040SOL    HW113019   3.424   5.141   5.239
 4040SOL    HW213020   3.562   5.176   5.160
 4041SOL     OW13021   2.348   5.990   0.974
 4041SOL    HW113022   2.406   6.012   1.053
 4041SOL    HW213023   2.260   5.956   1.006
 4042SOL     OW13024   6.039   0.569   3.682
 4042SOL    HW113025   6.105   0.628   3.730
 4042SOL    HW213026   6.075   0.547   3.592
 4043SOL     OW13027   5.184   3.632   6.441
 4043SOL    HW113028   5.176   3.723   6.481
 4043SOL    HW213029   5.226   3.638   6.351
 4044SOL     OW13030   3.801   5.166   3.533
 4044SOL    HW113031   3.824   5.077   3.494
 4044SOL    HW213032   3.858   5.237   3.491
 4045SOL     OW13033   5.192   0.012   5.392
 4045SOL    HW113034   5.185   6.995   5.298
 4045SOL    HW213035   5.120   6.986   5.448
 4046SOL     OW13036   6.844   1.958   2.988
 4046SOL    HW113037   6.862   1.946   3.086
 4046SOL    HW213038   6.762   1.906   2.963
 4047SOL     OW13039   2.761   3.132   6.727
 4047SOL    HW113040   2.845   3.128   6.782
 4047SOL    HW213041   2.696   3.064   6.762
 4048SOL     OW13042   4.474   1.271   1.967
 4048SOL    HW113043   4.409   1.332   2.013
 4048SOL    HW213044   4.424   1.206   1.910
 4049SOL     OW13045   4.332   4.979   6.532
 4049SOL    HW113046   4.385   5.015   6.456
 4049SOL    HW213047   4.394   4.934   6.597
 4050SOL     OW13048   0.379   5.263   2.802
 4050SOL    HW113049   0.326   5.319   2.865
 4050SOL    HW213050   0.350   5.168   2.809
 4051SOL     OW13051   5.248   1.163   5.764
 4051SOL    HW113052   5.243   1.063   5.764
 4051SOL    HW213053   5.160   1.200   5.794
 4052SOL     OW13054   6.120   2.083   3.851
 4052SOL    HW113055   6.203   2.064   3.905
 4052SOL    HW213056   6.142   2.149   3.779
 4053SOL     OW13057   1.089   5.588   4.735
 4053SOL    HW113058   1.111   5.548   4.646
 4053SOL    HW213059   1.161   5.653   4.761
 4054SOL     OW13060   5.185   4.366   0.722
 4054SOL    HW113061   5.276   4.333   0.746
 4054SOL    HW213062   5.140   4.402   0.803
 4055SOL     OW13063   1.103   3.726   1.407
 4055SOL    HW113064   1.193   3.725   1.364
 4055SOL    HW213065   1.099   3.798   1.476
 4056SOL     OW13066   4.744   3.215   0.774
 4056SOL    HW113067   4.670   3.170   0.824
 4056SOL    HW213068   4.828   3.212   0.829
 4057SOL     OW13069   6.571   3.702   6.664
 4057SOL    HW113070   6.488   3.648   6.653
 4057SOL    HW213071   6.633   3.684   6.587
 4058SOL     OW13072   2.821   6.297   5.527
 4058SOL    HW113073   2.722   6.290   5.528
 4058SOL    HW213074   2.851   6.368   5.591
 4059SOL     OW13075   1.052   1.927   3.835
 4059SOL    HW113076   1.083   2.009   3.883
 4059SOL    HW213077   0.994   1.873   3.897
 4060SOL     OW13078   6.477   5.732   5.379
 4060SOL    HW113079   6.537   5.721   5.300
 4060SOL    HW213080   6.407   5.660   5.377
 4061SOL     OW13081   2.480   5.271   1.662
 4061SOL    HW113082   2.507   5.253   1.567
 4061SOL    HW213083   2.535   5.346   1.699
 4062SOL     OW13084   1.993   1.847   1.806
 4062SOL    HW113085   2.074   1.840   1.748
 4062SOL    HW213086   2.004   1.788   1.886
 4063SOL     OW13087   5.555   1.737   0.657
 4063SOL    HW113088   5.510   1.671   0.596
 4063SOL    HW213089   5.500   1.749   0.739
 4064SOL     OW13090   1.921   1.788   4.863
 4064SOL    HW113091   1.963   1.822   4.947
 4064SOL    HW213092   1.932   1.855   4.790
 4065SOL     OW13093   2.077   6.896   0.403
 4065SOL    HW113094   1.984   6.875   0.432
 4065SOL    HW213095   2.088   6.871   0.307
 4066SOL     OW13096   0.152   4.091   3.426
 4066SOL    HW113097   0.186   4.163   3.487
 4066SOL    HW213098   0.121   4.014   3.480
 4067SOL     OW13099   5.570   4.965   2.308
 4067SOL    HW113100   5.662   4.932   2.331
 4067SOL    HW213101   5.533   5.016   2.385
 4068SOL     OW13102   1.667   2.659   5.355
 4068SOL    HW113103   1.699   2.585   5.415
 4068SOL    HW213104   1.632   2.734   5.410
 4069SOL     OW13105   4.000   0.400   6.873
 4069SOL    HW113106   4.044   0.453   6.800
 4069SOL    HW213107   3.952   0.322   6.834
 4070SOL     OW13108   1.308   2.846   2.887
 4070SOL    HW113109   1.210   2.857   2.876
 4070SOL    HW213110   1.333   2.869   2.981
 4071SOL     OW13111   0.654   0.298   3.897
 4071SOL    HW113112   0.694   0.215   3.857
 4071SOL    HW213113   0.555   0.292   3.894
 4072SOL     OW13114   1.582   5.810   3.518
 4072SOL    HW113115   1.487   5.805   3.486
 4072SOL    HW213116   1.597   5.898   3.564
 4073SOL     OW13117   2.917   5.210   0.030
 4073SOL    HW113118   2.861   5.155   0.093
 4073SOL    HW213119   3.009   5.219   0.067
 4074SOL     OW13120   1.242   5.645   2.589
 4074SOL    HW113121   1.157   5.636   2.642
 4074SOL    HW213122   1.314   5.683   2.647
 4075SOL     OW13123   5.068   0.159   0.757
 4075SOL    HW113124   5.111   0.238   0.713
 4075SOL    HW213125   5.037   0.094   0.687
 4076SOL     OW13126   2.977   3.636   5.542
 4076SOL    HW113127   2.996   3.550   5.495
 4076SOL    HW213128   2.970   3.710   5.475
 4077SOL     OW13129   3.964   1.978   1.791
 4077SOL    HW113130   4.058   1.949   1.809
 4077SOL    HW213131   3.920   1.914   1.728
 4078SOL     OW13132   3.006   4.854   3.101
 4078SOL    HW113133   2.948   4.912   3.043
 4078SOL    HW213134   3.064   4.912   3.158
 4079SOL     OW13135   1.270   2.449   4.060
 4079SOL    HW113136   1.253   2.374   3.996
 4079SOL    HW213137   1.218   2.529   4.032
 4080SOL     OW13138   5.362   1.247   5.160
 4080SOL    HW113139   5.462   1.248   5.161
 4080SOL    HW213140   5.328   1.233   5.253
 4081SOL     OW13141   1.575   3.419   3.165
 4081SOL    HW113142   1.600   3.347   3.100
 4081SOL    HW213143   1.652   3.437   3.225
 4082SOL     OW13144   0.994   3.375   1.237
 4082SOL    HW113145   0.926   3.349   1.168
 4082SOL    HW213146   0.967   3.338   1.326
 4083SOL     OW13147   5.658   2.667   4.040
 4083SOL    HW113148   5.708   2.633   4.120
 4083SOL    HW213149   5.714   2.732   3.990
 4084SOL     OW13150   6.562   1.749   4.494
 4084SOL    HW113151   6.504   1.830   4.487
 4084SOL    HW213152   6.574   1.708   4.404
 4085SOL     OW13153   3.626   6.038   0.348
 4085SOL    HW113154   3.708   6.055   0.293
 4085SOL    HW213155   3.562   5.982   0.295
 4086SOL     OW13156   1.799   5.399   1.272
 4086SOL    HW113157   1.775   5.313   1.317
 4086SOL    HW213158   1.723   5.463   1.281
 4087SOL     OW13159   2.427   2.285   3.297
 4087SOL    HW113160   2.388   2.344   3.227
 4087SOL    HW213161   2.504   2.332   3.342
 4088SOL     OW13162   6.353   1.571   1.339
 4088SOL    HW113163   6.299   1.551   1.421
 4088SOL    HW213164   6.432   1.626   1.364
 4089SOL     OW13165   0.625   1.292   3.826
 4089SOL    HW113166   0.531   1.315   3.801
 4089SOL    HW213167   0.643   1.320   3.920
 4090SOL     OW13168   2.627   3.940   6.359
 4090SOL    HW113169   2.671   4.028   6.340
 4090SOL    HW213170   2.556   3.923   6.291
 4091SOL     OW13171   4.757   6.036   0.231
 4091SOL    HW113172   4.719   5.946   0.252
 4091SOL    HW213173   4.848   6.044   0.271
 4092SOL     OW13174   0.492   3.085   5.169
 4092SOL    HW113175   0.421   3.048   5.109
 4092SOL    HW213176   0.468   3.066   5.264
 4093SOL     OW13177   5.785   1.025   3.145
 4093SOL    HW113178   5.783   1.003   3.243
 4093SOL    HW213179   5.880   1.033   3.115
 4094SOL     OW13180   1.985   4.315   5.308
 4094SOL    HW113181   2.022   4.272   5.226
 4094SOL    HW213182   1.911   4.259   5.345
 4095SOL     OW13183   1.165   2.947   5.737
 4095SOL    HW113184   1.109   2.978   5.660
 4095SOL    HW213185   1.194   3.026   5.791
 4096SOL     OW13186   4.724   5.064   6.860
 4096SOL    HW113187   4.783   5.047   6.939
 4096SOL    HW213188   4.780   5.074   6.778
 4097SOL     OW13189   3.428   3.428   5.877
 4097SOL    HW113190   3.450   3.482   5.796
 4097SOL    HW213191   3.383   3.343   5.849
 4098SOL     OW13192   0.346   2.826   2.885
 4098SOL    HW113193   0.424   2.802   2.943
 4098SOL    HW213194   0.268   2.851   2.942
 4099SOL     OW13195   3.225   6.256   2.008
 4099SOL    HW113196   3.275   6.175   2.040
 4099SOL    HW213197   3.248   6.334   2.067
 4100SOL     OW13198   4.828   6.187   3.537
 4100SOL    HW113199   4.810   6.089   3.538
 4100SOL    HW213200   4.775   6.230   3.464
 4101SOL     OW13201   5.765   1.539   6.117
 4101SOL    HW113202   5.703   1.506   6.188
 4101SOL    HW213203   5.747   1.491   6.031
 4102SOL     OW13204   5.900   0.675   0.806
 4102SOL    HW113205   5.939   0.736   0.874
 4102SOL    HW213206   5.814   0.713   0.771
 4103SOL     OW13207   0.637   1.085   2.272
 4103SOL    HW113208   0.580   1.073   2.353
 4103SOL    HW213209   0.632   1.003   2.215
 4104SOL     OW13210   1.550   4.230   2.587
 4104SOL    HW113211   1.498   4.293   2.529
 4104SOL    HW213212   1.509   4.139   2.584
 4105SOL     OW13213   4.026   5.635   0.239
 4105SOL    HW113214   3.939   5.685   0.230
 4105SOL    HW213215   4.007   5.539   0.258
 4106SOL     OW13216   0.124   3.852   4.895
 4106SOL    HW113217   0.202   3.860   4.833
 4106SOL    HW213218   0.158   3.845   4.989
 4107SOL     OW13219   0.552   6.227   1.246
 4107SOL    HW113220   0.586   6.298   1.184
 4107SOL    HW213221   0.472   6.183   1.205
 4108SOL     OW13222   6.973   4.027   6.585
 4108SOL    HW113223   6.969   3.997   6.680
 4108SOL    HW213224   6.896   4.089   6.566
 4109SOL     OW13225   3.788   6.732   3.976
 4109SOL    HW113226   3.850   6.804   3.943
 4109SOL    HW213227   3.703   6.735   3.923
 4110SOL     OW13228   4.659   3.264   5.968
 4110SOL    HW113229   4.652   3.312   5.880
 4110SOL    HW213230   4.569   3.263   6.012
 4111SOL     OW13231   4.116   2.623   0.123
 4111SOL    HW113232   4.090   2.714   0.154
 4111SOL    HW213233   4.095   2.614   0.026
 4112SOL     OW13234   4.382   1.402   4.750
 4112SOL    HW113235   4.299   1.370   4.705
 4112SOL    HW213236   4.366   1.494   4.787
 4113SOL     OW13237   3.410   5.422   5.368
 4113SOL    HW113238   3.412   5.375   5.280
 4113SOL    HW213239   3.500   5.415   5.411
 4114SOL     OW13240   3.252   1.546   4.429
 4114SOL    HW113241   3.180   1.497   4.378
 4114SOL    HW213242   3.311   1.594   4.364
 4115SOL     OW13243   4.653   5.662   2.073
 4115SOL    HW113244   4.740   5.709   2.061
 4115SOL    HW213245   4.617   5.637   1.983
 4116SOL     OW13246   3.650   1.955   1.937
 4116SOL    HW113247   3.690   2.046   1.946
 4116SOL    HW213248   3.712   1.896   1.885
 4117SOL     OW13249   1.050   4.950   1.008
 4117SOL    HW113250   1.078   5.013   0.936
 4117SOL    HW213251   1.081   4.986   1.097
 4118SOL     OW13252   1.202   6.878   1.253
 4118SOL    HW113253   1.226   6.802   1.314
 4118SOL    HW213254   1.286   6.925   1.225
 4119SOL     OW13255   3.541   1.097   4.546
 4119SOL    HW113256   3.537   1.143   4.457
 4119SOL    HW213257   3.637   1.079   4.569
 4120SOL     OW13258   4.259   6.805   2.089
 4120SOL    HW113259   4.249   6.763   1.998
 4120SOL    HW213260   4.345   6.856   2.092
 4121SOL     OW13261   6.692   2.301   4.533
 4121SOL    HW113262   6.661   2.396   4.546
 4121SOL    HW213263   6.782   2.301   4.491
 4122SOL     OW13264   0.499   6.708   5.142
 4122SOL    HW113265   0.554   6.778   5.188
 4122SOL    HW213266   0.403   6.719   5.168
 4123SOL     OW13267   5.615   4.386   5.774
 4123SOL    HW113268   5.553   4.307   5.777
 4123SOL    HW213269   5.683   4.372   5.702
 4124SOL     OW13270   5.534   6.847   3.816
 4124SOL    HW113271   5.472   6.806   3.749
 4124SOL    HW213272   5.501   6.828   3.908
 4125SOL     OW13273   4.531   0.984   1.679
 4125SOL    HW113274   4.504   0.908   1.738
 4125SOL    HW213275   4.565   1.059   1.735
 4126SOL     OW13276   1.652   4.277   4.684
 4126SOL    HW113277   1.598   4.199   4.714
 4126SOL    HW213278   1.608   4.362   4.714
 4127SOL     OW13279   5.417   3.432   4.654
 4127SOL    HW113280   5.366   3.436   4.568
 4127SOL    HW213281   5.499   3.377   4.641
 4128SOL     OW13282   1.668   3.694   2.291
 4128SOL    HW113283   1.761   3.707   2.325
 4128SOL    HW213284   1.671   3.639   2.207
 4129SOL     OW13285   5.853   2.099   6.152
 4129SOL    HW113286   5.900   2.151   6.224
 4129SOL    HW213287   5.881   2.003   6.157
 4130SOL     OW13288   6.594   3.933   6.189
 4130SOL    HW113289   6.678   3.912   6.240
 4130SOL    HW213290   6.597   3.887   6.100
 4131SOL     OW13291   0.113   5.828   3.946
 4131SOL    HW113292   0.210   5.807   3.934
 4131SOL    HW213293   0.076   5.772   4.020
 4132SOL     OW13294   5.086   3.225   3.226
 4132SOL    HW113295   5.067   3.232   3.324
 4132SOL    HW213296   5.001   3.242   3.175
 4133SOL     OW13297   2.907   0.829   1.076
 4133SOL    HW113298   2.974   0.797   1.143
 4133SOL    HW213299   2.837   0.884   1.122
 4134SOL     OW13300   2.165   1.906   0.866
 4134SOL    HW113301   2.210   1.820   0.890
 4134SOL    HW213302   2.073   1.886   0.832
 4135SOL     OW13303   1.709   0.618   2.742
 4135SOL    HW113304   1.773   0.693   2.754
 4135SOL    HW213305   1.648   0.613   2.821
 4136SOL     OW13306   0.277   2.445   4.471
 4136SOL    HW113307   0.265   2.529   4.417
 4136SOL    HW213308   0.262   2.365   4.412
 4137SOL     OW13309   3.236   3.945   6.808
 4137SOL    HW113310   3.233   4.019   6.741
 4137SOL    HW213311   3.203   3.978   6.896
 4138SOL     OW13312   4.858   4.780   4.426
 4138SOL    HW113313   4.832   4.853   4.489
 4138SOL    HW213314   4.790   4.706   4.431
 4139SOL     OW13315   1.821   2.058   5.860
 4139SOL    HW113316   1.723   2.048   5.881
 4139SOL    HW213317   1.831   2.097   5.768
 4140SOL     OW13318   4.031   1.487   5.388
 4140SOL    HW113319   4.102   1.430   5.348
 4140SOL    HW213320   3.986   1.540   5.315
 4141SOL     OW13321   5.344   5.014   1.308
 4141SOL    HW113322   5.346   4.956   1.389
 4141SOL    HW213323   5.282   5.091   1.323
 4142SOL     OW13324   6.831   4.632   0.808
 4142SOL    HW113325   6.786   4.652   0.721
 4142SOL    HW213326   6.835   4.533   0.821
 4143SOL     OW13327   6.682   2.901   0.871
 4143SOL    HW113328   6.615   2.969   0.903
 4143SOL    HW213329   6.730   2.936   0.791
 4144SOL     OW13330   5.564   1.571   1.813
 4144SOL    HW113331   5.500   1.622   1.871
 4144SOL    HW213332   5.600   1.493   1.864
 4145SOL     OW13333   0.678   6.691   1.563
 4145SOL    HW113334   0.756   6.633   1.541
 4145SOL    HW213335   0.707   6.763   1.627
 4146SOL     OW13336   5.573   0.076   6.324
 4146SOL    HW113337   5.589   7.001   6.286
 4146SOL    HW213338   5.635   0.091   6.401
 4147SOL     OW13339   3.498   2.088   6.568
 4147SOL    HW113340   3.481   1.990   6.584
 4147SOL    HW213341   3.557   2.124   6.640
 4148SOL     OW13342   0.401   0.660   3.962
 4148SOL    HW113343   0.371   0.566   3.944
 4148SOL    HW213344   0.500   0.663   3.972
 4149SOL     OW13345   6.195   2.970   0.887
 4149SOL    HW113346   6.255   3.043   0.853
 4149SOL    HW213347   6.217   2.885   0.839
 4150SOL     OW13348   5.673   0.342   6.232
 4150SOL    HW113349   5.594   0.380   6.184
 4150SOL    HW213350   5.652   0.248   6.260
 4151SOL     OW13351   6.701   6.023   0.431
 4151SOL    HW113352   6.737   5.934   0.404
 4151SOL    HW213353   6.684   6.078   0.349
 4152SOL     OW13354   4.513   4.899   2.101
 4152SOL    HW113355   4.593   4.958   2.100
 4152SOL    HW213356   4.441   4.938   2.044
 4153SOL     OW13357   5.711   5.260   6.321
 4153SOL    HW113358   5.747   5.230   6.409
 4153SOL    HW213359   5.785   5.266   6.254
 4154SOL     OW13360   6.324   3.622   4.820
 4154SOL    HW113361   6.259   3.639   4.746
 4154SOL    HW213362   6.289   3.549   4.879
 4155SOL     OW13363   0.834   3.923   2.301
 4155SOL    HW113364   0.781   4.006   2.317
 4155SOL    HW213365   0.928   3.937   2.332
 4156SOL     OW13366   5.719   6.848   5.424
 4156SOL    HW113367   5.693   6.796   5.342
 4156SOL    HW213368   5.806   6.814   5.458
 4157SOL     OW13369   4.112   0.711   4.009
 4157SOL    HW113370   4.172   0.660   3.947
 4157SOL    HW213371   4.166   0.782   4.055
 4158SOL     OW13372   1.042   5.185   3.151
 4158SOL    HW113373   1.075   5.139   3.234
 4158SOL    HW213374   0.961   5.139   3.117
 4159SOL     OW13375   1.357   3.030   3.675
 4159SOL    HW113376   1.263   3.004   3.696
 4159SOL    HW213377   1.357   3.097   3.601
 4160SOL     OW13378   6.375   0.195   0.398
 4160SOL    HW113379   6.327   0.186   0.311
 4160SOL    HW213380   6.452   0.258   0.387
 4161SOL     OW13381   1.513   0.811   6.645
 4161SOL    HW113382   1.431   0.822   6.589
 4161SOL    HW213383   1.594   0.809   6.587
 4162SOL     OW13384   6.152   6.830   4.300
 4162SOL    HW113385   6.055   6.851   4.286
 4162SOL    HW213386   6.163   6.731   4.309
 4163SOL     OW13387   5.647   1.294   3.235
 4163SOL    HW113388   5.705   1.213   3.243
 4163SOL    HW213389   5.700   1.375   3.261
 4164SOL     OW13390   1.735   0.867   6.493
 4164SOL    HW113391   1.698   0.879   6.401
 4164SOL    HW213392   1.835   0.874   6.489
 4165SOL     OW13393   4.014   6.524   0.601
 4165SOL    HW113394   4.023   6.582   0.683
 4165SOL    HW213395   4.086   6.548   0.536
 4166SOL     OW13396   4.298   2.597   0.773
 4166SOL    HW113397   4.379   2.557   0.815
 4166SOL    HW213398   4.271   2.680   0.822
 4167SOL     OW13399   2.103   2.565   1.621
 4167SOL    HW113400   2.033   2.611   1.675
 4167SOL    HW213401   2.168   2.520   1.682
 4168SOL     OW13402   0.267   5.315   1.987
 4168SOL    HW113403   0.240   5.255   1.911
 4168SOL    HW213404   0.229   5.279   2.072
 4169SOL     OW13405   4.984   3.744   3.823
 4169SOL    HW113406   5.001   3.787   3.912
 4169SOL    HW213407   5.066   3.694   3.795
 4170SOL     OW13408   3.806   2.659   5.588
 4170SOL    HW113409   3.863   2.583   5.619
 4170SOL    HW213410   3.841   2.694   5.501
 4171SOL     OW13411   5.359   3.723   1.656
 4171SOL    HW113412   5.368   3.642   1.597
 4171SOL    HW213413   5.298   3.789   1.612
 4172SOL     OW13414   0.346   2.075   1.075
 4172SOL    HW113415   0.383   2.160   1.112
 4172SOL    HW213416   0.372   2.066   0.979
 4173SOL     OW13417   5.549   2.740   5.056
 4173SOL    HW113418   5.600   2.684   4.990
 4173SOL    HW213419   5.484   2.682   5.104
 4174SOL     OW13420   4.448   0.645   3.578
 4174SOL    HW113421   4.369   0.626   3.519
 4174SOL    HW213422   4.492   0.559   3.604
 4175SOL     OW13423   3.248   0.280   3.808
 4175SOL    HW113424   3.152   0.282   3.838
 4175SOL    HW213425   3.280   0.185   3.806
 4176SOL     OW13426   4.886   0.041   2.473
 4176SOL    HW113427   4.840   0.120   2.433
 4176SOL    HW213428   4.847   0.023   2.563
 4177SOL     OW13429   0.336   6.121   3.931
 4177SOL    HW113430   0.241   6.150   3.921
 4177SOL    HW213431   0.358   6.113   4.028
 4178SOL     OW13432   3.146   1.617   6.155
 4178SOL    HW113433   3.073   1.676   6.190
 4178SOL    HW213434   3.110   1.560   6.081
 4179SOL     OW13435   5.639   3.320   5.389
 4179SOL    HW113436   5.676   3.378   5.316
 4179SOL    HW213437   5.603   3.235   5.349
 4180SOL     OW13438   4.993   4.439   1.220
 4180SOL    HW113439   4.920   4.452   1.286
 4180SOL    HW213440   5.081   4.464   1.261
 4181SOL     OW13441   0.775   1.798   6.489
 4181SOL    HW113442   0.828   1.752   6.559
 4181SOL    HW213443   0.832   1.865   6.442
 4182SOL     OW13444   6.849   0.605   2.168
 4182SOL    HW113445   6.778   0.646   2.110
 4182SOL    HW213446   6.933   0.659   2.161
 4183SOL     OW13447   2.727   1.618   1.752
 4183SOL    HW113448   2.705   1.709   1.719
 4183SOL    HW213449   2.649   1.557   1.738
 4184SOL     OW13450   3.717   5.435   0.460
 4184SOL    HW113451   3.706   5.475   0.369
 4184SOL    HW213452   3.772   5.496   0.517
 4185SOL     OW13453   0.169   0.045   3.214
 4185SOL    HW113454   0.146   0.067   3.119
 4185SOL    HW213455   0.115   6.982   3.244
 4186SOL     OW13456   2.603   3.786   0.564
 4186SOL    HW113457   2.627   3.739   0.649
 4186SOL    HW213458   2.635   3.732   0.487
 4187SOL     OW13459   3.613   3.276   6.517
 4187SOL    HW113460   3.523   3.292   6.477
 4187SOL    HW213461   3.669   3.224   6.451
 4188SOL     OW13462   4.776   0.298   3.815
 4188SOL    HW113463   4.860   0.340   3.780
 4188SOL    HW213464   4.772   0.309   3.914
 4189SOL     OW13465   2.496   1.589   4.199
 4189SOL    HW113466   2.493   1.675   4.250
 4189SOL    HW213467   2.557   1.599   4.121
 4190SOL     OW13468   3.067   0.856   6.734
 4190SOL    HW113469   3.022   0.786   6.678
 4190SOL    HW213470   3.070   0.942   6.683
 4191SOL     OW13471   6.517   2.893   3.413
 4191SOL    HW113472   6.514   2.920   3.317
 4191SOL    HW213473   6.430   2.851   3.439
 4192SOL     OW13474   5.904   1.412   3.001
 4192SOL    HW113475   5.946   1.392   2.912
 4192SOL    HW213476   5.806   1.428   2.989
 4193SOL     OW13477   2.416   6.867   2.487
 4193SOL    HW113478   2.385   6.906   2.400
 4193SOL    HW213479   2.345   6.877   2.556
 4194SOL     OW13480   6.863   1.610   4.291
 4194SOL    HW113481   6.947   1.664   4.296
 4194SOL    HW213482   6.846   1.567   4.380
 4195SOL     OW13483   5.642   0.355   1.233
 4195SOL    HW113484   5.739   0.333   1.245
 4195SOL    HW213485   5.603   0.293   1.165
 4196SOL     OW13486   5.076   2.834   4.550
 4196SOL    HW113487   5.069   2.752   4.494
 4196SOL    HW213488   5.172   2.862   4.555
 4197SOL     OW13489   5.149   4.497   4.557
 4197SOL    HW113490   5.107   4.412   4.587
 4197SOL    HW213491   5.185   4.486   4.464
 4198SOL     OW13492   5.810   3.852   6.920
 4198SOL    HW113493   5.864   3.851   6.836
 4198SOL    HW213494   5.823   3.939   6.967
 4199SOL     OW13495   3.131   3.663   5.196
 4199SOL    HW113496   3.135   3.762   5.200
 4199SOL    HW213497   3.036   3.633   5.182
 4200SOL     OW13498   2.134   0.350   6.589
 4200SOL    HW113499   2.179   0.317   6.671
 4200SOL    HW213500   2.119   0.273   6.526
 4201SOL     OW13501   6.005   0.057   3.650
 4201SOL    HW113502   6.060   0.127   3.605
 4201SOL    HW213503   6.036   6.982   3.620
 4202SOL     OW13504   5.613   4.730   5.549
 4202SOL    HW113505   5.687   4.752   5.613
 4202SOL    HW213506   5.608   4.801   5.478
 4203SOL     OW13507   4.964   5.482   3.054
 4203SOL    HW113508   4.952   5.448   2.961
 4203SOL    HW213509   5.061   5.484   3.078
 4204SOL     OW13510   3.605   2.983   1.083
 4204SOL    HW113511   3.540   3.019   1.150
 4204SOL    HW213512   3.623   2.887   1.101
 4205SOL     OW13513   3.153   5.177   4.719
 4205SOL    HW113514   3.244   5.154   4.753
 4205SOL    HW213515   3.138   5.133   4.631
 4206SOL     OW13516   4.906   0.365   4.872
 4206SOL    HW113517   4.865   0.278   4.900
 4206SOL    HW213518   4.834   0.427   4.842
 4207SOL     OW13519   1.437   1.008   1.760
 4207SOL    HW113520   1.484   0.960   1.686
 4207SOL    HW213521   1.341   1.020   1.737
 4208SOL     OW13522   1.124   2.442   0.761
 4208SOL    HW113523   1.120   2.475   0.666
 4208SOL    HW213524   1.041   2.469   0.809
 4209SOL     OW13525   2.154   6.926   5.029
 4209SOL    HW113526   2.115   0.002   5.034
 4209SOL    HW213527   2.146   6.891   4.936
 4210SOL     OW13528   4.042   2.887   0.691
 4210SOL    HW113529   4.045   2.789   0.671
 4210SOL    HW213530   3.954   2.910   0.732
 4211SOL     OW13531   4.448   4.520   4.169
 4211SOL    HW113532   4.484   4.535   4.077
 4211SOL    HW213533   4.375   4.586   4.187
 4212SOL     OW13534   6.040   1.297   3.190
 4212SOL    HW113535   6.005   1.355   3.116
 4212SOL    HW213536   6.028   1.201   3.165
 4213SOL     OW13537   1.308   0.840   2.594
 4213SOL    HW113538   1.281   0.791   2.512
 4213SOL    HW213539   1.408   0.835   2.603
 4214SOL     OW13540   0.872   3.584   5.323
 4214SOL    HW113541   0.878   3.550   5.229
 4214SOL    HW213542   0.936   3.660   5.335
 4215SOL     OW13543   0.798   5.370   4.998
 4215SOL    HW113544   0.721   5.342   4.940
 4215SOL    HW213545   0.785   5.333   5.090
 4216SOL     OW13546   0.928   2.690   4.291
 4216SOL    HW113547   0.958   2.773   4.339
 4216SOL    HW213548   0.971   2.610   4.332
 4217SOL     OW13549   0.233   1.104   2.850
 4217SOL    HW113550   0.177   1.099   2.933
 4217SOL    HW213551   0.292   1.184   2.854
 4218SOL     OW13552   4.451   7.008   2.106
 4218SOL    HW113553   4.528   0.049   2.076
 4218SOL    HW213554   4.372   0.050   2.125
 4219SOL     OW13555   4.477   5.773   4.474
 4219SOL    HW113556   4.511   5.752   4.383
 4219SOL    HW213557   4.551   5.763   4.541
 4220SOL     OW13558   6.517   3.646   4.235
 4220SOL    HW113559   6.477   3.632   4.325
 4220SOL    HW213560   6.598   3.587   4.225
 4221SOL     OW13561   5.278   5.345   6.404
 4221SOL    HW113562   5.213   5.295   6.347
 4221SOL    HW213563   5.257   5.328   6.501
 4222SOL     OW13564   5.166   2.728   1.993
 4222SOL    HW113565   5.118   2.640   1.997
 4222SOL    HW213566   5.108   2.799   2.033
 4223SOL     OW13567   3.340   4.124   2.197
 4223SOL    HW113568   3.355   4.127   2.098
 4223SOL    HW213569   3.276   4.196   2.223
 4224SOL     OW13570   4.397   2.443   4.824
 4224SOL    HW113571   4.435   2.535   4.818
 4224SOL    HW213572   4.314   2.444   4.881
 4225SOL     OW13573   5.999   0.264   4.767
 4225SOL    HW113574   5.976   0.323   4.690
 4225SOL    HW213575   6.076   0.303   4.817
 4226SOL     OW13576   0.459   1.767   3.565
 4226SOL    HW113577   0.448   1.774   3.664
 4226SOL    HW213578   0.547   1.725   3.544
 4227SOL     OW13579   4.404   4.452   6.669
 4227SOL    HW113580   4.380   4.382   6.602
 4227SOL    HW213581   4.494   4.489   6.647
 4228SOL     OW13582   6.377   5.627   2.999
 4228SOL    HW113583   6.447   5.642   2.930
 4228SOL    HW213584   6.420   5.614   3.089
 4229SOL     OW13585   4.506   4.798   5.647
 4229SOL    HW113586   4.449   4.771   5.725
 4229SOL    HW213587   4.571   4.868   5.676
 4230SOL     OW13588   3.590   0.770   5.350
 4230SOL    HW113589   3.671   0.828   5.350
 4230SOL    HW213590   3.602   0.695   5.285
 4231SOL     OW13591   4.705   6.762   5.080
 4231SOL    HW113592   4.696   6.786   4.983
 4231SOL    HW213593   4.615   6.769   5.125
 4232SOL     OW13594   1.964   4.879   3.049
 4232SOL    HW113595   2.015   4.793   3.046
 4232SOL    HW213596   1.996   4.934   3.127
 4233SOL     OW13597   6.652   6.617   0.008
 4233SOL    HW113598   6.565   6.662   0.030
 4233SOL    HW213599   6.641   6.564   6.940
 4234SOL     OW13600   2.918   4.785   6.343
 4234SOL    HW113601   2.995   4.849   6.341
 4234SOL    HW213602   2.944   4.700   6.297
 4235SOL     OW13603   6.348   3.418   5.638
 4235SOL    HW113604   6.333   3.506   5.682
 4235SOL    HW213605   6.420   3.426   5.568
 4236SOL     OW13606   1.346   3.125   4.409
 4236SOL    HW113607   1.402   3.208   4.404
 4236SOL    HW213608   1.340   3.083   4.319
 4237SOL     OW13609   5.191   3.670   4.739
 4237SOL    HW113610   5.267   3.720   4.780
 4237SOL    HW213611   5.226   3.596   4.682
 4238SOL     OW13612   3.875   5.687   3.972
 4238SOL    HW113613   3.833   5.682   4.063
 4238SOL    HW213614   3.808   5.657   3.903
 4239SOL     OW13615   5.010   5.854   5.663
 4239SOL    HW113616   5.007   5.758   5.636
 4239SOL    HW213617   5.104   5.883   5.677
 4240SOL     OW13618   2.487   4.643   6.702
 4240SOL    HW113619   2.538   4.729   6.698
 4240SOL    HW213620   2.550   4.566   6.696
 4241SOL     OW13621   4.599   0.247   0.618
 4241SOL    HW113622   4.612   0.155   0.582
 4241SOL    HW213623   4.562   0.306   0.547
 4242SOL     OW13624   2.010   0.543   2.852
 4242SOL    HW113625   1.981   0.497   2.768
 4242SOL    HW213626   2.015   0.478   2.927
 4243SOL     OW13627   1.122   3.632   2.044
 4243SOL    HW113628   1.126   3.714   2.102
 4243SOL    HW213629   1.209   3.582   2.052
 4244SOL     OW13630   4.629   6.666   1.009
 4244SOL    HW113631   4.564   6.633   1.077
 4244SOL    HW213632   4.607   6.761   0.986
 4245SOL     OW13633   6.700   3.429   1.039
 4245SOL    HW113634   6.601   3.435   1.052
 4245SOL    HW213635   6.736   3.519   1.011
 4246SOL     OW13636   5.189   1.988   3.053
 4246SOL    HW113637   5.205   2.084   3.076
 4246SOL    HW213638   5.276   1.945   3.028
 4247SOL     OW13639   1.696   4.652   5.482
 4247SOL    HW113640   1.786   4.688   5.460
 4247SOL    HW213641   1.680   4.661   5.580
 4248SOL     OW13642   1.628   0.874   3.244
 4248SOL    HW113643   1.578   0.913   3.167
 4248SOL    HW213644   1.621   0.774   3.242
 4249SOL     OW13645   6.652   0.273   4.996
 4249SOL    HW113646   6.705   0.191   5.017
 4249SOL    HW213647   6.575   0.248   4.937
 4250SOL     OW13648   0.106   5.782   4.351
 4250SOL    HW113649   0.028   5.836   4.319
 4250SOL    HW213650   0.174   5.842   4.392
 4251SOL     OW13651   5.976   1.855   6.167
 4251SOL    HW113652   6.044   1.833   6.237
 4251SOL    HW213653   5.960   1.774   6.110
 4252SOL     OW13654   6.365   6.472   6.940
 4252SOL    HW113655   6.450   6.444   6.895
 4252SOL    HW213656   6.382   6.555   6.993
 4253SOL     OW13657   4.115   5.471   2.921
 4253SOL    HW113658   4.054   5.451   2.844
 4253SOL    HW213659   4.063   5.469   3.006
 4254SOL     OW13660   1.708   2.819   6.986
 4254SOL    HW113661   1.701   2.899   0.029
 4254SOL    HW213662   1.702   2.847   6.890
 4255SOL     OW13663   0.617   3.659   2.940
 4255SOL    HW113664   0.531   3.615   2.915
 4255SOL    HW213665   0.600   3.752   2.971
 4256SOL     OW13666   0.584   5.213   2.077
 4256SOL    HW113667   0.553   5.290   2.133
 4256SOL    HW213668   0.683   5.202   2.089
 4257SOL     OW13669   6.112   0.752   5.344
 4257SOL    HW113670   6.023   0.716   5.314
 4257SOL    HW213671   6.135   0.713   5.433
 4258SOL     OW13672   3.731   5.714   0.292
 4258SOL    HW113673   3.640   5.756   0.287
 4258SOL    HW213674   3.728   5.624   0.248
 4259SOL     OW13675   0.765   6.848   2.272
 4259SOL    HW113676   0.835   6.792   2.316
 4259SOL    HW213677   0.766   6.939   2.313
 4260SOL     OW13678   4.935   0.246   4.460
 4260SOL    HW113679   4.888   0.335   4.450
 4260SOL    HW213680   4.867   0.176   4.483
 4261SOL     OW13681   1.990   0.262   3.951
 4261SOL    HW113682   2.061   0.257   3.881
 4261SOL    HW213683   1.900   0.264   3.908
 4262SOL     OW13684   1.793   3.959   6.600
 4262SOL    HW113685   1.808   3.874   6.649
 4262SOL    HW213686   1.828   4.036   6.654
 4263SOL     OW13687   2.665   2.438   4.194
 4263SOL    HW113688   2.665   2.491   4.279
 4263SOL    HW213689   2.600   2.479   4.129
 4264SOL     OW13690   5.338   1.083   4.327
 4264SOL    HW113691   5.251   1.130   4.342
 4264SOL    HW213692   5.383   1.120   4.246
 4265SOL     OW13693   3.167   1.273   0.901
 4265SOL    HW113694   3.071   1.248   0.885
 4265SOL    HW213695   3.173   1.337   0.977
 4266SOL     OW13696   1.637   6.431   0.928
 4266SOL    HW113697   1.703   6.423   0.852
 4266SOL    HW213698   1.677   6.393   1.011
 4267SOL     OW13699   1.892   4.188   4.739
 4267SOL    HW113700   1.796   4.211   4.721
 4267SOL    HW213701   1.923   4.120   4.673
 4268SOL     OW13702   1.470   4.312   6.133
 4268SOL    HW113703   1.493   4.378   6.204
 4268SOL    HW213704   1.431   4.230   6.174
 4269SOL     OW13705   2.875   1.611   4.434
 4269SOL    HW113706   2.901   1.648   4.345
 4269SOL    HW213707   2.798   1.548   4.422
 4270SOL     OW13708   3.743   2.290   0.699
 4270SOL    HW113709   3.720   2.193   0.691
 4270SOL    HW213710   3.797   2.318   0.620
 4271SOL     OW13711   6.512   0.648   1.140
 4271SOL    HW113712   6.460   0.734   1.144
 4271SOL    HW213713   6.471   0.581   1.201
 4272SOL     OW13714   6.572   1.462   6.202
 4272SOL    HW113715   6.567   1.365   6.176
 4272SOL    HW213716   6.602   1.516   6.124
 4273SOL     OW13717   3.849   5.539   4.621
 4273SOL    HW113718   3.751   5.532   4.637
 4273SOL    HW213719   3.867   5.609   4.551
 4274SOL     OW13720   6.846   1.206   1.926
 4274SOL    HW113721   6.880   1.239   2.014
 4274SOL    HW213722   6.776   1.137   1.942
 4275SOL     OW13723   0.423   3.132   3.231
 4275SOL    HW113724   0.475   3.207   3.191
 4275SOL    HW213725   0.392   3.158   3.323
 4276SOL     OW13726   2.416   6.153   4.246
 4276SOL    HW113727   2.322   6.129   4.267
 4276SOL    HW213728   2.469   6.159   4.331
 4277SOL     OW13729   6.185   5.573   3.222
 4277SOL    HW113730   6.259   5.559   3.157
 4277SOL    HW213731   6.120   5.640   3.185
 4278SOL     OW13732   1.149   6.821   1.866
 4278SOL    HW113733   1.071   6.787   1.813
 4278SOL    HW213734   1.180   6.749   1.929
 4279SOL     OW13735   2.298   2.023   3.227
 4279SOL    HW113736   2.202   2.040   3.250
 4279SOL    HW213737   2.355   2.096   3.264
 4280SOL     OW13738   0.760   0.058   6.199
 4280SOL    HW113739   0.735   6.977   6.198
 4280SOL    HW213740   0.781   0.086   6.293
 4281SOL     OW13741   4.322   6.069   3.493
 4281SOL    HW113742   4.377   6.111   3.421
 4281SOL    HW213743   4.381   6.046   3.571
 4282SOL     OW13744   3.630   4.320   1.130
 4282SOL    HW113745   3.720   4.280   1.146
 4282SOL    HW213746   3.568   4.295   1.204
 4283SOL     OW13747   5.117   1.179   3.881
 4283SOL    HW113748   5.093   1.276   3.871
 4283SOL    HW213749   5.217   1.169   3.875
 4284SOL     OW13750   4.731   5.826   6.367
 4284SOL    HW113751   4.803   5.783   6.422
 4284SOL    HW213752   4.744   5.800   6.271
 4285SOL     OW13753   2.946   0.164   5.544
 4285SOL    HW113754   3.012   0.184   5.617
 4285SOL    HW213755   2.912   0.250   5.505
 4286SOL     OW13756   5.791   1.153   6.418
 4286SOL    HW113757   5.884   1.120   6.432
 4286SOL    HW213758   5.746   1.098   6.348
 4287SOL     OW13759   4.884   0.498   6.991
 4287SOL    HW113760   4.948   0.487   0.051
 4287SOL    HW213761   4.923   0.456   6.908
 4288SOL     OW13762   6.546   6.810   2.145
 4288SOL    HW113763   6.472   6.743   2.142
 4288SOL    HW213764   6.534   6.870   2.223
 4289SOL     OW13765   0.737   3.624   4.418
 4289SOL    HW113766   0.674   3.547   4.407
 4289SOL    HW213767   0.742   3.676   4.333
 4290SOL     OW13768   0.059   1.116   3.174
 4290SOL    HW113769   0.064   1.038   3.112
 4290SOL    HW213770   0.140   1.174   3.162
 4291SOL     OW13771   5.204   3.337   6.339
 4291SOL    HW113772   5.255   3.327   6.254
 4291SOL    HW213773   5.241   3.413   6.391
 4292SOL     OW13774   6.009   2.067   0.731
 4292SOL    HW113775   6.090   2.057   0.789
 4292SOL    HW213776   6.015   2.152   0.680
 4293SOL     OW13777   3.826   4.205   0.004
 4293SOL    HW113778   3.830   4.108   6.994
 4293SOL    HW213779   3.838   4.261   6.938
 4294SOL     OW13780   2.450   2.079   6.399
 4294SOL    HW113781   2.470   2.127   6.313
 4294SOL    HW213782   2.351   2.076   6.413
 4295SOL     OW13783   3.739   6.511   2.759
 4295SOL    HW113784   3.695   6.555   2.681
 4295SOL    HW213785   3.685   6.431   2.788
 4296SOL     OW13786   2.809   6.067   2.047
 4296SOL    HW113787   2.757   6.066   1.962
 4296SOL    HW213788   2.762   6.124   2.114
 4297SOL     OW13789   5.841   4.598   0.890
 4297SOL    HW113790   5.920   4.615   0.830
 4297SOL    HW213791   5.866   4.619   0.985
 4298SOL     OW13792   3.503   6.611   0.259
 4298SOL    HW113793   3.489   6.612   0.160
 4298SOL    HW213794   3.421   6.575   0.304
 4299SOL     OW13795   1.113   2.776   0.303
 4299SOL    HW113796   1.121   2.677   0.298
 4299SOL    HW213797   1.201   2.818   0.279
 4300SOL     OW13798   3.102   0.941   0.926
 4300SOL    HW113799   3.025   0.897   0.973
 4300SOL    HW213800   3.168   0.872   0.897
 4301SOL     OW13801   3.228   6.828   1.646
 4301SOL    HW113802   3.144   6.794   1.688
 4301SOL    HW213803   3.218   6.827   1.547
 4302SOL     OW13804   1.692   5.432   5.685
 4302SOL    HW113805   1.792   5.430   5.678
 4302SOL    HW213806   1.666   5.433   5.781
 4303SOL     OW13807   6.037   4.101   3.502
 4303SOL    HW113808   6.053   4.199   3.491
 4303SOL    HW213809   6.093   4.066   3.577
 4304SOL     OW13810   3.528   3.567   1.515
 4304SOL    HW113811   3.512   3.666   1.517
 4304SOL    HW213812   3.516   3.529   1.606
 4305SOL     OW13813   1.668   0.269   5.208
 4305SOL    HW113814   1.606   0.192   5.193
 4305SOL    HW213815   1.651   0.308   5.299
 4306SOL     OW13816   5.418   3.405   5.005
 4306SOL    HW113817   5.437   3.402   4.907
 4306SOL    HW213818   5.331   3.452   5.020
 4307SOL     OW13819   6.560   2.053   5.449
 4307SOL    HW113820   6.489   1.989   5.479
 4307SOL    HW213821   6.644   2.002   5.429
 4308SOL     OW13822   4.884   5.055   0.051
 4308SOL    HW113823   4.864   5.133   0.111
 4308SOL    HW213824   4.958   5.001   0.091
 4309SOL     OW13825   1.372   3.077   0.395
 4309SOL    HW113826   1.277   3.046   0.398
 4309SOL    HW213827   1.411   3.056   0.305
 4310SOL     OW13828   6.967   1.559   2.903
 4310SOL    HW113829   6.923   1.603   2.824
 4310SOL    HW213830   6.943   1.462   2.906
 4311SOL     OW13831   0.503   0.144   2.234
 4311SOL    HW113832   0.418   0.097   2.212
 4311SOL    HW213833   0.483   0.227   2.286
 4312SOL     OW13834   0.215   4.645   2.524
 4312SOL    HW113835   0.276   4.567   2.507
 4312SOL    HW213836   0.237   4.686   2.612
 4313SOL     OW13837   6.402   1.832   0.236
 4313SOL    HW113838   6.440   1.919   0.204
 4313SOL    HW213839   6.317   1.849   0.285
 4314SOL     OW13840   6.538   2.349   5.369
 4314SOL    HW113841   6.537   2.400   5.454
 4314SOL    HW213842   6.550   2.251   5.389
 4315SOL     OW13843   2.618   1.589   3.960
 4315SOL    HW113844   2.550   1.582   3.887
 4315SOL    HW213845   2.681   1.664   3.940
 4316SOL     OW13846   5.276   6.986   1.900
 4316SOL    HW113847   5.267   0.070   1.902
 4316SOL    HW213848   5.193   6.945   1.938
 4317SOL     OW13849   4.143   1.092   5.927
 4317SOL    HW113850   4.229   1.101   5.976
 4317SOL    HW213851   4.124   0.995   5.909
 4318SOL     OW13852   0.216   1.405   4.126
 4318SOL    HW113853   0.280   1.372   4.195
 4318SOL    HW213854   0.157   1.330   4.097
 4319SOL     OW13855   1.121   4.814   2.235
 4319SOL    HW113856   1.056   4.762   2.290
 4319SOL    HW213857   1.099   4.802   2.138
 4320SOL     OW13858   3.605   5.751   0.812
 4320SOL    HW113859   3.520   5.754   0.864
 4320SOL    HW213860   3.593   5.798   0.725
 4321SOL     OW13861   6.192   6.999   2.691
 4321SOL    HW113862   6.102   7.006   2.733
 4321SOL    HW213863   6.215   0.070   2.646
 4322SOL     OW13864   0.911   3.272   5.410
 4322SOL    HW113865   0.846   3.348   5.413
 4322SOL    HW213866   1.001   3.305   5.383
 4323SOL     OW13867   4.193   5.558   6.467
 4323SOL    HW113868   4.150   5.607   6.543
 4323SOL    HW213869   4.287   5.534   6.491
 4324SOL     OW13870   0.078   4.427   5.744
 4324SOL    HW113871   0.172   4.396   5.748
 4324SOL    HW213872   0.020   4.355   5.706
 4325SOL     OW13873   2.887   0.286   2.557
 4325SOL    HW113874   2.794   0.264   2.529
 4325SOL    HW213875   2.885   0.341   2.640
 4326SOL     OW13876   4.642   2.571   2.911
 4326SOL    HW113877   4.680   2.505   2.976
 4326SOL    HW213878   4.582   2.523   2.846
 4327SOL     OW13879   3.290   6.036   4.281
 4327SOL    HW113880   3.240   6.107   4.331
 4327SOL    HW213881   3.335   6.078   4.202
 4328SOL     OW13882   5.606   6.400   5.071
 4328SOL    HW113883   5.583   6.310   5.034
 4328SOL    HW213884   5.585   6.470   5.002
 4329SOL     OW13885   6.339   2.306   5.739
 4329SOL    HW113886   6.369   2.286   5.832
 4329SOL    HW213887   6.298   2.224   5.699
 4330SOL     OW13888   2.988   4.849   4.947
 4330SOL    HW113889   3.006   4.903   5.029
 4330SOL    HW213890   2.928   4.773   4.969
 4331SOL     OW13891   6.312   0.878   1.896
 4331SOL    HW113892   6.219   0.889   1.862
 4331SOL    HW213893   6.340   0.782   1.886
 4332SOL     OW13894   0.236   4.703   2.820
 4332SOL    HW113895   0.146   4.729   2.854
 4332SOL    HW213896   0.301   4.777   2.837
 4333SOL     OW13897   3.607   2.043   5.470
 4333SOL    HW113898   3.625   2.021   5.566
 4333SOL    HW213899   3.617   1.960   5.414
 4334SOL     OW13900   0.658   2.647   4.235
 4334SOL    HW113901   0.745   2.692   4.256
 4334SOL    HW213902   0.592   2.715   4.202
 4335SOL     OW13903   2.887   3.533   0.938
 4335SOL    HW113904   2.793   3.558   0.916
 4335SOL    HW213905   2.941   3.527   0.854
 4336SOL     OW13906   2.882   5.480   6.137
 4336SOL    HW113907   2.921   5.536   6.064
 4336SOL    HW213908   2.836   5.539   6.204
 4337SOL     OW13909   1.483   5.286   3.544
 4337SOL    HW113910   1.441   5.247   3.626
 4337SOL    HW213911   1.514   5.379   3.564
 4338SOL     OW13912   4.650   1.161   5.843
 4338SOL    HW113913   4.681   1.160   5.748
 4338SOL    HW213914   4.729   1.159   5.904
 4339SOL     OW13915   4.102   2.965   6.200
 4339SOL    HW113916   4.068   3.057   6.180
 4339SOL    HW213917   4.094   2.947   6.298
 4340SOL     OW13918   0.144   3.374   0.843
 4340SOL    HW113919   0.205   3.354   0.766
 4340SOL    HW213920   0.110   3.288   0.881
 4341SOL     OW13921   6.943   6.843   2.544
 4341SOL    HW113922   6.991   6.806   2.464
 4341SOL    HW213923   6.865   6.785   2.566
 4342SOL     OW13924   5.335   3.963   2.692
 4342SOL    HW113925   5.313   4.060   2.703
 4342SOL    HW213926   5.258   3.916   2.649
 4343SOL     OW13927   4.236   0.716   5.812
 4343SOL    HW113928   4.285   0.718   5.899
 4343SOL    HW213929   4.221   0.620   5.785
 4344SOL     OW13930   0.339   3.139   3.854
 4344SOL    HW113931   0.301   3.077   3.922
 4344SOL    HW213932   0.388   3.213   3.900
 4345SOL     OW13933   2.880   3.458   2.324
 4345SOL    HW113934   2.898   3.533   2.260
 4345SOL    HW213935   2.843   3.380   2.274
 4346SOL     OW13936   1.499   3.828   1.631
 4346SOL    HW113937   1.447   3.749   1.599
 4346SOL    HW213938   1.504   3.827   1.731
 4347SOL     OW13939   5.709   4.813   1.313
 4347SOL    HW113940   5.638   4.794   1.245
 4347SOL    HW213941   5.798   4.785   1.277
 4348SOL     OW13942   5.496   5.772   4.359
 4348SOL    HW113943   5.479   5.752   4.455
 4348SOL    HW213944   5.414   5.812   4.318
 4349SOL     OW13945   0.035   3.462   4.546
 4349SOL    HW113946   0.035   3.470   4.446
 4349SOL    HW213947   7.002   3.379   4.573
 4350SOL     OW13948   4.567   1.056   5.028
 4350SOL    HW113949   4.635   1.029   4.959
 4350SOL    HW213950   4.614   1.079   5.113
 4351SOL     OW13951   1.061   6.275   0.447
 4351SOL    HW113952   0.968   6.237   0.439
 4351SOL    HW213953   1.092   6.268   0.541
 4352SOL     OW13954   3.922   3.817   1.135
 4352SOL    HW113955   4.012   3.855   1.158
 4352SOL    HW213956   3.858   3.833   1.210
 4353SOL     OW13957   3.261   2.732   0.965
 4353SOL    HW113958   3.311   2.677   1.032
 4353SOL    HW213959   3.183   2.776   1.010
 4354SOL     OW13960   5.497   0.072   3.677
 4354SOL    HW113961   5.526   7.010   3.732
 4354SOL    HW213962   5.512   0.051   3.580
 4355SOL     OW13963   1.488   6.231   3.438
 4355SOL    HW113964   1.389   6.225   3.423
 4355SOL    HW213965   1.535   6.225   3.350
 4356SOL     OW13966   5.645   2.260   6.105
 4356SOL    HW113967   5.672   2.349   6.068
 4356SOL    HW213968   5.727   2.209   6.131
 4357SOL     OW13969   6.844   1.036   2.481
 4357SOL    HW113970   6.774   1.062   2.416
 4357SOL    HW213971   6.881   0.946   2.458
 4358SOL     OW13972   1.755   6.930   0.057
 4358SOL    HW113973   1.685   6.948   7.004
 4358SOL    HW213974   1.713   6.930   0.148
 4359SOL     OW13975   2.026   1.602   7.008
 4359SOL    HW113976   2.092   1.573   6.939
 4359SOL    HW213977   2.070   1.602   0.082
 4360SOL     OW13978   1.407   3.305   3.583
 4360SOL    HW113979   1.490   3.278   3.536
 4360SOL    HW213980   1.347   3.354   3.518
 4361SOL     OW13981   0.285   1.037   0.784
 4361SOL    HW113982   0.243   1.033   0.693
 4361SOL    HW213983   0.379   1.071   0.776
 4362SOL     OW13984   0.863   6.046   4.059
 4362SOL    HW113985   0.859   6.133   4.107
 4362SOL    HW213986   0.916   6.057   3.975
 4363SOL     OW13987   4.808   1.561   1.989
 4363SOL    HW113988   4.801   1.504   1.907
 4363SOL    HW213989   4.835   1.503   2.066
 4364SOL     OW13990   4.096   3.706   2.655
 4364SOL    HW113991   4.128   3.612   2.667
 4364SOL    HW213992   4.086   3.749   2.745
 4365SOL     OW13993   2.875   2.223   1.714
 4365SOL    HW113994   2.910   2.308   1.754
 4365SOL    HW213995   2.839   2.165   1.788
 4366SOL     OW13996   4.245   6.245   4.777
 4366SOL    HW113997   4.329   6.277   4.821
 4366SOL    HW213998   4.242   6.145   4.779
 4367SOL     OW13999   2.409   5.805   3.579
 4367SOL    HW114000   2.418   5.873   3.652
 4367SOL    HW214001   2.451   5.719   3.609
 4368SOL     OW14002   4.619   4.540   2.927
 4368SOL    HW114003   4.709   4.517   2.889
 4368SOL    HW214004   4.618   4.517   3.025
 4369SOL     OW14005   4.059   4.767   3.261
 4369SOL    HW114006   4.123   4.766   3.184
 4369SOL    HW214007   3.999   4.687   3.255
 4370SOL     OW14008   3.705   4.805   1.451
 4370SOL    HW114009   3.788   4.797   1.506
 4370SOL    HW214010   3.645   4.874   1.491
 4371SOL     OW14011   3.428   1.071   1.664
 4371SOL    HW114012   3.491   1.114   1.728
 4371SOL    HW214013   3.348   1.130   1.652
 4372SOL     OW14014   2.140   3.238   4.172
 4372SOL    HW114015   2.104   3.213   4.262
 4372SOL    HW214016   2.153   3.155   4.118
 4373SOL     OW14017   4.674   1.207   5.260
 4373SOL    HW114018   4.709   1.295   5.230
 4373SOL    HW214019   4.585   1.219   5.304
 4374SOL     OW14020   2.348   1.349   1.643
 4374SOL    HW114021   2.253   1.380   1.644
 4374SOL    HW214022   2.369   1.308   1.554
 4375SOL     OW14023   4.226   0.649   3.374
 4375SOL    HW114024   4.267   0.690   3.293
 4375SOL    HW214025   4.139   0.693   3.393
 4376SOL     OW14026   0.288   6.552   1.077
 4376SOL    HW114027   0.384   6.568   1.098
 4376SOL    HW214028   0.259   6.465   1.117
 4377SOL     OW14029   5.929   6.411   6.446
 4377SOL    HW114030   5.877   6.343   6.499
 4377SOL    HW214031   6.024   6.409   6.475
 4378SOL     OW14032   2.032   5.554   2.531
 4378SOL    HW114033   1.989   5.643   2.543
 4378SOL    HW214034   1.962   5.483   2.528
 4379SOL     OW14035   1.160   0.642   1.823
 4379SOL    HW114036   1.157   0.718   1.889
 4379SOL    HW214037   1.255   0.620   1.802
 4380SOL     OW14038   1.585   5.934   5.037
 4380SOL    HW114039   1.568   5.857   5.099
 4380SOL    HW214040   1.683   5.957   5.040
 4381SOL     OW14041   3.605   6.559   4.950
 4381SOL    HW114042   3.505   6.555   4.954
 4381SOL    HW214043   3.634   6.566   4.854
 4382SOL     OW14044   5.040   3.851   4.072
 4382SOL    HW114045   5.111   3.920   4.090
 4382SOL    HW214046   5.013   3.808   4.158
 4383SOL     OW14047   0.759   3.004   5.745
 4383SOL    HW114048   0.841   3.005   5.802
 4383SOL    HW214049   0.725   2.910   5.738
 4384SOL     OW14050   3.612   5.932   0.591
 4384SOL    HW114051   3.610   6.007   0.658
 4384SOL    HW214052   3.613   5.970   0.498
 4385SOL     OW14053   0.534   2.275   2.379
 4385SOL    HW114054   0.564   2.347   2.316
 4385SOL    HW214055   0.451   2.232   2.344
 4386SOL     OW14056   0.844   3.035   6.812
 4386SOL    HW114057   0.775   3.008   6.745
 4386SOL    HW214058   0.831   2.983   6.896
 4387SOL     OW14059   0.195   3.271   1.759
 4387SOL    HW114060   0.208   3.234   1.851
 4387SOL    HW214061   0.279   3.316   1.730
 4388SOL     OW14062   3.598   0.992   6.079
 4388SOL    HW114063   3.576   1.046   5.997
 4388SOL    HW214064   3.694   0.964   6.076
 4389SOL     OW14065   5.181   2.574   3.099
 4389SOL    HW114066   5.122   2.547   3.175
 4389SOL    HW214067   5.131   2.635   3.038
 4390SOL     OW14068   4.753   2.918   2.394
 4390SOL    HW114069   4.741   2.920   2.295
 4390SOL    HW214070   4.669   2.950   2.438
 4391SOL     OW14071   1.188   5.662   0.582
 4391SOL    HW114072   1.279   5.638   0.547
 4391SOL    HW214073   1.122   5.593   0.552
 4392SOL     OW14074   4.861   3.058   4.475
 4392SOL    HW114075   4.898   3.138   4.522
 4392SOL    HW214076   4.929   2.985   4.474
 4393SOL     OW14077   4.762   6.953   3.038
 4393SOL    HW114078   4.750   6.856   3.057
 4393SOL    HW214079   4.674   6.995   3.017
 4394SOL     OW14080   5.174   0.434   2.709
 4394SOL    HW114081   5.223   0.466   2.791
 4394SOL    HW214082   5.084   0.476   2.706
 4395SOL     OW14083   5.819   1.855   2.053
 4395SOL    HW114084   5.743   1.920   2.053
 4395SOL    HW214085   5.848   1.838   2.147
 4396SOL     OW14086   0.945   0.915   4.046
 4396SOL    HW114087   0.941   0.983   3.973
 4396SOL    HW214088   0.941   0.961   4.135
 4397SOL     OW14089   6.422   0.182   4.864
 4397SOL    HW114090   6.439   0.084   4.852
 4397SOL    HW214091   6.394   0.222   4.777
 4398SOL     OW14092   0.233   4.750   4.411
 4398SOL    HW114093   0.176   4.701   4.345
 4398SOL    HW214094   0.307   4.689   4.442
 4399SOL     OW14095   2.073   1.173   0.786
 4399SOL    HW114096   2.044   1.236   0.713
 4399SOL    HW214097   2.053   1.213   0.875
 4400SOL     OW14098   3.092   6.461   4.570
 4400SOL    HW114099   3.091   6.432   4.665
 4400SOL    HW214100   3.083   6.382   4.510
 4401SOL     OW14101   5.716   6.206   4.437
 4401SOL    HW114102   5.757   6.253   4.515
 4401SOL    HW214103   5.646   6.142   4.469
 4402SOL     OW14104   0.435   6.184   2.794
 4402SOL    HW114105   0.510   6.249   2.788
 4402SOL    HW214106   0.348   6.232   2.782
 4403SOL     OW14107   0.793   0.262   3.423
 4403SOL    HW114108   0.780   0.300   3.514
 4403SOL    HW214109   0.795   0.335   3.356
 4404SOL     OW14110   0.610   3.828   3.281
 4404SOL    HW114111   0.686   3.778   3.322
 4404SOL    HW214112   0.524   3.802   3.326
 4405SOL     OW14113   3.498   4.344   5.845
 4405SOL    HW114114   3.425   4.282   5.817
 4405SOL    HW214115   3.517   4.409   5.772
 4406SOL     OW14116   5.740   3.899   1.261
 4406SOL    HW114117   5.741   3.941   1.352
 4406SOL    HW214118   5.757   3.801   1.270
 4407SOL     OW14119   6.250   0.238   6.997
 4407SOL    HW114120   6.179   0.202   6.938
 4407SOL    HW214121   6.303   0.308   6.948
 4408SOL     OW14122   4.586   0.007   6.475
 4408SOL    HW114123   4.570   6.979   6.387
 4408SOL    HW214124   4.653   0.080   6.464
 4409SOL     OW14125   3.472   0.193   1.850
 4409SOL    HW114126   3.439   0.223   1.939
 4409SOL    HW214127   3.522   0.107   1.859
 4410SOL     OW14128   2.063   4.975   1.721
 4410SOL    HW114129   2.125   4.908   1.680
 4410SOL    HW214130   2.035   5.042   1.651
 4411SOL     OW14131   4.001   3.031   2.588
 4411SOL    HW114132   4.094   2.995   2.585
 4411SOL    HW214133   3.985   3.075   2.677
 4412SOL     OW14134   3.901   1.235   6.831
 4412SOL    HW114135   3.981   1.191   6.791
 4412SOL    HW214136   3.847   1.166   6.881
 4413SOL     OW14137   4.309   6.099   4.101
 4413SOL    HW114138   4.240   6.152   4.052
 4413SOL    HW214139   4.333   6.018   4.046
 4414SOL     OW14140   3.849   4.773   1.783
 4414SOL    HW114141   3.755   4.739   1.793
 4414SOL    HW214142   3.902   4.706   1.730
 4415SOL     OW14143   5.151   2.877   6.508
 4415SOL    HW114144   5.081   2.807   6.495
 4415SOL    HW214145   5.141   2.920   6.598
 4416SOL     OW14146   3.199   6.913   4.722
 4416SOL    HW114147   3.192   6.825   4.674
 4416SOL    HW214148   3.181   6.987   4.657
 4417SOL     OW14149   6.978   6.193   2.199
 4417SOL    HW114150   6.904   6.231   2.253
 4417SOL    HW214151   6.941   6.126   2.134
 4418SOL     OW14152   3.837   0.067   3.679
 4418SOL    HW114153   3.781   0.084   3.761
 4418SOL    HW214154   3.794   7.011   3.624
 4419SOL     OW14155   0.352   5.249   0.000
 4419SOL    HW114156   0.418   5.176   6.999
 4419SOL    HW214157   0.396   5.337   7.001
 4420SOL     OW14158   5.142   1.865   6.519
 4420SOL    HW114159   5.063   1.834   6.573
 4420SOL    HW214160   5.226   1.827   6.558
 4421SOL     OW14161   1.680   1.688   3.444
 4421SOL    HW114162   1.762   1.637   3.419
 4421SOL    HW214163   1.619   1.695   3.364
 4422SOL     OW14164   1.916   3.962   5.993
 4422SOL    HW114165   1.943   3.994   5.902
 4422SOL    HW214166   1.930   4.036   6.059
 4423SOL     OW14167   1.461   2.248   6.446
 4423SOL    HW114168   1.509   2.161   6.455
 4423SOL    HW214169   1.372   2.241   6.491
 4424SOL     OW14170   6.442   0.043   2.961
 4424SOL    HW114171   6.422   0.120   2.900
 4424SOL    HW214172   6.384   0.049   3.042
 4425SOL     OW14173   4.023   4.428   6.683
 4425SOL    HW114174   4.047   4.337   6.717
 4425SOL    HW214175   4.106   4.480   6.667
 4426SOL     OW14176   0.728   0.429   5.370
 4426SOL    HW114177   0.640   0.443   5.415
 4426SOL    HW214178   0.790   0.504   5.394
 4427SOL     OW14179   1.357   0.382   3.248
 4427SOL    HW114180   1.320   0.335   3.328
 4427SOL    HW214181   1.438   0.334   3.215
 4428SOL     OW14182   2.277   5.795   4.128
 4428SOL    HW114183   2.316   5.740   4.054
 4428SOL    HW214184   2.289   5.892   4.106
 4429SOL     OW14185   3.376   0.069   3.457
 4429SOL    HW114186   3.388   0.080   3.358
 4429SOL    HW214187   3.279   0.059   3.478
 4430SOL     OW14188   2.700   0.591   2.562
 4430SOL    HW114189   2.622   0.557   2.509
 4430SOL    HW214190   2.782   0.591   2.504
 4431SOL     OW14191   2.846   1.957   3.548
 4431SOL    HW114192   2.799   2.036   3.510
 4431SOL    HW214193   2.790   1.875   3.536
 4432SOL     OW14194   2.859   3.447   2.594
 4432SOL    HW114195   2.875   3.457   2.496
 4432SOL    HW214196   2.859   3.350   2.618
 4433SOL     OW14197   6.010   0.313   2.297
 4433SOL    HW114198   6.050   0.228   2.330
 4433SOL    HW214199   5.916   0.297   2.266
 4434SOL     OW14200   6.249   2.624   4.142
 4434SOL    HW114201   6.334   2.573   4.157
 4434SOL    HW214202   6.240   2.696   4.212
 4435SOL     OW14203   3.761   2.879   1.690
 4435SOL    HW114204   3.700   2.956   1.675
 4435SOL    HW214205   3.817   2.896   1.770
 4436SOL     OW14206   4.765   1.800   6.846
 4436SOL    HW114207   4.800   1.781   6.938
 4436SOL    HW214208   4.811   1.881   6.809
 4437SOL     OW14209   3.574   0.831   4.929
 4437SOL    HW114210   3.651   0.775   4.902
 4437SOL    HW214211   3.546   0.889   4.853
 4438SOL     OW14212   4.438   2.777   6.897
 4438SOL    HW114213   4.371   2.845   6.926
 4438SOL    HW214214   4.415   2.688   6.936
 4439SOL     OW14215   2.051   5.825   2.420
 4439SOL    HW114216   2.038   5.832   2.321
 4439SOL    HW214217   2.003   5.901   2.465
 4440SOL     OW14218   1.141   6.764   6.314
 4440SOL    HW114219   1.140   6.679   6.366
 4440SOL    HW214220   1.174   6.839   6.372
 4441SOL     OW14221   5.371   2.602   2.876
 4441SOL    HW114222   5.310   2.623   2.952
 4441SOL    HW214223   5.433   2.679   2.860
 4442SOL     OW14224   3.226   5.947   3.578
 4442SOL    HW114225   3.225   5.992   3.667
 4442SOL    HW214226   3.234   5.848   3.591
 4443SOL     OW14227   2.651   1.943   5.935
 4443SOL    HW114228   2.715   1.883   5.983
 4443SOL    HW214229   2.686   2.036   5.934
 4444SOL     OW14230   5.317   0.061   0.805
 4444SOL    HW114231   5.313   6.983   0.839
 4444SOL    HW214232   5.227   0.103   0.813
 4445SOL     OW14233   1.204   0.822   6.096
 4445SOL    HW114234   1.277   0.884   6.126
 4445SOL    HW214235   1.116   0.868   6.102
 4446SOL     OW14236   6.575   0.309   2.809
 4446SOL    HW114237   6.623   0.243   2.752
 4446SOL    HW214238   6.513   0.363   2.753
 4447SOL     OW14239   5.342   2.090   5.589
 4447SOL    HW114240   5.439   2.075   5.571
 4447SOL    HW214241   5.307   2.160   5.527
 4448SOL     OW14242   2.463   3.346   6.915
 4448SOL    HW114243   2.364   3.357   6.908
 4448SOL    HW214244   2.496   3.397   6.994
 4449SOL     OW14245   1.814   1.344   5.354
 4449SOL    HW114246   1.767   1.307   5.434
 4449SOL    HW214247   1.818   1.444   5.361
 4450SOL     OW14248   4.008   3.193   3.248
 4450SOL    HW114249   4.002   3.144   3.335
 4450SOL    HW214250   3.951   3.146   3.180
 4451SOL     OW14251   6.629   4.807   2.566
 4451SOL    HW114252   6.677   4.724   2.592
 4451SOL    HW214253   6.607   4.804   2.468
 4452SOL     OW14254   6.225   6.454   6.593
 4452SOL    HW114255   6.235   6.551   6.571
 4452SOL    HW214256   6.310   6.419   6.631
 4453SOL     OW14257   5.235   2.570   1.235
 4453SOL    HW114258   5.211   2.517   1.316
 4453SOL    HW214259   5.302   2.519   1.181
 4454SOL     OW14260   5.676   3.044   1.430
 4454SOL    HW114261   5.584   3.020   1.402
 4454SOL    HW214262   5.738   3.038   1.351
 4455SOL     OW14263   3.739   1.195   2.639
 4455SOL    HW114264   3.775   1.266   2.578
 4455SOL    HW214265   3.639   1.205   2.646
 4456SOL     OW14266   1.443   4.698   3.554
 4456SOL    HW114267   1.473   4.794   3.555
 4456SOL    HW214268   1.428   4.667   3.648
 4457SOL     OW14269   5.224   1.808   6.253
 4457SOL    HW114270   5.199   1.711   6.262
 4457SOL    HW214271   5.185   1.859   6.330
 4458SOL     OW14272   3.333   2.309   6.553
 4458SOL    HW114273   3.381   2.223   6.567
 4458SOL    HW214274   3.400   2.384   6.545
 4459SOL     OW14275   4.887   6.756   4.467
 4459SOL    HW114276   4.984   6.757   4.491
 4459SOL    HW214277   4.876   6.728   4.372
 4460SOL     OW14278   3.006   2.399   6.072
 4460SOL    HW114279   2.923   2.343   6.069
 4460SOL    HW214280   3.059   2.375   6.154
 4461SOL     OW14281   2.015   0.053   2.521
 4461SOL    HW114282   1.998   7.005   2.445
 4461SOL    HW214283   2.108   0.091   2.512
 4462SOL     OW14284   6.721   5.265   1.049
 4462SOL    HW114285   6.722   5.167   1.071
 4462SOL    HW214286   6.805   5.289   1.001
 4463SOL     OW14287   1.574   3.486   6.171
 4463SOL    HW114288   1.619   3.403   6.138
 4463SOL    HW214289   1.641   3.547   6.213
 4464SOL     OW14290   5.672   3.439   6.089
 4464SOL    HW114291   5.737   3.410   6.160
 4464SOL    HW214292   5.647   3.360   6.034
 4465SOL     OW14293   1.156   6.056   1.886
 4465SOL    HW114294   1.227   5.988   1.903
 4465SOL    HW214295   1.078   6.012   1.841
 4466SOL     OW14296   1.071   1.891   2.932
 4466SOL    HW114297   1.052   1.919   2.837
 4466SOL    HW214298   1.161   1.847   2.936
 4467SOL     OW14299   1.241   6.691   3.466
 4467SOL    HW114300   1.219   6.614   3.526
 4467SOL    HW214301   1.165   6.708   3.404
 4468SOL     OW14302   1.097   2.640   0.570
 4468SOL    HW114303   1.048   2.664   0.654
 4468SOL    HW214304   1.051   2.681   0.492
 4469SOL     OW14305   4.023   0.217   0.616
 4469SOL    HW114306   3.932   0.211   0.575
 4469SOL    HW214307   4.034   0.307   0.658
 4470SOL     OW14308   4.921   3.864   1.462
 4470SOL    HW114309   4.993   3.832   1.400
 4470SOL    HW214310   4.961   3.921   1.533
 4471SOL     OW14311   6.844   2.885   1.642
 4471SOL    HW114312   6.798   2.971   1.663
 4471SOL    HW214313   6.871   2.840   1.727
 4472SOL     OW14314   1.676   4.081   2.165
 4472SOL    HW114315   1.580   4.078   2.140
 4472SOL    HW214316   1.726   4.009   2.116
 4473SOL     OW14317   6.928   0.031   4.283
 4473SOL    HW114318   6.874   6.971   4.320
 4473SOL    HW214319   6.873   0.082   4.217
 4474SOL     OW14320   4.713   0.415   2.725
 4474SOL    HW114321   4.790   0.476   2.744
 4474SOL    HW214322   4.632   0.447   2.774
 4475SOL     OW14323   2.053   4.371   0.295
 4475SOL    HW114324   2.013   4.281   0.309
 4475SOL    HW214325   2.144   4.362   0.253
 4476SOL     OW14326   4.753   6.462   2.062
 4476SOL    HW114327   4.764   6.431   2.156
 4476SOL    HW214328   4.819   6.414   2.003
 4477SOL     OW14329   1.448   1.300   0.496
 4477SOL    HW114330   1.432   1.353   0.578
 4477SOL    HW214331   1.528   1.336   0.447
 4478SOL     OW14332   2.150   6.564   2.578
 4478SOL    HW114333   2.140   6.630   2.652
 4478SOL    HW214334   2.117   6.604   2.492
 4479SOL     OW14335   1.299   0.417   5.678
 4479SOL    HW114336   1.350   0.355   5.619
 4479SOL    HW214337   1.236   0.364   5.735
 4480SOL     OW14338   1.249   4.918   4.757
 4480SOL    HW114339   1.257   4.848   4.686
 4480SOL    HW214340   1.337   4.963   4.770
 4481SOL     OW14341   0.882   6.277   4.175
 4481SOL    HW114342   0.976   6.292   4.144
 4481SOL    HW214343   0.819   6.327   4.115
 4482SOL     OW14344   0.250   4.835   3.889
 4482SOL    HW114345   0.311   4.781   3.830
 4482SOL    HW214346   0.305   4.887   3.954
 4483SOL     OW14347   5.648   3.277   1.939
 4483SOL    HW114348   5.719   3.278   1.868
 4483SOL    HW214349   5.640   3.369   1.978
 4484SOL     OW14350   3.572   2.426   5.584
 4484SOL    HW114351   3.511   2.504   5.599
 4484SOL    HW214352   3.649   2.430   5.649
 4485SOL     OW14353   4.936   1.714   6.638
 4485SOL    HW114354   5.002   1.647   6.669
 4485SOL    HW214355   4.879   1.744   6.715
 4486SOL     OW14356   6.216   3.219   4.650
 4486SOL    HW114357   6.156   3.142   4.673
 4486SOL    HW214358   6.294   3.186   4.598
 4487SOL     OW14359   3.041   3.160   6.329
 4487SOL    HW114360   2.989   3.162   6.414
 4487SOL    HW214361   3.005   3.229   6.266
 4488SOL     OW14362   6.673   1.545   4.946
 4488SOL    HW114363   6.630   1.460   4.918
 4488SOL    HW214364   6.652   1.617   4.879
 4489SOL     OW14365   5.914   6.575   4.535
 4489SOL    HW114366   5.898   6.482   4.567
 4489SOL    HW214367   5.826   6.618   4.514
 4490SOL     OW14368   6.647   1.787   2.895
 4490SOL    HW114369   6.548   1.789   2.906
 4490SOL    HW214370   6.670   1.748   2.806
 4491SOL     OW14371   0.839   3.739   2.660
 4491SOL    HW114372   0.791   3.824   2.682
 4491SOL    HW214373   0.802   3.665   2.715
 4492SOL     OW14374   4.985   2.878   0.159
 4492SOL    HW114375   4.953   2.847   0.069
 4492SOL    HW214376   4.918   2.941   0.198
 4493SOL     OW14377   5.578   6.016   4.819
 4493SOL    HW114378   5.587   6.039   4.916
 4493SOL    HW214379   5.557   5.919   4.810
 4494SOL     OW14380   0.100   4.289   5.274
 4494SOL    HW114381   0.159   4.211   5.296
 4494SOL    HW214382   0.005   4.266   5.298
 4495SOL     OW14383   4.805   6.613   1.617
 4495SOL    HW114384   4.873   6.679   1.649
 4495SOL    HW214385   4.828   6.522   1.653
 4496SOL     OW14386   5.279   3.681   5.249
 4496SOL    HW114387   5.257   3.658   5.154
 4496SOL    HW214388   5.343   3.758   5.251
 4497SOL     OW14389   6.083   5.243   0.311
 4497SOL    HW114390   6.056   5.154   0.273
 4497SOL    HW214391   6.119   5.232   0.403
 4498SOL     OW14392   0.308   3.333   0.020
 4498SOL    HW114393   0.382   3.351   6.971
 4498SOL    HW214394   0.234   3.286   6.989
 4499SOL     OW14395   0.083   3.245   6.060
 4499SOL    HW114396   0.083   3.218   6.156
 4499SOL    HW214397   7.008   3.277   6.034
 4500SOL     OW14398   3.002   3.863   4.632
 4500SOL    HW114399   3.080   3.890   4.689
 4500SOL    HW214400   2.976   3.769   4.652
 4501SOL     OW14401   6.813   4.798   5.542
 4501SOL    HW114402   6.885   4.747   5.495
 4501SOL    HW214403   6.799   4.886   5.496
 4502SOL     OW14404   0.939   2.180   6.941
 4502SOL    HW114405   0.963   2.139   0.013
 4502SOL    HW214406   0.856   2.235   6.951
 4503SOL     OW14407   1.269   1.650   3.592
 4503SOL    HW114408   1.188   1.700   3.562
 4503SOL    HW214409   1.270   1.643   3.692
 4504SOL     OW14410   5.655   2.545   4.853
 4504SOL    HW114411   5.744   2.563   4.811
 4504SOL    HW214412   5.653   2.452   4.890
 4505SOL     OW14413   1.686   6.239   5.088
 4505SOL    HW114414   1.753   6.198   5.149
 4505SOL    HW214415   1.730   6.264   5.002
 4506SOL     OW14416   3.928   0.495   5.494
 4506SOL    HW114417   3.933   0.594   5.508
 4506SOL    HW214418   3.845   0.473   5.443
 4507SOL     OW14419   5.616   4.380   0.582
 4507SOL    HW114420   5.690   4.444   0.601
 4507SOL    HW214421   5.528   4.429   0.586
 4508SOL     OW14422   1.338   3.592   7.005
 4508SOL    HW114423   1.280   3.543   0.054
 4508SOL    HW214424   1.283   3.657   6.953
 4509SOL     OW14425   3.243   1.779   4.708
 4509SOL    HW114426   3.335   1.809   4.733
 4509SOL    HW214427   3.250   1.709   4.636
 4510SOL     OW14428   5.019   0.414   5.142
 4510SOL    HW114429   4.963   0.429   5.060
 4510SOL    HW214430   5.116   0.422   5.117
 4511SOL     OW14431   6.434   2.560   0.531
 4511SOL    HW114432   6.496   2.516   0.466
 4511SOL    HW214433   6.349   2.507   0.538
 4512SOL     OW14434   2.675   5.784   6.580
 4512SOL    HW114435   2.702   5.688   6.578
 4512SOL    HW214436   2.751   5.842   6.550
 4513SOL     OW14437   4.976   0.491   1.802
 4513SOL    HW114438   4.926   0.535   1.728
 4513SOL    HW214439   5.031   0.560   1.850
 4514SOL     OW14440   3.048   1.211   5.249
 4514SOL    HW114441   3.097   1.295   5.225
 4514SOL    HW214442   2.962   1.208   5.198
 4515SOL     OW14443   0.289   4.939   0.531
 4515SOL    HW114444   0.295   5.035   0.560
 4515SOL    HW214445   0.194   4.911   0.529
 4516SOL     OW14446   1.142   1.351   5.225
 4516SOL    HW114447   1.178   1.433   5.270
 4516SOL    HW214448   1.191   1.270   5.260
 4517SOL     OW14449   3.853   6.712   5.743
 4517SOL    HW114450   3.801   6.738   5.661
 4517SOL    HW214451   3.820   6.623   5.776
 4518SOL     OW14452   0.665   2.409   3.679
 4518SOL    HW114453   0.654   2.507   3.697
 4518SOL    HW214454   0.635   2.389   3.586
 4519SOL     OW14455   0.327   3.198   3.574
 4519SOL    HW114456   0.331   3.186   3.673
 4519SOL    HW214457   0.237   3.171   3.541
 4520SOL     OW14458   6.904   5.154   3.364
 4520SOL    HW114459   6.852   5.227   3.408
 4520SOL    HW214460   6.993   5.145   3.408
 4521SOL     OW14461   5.468   3.015   6.911
 4521SOL    HW114462   5.567   3.014   6.902
 4521SOL    HW214463   5.428   3.068   6.835
 4522SOL     OW14464   6.520   0.011   3.961
 4522SOL    HW114465   6.442   7.013   3.899
 4522SOL    HW214466   6.492   7.001   4.054
 4523SOL     OW14467   3.156   4.013   0.067
 4523SOL    HW114468   3.074   3.974   0.107
 4523SOL    HW214469   3.234   3.999   0.128
 4524SOL     OW14470   5.265   0.642   4.947
 4524SOL    HW114471   5.301   0.700   5.021
 4524SOL    HW214472   5.166   0.655   4.941
 4525SOL     OW14473   5.984   1.163   5.050
 4525SOL    HW114474   5.893   1.160   5.008
 4525SOL    HW214475   6.054   1.156   4.979
 4526SOL     OW14476   4.996   6.501   0.666
 4526SOL    HW114477   4.968   6.489   0.571
 4526SOL    HW214478   4.917   6.528   0.721
 4527SOL     OW14479   5.186   0.695   2.413
 4527SOL    HW114480   5.142   0.605   2.421
 4527SOL    HW214481   5.203   0.732   2.504
 4528SOL     OW14482   5.573   0.182   0.758
 4528SOL    HW114483   5.624   0.103   0.794
 4528SOL    HW214484   5.477   0.158   0.750
 4529SOL     OW14485   3.226   0.084   3.037
 4529SOL    HW114486   3.180   0.019   3.097
 4529SOL    HW214487   3.224   0.175   3.079
 4530SOL     OW14488   0.363   3.201   5.652
 4530SOL    HW114489   0.297   3.171   5.721
 4530SOL    HW214490   0.363   3.136   5.576
 4531SOL     OW14491   0.085   3.290   4.035
 4531SOL    HW114492   0.144   3.258   4.109
 4531SOL    HW214493   0.137   3.349   3.974
 4532SOL     OW14494   6.111   1.273   0.834
 4532SOL    HW114495   6.083   1.207   0.764
 4532SOL    HW214496   6.169   1.227   0.901
 4533SOL     OW14497   1.936   5.792   2.703
 4533SOL    HW114498   2.019   5.845   2.720
 4533SOL    HW214499   1.943   5.704   2.751
 4534SOL     OW14500   6.338   3.834   4.970
 4534SOL    HW114501   6.342   3.775   4.889
 4534SOL    HW214502   6.258   3.810   5.024
 4535SOL     OW14503   4.861   3.227   2.300
 4535SOL    HW114504   4.885   3.184   2.387
 4535SOL    HW214505   4.834   3.157   2.234
 4536SOL     OW14506   5.871   1.147   4.631
 4536SOL    HW114507   5.774   1.132   4.610
 4536SOL    HW214508   5.884   1.241   4.664
 4537SOL     OW14509   4.058   2.750   6.744
 4537SOL    HW114510   4.051   2.666   6.799
 4537SOL    HW214511   3.966   2.785   6.725
 4538SOL     OW14512   3.110   1.721   3.099
 4538SOL    HW114513   3.145   1.709   3.006
 4538SOL    HW214514   3.104   1.632   3.144
 4539SOL     OW14515   2.486   1.871   3.109
 4539SOL    HW114516   2.415   1.936   3.137
 4539SOL    HW214517   2.564   1.921   3.072
 4540SOL     OW14518   3.794   3.292   4.769
 4540SOL    HW114519   3.790   3.379   4.721
 4540SOL    HW214520   3.878   3.288   4.824
 4541SOL     OW14521   5.330   1.906   1.390
 4541SOL    HW114522   5.246   1.899   1.445
 4541SOL    HW214523   5.348   2.002   1.370
 4542SOL     OW14524   5.987   6.761   2.493
 4542SOL    HW114525   5.959   6.851   2.527
 4542SOL    HW214526   5.905   6.709   2.466
 4543SOL     OW14527   5.702   1.612   1.285
 4543SOL    HW114528   5.706   1.672   1.206
 4543SOL    HW214529   5.666   1.662   1.364
 4544SOL     OW14530   3.360   5.612   6.748
 4544SOL    HW114531   3.332   5.628   6.842
 4544SOL    HW214532   3.325   5.524   6.716
 4545SOL     OW14533   3.869   2.213   5.520
 4545SOL    HW114534   3.901   2.210   5.614
 4545SOL    HW214535   3.928   2.273   5.466
 4546SOL     OW14536   0.633   6.624   6.329
 4546SOL    HW114537   0.536   6.630   6.308
 4546SOL    HW214538   0.660   6.528   6.338
 4547SOL     OW14539   5.461   2.463   1.551
 4547SOL    HW114540   5.496   2.557   1.555
 4547SOL    HW214541   5.526   2.405   1.501
 4548SOL     OW14542   0.293   3.917   3.673
 4548SOL    HW114543   0.369   3.982   3.668
 4548SOL    HW214544   0.317   3.843   3.736
 4549SOL     OW14545   6.647   3.217   3.107
 4549SOL    HW114546   6.631   3.259   3.196
 4549SOL    HW214547   6.745   3.201   3.094
 4550SOL     OW14548   0.907   5.459   3.747
 4550SOL    HW114549   0.958   5.507   3.819
 4550SOL    HW214550   0.809   5.462   3.767
 4551SOL     OW14551   0.982   3.203   5.044
 4551SOL    HW114552   1.064   3.163   5.084
 4551SOL    HW214553   0.902   3.174   5.097
 4552SOL     OW14554   0.483   3.234   4.558
 4552SOL    HW114555   0.527   3.150   4.589
 4552SOL    HW214556   0.389   3.236   4.592
 4553SOL     OW14557   4.593   5.328   0.359
 4553SOL    HW114558   4.609   5.232   0.380
 4553SOL    HW214559   4.558   5.336   0.265
 4554SOL     OW14560   4.473   6.931   2.768
 4554SOL    HW114561   4.494   7.001   2.700
 4554SOL    HW214562   4.397   6.874   2.735
 4555SOL     OW14563   5.292   2.528   6.430
 4555SOL    HW114564   5.341   2.575   6.504
 4555SOL    HW214565   5.196   2.556   6.431
 4556SOL     OW14566   4.190   0.802   3.652
 4556SOL    HW114567   4.258   0.738   3.616
 4556SOL    HW214568   4.232   0.861   3.721
 4557SOL     OW14569   5.732   0.122   5.931
 4557SOL    HW114570   5.791   0.198   5.956
 4557SOL    HW214571   5.770   0.037   5.965
 4558SOL     OW14572   6.539   3.274   6.703
 4558SOL    HW114573   6.529   3.243   6.798
 4558SOL    HW214574   6.485   3.358   6.690
 4559SOL     OW14575   2.019   6.519   1.471
 4559SOL    HW114576   2.024   6.493   1.375
 4559SOL    HW214577   1.967   6.451   1.522
 4560SOL     OW14578   5.243   3.391   3.056
 4560SOL    HW114579   5.181   3.320   3.090
 4560SOL    HW214580   5.204   3.481   3.076
 4561SOL     OW14581   3.429   0.469   0.019
 4561SOL    HW114582   3.389   0.475   6.943
 4561SOL    HW214583   3.398   0.385   0.063
 4562SOL     OW14584   2.865   5.513   6.782
 4562SOL    HW114585   2.861   5.465   6.694
 4562SOL    HW214586   2.910   5.601   6.769
 4563SOL     OW14587   5.666   1.845   0.037
 4563SOL    HW114588   5.733   1.902   0.086
 4563SOL    HW214589   5.585   1.900   0.018
 4564SOL     OW14590   1.568   6.263   6.988
 4564SOL    HW114591   1.667   6.258   7.001
 4564SOL    HW214592   1.526   6.176   7.016
 4565SOL     OW14593   0.933   0.863   5.251
 4565SOL    HW114594   0.846   0.905   5.226
 4565SOL    HW214595   0.979   0.919   5.320
 4566SOL     OW14596   0.051   0.856   6.915
 4566SOL    HW114597   6.987   0.866   6.975
 4566SOL    HW214598   0.087   0.947   6.893
 4567SOL     OW14599   6.514   1.415   0.718
 4567SOL    HW114600   6.543   1.443   0.809
 4567SOL    HW214601   6.419   1.442   0.702
 4568SOL     OW14602   3.236   4.540   5.780
 4568SOL    HW114603   3.333   4.524   5.796
 4568SOL    HW214604   3.193   4.455   5.749
 4569SOL     OW14605   0.911   1.878   4.099
 4569SOL    HW114606   0.861   1.913   4.178
 4569SOL    HW214607   1.008   1.873   4.120
 4570SOL     OW14608   6.918   6.000   3.670
 4570SOL    HW114609   6.872   5.912   3.655
 4570SOL    HW214610   7.004   5.984   3.719
 4571SOL     OW14611   3.517   3.538   4.713
 4571SOL    HW114612   3.494   3.478   4.790
 4571SOL    HW214613   3.615   3.533   4.693
 4572SOL     OW14614   1.494   0.012   1.242
 4572SOL    HW114615   1.478   0.093   1.185
 4572SOL    HW214616   1.519   0.040   1.334
 4573SOL     OW14617   5.594   5.677   1.089
 4573SOL    HW114618   5.642   5.678   1.177
 4573SOL    HW214619   5.589   5.771   1.054
 4574SOL     OW14620   6.999   4.142   2.083
 4574SOL    HW114621   6.902   4.163   2.071
 4574SOL    HW214622   0.005   4.141   2.181
 4575SOL     OW14623   6.680   0.930   1.844
 4575SOL    HW114624   6.594   0.978   1.830
 4575SOL    HW214625   6.737   0.938   1.763
 4576SOL     OW14626   3.310   5.410   6.567
 4576SOL    HW114627   3.374   5.442   6.497
 4576SOL    HW214628   3.232   5.365   6.523
 4577SOL     OW14629   1.022   3.587   3.167
 4577SOL    HW114630   1.058   3.494   3.165
 4577SOL    HW214631   1.065   3.641   3.094
 4578SOL     OW14632   6.983   3.831   4.180
 4578SOL    HW114633   6.925   3.876   4.248
 4578SOL    HW214634   0.035   3.774   4.227
 4579SOL     OW14635   5.209   2.210   3.297
 4579SOL    HW114636   5.174   2.228   3.206
 4579SOL    HW214637   5.292   2.263   3.312
 4580SOL     OW14638   5.890   6.132   0.761
 4580SOL    HW114639   5.841   6.047   0.744
 4580SOL    HW214640   5.831   6.195   0.812
 4581SOL     OW14641   3.220   5.672   3.609
 4581SOL    HW114642   3.306   5.623   3.622
 4581SOL    HW214643   3.163   5.623   3.543
 4582SOL     OW14644   5.188   6.252   3.006
 4582SOL    HW114645   5.149   6.343   3.013
 4582SOL    HW214646   5.263   6.243   3.072
 4583SOL     OW14647   3.192   1.874   5.608
 4583SOL    HW114648   3.218   1.826   5.692
 4583SOL    HW214649   3.245   1.959   5.602
 4584SOL     OW14650   0.634   5.424   5.623
 4584SOL    HW114651   0.587   5.390   5.541
 4584SOL    HW214652   0.602   5.373   5.703
 4585SOL     OW14653   3.092   5.956   3.184
 4585SOL    HW114654   3.092   6.047   3.142
 4585SOL    HW214655   3.012   5.947   3.243
 4586SOL     OW14656   3.808   5.824   2.007
 4586SOL    HW114657   3.871   5.751   2.034
 4586SOL    HW214658   3.833   5.908   2.055
 4587SOL     OW14659   2.886   3.247   1.311
 4587SOL    HW114660   2.917   3.251   1.406
 4587SOL    HW214661   2.865   3.152   1.286
 4588SOL     OW14662   3.835   3.272   5.514
 4588SOL    HW114663   3.918   3.288   5.461
 4588SOL    HW214664   3.854   3.208   5.589
 4589SOL     OW14665   5.854   2.457   3.975
 4589SOL    HW114666   5.945   2.468   3.935
 4589SOL    HW214667   5.861   2.413   4.064
 4590SOL     OW14668   4.653   4.975   2.764
 4590SOL    HW114669   4.637   5.044   2.835
 4590SOL    HW214670   4.621   4.886   2.797
 4591SOL     OW14671   5.845   5.341   5.517
 4591SOL    HW114672   5.768   5.281   5.538
 4591SOL    HW214673   5.894   5.306   5.437
 4592SOL     OW14674   4.135   2.311   6.991
 4592SOL    HW114675   4.109   2.329   0.070
 4592SOL    HW214676   4.135   2.212   6.975
 4593SOL     OW14677   3.774   6.443   2.387
 4593SOL    HW114678   3.728   6.510   2.444
 4593SOL    HW214679   3.873   6.447   2.403
 4594SOL     OW14680   2.452   1.526   1.830
 4594SOL    HW114681   2.417   1.458   1.766
 4594SOL    HW214682   2.426   1.500   1.923
 4595SOL     OW14683   4.289   3.067   6.471
 4595SOL    HW114684   4.293   3.099   6.377
 4595SOL    HW214685   4.312   2.970   6.475
 4596SOL     OW14686   5.842   6.896   1.872
 4596SOL    HW114687   5.878   6.841   1.948
 4596SOL    HW214688   5.858   6.993   1.891
 4597SOL     OW14689   5.305   3.993   6.186
 4597SOL    HW114690   5.403   4.010   6.185
 4597SOL    HW214691   5.263   4.037   6.265
 4598SOL     OW14692   2.373   5.572   6.747
 4598SOL    HW114693   2.320   5.589   6.663
 4598SOL    HW214694   2.415   5.482   6.742
 4599SOL     OW14695   1.363   4.820   1.353
 4599SOL    HW114696   1.422   4.744   1.325
 4599SOL    HW214697   1.406   4.870   1.428
 4600SOL     OW14698   3.060   5.776   0.688
 4600SOL    HW114699   2.994   5.703   0.705
 4600SOL    HW214700   3.067   5.792   0.589
 4601SOL     OW14701   2.125   0.657   5.173
 4601SOL    HW114702   2.196   0.717   5.210
 4601SOL    HW214703   2.168   0.584   5.119
 4602SOL     OW14704   1.362   0.201   2.116
 4602SOL    HW114705   1.429   0.127   2.118
 4602SOL    HW214706   1.275   0.166   2.081
 4603SOL     OW14707   3.461   6.781   1.323
 4603SOL    HW114708   3.487   6.696   1.370
 4603SOL    HW214709   3.542   6.840   1.314
 4604SOL     OW14710   3.385   0.306   2.079
 4604SOL    HW114711   3.392   0.404   2.063
 4604SOL    HW214712   3.433   0.283   2.164
 4605SOL     OW14713   5.176   0.379   4.844
 4605SOL    HW114714   5.205   0.474   4.857
 4605SOL    HW214715   5.077   0.376   4.832
 4606SOL     OW14716   6.308   6.353   5.181
 4606SOL    HW114717   6.307   6.450   5.205
 4606SOL    HW214718   6.226   6.331   5.129
 4607SOL     OW14719   3.258   1.285   1.641
 4607SOL    HW114720   3.304   1.366   1.605
 4607SOL    HW214721   3.159   1.294   1.630
 4608SOL     OW14722   1.753   4.386   5.516
 4608SOL    HW114723   1.819   4.454   5.486
 4608SOL    HW214724   1.694   4.360   5.439
 4609SOL     OW14725   5.045   6.756   0.146
 4609SOL    HW114726   5.125   6.787   0.094
 4609SOL    HW214727   4.987   6.835   0.167
 4610SOL     OW14728   0.104   2.915   6.448
 4610SOL    HW114729   0.197   2.952   6.456
 4610SOL    HW214730   0.046   2.955   6.519
 4611SOL     OW14731   1.035   3.872   0.309
 4611SOL    HW114732   0.944   3.832   0.303
 4611SOL    HW214733   1.083   3.859   0.222
 4612SOL     OW14734   2.021   6.392   6.148
 4612SOL    HW114735   2.083   6.315   6.163
 4612SOL    HW214736   2.020   6.451   6.229
 4613SOL     OW14737   3.239   5.228   2.585
 4613SOL    HW114738   3.169   5.270   2.527
 4613SOL    HW214739   3.204   5.219   2.678
 4614SOL     OW14740   2.030   5.503   6.967
 4614SOL    HW114741   2.113   5.545   7.002
 4614SOL    HW214742   1.959   5.505   0.022
 4615SOL     OW14743   1.538   2.107   0.359
 4615SOL    HW114744   1.605   2.091   0.287
 4615SOL    HW214745   1.582   2.100   0.449
 4616SOL     OW14746   5.995   0.766   6.701
 4616SOL    HW114747   6.008   0.720   6.613
 4616SOL    HW214748   5.960   0.859   6.685
 4617SOL     OW14749   0.854   2.592   1.683
 4617SOL    HW114750   0.839   2.636   1.594
 4617SOL    HW214751   0.766   2.564   1.721
 4618SOL     OW14752   0.882   2.486   5.935
 4618SOL    HW114753   0.944   2.559   5.903
 4618SOL    HW214754   0.930   2.427   6.000
 4619SOL     OW14755   3.908   0.680   3.650
 4619SOL    HW114756   4.000   0.717   3.644
 4619SOL    HW214757   3.844   0.752   3.678
 4620SOL     OW14758   2.669   4.405   6.694
 4620SOL    HW114759   2.742   4.415   6.627
 4620SOL    HW214760   2.615   4.323   6.673
 4621SOL     OW14761   0.577   0.649   4.865
 4621SOL    HW114762   0.557   0.583   4.937
 4621SOL    HW214763   0.563   0.606   4.775
 4622SOL     OW14764   1.818   3.060   0.620
 4622SOL    HW114765   1.780   3.139   0.572
 4622SOL    HW214766   1.874   3.092   0.697
 4623SOL     OW14767   6.598   4.676   1.265
 4623SOL    HW114768   6.640   4.696   1.354
 4623SOL    HW214769   6.665   4.691   1.192
 4624SOL     OW14770   4.773   0.551   4.073
 4624SOL    HW114771   4.709   0.558   3.997
 4624SOL    HW214772   4.852   0.610   4.055
 4625SOL     OW14773   1.041   3.816   6.706
 4625SOL    HW114774   1.003   3.748   6.769
 4625SOL    HW214775   0.978   3.893   6.699
 4626SOL     OW14776   6.297   5.079   1.262
 4626SOL    HW114777   6.380   5.023   1.262
 4626SOL    HW214778   6.264   5.089   1.168
 4627SOL     OW14779   3.542   6.083   5.462
 4627SOL    HW114780   3.565   6.028   5.543
 4627SOL    HW214781   3.498   6.168   5.491
 4628SOL     OW14782   6.442   4.756   1.999
 4628SOL    HW114783   6.427   4.685   2.067
 4628SOL    HW214784   6.416   4.722   1.909
 4629SOL     OW14785   2.159   4.651   5.579
 4629SOL    HW114786   2.114   4.575   5.625
 4629SOL    HW214787   2.091   4.705   5.530
 4630SOL     OW14788   2.278   5.824   3.059
 4630SOL    HW114789   2.302   5.797   2.965
 4630SOL    HW214790   2.358   5.813   3.118
 4631SOL     OW14791   3.015   6.394   2.607
 4631SOL    HW114792   3.105   6.351   2.620
 4631SOL    HW214793   3.024   6.470   2.542
 4632SOL     OW14794   4.683   5.602   4.043
 4632SOL    HW114795   4.769   5.626   3.999
 4632SOL    HW214796   4.618   5.570   3.975
 4633SOL     OW14797   6.647   1.721   4.739
 4633SOL    HW114798   6.709   1.797   4.757
 4633SOL    HW214799   6.615   1.726   4.644
 4634SOL     OW14800   2.799   4.539   0.895
 4634SOL    HW114801   2.750   4.453   0.904
 4634SOL    HW214802   2.844   4.561   0.982
 4635SOL     OW14803   5.189   3.162   2.556
 4635SOL    HW114804   5.089   3.170   2.555
 4635SOL    HW214805   5.220   3.125   2.468
 4636SOL     OW14806   2.677   5.534   0.450
 4636SOL    HW114807   2.761   5.551   0.400
 4636SOL    HW214808   2.617   5.613   0.442
 4637SOL     OW14809   1.321   1.140   5.278
 4637SOL    HW114810   1.419   1.142   5.258
 4637SOL    HW214811   1.307   1.113   5.373
 4638SOL     OW14812   4.946   3.283   5.883
 4638SOL    HW114813   4.933   3.258   5.787
 4638SOL    HW214814   4.863   3.262   5.935
 4639SOL     OW14815   0.666   4.001   5.940
 4639SOL    HW114816   0.567   3.984   5.937
 4639SOL    HW214817   0.706   3.952   6.017
 4640SOL     OW14818   5.293   4.268   2.674
 4640SOL    HW114819   5.202   4.229   2.665
 4640SOL    HW214820   5.302   4.315   2.762
 4641SOL     OW14821   2.408   5.190   4.422
 4641SOL    HW114822   2.443   5.116   4.479
 4641SOL    HW214823   2.468   5.202   4.343
 4642SOL     OW14824   6.613   6.423   4.533
 4642SOL    HW114825   6.560   6.418   4.618
 4642SOL    HW214826   6.551   6.440   4.457
 4643SOL     OW14827   3.854   2.212   1.676
 4643SOL    HW114828   3.828   2.120   1.706
 4643SOL    HW214829   3.806   2.280   1.731
 4644SOL     OW14830   1.436   6.226   4.214
 4644SOL    HW114831   1.448   6.181   4.302
 4644SOL    HW214832   1.390   6.314   4.227
 4645SOL     OW14833   1.803   6.602   4.501
 4645SOL    HW114834   1.712   6.587   4.460
 4645SOL    HW214835   1.872   6.555   4.446
 4646SOL     OW14836   3.034   0.437   2.239
 4646SOL    HW114837   2.969   0.424   2.164
 4646SOL    HW214838   3.075   0.350   2.263
 4647SOL     OW14839   6.276   0.365   3.788
 4647SOL    HW114840   6.278   0.465   3.788
 4647SOL    HW214841   6.189   0.333   3.826
 4648SOL     OW14842   2.590   5.974   2.394
 4648SOL    HW114843   2.620   5.897   2.337
 4648SOL    HW214844   2.540   6.040   2.337
 4649SOL     OW14845   5.150   0.475   5.572
 4649SOL    HW114846   5.065   0.423   5.565
 4649SOL    HW214847   5.143   0.557   5.515
 4650SOL     OW14848   5.026   5.323   2.783
 4650SOL    HW114849   5.060   5.356   2.695
 4650SOL    HW214850   4.926   5.317   2.780
 4651SOL     OW14851   0.389   2.098   1.476
 4651SOL    HW114852   0.401   2.092   1.575
 4651SOL    HW214853   0.453   2.165   1.439
 4652SOL     OW14854   6.506   0.195   5.447
 4652SOL    HW114855   6.592   0.148   5.426
 4652SOL    HW214856   6.506   0.285   5.404
 4653SOL     OW14857   0.180   6.250   6.657
 4653SOL    HW114858   0.118   6.328   6.653
 4653SOL    HW214859   0.140   6.179   6.716
 4654SOL     OW14860   0.855   0.364   0.276
 4654SOL    HW114861   0.932   0.420   0.245
 4654SOL    HW214862   0.857   0.358   0.376
 4655SOL     OW14863   0.580   4.432   3.198
 4655SOL    HW114864   0.522   4.510   3.221
 4655SOL    HW214865   0.661   4.464   3.148
 4656SOL     OW14866   1.100   0.690   3.798
 4656SOL    HW114867   1.161   0.694   3.720
 4656SOL    HW214868   1.005   0.694   3.767
 4657SOL     OW14869   5.164   6.965   1.319
 4657SOL    HW114870   5.172   6.946   1.222
 4657SOL    HW214871   5.159   6.880   1.370
 4658SOL     OW14872   4.681   0.224   2.912
 4658SOL    HW114873   4.699   0.284   2.833
 4658SOL    HW214874   4.587   0.191   2.907
 4659SOL     OW14875   2.047   2.340   4.920
 4659SOL    HW114876   2.044   2.326   4.821
 4659SOL    HW214877   1.979   2.408   4.947
 4660SOL     OW14878   0.356   1.393   6.365
 4660SOL    HW114879   0.301   1.317   6.400
 4660SOL    HW214880   0.355   1.390   6.265
 4661SOL     OW14881   3.410   3.840   4.048
 4661SOL    HW114882   3.453   3.842   4.138
 4661SOL    HW214883   3.362   3.753   4.036
 4662SOL     OW14884   4.835   0.538   5.303
 4662SOL    HW114885   4.784   0.465   5.349
 4662SOL    HW214886   4.917   0.499   5.260
 4663SOL     OW14887   6.575   2.459   2.526
 4663SOL    HW114888   6.647   2.508   2.576
 4663SOL    HW214889   6.515   2.414   2.591
 4664SOL     OW14890   3.453   2.491   0.334
 4664SOL    HW114891   3.447   2.412   0.274
 4664SOL    HW214892   3.482   2.462   0.425
 4665SOL     OW14893   5.055   0.440   6.773
 4665SOL    HW114894   4.989   0.371   6.743
 4665SOL    HW214895   5.135   0.395   6.812
 4666SOL     OW14896   2.314   1.572   0.757
 4666SOL    HW114897   2.364   1.636   0.816
 4666SOL    HW214898   2.371   1.492   0.739
 4667SOL     OW14899   6.887   4.929   6.772
 4667SOL    HW114900   6.955   5.002   6.773
 4667SOL    HW214901   6.901   4.871   6.692
 4668SOL     OW14902   6.261   1.638   4.374
 4668SOL    HW114903   6.338   1.677   4.423
 4668SOL    HW214904   6.247   1.543   4.403
 4669SOL     OW14905   1.155   6.967   0.521
 4669SOL    HW114906   1.205   0.035   0.495
 4669SOL    HW214907   1.059   6.976   0.494
 4670SOL     OW14908   2.359   2.339   4.689
 4670SOL    HW114909   2.341   2.299   4.779
 4670SOL    HW214910   2.318   2.281   4.618
 4671SOL     OW14911   5.646   3.235   1.654
 4671SOL    HW114912   5.551   3.237   1.686
 4671SOL    HW214913   5.651   3.182   1.569
 4672SOL     OW14914   2.245   3.822   6.527
 4672SOL    HW114915   2.242   3.918   6.501
 4672SOL    HW214916   2.315   3.808   6.597
 4673SOL     OW14917   3.471   1.220   2.657
 4673SOL    HW114918   3.420   1.153   2.604
 4673SOL    HW214919   3.416   1.302   2.669
 4674SOL     OW14920   4.626   5.613   5.075
 4674SOL    HW114921   4.665   5.641   5.163
 4674SOL    HW214922   4.684   5.647   5.001
 4675SOL     OW14923   1.130   4.122   6.924
 4675SOL    HW114924   1.122   4.093   6.829
 4675SOL    HW214925   1.105   4.219   6.932
 4676SOL     OW14926   1.511   5.558   3.292
 4676SOL    HW114927   1.441   5.625   3.319
 4676SOL    HW214928   1.491   5.470   3.334
 4677SOL     OW14929   1.659   2.571   0.281
 4677SOL    HW114930   1.743   2.530   0.245
 4677SOL    HW214931   1.580   2.531   0.235
 4678SOL     OW14932   2.005   4.417   2.864
 4678SOL    HW114933   1.923   4.429   2.921
 4678SOL    HW214934   2.050   4.331   2.888
 4679SOL     OW14935   5.039   6.986   1.631
 4679SOL    HW114936   5.041   0.017   1.543
 4679SOL    HW214937   4.948   6.994   1.671
 4680SOL     OW14938   2.580   1.217   1.796
 4680SOL    HW114939   2.524   1.259   1.725
 4680SOL    HW214940   2.521   1.184   1.870
 4681SOL     OW14941   5.496   3.976   1.126
 4681SOL    HW114942   5.426   3.916   1.164
 4681SOL    HW214943   5.584   3.958   1.171
 4682SOL     OW14944   4.775   3.768   6.369
 4682SOL    HW114945   4.784   3.669   6.362
 4682SOL    HW214946   4.704   3.790   6.436
 4683SOL     OW14947   6.166   3.824   3.898
 4683SOL    HW114948   6.086   3.782   3.855
 4683SOL    HW214949   6.208   3.757   3.960
 4684SOL     OW14950   4.542   6.365   6.973
 4684SOL    HW114951   4.564   6.392   0.051
 4684SOL    HW214952   4.589   6.280   6.950
 4685SOL     OW14953   2.715   3.611   5.919
 4685SOL    HW114954   2.664   3.536   5.960
 4685SOL    HW214955   2.695   3.697   5.967
 4686SOL     OW14956   3.059   5.863   0.431
 4686SOL    HW114957   3.107   5.950   0.441
 4686SOL    HW214958   2.960   5.879   0.435
 4687SOL     OW14959   3.105   0.732   2.758
 4687SOL    HW114960   3.171   0.712   2.832
 4687SOL    HW214961   3.073   0.647   2.718
 4688SOL     OW14962   5.659   2.738   5.888
 4688SOL    HW114963   5.669   2.767   5.983
 4688SOL    HW214964   5.674   2.817   5.828
 4689SOL     OW14965   5.791   0.691   0.501
 4689SOL    HW114966   5.790   0.594   0.526
 4689SOL    HW214967   5.849   0.704   0.421
 4690SOL     OW14968   2.474   1.313   0.726
 4690SOL    HW114969   2.506   1.261   0.647
 4690SOL    HW214970   2.418   1.255   0.785
 4691SOL     OW14971   6.011   4.701   0.510
 4691SOL    HW114972   6.007   4.618   0.565
 4691SOL    HW214973   6.090   4.756   0.539
 4692SOL     OW14974   6.676   4.405   3.203
 4692SOL    HW114975   6.631   4.429   3.117
 4692SOL    HW214976   6.606   4.381   3.271
 4693SOL     OW14977   1.763   0.975   3.675
 4693SOL    HW114978   1.669   0.943   3.664
 4693SOL    HW214979   1.770   1.070   3.644
 4694SOL     OW14980   2.643   1.216   0.458
 4694SOL    HW114981   2.738   1.222   0.489
 4694SOL    HW214982   2.640   1.219   0.358
 4695SOL     OW14983   1.307   5.984   0.888
 4695SOL    HW114984   1.371   5.911   0.862
 4695SOL    HW214985   1.337   6.070   0.847
 4696SOL     OW14986   1.644   5.125   5.991
 4696SOL    HW114987   1.587   5.047   6.017
 4696SOL    HW214988   1.636   5.196   6.061
 4697SOL     OW14989   2.240   4.307   0.963
 4697SOL    HW114990   2.297   4.301   1.045
 4697SOL    HW214991   2.288   4.266   0.886
 4698SOL     OW14992   4.689   0.757   3.066
 4698SOL    HW114993   4.678   0.749   3.165
 4698SOL    HW214994   4.600   0.772   3.023
 4699SOL     OW14995   0.909   0.583   1.836
 4699SOL    HW114996   0.908   0.501   1.893
 4699SOL    HW214997   1.001   0.621   1.833
 4700SOL     OW14998   5.813   2.310   2.844
 4700SOL    HW114999   5.865   2.246   2.900
 4700SOL    HW215000   5.736   2.263   2.802
 4701SOL     OW15001   3.414   1.993   2.070
 4701SOL    HW115002   3.418   2.075   2.126
 4701SOL    HW215003   3.501   1.982   2.021
 4702SOL     OW15004   5.117   4.842   6.199
 4702SOL    HW115005   5.174   4.852   6.117
 4702SOL    HW215006   5.167   4.876   6.279
 4703SOL     OW15007   1.159   4.865   2.990
 4703SOL    HW115008   1.131   4.890   3.083
 4703SOL    HW215009   1.090   4.897   2.925
 4704SOL     OW15010   0.563   5.527   5.921
 4704SOL    HW115011   0.498   5.566   5.856
 4704SOL    HW215012   0.627   5.598   5.951
 4705SOL     OW15013   3.052   2.810   1.566
 4705SOL    HW115014   3.057   2.767   1.657
 4705SOL    HW215015   2.970   2.867   1.561
 4706SOL     OW15016   1.344   0.628   0.485
 4706SOL    HW115017   1.313   0.658   0.395
 4706SOL    HW215018   1.431   0.580   0.476
 4707SOL     OW15019   1.334   6.840   1.553
 4707SOL    HW115020   1.236   6.856   1.540
 4707SOL    HW215021   1.385   6.920   1.521
 4708SOL     OW15022   0.775   2.674   3.836
 4708SOL    HW115023   0.840   2.684   3.912
 4708SOL    HW215024   0.691   2.631   3.869
 4709SOL     OW15025   4.693   3.967   5.220
 4709SOL    HW115026   4.771   3.918   5.181
 4709SOL    HW215027   4.705   3.977   5.318
 4710SOL     OW15028   5.631   6.546   4.180
 4710SOL    HW115029   5.539   6.570   4.211
 4710SOL    HW215030   5.629   6.457   4.135
 4711SOL     OW15031   6.299   3.284   3.282
 4711SOL    HW115032   6.304   3.233   3.196
 4711SOL    HW215033   6.204   3.306   3.301
 4712SOL     OW15034   4.357   4.232   5.314
 4712SOL    HW115035   4.371   4.302   5.244
 4712SOL    HW215036   4.414   4.252   5.394
 4713SOL     OW15037   5.605   3.961   0.873
 4713SOL    HW115038   5.575   3.966   0.969
 4713SOL    HW215039   5.536   4.004   0.815
 4714SOL     OW15040   6.296   0.806   5.991
 4714SOL    HW115041   6.220   0.870   5.994
 4714SOL    HW215042   6.268   0.718   6.031
 4715SOL     OW15043   6.185   2.076   2.049
 4715SOL    HW115044   6.240   1.993   2.044
 4715SOL    HW215045   6.180   2.107   2.144
 4716SOL     OW15046   3.505   4.528   5.659
 4716SOL    HW115047   3.570   4.584   5.608
 4716SOL    HW215048   3.443   4.481   5.596
 4717SOL     OW15049   3.276   5.102   5.640
 4717SOL    HW115050   3.178   5.112   5.625
 4717SOL    HW215051   3.300   5.005   5.640
 4718SOL     OW15052   5.234   3.916   1.440
 4718SOL    HW115053   5.173   3.971   1.383
 4718SOL    HW215054   5.282   3.850   1.382
 4719SOL     OW15055   6.238   3.330   3.849
 4719SOL    HW115056   6.217   3.353   3.944
 4719SOL    HW215057   6.172   3.375   3.789
 4720SOL     OW15058   2.929   4.543   6.884
 4720SOL    HW115059   2.840   4.500   6.892
 4720SOL    HW215060   2.921   4.641   6.905
 4721SOL     OW15061   6.492   3.446   2.671
 4721SOL    HW115062   6.533   3.386   2.739
 4721SOL    HW215063   6.483   3.538   2.708
 4722SOL     OW15064   1.167   4.277   6.331
 4722SOL    HW115065   1.076   4.298   6.367
 4722SOL    HW215066   1.218   4.363   6.320
 4723SOL     OW15067   3.818   3.892   6.100
 4723SOL    HW115068   3.872   3.963   6.054
 4723SOL    HW215069   3.738   3.934   6.142
 4724SOL     OW15070   0.651   6.548   4.377
 4724SOL    HW115071   0.566   6.600   4.374
 4724SOL    HW215072   0.728   6.610   4.361
 4725SOL     OW15073   5.575   5.328   0.351
 4725SOL    HW115074   5.595   5.305   0.256
 4725SOL    HW215075   5.483   5.296   0.375
 4726SOL     OW15076   1.973   3.042   5.828
 4726SOL    HW115077   1.989   2.957   5.777
 4726SOL    HW215078   1.942   3.021   5.921
 4727SOL     OW15079   0.791   5.773   0.652
 4727SOL    HW115080   0.797   5.739   0.746
 4727SOL    HW215081   0.849   5.854   0.643
 4728SOL     OW15082   5.911   0.784   4.039
 4728SOL    HW115083   5.909   0.882   4.023
 4728SOL    HW215084   5.858   0.737   3.969
 4729SOL     OW15085   6.271   0.722   0.494
 4729SOL    HW115086   6.203   0.649   0.486
 4729SOL    HW215087   6.274   0.775   0.410
 4730SOL     OW15088   3.327   6.595   4.949
 4730SOL    HW115089   3.269   6.676   4.955
 4730SOL    HW215090   3.339   6.570   4.853
 4731SOL     OW15091   2.901   6.854   0.871
 4731SOL    HW115092   2.925   6.846   0.774
 4731SOL    HW215093   2.978   6.894   0.921
 4732SOL     OW15094   0.182   3.725   4.342
 4732SOL    HW115095   0.160   3.813   4.384
 4732SOL    HW215096   0.216   3.662   4.411
 4733SOL     OW15097   2.025   3.618   2.776
 4733SOL    HW115098   2.025   3.593   2.680
 4733SOL    HW215099   1.937   3.596   2.817
 4734SOL     OW15100   5.286   3.693   6.199
 4734SOL    HW115101   5.220   3.665   6.129
 4734SOL    HW215102   5.282   3.792   6.210
 4735SOL     OW15103   6.768   6.162   4.794
 4735SOL    HW115104   6.804   6.254   4.787
 4735SOL    HW215105   6.843   6.098   4.812
 4736SOL     OW15106   6.431   2.084   2.968
 4736SOL    HW115107   6.426   2.030   2.884
 4736SOL    HW215108   6.342   2.083   3.014
 4737SOL     OW15109   2.038   5.148   1.092
 4737SOL    HW115110   2.070   5.196   1.174
 4737SOL    HW215111   2.088   5.063   1.081
 4738SOL     OW15112   2.131   0.506   3.722
 4738SOL    HW115113   2.159   0.574   3.655
 4738SOL    HW215114   2.144   0.544   3.814
 4739SOL     OW15115   6.026   3.424   4.666
 4739SOL    HW115116   6.075   3.505   4.634
 4739SOL    HW215117   6.090   3.348   4.674
 4740SOL     OW15118   0.346   1.267   1.730
 4740SOL    HW115119   0.264   1.287   1.676
 4740SOL    HW215120   0.417   1.230   1.670
 4741SOL     OW15121   4.411   4.733   1.269
 4741SOL    HW115122   4.448   4.778   1.188
 4741SOL    HW215123   4.397   4.636   1.251
 4742SOL     OW15124   2.809   5.826   0.972
 4742SOL    HW115125   2.788   5.762   0.898
 4742SOL    HW215126   2.895   5.873   0.953
 4743SOL     OW15127   2.052   2.037   7.014
 4743SOL    HW115128   1.996   2.119   7.007
 4743SOL    HW215129   2.021   1.969   6.947
 4744SOL     OW15130   1.883   3.453   5.717
 4744SOL    HW115131   1.877   3.423   5.622
 4744SOL    HW215132   1.880   3.553   5.721
 4745SOL     OW15133   4.011   5.246   5.176
 4745SOL    HW115134   4.053   5.208   5.093
 4745SOL    HW215135   4.005   5.346   5.167
 4746SOL     OW15136   6.298   6.238   0.830
 4746SOL    HW115137   6.243   6.267   0.751
 4746SOL    HW215138   6.255   6.269   0.914
 4747SOL     OW15139   6.882   2.080   0.647
 4747SOL    HW115140   6.931   2.138   0.711
 4747SOL    HW215141   6.909   1.984   0.660
 4748SOL     OW15142   1.231   0.611   1.471
 4748SOL    HW115143   1.219   0.518   1.438
 4748SOL    HW215144   1.283   0.610   1.556
 4749SOL     OW15145   2.301   6.442   0.036
 4749SOL    HW115146   2.340   6.468   6.963
 4749SOL    HW215147   2.260   6.523   0.079
 4750SOL     OW15148   6.957   0.875   4.502
 4750SOL    HW115149   6.954   0.936   4.423
 4750SOL    HW215150   6.950   0.780   4.471
 4751SOL     OW15151   1.676   4.942   6.435
 4751SOL    HW115152   1.687   4.843   6.423
 4751SOL    HW215153   1.595   4.973   6.386
 4752SOL     OW15154   3.043   6.423   1.838
 4752SOL    HW115155   3.060   6.363   1.917
 4752SOL    HW215156   3.052   6.518   1.866
 4753SOL     OW15157   5.568   6.619   5.233
 4753SOL    HW115158   5.484   6.668   5.210
 4753SOL    HW215159   5.557   6.523   5.209
 4754SOL     OW15160   0.170   6.997   5.900
 4754SOL    HW115161   0.129   7.015   5.811
 4754SOL    HW215162   0.264   0.015   5.902
 4755SOL     OW15163   2.372   1.796   6.304
 4755SOL    HW115164   2.324   1.878   6.334
 4755SOL    HW215165   2.405   1.745   6.383
 4756SOL     OW15166   4.841   2.940   1.523
 4756SOL    HW115167   4.917   2.888   1.564
 4756SOL    HW215168   4.769   2.877   1.495
 4757SOL     OW15169   2.410   2.217   1.887
 4757SOL    HW115170   2.441   2.218   1.792
 4757SOL    HW215171   2.440   2.132   1.931
 4758SOL     OW15172   5.085   5.044   5.265
 4758SOL    HW115173   5.174   5.086   5.248
 4758SOL    HW215174   5.075   5.027   5.363
 4759SOL     OW15175   5.624   5.949   6.039
 4759SOL    HW115176   5.715   5.942   5.997
 4759SOL    HW215177   5.568   5.872   6.009
 4760SOL     OW15178   2.141   0.909   1.818
 4760SOL    HW115179   2.178   0.956   1.897
 4760SOL    HW215180   2.047   0.940   1.801
 4761SOL     OW15181   6.864   0.095   6.544
 4761SOL    HW115182   6.836   0.007   6.584
 4761SOL    HW215183   6.796   0.124   6.477
 4762SOL     OW15184   2.745   5.450   1.736
 4762SOL    HW115185   2.838   5.458   1.773
 4762SOL    HW215186   2.687   5.521   1.777
 4763SOL     OW15187   6.095   6.389   3.110
 4763SOL    HW115188   6.095   6.330   3.191
 4763SOL    HW215189   6.014   6.448   3.112
 4764SOL     OW15190   4.204   3.573   5.336
 4764SOL    HW115191   4.196   3.552   5.239
 4764SOL    HW215192   4.288   3.625   5.353
 4765SOL     OW15193   4.896   5.960   5.098
 4765SOL    HW115194   4.980   5.952   5.152
 4765SOL    HW215195   4.872   6.057   5.087
 4766SOL     OW15196   2.290   0.226   3.725
 4766SOL    HW115197   2.367   0.238   3.788
 4766SOL    HW215198   2.272   0.311   3.676
 4767SOL     OW15199   4.060   6.824   0.028
 4767SOL    HW115200   4.021   6.733   0.014
 4767SOL    HW215201   3.989   6.893   0.012
 4768SOL     OW15202   5.981   0.464   4.584
 4768SOL    HW115203   5.939   0.551   4.608
 4768SOL    HW215204   5.946   0.432   4.496
 4769SOL     OW15205   4.245   6.194   1.510
 4769SOL    HW115206   4.278   6.114   1.561
 4769SOL    HW215207   4.150   6.179   1.482
 4770SOL     OW15208   2.267   0.622   3.451
 4770SOL    HW115209   2.216   0.697   3.407
 4770SOL    HW215210   2.331   0.583   3.384
 4771SOL     OW15211   3.787   4.013   5.727
 4771SOL    HW115212   3.777   4.094   5.669
 4771SOL    HW215213   3.852   4.033   5.800
 4772SOL     OW15214   2.972   1.266   1.633
 4772SOL    HW115215   2.902   1.211   1.678
 4772SOL    HW215216   2.961   1.362   1.659
 4773SOL     OW15217   0.227   5.783   3.385
 4773SOL    HW115218   0.325   5.779   3.364
 4773SOL    HW215219   0.215   5.799   3.483
 4774SOL     OW15220   1.187   3.407   1.629
 4774SOL    HW115221   1.116   3.397   1.560
 4774SOL    HW215222   1.261   3.464   1.593
 4775SOL     OW15223   4.532   0.512   2.893
 4775SOL    HW115224   4.533   0.609   2.870
 4775SOL    HW215225   4.534   0.501   2.993
 4776SOL     OW15226   2.917   6.068   2.457
 4776SOL    HW115227   2.959   6.126   2.527
 4776SOL    HW215228   2.939   6.104   2.367
 4777SOL     OW15229   2.685   4.510   1.218
 4777SOL    HW115230   2.602   4.503   1.274
 4777SOL    HW215231   2.763   4.477   1.271
 4778SOL     OW15232   4.817   3.693   1.901
 4778SOL    HW115233   4.834   3.595   1.889
 4778SOL    HW215234   4.731   3.717   1.857
 4779SOL     OW15235   6.570   0.444   3.085
 4779SOL    HW115236   6.650   0.409   3.134
 4779SOL    HW215237   6.574   0.414   2.990
 4780SOL     OW15238   0.846   6.740   5.989
 4780SOL    HW115239   0.804   6.657   6.024
 4780SOL    HW215240   0.943   6.743   6.015
 4781SOL     OW15241   2.196   5.223   0.633
 4781SOL    HW115242   2.220   5.196   0.726
 4781SOL    HW215243   2.272   5.276   0.593
 4782SOL     OW15244   5.236   6.391   6.763
 4782SOL    HW115245   5.278   6.306   6.729
 4782SOL    HW215246   5.216   6.451   6.686
 4783SOL     OW15247   5.195   3.972   0.897
 4783SOL    HW115248   5.252   4.053   0.909
 4783SOL    HW215249   5.101   4.000   0.877
 4784SOL     OW15250   5.899   5.075   5.317
 4784SOL    HW115251   5.930   5.162   5.278
 4784SOL    HW215252   5.976   5.012   5.321
 4785SOL     OW15253   6.939   6.175   0.459
 4785SOL    HW115254   6.841   6.160   0.455
 4785SOL    HW215255   6.958   6.268   0.492
 4786SOL     OW15256   1.688   2.992   1.966
 4786SOL    HW115257   1.780   3.007   1.930
 4786SOL    HW215258   1.693   2.937   2.050
 4787SOL     OW15259   3.070   2.229   3.466
 4787SOL    HW115260   3.042   2.265   3.377
 4787SOL    HW215261   3.011   2.269   3.537
 4788SOL     OW15262   0.818   5.078   4.958
 4788SOL    HW115263   0.905   5.086   5.006
 4788SOL    HW215264   0.832   5.027   4.873
 4789SOL     OW15265   5.712   0.255   6.513
 4789SOL    HW115266   5.793   0.279   6.459
 4789SOL    HW215267   5.691   0.329   6.576
 4790SOL     OW15268   5.714   2.662   6.445
 4790SOL    HW115269   5.642   2.728   6.424
 4790SOL    HW215270   5.677   2.569   6.437
 4791SOL     OW15271   5.511   6.909   2.160
 4791SOL    HW115272   5.582   6.918   2.230
 4791SOL    HW215273   5.431   6.964   2.186
 4792SOL     OW15274   2.211   2.811   2.934
 4792SOL    HW115275   2.178   2.905   2.925
 4792SOL    HW215276   2.135   2.752   2.959
 4793SOL     OW15277   1.322   0.042   6.259
 4793SOL    HW115278   1.348   0.049   6.163
 4793SOL    HW215279   1.272   0.124   6.286
 4794SOL     OW15280   2.206   6.518   3.275
 4794SOL    HW115281   2.139   6.565   3.216
 4794SOL    HW215282   2.249   6.585   3.336
 4795SOL     OW15283   5.969   3.247   4.461
 4795SOL    HW115284   5.873   3.257   4.438
 4795SOL    HW215285   5.993   3.313   4.532
 4796SOL     OW15286   5.893   3.833   0.533
 4796SOL    HW115287   5.835   3.825   0.613
 4796SOL    HW215288   5.877   3.755   0.472
 4797SOL     OW15289   0.748   4.789   5.867
 4797SOL    HW115290   0.832   4.784   5.921
 4797SOL    HW215291   0.753   4.723   5.792
 4798SOL     OW15292   0.063   4.218   3.897
 4798SOL    HW115293   6.997   4.211   3.840
 4798SOL    HW215294   0.133   4.271   3.849
 4799SOL     OW15295   4.875   1.358   4.955
 4799SOL    HW115296   4.945   1.413   4.910
 4799SOL    HW215297   4.911   1.267   4.974
 4800SOL     OW15298   2.733   2.703   5.391
 4800SOL    HW115299   2.650   2.703   5.335
 4800SOL    HW215300   2.793   2.777   5.361
 4801SOL     OW15301   1.896   1.668   0.397
 4801SOL    HW115302   1.970   1.733   0.380
 4801SOL    HW215303   1.857   1.639   0.310
 4802SOL     OW15304   2.556   6.744   1.617
 4802SOL    HW115305   2.529   6.824   1.670
 4802SOL    HW215306   2.564   6.769   1.520
 4803SOL     OW15307   0.725   6.754   0.561
 4803SOL    HW115308   0.639   6.797   0.535
 4803SOL    HW215309   0.710   6.659   0.586
 4804SOL     OW15310   4.217   4.866   6.257
 4804SOL    HW115311   4.313   4.864   6.285
 4804SOL    HW215312   4.208   4.919   6.173
 4805SOL     OW15313   6.949   1.568   0.129
 4805SOL    HW115314   7.014   1.570   0.054
 4805SOL    HW215315   6.876   1.634   0.111
 4806SOL     OW15316   0.364   3.589   2.846
 4806SOL    HW115317   0.342   3.683   2.822
 4806SOL    HW215318   0.281   3.541   2.873
 4807SOL     OW15319   0.480   5.910   1.630
 4807SOL    HW115320   0.471   6.003   1.595
 4807SOL    HW215321   0.459   5.845   1.557
 4808SOL     OW15322   5.086   3.422   1.383
 4808SOL    HW115323   5.033   3.505   1.402
 4808SOL    HW215324   5.045   3.345   1.432
 4809SOL     OW15325   3.497   4.933   6.867
 4809SOL    HW115326   3.398   4.916   6.865
 4809SOL    HW215327   3.519   4.990   6.947
 4810SOL     OW15328   0.681   5.546   1.566
 4810SOL    HW115329   0.596   5.534   1.617
 4810SOL    HW215330   0.729   5.627   1.599
 4811SOL     OW15331   3.626   5.277   1.940
 4811SOL    HW115332   3.659   5.184   1.926
 4811SOL    HW215333   3.539   5.275   1.988
 4812SOL     OW15334   0.364   5.708   4.107
 4812SOL    HW115335   0.376   5.743   4.200
 4812SOL    HW215336   0.371   5.609   4.108
 4813SOL     OW15337   4.925   1.743   2.444
 4813SOL    HW115338   5.000   1.768   2.383
 4813SOL    HW215339   4.851   1.810   2.436
 4814SOL     OW15340   0.084   3.909   1.117
 4814SOL    HW115341   0.084   3.850   1.036
 4814SOL    HW215342   7.006   3.930   1.143
 4815SOL     OW15343   4.658   5.447   1.658
 4815SOL    HW115344   4.640   5.350   1.643
 4815SOL    HW215345   4.617   5.500   1.584
 4816SOL     OW15346   5.280   5.217   2.837
 4816SOL    HW115347   5.258   5.160   2.758
 4816SOL    HW215348   5.202   5.276   2.859
 4817SOL     OW15349   1.288   2.233   5.723
 4817SOL    HW115350   1.224   2.164   5.756
 4817SOL    HW215351   1.320   2.289   5.800
 4818SOL     OW15352   0.124   6.977   3.889
 4818SOL    HW115353   0.034   6.941   3.910
 4818SOL    HW215354   0.142   6.968   3.791
 4819SOL     OW15355   1.534   3.234   6.978
 4819SOL    HW115356   1.633   3.247   6.985
 4819SOL    HW215357   1.489   3.283   0.038
 4820SOL     OW15358   6.959   3.207   2.010
 4820SOL    HW115359   6.866   3.172   2.019
 4820SOL    HW215360   6.956   3.298   1.968
 4821SOL     OW15361   6.658   5.750   2.478
 4821SOL    HW115362   6.705   5.821   2.426
 4821SOL    HW215363   6.724   5.680   2.505
 4822SOL     OW15364   1.180   4.104   4.296
 4822SOL    HW115365   1.094   4.053   4.301
 4822SOL    HW215366   1.186   4.166   4.374
 4823SOL     OW15367   1.686   2.749   1.790
 4823SOL    HW115368   1.714   2.656   1.812
 4823SOL    HW215369   1.664   2.798   1.874
 4824SOL     OW15370   5.401   0.732   5.336
 4824SOL    HW115371   5.392   0.832   5.340
 4824SOL    HW215372   5.425   0.706   5.242
 4825SOL     OW15373   1.365   0.234   4.243
 4825SOL    HW115374   1.334   0.217   4.150
 4825SOL    HW215375   1.287   0.262   4.299
 4826SOL     OW15376   4.269   0.212   1.200
 4826SOL    HW115377   4.359   0.244   1.173
 4826SOL    HW215378   4.199   0.258   1.145
 4827SOL     OW15379   6.831   1.902   0.993
 4827SOL    HW115380   6.783   1.989   1.001
 4827SOL    HW215381   6.837   1.859   1.083
 4828SOL     OW15382   4.612   0.802   2.535
 4828SOL    HW115383   4.580   0.707   2.536
 4828SOL    HW215384   4.533   0.863   2.535
 4829SOL     OW15385   3.596   0.109   5.464
 4829SOL    HW115386   3.687   0.068   5.459
 4829SOL    HW215387   3.602   0.201   5.503
 4830SOL     OW15388   3.068   5.811   3.969
 4830SOL    HW115389   3.094   5.779   4.060
 4830SOL    HW215390   3.033   5.733   3.916
 4831SOL     OW15391   3.531   5.126   6.458
 4831SOL    HW115392   3.493   5.036   6.477
 4831SOL    HW215393   3.577   5.161   6.540
 4832SOL     OW15394   3.168   3.034   4.295
 4832SOL    HW115395   3.145   2.990   4.382
 4832SOL    HW215396   3.145   3.131   4.299
 4833SOL     OW15397   6.908   2.732   4.303
 4833SOL    HW115398   6.900   2.633   4.316
 4833SOL    HW215399   6.821   2.776   4.324
 4834SOL     OW15400   1.798   5.271   1.601
 4834SOL    HW115401   1.855   5.346   1.634
 4834SOL    HW215402   1.712   5.269   1.651
 4835SOL     OW15403   0.029   2.811   4.962
 4835SOL    HW115404   6.946   2.799   4.966
 4835SOL    HW215405   0.061   2.797   4.868
 4836SOL     OW15406   4.981   1.111   5.039
 4836SOL    HW115407   4.927   1.034   5.075
 4836SOL    HW215408   5.020   1.085   4.951
 4837SOL     OW15409   0.013   3.586   4.780
 4837SOL    HW115410   0.056   3.675   4.762
 4837SOL    HW215411   0.021   3.528   4.700
 4838SOL     OW15412   1.312   4.504   6.307
 4838SOL    HW115413   1.403   4.473   6.335
 4838SOL    HW215414   1.280   4.575   6.370
 4839SOL     OW15415   2.459   1.951   0.635
 4839SOL    HW115416   2.483   1.901   0.551
 4839SOL    HW215417   2.536   1.948   0.699
 4840SOL     OW15418   5.512   3.196   5.160
 4840SOL    HW115419   5.489   3.279   5.110
 4840SOL    HW215420   5.561   3.133   5.101
 4841SOL     OW15421   3.332   5.482   3.290
 4841SOL    HW115422   3.256   5.456   3.349
 4841SOL    HW215423   3.407   5.517   3.346
 4842SOL     OW15424   2.905   5.397   3.081
 4842SOL    HW115425   2.886   5.348   3.166
 4842SOL    HW215426   2.824   5.450   3.054
 4843SOL     OW15427   0.383   2.412   2.556
 4843SOL    HW115428   0.299   2.364   2.581
 4843SOL    HW215429   0.439   2.353   2.497
 4844SOL     OW15430   0.851   5.633   4.907
 4844SOL    HW115431   0.828   5.549   4.956
 4844SOL    HW215432   0.923   5.613   4.840
 4845SOL     OW15433   4.907   3.908   4.861
 4845SOL    HW115434   4.849   3.828   4.877
 4845SOL    HW215435   4.858   3.991   4.890
 4846SOL     OW15436   6.964   3.597   5.183
 4846SOL    HW115437   6.971   3.560   5.275
 4846SOL    HW215438   6.966   3.523   5.117
 4847SOL     OW15439   2.398   6.305   6.084
 4847SOL    HW115440   2.462   6.237   6.048
 4847SOL    HW215441   2.409   6.391   6.034
 4848SOL     OW15442   2.728   0.833   4.154
 4848SOL    HW115443   2.820   0.799   4.174
 4848SOL    HW215444   2.719   0.852   4.057
 4849SOL     OW15445   1.832   6.658   1.118
 4849SOL    HW115446   1.772   6.737   1.128
 4849SOL    HW215447   1.856   6.646   1.022
 4850SOL     OW15448   4.507   0.769   0.634
 4850SOL    HW115449   4.583   0.722   0.590
 4850SOL    HW215450   4.470   0.838   0.571
 4851SOL     OW15451   3.614   5.648   6.652
 4851SOL    HW115452   3.520   5.619   6.665
 4851SOL    HW215453   3.659   5.585   6.588
 4852SOL     OW15454   4.504   5.173   4.610
 4852SOL    HW115455   4.407   5.190   4.627
 4852SOL    HW215456   4.557   5.199   4.692
 4853SOL     OW15457   3.595   0.891   3.297
 4853SOL    HW115458   3.662   0.949   3.343
 4853SOL    HW215459   3.583   0.806   3.348
 4854SOL     OW15460   6.076   6.078   1.501
 4854SOL    HW115461   6.172   6.066   1.476
 4854SOL    HW215462   6.058   6.032   1.588
 4855SOL     OW15463   6.556   4.728   4.648
 4855SOL    HW115464   6.569   4.678   4.562
 4855SOL    HW215465   6.624   4.802   4.654
 4856SOL     OW15466   0.345   3.864   2.834
 4856SOL    HW115467   0.256   3.904   2.855
 4856SOL    HW215468   0.411   3.891   2.904
 4857SOL     OW15469   2.603   2.052   4.513
 4857SOL    HW115470   2.591   2.047   4.612
 4857SOL    HW215471   2.543   2.122   4.475
 4858SOL     OW15472   0.354   6.253   4.586
 4858SOL    HW115473   0.318   6.167   4.550
 4858SOL    HW215474   0.353   6.251   4.686
 4859SOL     OW15475   0.784   5.763   2.490
 4859SOL    HW115476   0.726   5.780   2.570
 4859SOL    HW215477   0.751   5.816   2.412
 4860SOL     OW15478   4.722   5.539   0.879
 4860SOL    HW115479   4.745   5.593   0.960
 4860SOL    HW215480   4.797   5.476   0.858
 4861SOL     OW15481   0.501   4.697   6.667
 4861SOL    HW115482   0.560   4.667   6.742
 4861SOL    HW215483   0.534   4.658   6.581
 4862SOL     OW15484   2.736   4.685   5.303
 4862SOL    HW115485   2.707   4.773   5.267
 4862SOL    HW215486   2.793   4.638   5.235
 4863SOL     OW15487   4.458   2.064   3.026
 4863SOL    HW115488   4.402   2.087   3.106
 4863SOL    HW215489   4.550   2.102   3.038
 4864SOL     OW15490   3.311   1.315   1.923
 4864SOL    HW115491   3.313   1.317   1.823
 4864SOL    HW215492   3.217   1.327   1.955
 4865SOL     OW15493   4.004   5.767   5.506
 4865SOL    HW115494   4.074   5.695   5.499
 4865SOL    HW215495   4.009   5.826   5.425
 4866SOL     OW15496   5.862   4.289   0.868
 4866SOL    HW115497   5.885   4.211   0.925
 4866SOL    HW215498   5.820   4.360   0.924
 4867SOL     OW15499   4.987   5.890   2.719
 4867SOL    HW115500   4.909   5.908   2.660
 4867SOL    HW215501   4.990   5.793   2.743
 4868SOL     OW15502   0.298   5.545   1.490
 4868SOL    HW115503   0.227   5.590   1.436
 4868SOL    HW215504   0.284   5.446   1.488
 4869SOL     OW15505   6.756   1.343   0.101
 4869SOL    HW115506   6.696   1.408   0.149
 4869SOL    HW215507   6.842   1.388   0.078
 4870SOL     OW15508   6.097   6.621   2.224
 4870SOL    HW115509   6.013   6.667   2.195
 4870SOL    HW215510   6.082   6.577   2.312
 4871SOL     OW15511   1.262   3.405   4.072
 4871SOL    HW115512   1.237   3.451   3.987
 4871SOL    HW215513   1.270   3.307   4.055
 4872SOL     OW15514   1.050   0.774   2.681
 4872SOL    HW115515   1.146   0.778   2.653
 4872SOL    HW215516   1.036   0.833   2.761
 4873SOL     OW15517   7.000   5.385   5.306
 4873SOL    HW115518   0.073   5.407   5.265
 4873SOL    HW215519   7.014   5.324   5.384
 4874SOL     OW15520   5.347   3.760   3.145
 4874SOL    HW115521   5.423   3.699   3.167
 4874SOL    HW215522   5.324   3.815   3.224
 4875SOL     OW15523   5.656   2.264   0.381
 4875SOL    HW115524   5.565   2.306   0.384
 4875SOL    HW215525   5.721   2.322   0.429
 4876SOL     OW15526   0.202   1.385   0.329
 4876SOL    HW115527   0.177   1.291   0.352
 4876SOL    HW215528   0.128   1.446   0.356
 4877SOL     OW15529   6.188   1.207   1.418
 4877SOL    HW115530   6.239   1.145   1.358
 4877SOL    HW215531   6.211   1.188   1.513
 4878SOL     OW15532   6.720   2.026   2.101
 4878SOL    HW115533   6.785   1.976   2.158
 4878SOL    HW215534   6.627   1.999   2.126
 4879SOL     OW15535   4.445   5.231   3.432
 4879SOL    HW115536   4.475   5.289   3.357
 4879SOL    HW215537   4.406   5.288   3.505
 4880SOL     OW15538   5.725   2.044   6.455
 4880SOL    HW115539   5.726   2.144   6.464
 4880SOL    HW215540   5.653   2.018   6.390
 4881SOL     OW15541   3.683   6.190   6.494
 4881SOL    HW115542   3.673   6.256   6.419
 4881SOL    HW215543   3.609   6.124   6.490
 4882SOL     OW15544   5.748   0.409   5.300
 4882SOL    HW115545   5.656   0.447   5.291
 4882SOL    HW215546   5.743   0.309   5.299
 4883SOL     OW15547   6.918   4.690   1.967
 4883SOL    HW115548   6.949   4.734   2.052
 4883SOL    HW215549   6.998   4.671   1.909
 4884SOL     OW15550   3.414   6.551   1.482
 4884SOL    HW115551   3.478   6.576   1.555
 4884SOL    HW215552   3.327   6.598   1.497
 4885SOL     OW15553   1.854   6.986   1.914
 4885SOL    HW115554   1.863   6.904   1.970
 4885SOL    HW215555   1.922   6.982   1.840
 4886SOL     OW15556   6.449   0.495   6.966
 4886SOL    HW115557   6.505   0.477   6.885
 4886SOL    HW215558   6.499   0.465   0.032
 4887SOL     OW15559   0.351   2.213   3.555
 4887SOL    HW115560   0.255   2.190   3.569
 4887SOL    HW215561   0.396   2.139   3.505
 4888SOL     OW15562   2.326   5.513   2.928
 4888SOL    HW115563   2.303   5.503   2.831
 4888SOL    HW215564   2.389   5.590   2.939
 4889SOL     OW15565   0.731   1.751   0.414
 4889SOL    HW115566   0.767   1.844   0.414
 4889SOL    HW215567   0.634   1.753   0.390
 4890SOL     OW15568   1.031   0.848   4.474
 4890SOL    HW115569   0.974   0.894   4.405
 4890SOL    HW215570   1.121   0.828   4.435
 4891SOL     OW15571   0.723   4.860   0.404
 4891SOL    HW115572   0.802   4.800   0.391
 4891SOL    HW215573   0.731   4.907   0.492
 4892SOL     OW15574   0.704   5.503   0.585
 4892SOL    HW115575   0.613   5.485   0.623
 4892SOL    HW215576   0.723   5.601   0.590
 4893SOL     OW15577   0.485   3.532   6.559
 4893SOL    HW115578   0.464   3.596   6.485
 4893SOL    HW215579   0.534   3.453   6.523
 4894SOL     OW15580   2.162   1.310   3.263
 4894SOL    HW115581   2.258   1.316   3.292
 4894SOL    HW215582   2.150   1.228   3.206
 4895SOL     OW15583   0.890   2.984   0.160
 4895SOL    HW115584   0.831   3.014   0.235
 4895SOL    HW215585   0.984   3.015   0.176
 4896SOL     OW15586   3.784   5.053   4.987
 4896SOL    HW115587   3.772   5.152   4.991
 4896SOL    HW215588   3.863   5.031   4.930
 4897SOL     OW15589   3.779   5.487   6.146
 4897SOL    HW115590   3.756   5.390   6.132
 4897SOL    HW215591   3.877   5.500   6.130
 4898SOL     OW15592   5.118   2.003   5.381
 4898SOL    HW115593   5.078   2.062   5.311
 4898SOL    HW215594   5.058   2.002   5.462
 4899SOL     OW15595   5.845   4.380   3.636
 4899SOL    HW115596   5.751   4.352   3.659
 4899SOL    HW215597   5.909   4.313   3.674
 4900SOL     OW15598   1.139   0.010   5.474
 4900SOL    HW115599   1.144   6.968   5.393
 4900SOL    HW215600   1.114   6.971   5.553
 4901SOL     OW15601   0.802   0.073   3.831
 4901SOL    HW115602   0.852   0.048   3.913
 4901SOL    HW215603   0.830   0.014   3.755
 4902SOL     OW15604   2.166   4.457   1.660
 4902SOL    HW115605   2.250   4.484   1.708
 4902SOL    HW215606   2.087   4.475   1.718
 4903SOL     OW15607   4.876   0.253   6.664
 4903SOL    HW115608   4.814   0.224   6.738
 4903SOL    HW215609   4.822   0.277   6.583
 4904SOL     OW15610   2.578   6.007   4.081
 4904SOL    HW115611   2.663   6.027   4.129
 4904SOL    HW215612   2.506   6.069   4.114
 4905SOL     OW15613   4.954   3.159   1.826
 4905SOL    HW115614   4.888   3.119   1.890
 4905SOL    HW215615   5.008   3.086   1.783
 4906SOL     OW15616   5.054   0.363   0.167
 4906SOL    HW115617   5.117   0.436   0.196
 4906SOL    HW215618   5.092   0.274   0.193
 4907SOL     OW15619   3.059   0.990   3.456
 4907SOL    HW115620   2.965   0.995   3.423
 4907SOL    HW215621   3.067   1.040   3.542
 4908SOL     OW15622   3.291   6.281   6.469
 4908SOL    HW115623   3.346   6.331   6.402
 4908SOL    HW215624   3.330   6.190   6.482
 4909SOL     OW15625   6.568   6.372   5.487
 4909SOL    HW115626   6.468   6.377   5.480
 4909SOL    HW215627   6.594   6.370   5.584
 4910SOL     OW15628   5.564   0.004   4.974
 4910SOL    HW115629   5.649   6.976   5.000
 4910SOL    HW215630   5.581   0.066   4.897
 4911SOL     OW15631   6.833   2.717   5.970
 4911SOL    HW115632   6.838   2.771   5.886
 4911SOL    HW215633   6.893   2.758   6.039
 4912SOL     OW15634   2.738   2.365   2.666
 4912SOL    HW115635   2.681   2.410   2.596
 4912SOL    HW215636   2.800   2.300   2.621
 4913SOL     OW15637   3.149   3.973   3.215
 4913SOL    HW115638   3.144   4.006   3.309
 4913SOL    HW215639   3.212   4.030   3.163
 4914SOL     OW15640   2.658   6.724   3.768
 4914SOL    HW115641   2.654   6.816   3.807
 4914SOL    HW215642   2.743   6.713   3.717
 4915SOL     OW15643   3.214   5.774   4.230
 4915SOL    HW115644   3.293   5.764   4.170
 4915SOL    HW215645   3.211   5.868   4.266
 4916SOL     OW15646   1.946   1.419   2.566
 4916SOL    HW115647   1.914   1.343   2.622
 4916SOL    HW215648   1.961   1.500   2.623
 4917SOL     OW15649   2.023   5.007   0.819
 4917SOL    HW115650   1.942   5.058   0.847
 4917SOL    HW215651   2.105   5.063   0.835
 4918SOL     OW15652   2.198   0.383   2.218
 4918SOL    HW115653   2.269   0.387   2.147
 4918SOL    HW215654   2.121   0.328   2.185
 4919SOL     OW15655   2.385   2.625   1.950
 4919SOL    HW115656   2.364   2.702   2.010
 4919SOL    HW215657   2.391   2.541   2.005
 4920SOL     OW15658   4.309   0.820   0.020
 4920SOL    HW115659   4.362   0.736   0.015
 4920SOL    HW215660   4.217   0.800   0.055
 4921SOL     OW15661   1.002   4.728   1.586
 4921SOL    HW115662   0.926   4.678   1.626
 4921SOL    HW215663   1.046   4.671   1.517
 4922SOL     OW15664   1.566   2.878   5.126
 4922SOL    HW115665   1.662   2.904   5.127
 4922SOL    HW215666   1.543   2.831   5.211
 4923SOL     OW15667   4.649   0.938   1.212
 4923SOL    HW115668   4.553   0.938   1.241
 4923SOL    HW215669   4.688   0.848   1.229
 4924SOL     OW15670   0.699   4.087   4.740
 4924SOL    HW115671   0.697   3.989   4.723
 4924SOL    HW215672   0.717   4.104   4.837
 4925SOL     OW15673   4.708   6.117   6.902
 4925SOL    HW115674   4.635   6.055   6.873
 4925SOL    HW215675   4.760   6.074   6.976
 4926SOL     OW15676   4.809   2.411   2.005
 4926SOL    HW115677   4.791   2.454   1.917
 4926SOL    HW215678   4.724   2.411   2.059
 4927SOL     OW15679   3.366   2.885   3.283
 4927SOL    HW115680   3.345   2.912   3.377
 4927SOL    HW215681   3.412   2.796   3.283
 4928SOL     OW15682   0.188   5.875   0.166
 4928SOL    HW115683   0.270   5.903   0.117
 4928SOL    HW215684   0.130   5.954   0.183
 4929SOL     OW15685   1.239   5.231   4.063
 4929SOL    HW115686   1.202   5.138   4.057
 4929SOL    HW215687   1.288   5.253   3.978
 4930SOL     OW15688   0.501   2.174   0.805
 4930SOL    HW115689   0.486   2.121   0.722
 4930SOL    HW215690   0.596   2.163   0.835
 4931SOL     OW15691   0.195   0.885   0.323
 4931SOL    HW115692   0.204   0.787   0.338
 4931SOL    HW215693   0.218   0.906   0.228
 4932SOL     OW15694   2.602   1.952   1.482
 4932SOL    HW115695   2.552   1.886   1.425
 4932SOL    HW215696   2.562   2.043   1.470
 4933SOL     OW15697   2.692   0.855   3.869
 4933SOL    HW115698   2.777   0.826   3.826
 4933SOL    HW215699   2.654   0.933   3.819
 4934SOL     OW15700   0.999   5.680   4.348
 4934SOL    HW115701   1.061   5.657   4.273
 4934SOL    HW215702   1.006   5.610   4.420
 4935SOL     OW15703   1.437   1.015   0.570
 4935SOL    HW115704   1.440   1.106   0.612
 4935SOL    HW215705   1.346   0.976   0.583
 4936SOL     OW15706   4.031   5.669   0.969
 4936SOL    HW115707   4.091   5.631   0.899
 4936SOL    HW215708   4.018   5.601   1.042
 4937SOL     OW15709   0.642   2.945   6.130
 4937SOL    HW115710   0.648   2.847   6.149
 4937SOL    HW215711   0.717   2.972   6.070
 4938SOL     OW15712   3.448   4.611   1.598
 4938SOL    HW115713   3.499   4.648   1.676
 4938SOL    HW215714   3.359   4.579   1.629
 4939SOL     OW15715   1.615   1.732   1.922
 4939SOL    HW115716   1.665   1.678   1.989
 4939SOL    HW215717   1.540   1.677   1.884
 4940SOL     OW15718   0.294   2.765   4.620
 4940SOL    HW115719   0.354   2.761   4.700
 4940SOL    HW215720   0.199   2.759   4.649
 4941SOL     OW15721   3.787   2.414   5.328
 4941SOL    HW115722   3.834   2.472   5.394
 4941SOL    HW215723   3.852   2.378   5.262
 4942SOL     OW15724   5.908   2.043   4.266
 4942SOL    HW115725   5.958   2.038   4.352
 4942SOL    HW215726   5.828   1.984   4.270
 4943SOL     OW15727   5.852   3.122   6.448
 4943SOL    HW115728   5.906   3.057   6.501
 4943SOL    HW215729   5.761   3.085   6.432
 4944SOL     OW15730   1.233   5.445   0.898
 4944SOL    HW115731   1.228   5.383   0.977
 4944SOL    HW215732   1.241   5.392   0.814
 4945SOL     OW15733   1.987   1.139   4.985
 4945SOL    HW115734   1.914   1.096   5.038
 4945SOL    HW215735   1.973   1.238   4.980
 4946SOL     OW15736   2.157   5.312   0.328
 4946SOL    HW115737   2.071   5.359   0.308
 4946SOL    HW215738   2.139   5.229   0.379
 4947SOL     OW15739   1.886   0.975   1.720
 4947SOL    HW115740   1.844   0.892   1.685
 4947SOL    HW215741   1.873   1.049   1.654
 4948SOL     OW15742   1.531   2.405   1.880
 4948SOL    HW115743   1.543   2.485   1.939
 4948SOL    HW215744   1.433   2.387   1.866
 4949SOL     OW15745   6.814   3.849   0.393
 4949SOL    HW115746   6.895   3.840   0.336
 4949SOL    HW215747   6.735   3.812   0.345
 4950SOL     OW15748   2.111   4.160   5.134
 4950SOL    HW115749   2.025   4.116   5.109
 4950SOL    HW215750   2.187   4.106   5.099
 4951SOL     OW15751   4.844   5.890   3.487
 4951SOL    HW115752   4.828   5.818   3.419
 4951SOL    HW215753   4.929   5.871   3.536
 4952SOL     OW15754   0.687   6.301   5.758
 4952SOL    HW115755   0.679   6.221   5.698
 4952SOL    HW215756   0.604   6.356   5.752
 4953SOL     OW15757   1.334   2.222   4.686
 4953SOL    HW115758   1.271   2.208   4.610
 4953SOL    HW215759   1.377   2.134   4.710
 4954SOL     OW15760   3.312   4.166   4.786
 4954SOL    HW115761   3.262   4.252   4.797
 4954SOL    HW215762   3.254   4.090   4.815
 4955SOL     OW15763   3.293   5.673   7.012
 4955SOL    HW115764   3.198   5.642   7.012
 4955SOL    HW215765   3.315   5.713   0.085
 4956SOL     OW15766   2.416   6.803   4.900
 4956SOL    HW115767   2.396   6.900   4.915
 4956SOL    HW215768   2.331   6.751   4.900
 4957SOL     OW15769   6.218   4.280   0.310
 4957SOL    HW115770   6.225   4.223   0.228
 4957SOL    HW215771   6.281   4.246   0.380
 4958SOL     OW15772   3.143   6.670   0.438
 4958SOL    HW115773   3.192   6.587   0.414
 4958SOL    HW215774   3.110   6.715   0.355
 4959SOL     OW15775   0.676   3.236   2.296
 4959SOL    HW115776   0.634   3.158   2.249
 4959SOL    HW215777   0.774   3.220   2.307
 4960SOL     OW15778   4.121   5.990   4.283
 4960SOL    HW115779   4.202   6.043   4.258
 4960SOL    HW215780   4.090   5.939   4.203
 4961SOL     OW15781   3.591   0.915   0.764
 4961SOL    HW115782   3.672   0.970   0.782
 4961SOL    HW215783   3.524   0.970   0.714
 4962SOL     OW15784   0.808   4.243   1.072
 4962SOL    HW115785   0.751   4.163   1.090
 4962SOL    HW215786   0.875   4.252   1.145
 4963SOL     OW15787   0.982   4.088   6.162
 4963SOL    HW115788   1.028   4.063   6.248
 4963SOL    HW215789   0.990   4.012   6.098
 4964SOL     OW15790   2.790   6.814   4.698
 4964SOL    HW115791   2.692   6.802   4.679
 4964SOL    HW215792   2.809   6.910   4.715
 4965SOL     OW15793   1.397   6.095   2.610
 4965SOL    HW115794   1.394   6.126   2.515
 4965SOL    HW215795   1.305   6.068   2.639
 4966SOL     OW15796   3.556   6.307   4.176
 4966SOL    HW115797   3.639   6.342   4.220
 4966SOL    HW215798   3.527   6.370   4.104
 4967SOL     OW15799   4.194   4.775   5.114
 4967SOL    HW115800   4.151   4.852   5.066
 4967SOL    HW215801   4.241   4.717   5.047
 4968SOL     OW15802   6.895   1.609   3.821
 4968SOL    HW115803   6.955   1.532   3.800
 4968SOL    HW215804   6.845   1.591   3.905
 4969SOL     OW15805   0.479   5.933   2.890
 4969SOL    HW115806   0.459   6.023   2.851
 4969SOL    HW215807   0.396   5.894   2.931
 4970SOL     OW15808   1.683   1.328   1.622
 4970SOL    HW115809   1.740   1.370   1.692
 4970SOL    HW215810   1.597   1.297   1.662
 4971SOL     OW15811   6.351   6.488   3.149
 4971SOL    HW115812   6.256   6.520   3.146
 4971SOL    HW215813   6.355   6.400   3.197
 4972SOL     OW15814   1.766   4.222   1.414
 4972SOL    HW115815   1.729   4.196   1.503
 4972SOL    HW215816   1.756   4.146   1.350
 4973SOL     OW15817   0.036   0.657   1.121
 4973SOL    HW115818   0.027   0.749   1.084
 4973SOL    HW215819   6.961   0.615   1.130
 4974SOL     OW15820   3.742   4.882   5.169
 4974SOL    HW115821   3.765   4.945   5.094
 4974SOL    HW215822   3.820   4.824   5.189
 4975SOL     OW15823   6.066   3.349   0.777
 4975SOL    HW115824   6.059   3.446   0.754
 4975SOL    HW215825   5.995   3.298   0.728
 4976SOL     OW15826   1.344   0.034   4.694
 4976SOL    HW115827   1.389   0.084   4.620
 4976SOL    HW215828   1.381   0.064   4.782
 4977SOL     OW15829   2.601   4.999   6.356
 4977SOL    HW115830   2.676   5.063   6.370
 4977SOL    HW215831   2.546   4.995   6.439
 4978SOL     OW15832   5.140   4.772   5.109
 4978SOL    HW115833   5.209   4.764   5.181
 4978SOL    HW215834   5.138   4.866   5.075
 4979SOL     OW15835   1.985   6.655   6.238
 4979SOL    HW115836   1.982   6.754   6.249
 4979SOL    HW215837   1.964   6.630   6.143
 4980SOL     OW15838   6.101   4.373   2.840
 4980SOL    HW115839   6.023   4.374   2.902
 4980SOL    HW215840   6.184   4.348   2.891
 4981SOL     OW15841   3.648   5.006   1.848
 4981SOL    HW115842   3.665   4.953   1.766
 4981SOL    HW215843   3.589   4.954   1.910
 4982SOL     OW15844   4.683   1.212   6.505
 4982SOL    HW115845   4.752   1.167   6.448
 4982SOL    HW215846   4.602   1.232   6.449
 4983SOL     OW15847   0.026   5.275   2.862
 4983SOL    HW115848   0.007   5.301   2.767
 4983SOL    HW215849   0.097   5.335   2.899
 4984SOL     OW15850   4.899   4.642   2.710
 4984SOL    HW115851   4.986   4.645   2.661
 4984SOL    HW215852   4.893   4.558   2.763
 4985SOL     OW15853   5.957   5.622   3.041
 4985SOL    HW115854   5.924   5.544   3.095
 4985SOL    HW215855   5.880   5.666   2.995
 4986SOL     OW15856   1.235   5.053   2.295
 4986SOL    HW115857   1.260   5.098   2.210
 4986SOL    HW215858   1.184   4.969   2.276
 4987SOL     OW15859   0.637   0.859   2.128
 4987SOL    HW115860   0.721   0.818   2.164
 4987SOL    HW215861   0.619   0.822   2.037
 4988SOL     OW15862   5.968   0.311   3.311
 4988SOL    HW115863   6.013   0.292   3.398
 4988SOL    HW215864   5.919   0.229   3.280
 4989SOL     OW15865   4.036   1.181   2.599
 4989SOL    HW115866   4.101   1.157   2.671
 4989SOL    HW215867   3.951   1.213   2.640
 4990SOL     OW15868   4.583   1.678   5.318
 4990SOL    HW115869   4.633   1.757   5.282
 4990SOL    HW215870   4.609   1.663   5.414
 4991SOL     OW15871   1.061   5.375   5.121
 4991SOL    HW115872   1.131   5.420   5.066
 4991SOL    HW215873   0.970   5.401   5.087
 4992SOL     OW15874   0.041   1.425   3.697
 4992SOL    HW115875   0.075   1.422   3.603
 4992SOL    HW215876   0.065   1.340   3.743
 4993SOL     OW15877   4.149   6.377   4.567
 4993SOL    HW115878   4.051   6.393   4.565
 4993SOL    HW215879   4.175   6.342   4.657
 4994SOL     OW15880   3.157   5.315   6.228
 4994SOL    HW115881   3.147   5.251   6.152
 4994SOL    HW215882   3.093   5.391   6.216
 4995SOL     OW15883   0.856   0.605   4.857
 4995SOL    HW115884   0.864   0.593   4.758
 4995SOL    HW215885   0.761   0.597   4.885
 4996SOL     OW15886   6.776   1.036   4.655
 4996SOL    HW115887   6.763   1.003   4.749
 4996SOL    HW215888   6.842   0.977   4.608
 4997SOL     OW15889   3.258   2.190   1.765
 4997SOL    HW115890   3.232   2.094   1.749
 4997SOL    HW215891   3.344   2.209   1.718
 4998SOL     OW15892   0.852   3.283   3.913
 4998SOL    HW115893   0.928   3.221   3.895
 4998SOL    HW215894   0.769   3.230   3.930
 4999SOL     OW15895   0.807   3.789   4.671
 4999SOL    HW115896   0.800   3.747   4.581
 4999SOL    HW215897   0.795   3.719   4.741
 5000SOL     OW15898   3.029   5.592   3.804
 5000SOL    HW115899   3.094   5.552   3.868
 5000SOL    HW215900   3.079   5.639   3.731
 5001SOL     OW15901   1.043   5.205   2.471
 5001SOL    HW115902   0.999   5.250   2.393
 5001SOL    HW215903   1.117   5.147   2.438
 5002SOL     OW15904   0.516   3.916   3.038
 5002SOL    HW115905   0.558   4.005   3.019
 5002SOL    HW215906   0.534   3.890   3.133
 5003SOL     OW15907   4.222   6.308   3.610
 5003SOL    HW115908   4.154   6.342   3.545
 5003SOL    HW215909   4.263   6.224   3.574
 5004SOL     OW15910   2.739   6.021   6.186
 5004SOL    HW115911   2.708   5.926   6.187
 5004SOL    HW215912   2.715   6.065   6.273
 5005SOL     OW15913   2.784   2.942   6.066
 5005SOL    HW115914   2.731   2.939   5.981
 5005SOL    HW215915   2.839   2.860   6.074
 5006SOL     OW15916   5.408   1.746   1.952
 5006SOL    HW115917   5.411   1.716   2.047
 5006SOL    HW215918   5.417   1.845   1.948
 5007SOL     OW15919   6.003   0.062   2.085
 5007SOL    HW115920   6.103   0.057   2.093
 5007SOL    HW215921   5.975   0.158   2.087
 5008SOL     OW15922   6.437   6.690   1.576
 5008SOL    HW115923   6.503   6.738   1.634
 5008SOL    HW215924   6.365   6.753   1.547
 5009SOL     OW15925   1.025   2.342   0.341
 5009SOL    HW115926   0.933   2.382   0.338
 5009SOL    HW215927   1.091   2.409   0.307
 5010SOL     OW15928   3.995   2.614   0.770
 5010SOL    HW115929   3.998   2.519   0.740
 5010SOL    HW215930   3.900   2.643   0.781
 5011SOL     OW15931   2.450   3.828   6.718
 5011SOL    HW115932   2.487   3.783   6.800
 5011SOL    HW215933   2.489   3.920   6.711
 5012SOL     OW15934   5.609   1.498   5.243
 5012SOL    HW115935   5.704   1.474   5.263
 5012SOL    HW215936   5.553   1.481   5.323
 5013SOL     OW15937   6.093   0.143   5.831
 5013SOL    HW115938   6.075   0.241   5.839
 5013SOL    HW215939   6.050   0.108   5.748
 5014SOL     OW15940   6.248   3.400   1.766
 5014SOL    HW115941   6.340   3.404   1.727
 5014SOL    HW215942   6.203   3.315   1.737
 5015SOL     OW15943   5.520   0.239   4.024
 5015SOL    HW115944   5.476   0.227   3.935
 5015SOL    HW215945   5.584   0.163   4.040
 5016SOL     OW15946   1.410   3.155   4.984
 5016SOL    HW115947   1.499   3.171   4.942
 5016SOL    HW215948   1.340   3.151   4.912
 5017SOL     OW15949   0.480   2.529   1.497
 5017SOL    HW115950   0.525   2.613   1.527
 5017SOL    HW215951   0.433   2.546   1.410
 5018SOL     OW15952   0.477   5.528   1.735
 5018SOL    HW115953   0.384   5.508   1.704
 5018SOL    HW215954   0.476   5.547   1.833
 5019SOL     OW15955   1.402   5.202   5.225
 5019SOL    HW115956   1.369   5.138   5.295
 5019SOL    HW215957   1.336   5.276   5.213
 5020SOL     OW15958   0.442   6.700   4.343
 5020SOL    HW115959   0.389   6.763   4.400
 5020SOL    HW215960   0.430   6.723   4.247
 5021SOL     OW15961   1.936   0.944   0.767
 5021SOL    HW115962   1.989   1.029   0.773
 5021SOL    HW215963   1.973   0.886   0.695
 5022SOL     OW15964   0.415   3.122   1.540
 5022SOL    HW115965   0.347   3.073   1.594
 5022SOL    HW215966   0.505   3.111   1.582
 5023SOL     OW15967   0.556   4.437   1.920
 5023SOL    HW115968   0.500   4.500   1.866
 5023SOL    HW215969   0.618   4.387   1.859
 5024SOL     OW15970   5.377   3.731   1.307
 5024SOL    HW115971   5.365   3.661   1.378
 5024SOL    HW215972   5.423   3.692   1.228
 5025SOL     OW15973   3.983   1.319   3.976
 5025SOL    HW115974   4.059   1.376   3.943
 5025SOL    HW215975   3.898   1.371   3.971
 5026SOL     OW15976   5.842   6.280   5.154
 5026SOL    HW115977   5.754   6.325   5.140
 5026SOL    HW215978   5.879   6.307   5.243
 5027SOL     OW15979   5.317   0.642   0.006
 5027SOL    HW115980   5.350   0.735   7.004
 5027SOL    HW215981   5.282   0.636   0.099
 5028SOL     OW15982   6.923   2.305   2.671
 5028SOL    HW115983   6.927   2.370   2.595
 5028SOL    HW215984   6.862   2.230   2.646
 5029SOL     OW15985   6.199   2.127   2.320
 5029SOL    HW115986   6.127   2.172   2.373
 5029SOL    HW215987   6.287   2.169   2.339
 5030SOL     OW15988   6.849   5.293   6.573
 5030SOL    HW115989   6.768   5.244   6.542
 5030SOL    HW215990   6.859   5.377   6.520
 5031SOL     OW15991   0.074   0.822   5.389
 5031SOL    HW115992   0.055   0.777   5.476
 5031SOL    HW215993   7.004   0.851   5.346
 5032SOL     OW15994   3.562   2.868   5.488
 5032SOL    HW115995   3.591   2.926   5.412
 5032SOL    HW215996   3.639   2.812   5.518
 5033SOL     OW15997   2.342   0.908   0.773
 5033SOL    HW115998   2.258   0.930   0.724
 5033SOL    HW215999   2.393   0.838   0.722
 5034SOL     OW16000   4.554   6.283   3.904
 5034SOL    HW116001   4.537   6.317   3.997
 5034SOL    HW216002   4.518   6.349   3.838
 5035SOL     OW16003   0.694   4.691   4.272
 5035SOL    HW116004   0.715   4.643   4.357
 5035SOL    HW216005   0.597   4.715   4.270
 5036SOL     OW16006   6.484   3.425   5.407
 5036SOL    HW116007   6.490   3.514   5.362
 5036SOL    HW216008   6.507   3.353   5.342
 5037SOL     OW16009   4.589   4.498   1.188
 5037SOL    HW116010   4.655   4.471   1.258
 5037SOL    HW216011   4.496   4.489   1.224
 5038SOL     OW16012   3.295   3.455   4.292
 5038SOL    HW116013   3.279   3.551   4.316
 5038SOL    HW216014   3.391   3.433   4.309
 5039SOL     OW16015   1.946   3.016   6.162
 5039SOL    HW116016   1.986   2.973   6.243
 5039SOL    HW216017   1.970   3.113   6.161
 5040SOL     OW16018   1.236   5.031   5.920
 5040SOL    HW116019   1.222   5.115   5.867
 5040SOL    HW216020   1.166   5.025   5.991
 5041SOL     OW16021   0.824   3.416   1.910
 5041SOL    HW116022   0.890   3.474   1.862
 5041SOL    HW216023   0.841   3.419   2.008
 5042SOL     OW16024   0.042   3.719   6.065
 5042SOL    HW116025   0.019   3.671   5.981
 5042SOL    HW216026   0.082   3.808   6.043
 5043SOL     OW16027   4.264   0.512   0.490
 5043SOL    HW116028   4.277   0.605   0.456
 5043SOL    HW216029   4.194   0.512   0.561
 5044SOL     OW16030   6.794   5.387   0.797
 5044SOL    HW116031   6.806   5.480   0.831
 5044SOL    HW216032   6.783   5.388   0.698
 5045SOL     OW16033   5.869   4.119   6.346
 5045SOL    HW116034   5.903   4.093   6.256
 5045SOL    HW216035   5.769   4.120   6.344
 5046SOL     OW16036   3.285   3.285   3.765
 5046SOL    HW116037   3.206   3.317   3.818
 5046SOL    HW216038   3.282   3.185   3.760
 5047SOL     OW16039   1.776   3.526   2.955
 5047SOL    HW116040   1.740   3.613   2.989
 5047SOL    HW216041   1.713   3.488   2.887
 5048SOL     OW16042   1.565   1.355   5.903
 5048SOL    HW116043   1.560   1.439   5.848
 5048SOL    HW216044   1.561   1.276   5.842
 5049SOL     OW16045   6.383   0.297   6.262
 5049SOL    HW116046   6.350   0.212   6.220
 5049SOL    HW216047   6.424   0.277   6.351
 5050SOL     OW16048   1.749   1.101   0.005
 5050SOL    HW116049   1.671   1.158   0.031
 5050SOL    HW216050   1.820   1.110   0.074
 5051SOL     OW16051   3.676   4.655   1.238
 5051SOL    HW116052   3.698   4.560   1.261
 5051SOL    HW216053   3.681   4.711   1.321
 5052SOL     OW16054   3.359   2.105   5.624
 5052SOL    HW116055   3.421   2.111   5.703
 5052SOL    HW216056   3.412   2.103   5.540
 5053SOL     OW16057   0.388   4.981   2.645
 5053SOL    HW116058   0.432   4.899   2.681
 5053SOL    HW216059   0.393   4.981   2.545
 5054SOL     OW16060   3.757   4.586   5.380
 5054SOL    HW116061   3.846   4.631   5.371
 5054SOL    HW216062   3.684   4.650   5.357
 5055SOL     OW16063   6.761   3.389   6.237
 5055SOL    HW116064   6.842   3.350   6.279
 5055SOL    HW216065   6.679   3.350   6.278
 5056SOL     OW16066   5.133   3.856   4.998
 5056SOL    HW116067   5.050   3.865   4.943
 5056SOL    HW216068   5.212   3.846   4.937
 5057SOL     OW16069   0.955   6.621   2.081
 5057SOL    HW116070   0.856   6.605   2.074
 5057SOL    HW216071   0.998   6.543   2.128
 5058SOL     OW16072   2.744   4.853   6.761
 5058SOL    HW116073   2.828   4.906   6.754
 5058SOL    HW216074   2.691   4.884   6.840
 5059SOL     OW16075   0.596   0.443   2.964
 5059SOL    HW116076   0.603   0.345   2.951
 5059SOL    HW216077   0.667   0.489   2.911
 5060SOL     OW16078   6.591   1.883   6.390
 5060SOL    HW116079   6.612   1.945   6.465
 5060SOL    HW216080   6.604   1.789   6.420
 5061SOL     OW16081   4.754   3.028   0.283
 5061SOL    HW116082   4.693   2.957   0.247
 5061SOL    HW216083   4.727   3.051   0.376
 5062SOL     OW16084   0.728   0.133   1.302
 5062SOL    HW116085   0.780   0.142   1.217
 5062SOL    HW216086   0.732   0.219   1.352
 5063SOL     OW16087   0.764   6.808   1.980
 5063SOL    HW116088   0.702   6.840   2.051
 5063SOL    HW216089   0.858   6.817   2.011
 5064SOL     OW16090   4.674   3.058   0.555
 5064SOL    HW116091   4.684   2.960   0.574
 5064SOL    HW216092   4.708   3.111   0.632
 5065SOL     OW16093   2.329   6.883   5.241
 5065SOL    HW116094   2.349   6.791   5.274
 5065SOL    HW216095   2.288   6.877   5.150
 5066SOL     OW16096   5.624   4.206   1.641
 5066SOL    HW116097   5.535   4.175   1.608
 5066SOL    HW216098   5.639   4.301   1.612
 5067SOL     OW16099   5.304   0.927   0.431
 5067SOL    HW116100   5.207   0.910   0.450
 5067SOL    HW216101   5.313   1.014   0.383
 5068SOL     OW16102   3.200   4.686   0.798
 5068SOL    HW116103   3.132   4.627   0.842
 5068SOL    HW216104   3.157   4.737   0.724
 5069SOL     OW16105   0.711   4.741   2.896
 5069SOL    HW116106   0.684   4.707   2.806
 5069SOL    HW216107   0.737   4.664   2.954
 5070SOL     OW16108   4.894   3.310   4.108
 5070SOL    HW116109   4.887   3.406   4.079
 5070SOL    HW216110   4.947   3.259   4.041
 5071SOL     OW16111   4.147   2.093   5.756
 5071SOL    HW116112   4.059   2.137   5.774
 5071SOL    HW216113   4.176   2.114   5.662
 5072SOL     OW16114   0.120   4.633   0.814
 5072SOL    HW116115   0.116   4.714   0.873
 5072SOL    HW216116   0.027   4.597   0.801
 5073SOL     OW16117   6.305   6.724   2.058
 5073SOL    HW116118   6.231   6.674   2.102
 5073SOL    HW216119   6.283   6.738   1.961
 5074SOL     OW16120   3.014   4.289   6.770
 5074SOL    HW116121   3.102   4.267   6.810
 5074SOL    HW216122   2.988   4.382   6.795
 5075SOL     OW16123   0.460   5.733   5.691
 5075SOL    HW116124   0.452   5.774   5.600
 5075SOL    HW216125   0.387   5.665   5.703
 5076SOL     OW16126   2.879   0.300   0.908
 5076SOL    HW116127   2.970   0.274   0.939
 5076SOL    HW216128   2.829   0.218   0.879
 5077SOL     OW16129   1.445   2.665   3.822
 5077SOL    HW116130   1.487   2.756   3.816
 5077SOL    HW216131   1.457   2.617   3.736
 5078SOL     OW16132   1.581   2.081   4.440
 5078SOL    HW116133   1.534   2.143   4.503
 5078SOL    HW216134   1.535   2.084   4.351
 5079SOL     OW16135   3.349   4.824   5.639
 5079SOL    HW116136   3.421   4.802   5.573
 5079SOL    HW216137   3.265   4.776   5.614
 5080SOL     OW16138   5.816   6.572   5.362
 5080SOL    HW116139   5.731   6.606   5.321
 5080SOL    HW216140   5.801   6.555   5.459
 5081SOL     OW16141   3.530   3.606   3.188
 5081SOL    HW116142   3.494   3.623   3.279
 5081SOL    HW216143   3.625   3.636   3.183
 5082SOL     OW16144   5.460   5.778   5.752
 5082SOL    HW116145   5.397   5.795   5.828
 5082SOL    HW216146   5.521   5.703   5.777
 5083SOL     OW16147   1.469   6.440   1.991
 5083SOL    HW116148   1.403   6.378   1.949
 5083SOL    HW216149   1.561   6.420   1.955
 5084SOL     OW16150   1.308   5.547   3.721
 5084SOL    HW116151   1.295   5.449   3.739
 5084SOL    HW216152   1.391   5.560   3.667
 5085SOL     OW16153   5.842   1.468   6.723
 5085SOL    HW116154   5.783   1.523   6.782
 5085SOL    HW216155   5.901   1.410   6.779
 5086SOL     OW16156   6.492   4.739   3.543
 5086SOL    HW116157   6.557   4.668   3.516
 5086SOL    HW216158   6.465   4.724   3.638
 5087SOL     OW16159   6.433   5.571   4.957
 5087SOL    HW116160   6.472   5.582   4.865
 5087SOL    HW216161   6.379   5.652   4.980
 5088SOL     OW16162   6.273   0.337   5.628
 5088SOL    HW116163   6.234   0.296   5.545
 5088SOL    HW216164   6.328   0.270   5.677
 5089SOL     OW16165   5.934   3.247   3.039
 5089SOL    HW116166   5.903   3.266   2.946
 5089SOL    HW216167   5.869   3.186   3.084
 5090SOL     OW16168   2.085   4.911   1.334
 5090SOL    HW116169   2.077   4.981   1.404
 5090SOL    HW216170   2.091   4.821   1.377
 5091SOL     OW16171   0.950   6.246   2.451
 5091SOL    HW116172   1.021   6.293   2.504
 5091SOL    HW216173   0.884   6.205   2.513
 5092SOL     OW16174   3.473   2.028   0.660
 5092SOL    HW116175   3.573   2.028   0.658
 5092SOL    HW216176   3.440   1.938   0.688
 5093SOL     OW16177   1.658   2.019   2.276
 5093SOL    HW116178   1.558   2.013   2.269
 5093SOL    HW216179   1.691   1.949   2.340
 5094SOL     OW16180   0.975   6.503   5.142
 5094SOL    HW116181   0.896   6.508   5.081
 5094SOL    HW216182   1.059   6.499   5.088
 5095SOL     OW16183   2.302   0.370   4.934
 5095SOL    HW116184   2.360   0.441   4.975
 5095SOL    HW216185   2.235   0.413   4.874
 5096SOL     OW16186   5.033   3.498   0.893
 5096SOL    HW116187   4.980   3.504   0.978
 5096SOL    HW216188   5.089   3.580   0.883
 5097SOL     OW16189   1.734   6.653   5.757
 5097SOL    HW116190   1.639   6.677   5.739
 5097SOL    HW216191   1.738   6.565   5.805
 5098SOL     OW16192   0.113   1.557   2.560
 5098SOL    HW116193   0.030   1.603   2.592
 5098SOL    HW216194   0.193   1.614   2.579
 5099SOL     OW16195   1.310   0.110   5.144
 5099SOL    HW116196   1.281   0.155   5.228
 5099SOL    HW216197   1.304   0.175   5.068
 5100SOL     OW16198   5.423   6.086   0.387
 5100SOL    HW116199   5.481   6.165   0.404
 5100SOL    HW216200   5.416   6.071   0.288
 5101SOL     OW16201   4.278   6.405   6.881
 5101SOL    HW116202   4.373   6.397   6.913
 5101SOL    HW216203   4.217   6.413   6.960
 5102SOL     OW16204   4.213   0.126   4.899
 5102SOL    HW116205   4.133   0.161   4.851
 5102SOL    HW216206   4.214   0.159   4.993
 5103SOL     OW16207   0.655   0.649   4.057
 5103SOL    HW116208   0.718   0.574   4.036
 5103SOL    HW216209   0.688   0.734   4.016
 5104SOL     OW16210   1.490   0.755   1.855
 5104SOL    HW116211   1.511   0.850   1.829
 5104SOL    HW216212   1.437   0.755   1.939
 5105SOL     OW16213   3.438   3.995   6.515
 5105SOL    HW116214   3.484   3.914   6.551
 5105SOL    HW216215   3.465   4.010   6.420
 5106SOL     OW16216   3.358   0.239   2.503
 5106SOL    HW116217   3.379   0.336   2.514
 5106SOL    HW216218   3.391   0.208   2.414
 5107SOL     OW16219   2.499   6.999   6.164
 5107SOL    HW116220   2.583   6.978   6.115
 5107SOL    HW216221   2.461   0.069   6.130
 5108SOL     OW16222   3.011   3.737   3.951
 5108SOL    HW116223   3.010   3.825   3.999
 5108SOL    HW216224   2.978   3.750   3.857
 5109SOL     OW16225   0.620   1.160   1.082
 5109SOL    HW116226   0.549   1.105   1.126
 5109SOL    HW216227   0.707   1.146   1.129
 5110SOL     OW16228   1.916   5.966   5.492
 5110SOL    HW116229   1.907   5.889   5.428
 5110SOL    HW216230   1.824   6.000   5.515
 5111SOL     OW16231   1.560   1.071   6.746
 5111SOL    HW116232   1.546   1.006   6.672
 5111SOL    HW216233   1.515   1.037   6.829
 5112SOL     OW16234   0.641   6.120   3.925
 5112SOL    HW116235   0.725   6.129   3.980
 5112SOL    HW216236   0.608   6.026   3.930
 5113SOL     OW16237   1.241   0.753   0.223
 5113SOL    HW116238   1.287   0.840   0.202
 5113SOL    HW216239   1.272   0.683   0.160
 5114SOL     OW16240   3.670   4.740   6.739
 5114SOL    HW116241   3.696   4.765   6.646
 5114SOL    HW216242   3.614   4.812   6.779
 5115SOL     OW16243   1.609   3.500   5.526
 5115SOL    HW116244   1.575   3.456   5.609
 5115SOL    HW216245   1.604   3.435   5.450
 5116SOL     OW16246   6.137   5.028   0.096
 5116SOL    HW116247   6.064   5.089   0.065
 5116SOL    HW216248   6.109   4.933   0.083
 5117SOL     OW16249   2.356   4.495   4.809
 5117SOL    HW116250   2.263   4.485   4.774
 5117SOL    HW216251   2.360   4.460   4.903
 5118SOL     OW16252   4.135   5.731   0.016
 5118SOL    HW116253   4.075   5.795   6.983
 5118SOL    HW216254   4.084   5.691   0.093
 5119SOL     OW16255   6.037   0.746   2.022
 5119SOL    HW116256   6.086   0.737   2.108
 5119SOL    HW216257   6.060   0.833   1.978
 5120SOL     OW16258   4.954   1.495   2.563
 5120SOL    HW116259   5.044   1.482   2.522
 5120SOL    HW216260   4.923   1.589   2.547
 5121SOL     OW16261   0.158   3.413   5.709
 5121SOL    HW116262   0.240   3.380   5.662
 5121SOL    HW216263   0.085   3.345   5.700
 5122SOL     OW16264   2.222   0.017   3.533
 5122SOL    HW116265   2.199   0.095   3.475
 5122SOL    HW216266   2.258   0.049   3.620
 5123SOL     OW16267   4.616   4.227   2.668
 5123SOL    HW116268   4.518   4.247   2.659
 5123SOL    HW216269   4.667   4.276   2.597
 5124SOL     OW16270   3.046   6.617   6.679
 5124SOL    HW116271   2.994   6.532   6.679
 5124SOL    HW216272   3.137   6.601   6.716
 5125SOL     OW16273   6.921   3.040   4.410
 5125SOL    HW116274   0.002   3.048   4.436
 5125SOL    HW216275   6.910   3.070   4.315
 5126SOL     OW16276   6.159   4.738   6.119
 5126SOL    HW116277   6.157   4.817   6.059
 5126SOL    HW216278   6.236   4.679   6.093
 5127SOL     OW16279   5.529   3.410   6.762
 5127SOL    HW116280   5.429   3.411   6.767
 5127SOL    HW216281   5.558   3.467   6.686
 5128SOL     OW16282   0.051   0.547   6.694
 5128SOL    HW116283   0.004   0.589   6.616
 5128SOL    HW216284   7.003   0.493   6.748
 5129SOL     OW16285   4.588   1.639   2.116
 5129SOL    HW116286   4.678   1.605   2.091
 5129SOL    HW216287   4.548   1.579   2.185
 5130SOL     OW16288   1.271   5.266   3.770
 5130SOL    HW116289   1.178   5.288   3.800
 5130SOL    HW216290   1.271   5.176   3.727
 5131SOL     OW16291   3.203   5.026   3.227
 5131SOL    HW116292   3.267   5.001   3.154
 5131SOL    HW216293   3.253   5.062   3.305
 5132SOL     OW16294   3.664   1.627   6.882
 5132SOL    HW116295   3.571   1.632   6.917
 5132SOL    HW216296   3.727   1.669   6.948
 5133SOL     OW16297   4.254   4.634   6.490
 5133SOL    HW116298   4.297   4.561   6.542
 5133SOL    HW216299   4.324   4.694   6.451
 5134SOL     OW16300   6.638   6.198   1.460
 5134SOL    HW116301   6.709   6.156   1.517
 5134SOL    HW216302   6.607   6.131   1.391
 5135SOL     OW16303   5.929   3.233   2.145
 5135SOL    HW116304   5.949   3.331   2.148
 5135SOL    HW216305   5.949   3.193   2.234
 5136SOL     OW16306   0.940   0.749   5.987
 5136SOL    HW116307   0.888   0.821   5.941
 5136SOL    HW216308   0.947   0.669   5.928
 5137SOL     OW16309   5.372   1.001   5.341
 5137SOL    HW116310   5.408   1.038   5.427
 5137SOL    HW216311   5.272   1.001   5.343
 5138SOL     OW16312   3.734   2.913   4.185
 5138SOL    HW116313   3.817   2.933   4.236
 5138SOL    HW216314   3.655   2.949   4.235
 5139SOL     OW16315   1.747   0.265   4.600
 5139SOL    HW116316   1.655   0.227   4.613
 5139SOL    HW216317   1.809   0.192   4.572
 5140SOL     OW16318   4.514   2.374   6.370
 5140SOL    HW116319   4.550   2.298   6.424
 5140SOL    HW216320   4.414   2.368   6.364
 5141SOL     OW16321   6.186   2.911   2.499
 5141SOL    HW116322   6.155   2.860   2.419
 5141SOL    HW216323   6.286   2.922   2.495
 5142SOL     OW16324   0.222   0.110   2.336
 5142SOL    HW116325   0.181   0.197   2.306
 5142SOL    HW216326   0.226   0.108   2.436
 5143SOL     OW16327   0.620   5.465   4.129
 5143SOL    HW116328   0.710   5.504   4.112
 5143SOL    HW216329   0.620   5.369   4.104
 5144SOL     OW16330   2.421   3.176   6.101
 5144SOL    HW116331   2.390   3.266   6.072
 5144SOL    HW216332   2.429   3.116   6.021
 5145SOL     OW16333   2.949   6.223   6.825
 5145SOL    HW116334   2.988   6.281   6.896
 5145SOL    HW216335   2.921   6.279   6.747
 5146SOL     OW16336   5.297   4.843   5.964
 5146SOL    HW116337   5.309   4.745   5.984
 5146SOL    HW216338   5.277   4.855   5.867
 5147SOL     OW16339   4.725   2.822   3.631
 5147SOL    HW116340   4.747   2.733   3.591
 5147SOL    HW216341   4.661   2.809   3.708
 5148SOL     OW16342   0.679   6.521   0.998
 5148SOL    HW116343   0.653   6.618   0.996
 5148SOL    HW216344   0.706   6.495   1.090
 5149SOL     OW16345   5.478   4.624   3.333
 5149SOL    HW116346   5.560   4.607   3.388
 5149SOL    HW216347   5.399   4.581   3.377
 5150SOL     OW16348   0.389   5.871   3.803
 5150SOL    HW116349   0.352   5.958   3.836
 5150SOL    HW216350   0.436   5.825   3.878
 5151SOL     OW16351   5.664   4.780   1.770
 5151SOL    HW116352   5.645   4.859   1.828
 5151SOL    HW216353   5.580   4.731   1.750
 5152SOL     OW16354   1.327   1.048   6.501
 5152SOL    HW116355   1.237   1.092   6.509
 5152SOL    HW216356   1.316   0.948   6.510
 5153SOL     OW16357   1.059   1.800   1.158
 5153SOL    HW116358   0.969   1.839   1.136
 5153SOL    HW216359   1.076   1.722   1.097
 5154SOL     OW16360   6.931   3.008   6.640
 5154SOL    HW116361   6.949   3.092   6.691
 5154SOL    HW216362   6.917   2.932   6.703
 5155SOL     OW16363   1.982   1.257   1.032
 5155SOL    HW116364   1.978   1.315   1.114
 5155SOL    HW216365   1.909   1.189   1.036
 5156SOL     OW16366   5.313   5.339   5.408
 5156SOL    HW116367   5.217   5.348   5.381
 5156SOL    HW216368   5.371   5.335   5.327
 5157SOL     OW16369   4.028   0.300   1.755
 5157SOL    HW116370   4.110   0.245   1.738
 5157SOL    HW216371   4.010   0.358   1.676
 5158SOL     OW16372   2.897   1.468   2.291
 5158SOL    HW116373   2.941   1.392   2.243
 5158SOL    HW216374   2.961   1.544   2.299
 5159SOL     OW16375   6.304   3.026   5.429
 5159SOL    HW116376   6.368   2.962   5.386
 5159SOL    HW216377   6.220   2.978   5.452
 5160SOL     OW16378   6.526   6.266   3.291
 5160SOL    HW116379   6.565   6.280   3.382
 5160SOL    HW216380   6.522   6.168   3.271
 5161SOL     OW16381   1.032   3.275   0.426
 5161SOL    HW116382   1.027   3.180   0.394
 5161SOL    HW216383   1.124   3.293   0.461
 5162SOL     OW16384   6.696   6.655   2.951
 5162SOL    HW116385   6.790   6.632   2.929
 5162SOL    HW216386   6.673   6.744   2.911
 5163SOL     OW16387   2.857   7.000   2.373
 5163SOL    HW116388   2.875   7.013   2.276
 5163SOL    HW216389   2.927   6.941   2.413
 5164SOL     OW16390   3.465   3.649   0.848
 5164SOL    HW116391   3.430   3.650   0.754
 5164SOL    HW216392   3.392   3.625   0.911
 5165SOL     OW16393   1.508   4.558   6.885
 5165SOL    HW116394   1.495   4.517   6.794
 5165SOL    HW216395   1.480   4.494   6.955
 5166SOL     OW16396   1.795   5.905   1.817
 5166SOL    HW116397   1.728   5.844   1.775
 5166SOL    HW216398   1.757   5.998   1.822
 5167SOL     OW16399   4.838   2.366   5.160
 5167SOL    HW116400   4.851   2.455   5.204
 5167SOL    HW216401   4.794   2.380   5.071
 5168SOL     OW16402   4.347   2.354   2.510
 5168SOL    HW116403   4.258   2.320   2.541
 5168SOL    HW216404   4.370   2.312   2.422
 5169SOL     OW16405   3.914   6.688   3.486
 5169SOL    HW116406   3.840   6.626   3.461
 5169SOL    HW216407   3.973   6.645   3.555
 5170SOL     OW16408   0.861   3.331   6.231
 5170SOL    HW116409   0.924   3.299   6.160
 5170SOL    HW216410   0.873   3.276   6.314
 5171SOL     OW16411   1.922   5.755   5.311
 5171SOL    HW116412   1.952   5.797   5.225
 5171SOL    HW216413   1.863   5.677   5.291
 5172SOL     OW16414   0.057   5.483   3.970
 5172SOL    HW116415   0.152   5.458   3.950
 5172SOL    HW216416   0.013   5.517   3.887
 5173SOL     OW16417   4.596   4.324   5.445
 5173SOL    HW116418   4.678   4.267   5.441
 5173SOL    HW216419   4.622   4.420   5.444
 5174SOL     OW16420   2.616   6.534   3.383
 5174SOL    HW116421   2.573   6.459   3.333
 5174SOL    HW216422   2.566   6.551   3.468
 5175SOL     OW16423   2.870   4.185   6.991
 5175SOL    HW116424   2.920   4.101   7.015
 5175SOL    HW216425   2.918   4.233   6.919
 5176SOL     OW16426   5.477   5.670   0.540
 5176SOL    HW116427   5.552   5.668   0.474
 5176SOL    HW216428   5.513   5.659   0.632
 5177SOL     OW16429   5.632   0.311   6.936
 5177SOL    HW116430   5.539   0.274   6.940
 5177SOL    HW216431   5.644   0.376   7.011
 5178SOL     OW16432   1.176   4.056   1.541
 5178SOL    HW116433   1.120   4.048   1.459
 5178SOL    HW216434   1.273   4.058   1.516
 5179SOL     OW16435   6.031   4.590   2.694
 5179SOL    HW116436   6.065   4.509   2.741
 5179SOL    HW216437   6.108   4.640   2.653
 5180SOL     OW16438   2.073   6.934   2.232
 5180SOL    HW116439   2.048   6.862   2.167
 5180SOL    HW216440   2.171   6.954   2.225
 5181SOL     OW16441   0.718   0.013   5.886
 5181SOL    HW116442   0.756   6.942   5.853
 5181SOL    HW216443   0.732   0.020   5.985
 5182SOL     OW16444   3.550   5.728   3.310
 5182SOL    HW116445   3.456   5.761   3.312
 5182SOL    HW216446   3.567   5.682   3.223
 5183SOL     OW16447   4.472   1.517   3.997
 5183SOL    HW116448   4.386   1.515   3.946
 5183SOL    HW216449   4.458   1.566   4.083
 5184SOL     OW16450   2.551   1.128   3.815
 5184SOL    HW116451   2.464   1.099   3.776
 5184SOL    HW216452   2.535   1.167   3.906
 5185SOL     OW16453   6.060   0.974   1.866
 5185SOL    HW116454   6.001   0.958   1.787
 5185SOL    HW216455   6.019   1.045   1.924
 5186SOL     OW16456   6.740   3.611   6.482
 5186SOL    HW116457   6.725   3.666   6.400
 5186SOL    HW216458   6.832   3.626   6.517
 5187SOL     OW16459   2.159   4.945   5.336
 5187SOL    HW116460   2.250   4.911   5.310
 5187SOL    HW216461   2.101   4.949   5.255
 5188SOL     OW16462   6.271   6.842   2.477
 5188SOL    HW116463   6.193   6.781   2.462
 5188SOL    HW216464   6.254   6.899   2.557
 5189SOL     OW16465   5.284   6.919   6.089
 5189SOL    HW116466   5.255   6.965   6.173
 5189SOL    HW216467   5.360   6.969   6.049
 5190SOL     OW16468   1.763   3.972   1.280
 5190SOL    HW116469   1.717   3.885   1.292
 5190SOL    HW216470   1.715   4.027   1.212
 5191SOL     OW16471   2.980   4.949   2.416
 5191SOL    HW116472   2.992   4.932   2.514
 5191SOL    HW216473   3.069   4.949   2.371
 5192SOL     OW16474   2.292   4.945   2.245
 5192SOL    HW116475   2.342   5.010   2.188
 5192SOL    HW216476   2.357   4.890   2.298
 5193SOL     OW16477   5.924   0.412   6.432
 5193SOL    HW116478   5.945   0.402   6.529
 5193SOL    HW216479   5.994   0.468   6.388
 5194SOL     OW16480   4.981   2.078   6.455
 5194SOL    HW116481   5.044   2.152   6.430
 5194SOL    HW216482   5.034   1.996   6.479
 5195SOL     OW16483   6.776   0.496   4.711
 5195SOL    HW116484   6.853   0.474   4.652
 5195SOL    HW216485   6.807   0.555   4.786
 5196SOL     OW16486   5.589   6.311   2.515
 5196SOL    HW116487   5.604   6.329   2.418
 5196SOL    HW216488   5.496   6.277   2.529
 5197SOL     OW16489   1.090   4.231   5.917
 5197SOL    HW116490   1.190   4.233   5.919
 5197SOL    HW216491   1.056   4.187   6.000
 5198SOL     OW16492   5.593   5.599   2.355
 5198SOL    HW116493   5.665   5.653   2.399
 5198SOL    HW216494   5.630   5.510   2.328
 5199SOL     OW16495   6.796   4.713   1.076
 5199SOL    HW116496   6.851   4.644   1.124
 5199SOL    HW216497   6.803   4.700   0.978
 5200SOL     OW16498   0.429   3.816   5.323
 5200SOL    HW116499   0.498   3.832   5.252
 5200SOL    HW216500   0.458   3.860   5.408
 5201SOL     OW16501   1.480   4.940   4.069
 5201SOL    HW116502   1.550   4.869   4.072
 5201SOL    HW216503   1.427   4.937   4.153
 5202SOL     OW16504   0.138   4.155   0.609
 5202SOL    HW116505   0.142   4.254   0.620
 5202SOL    HW216506   0.133   4.112   0.700
 5203SOL     OW16507   1.211   2.657   6.878
 5203SOL    HW116508   1.308   2.664   6.903
 5203SOL    HW216509   1.179   2.565   6.897
 5204SOL     OW16510   4.242   5.229   0.098
 5204SOL    HW116511   4.310   5.180   0.044
 5204SOL    HW216512   4.207   5.307   0.046
 5205SOL     OW16513   1.677   0.414   2.114
 5205SOL    HW116514   1.610   0.393   2.185
 5205SOL    HW216515   1.746   0.477   2.150
 5206SOL     OW16516   0.786   4.339   6.933
 5206SOL    HW116517   0.886   4.340   6.934
 5206SOL    HW216518   0.751   4.362   0.008
 5207SOL     OW16519   1.313   4.998   4.314
 5207SOL    HW116520   1.373   4.932   4.360
 5207SOL    HW216521   1.292   5.073   4.377
 5208SOL     OW16522   3.861   1.458   0.161
 5208SOL    HW116523   3.894   1.406   0.240
 5208SOL    HW216524   3.787   1.407   0.117
 5209SOL     OW16525   5.408   5.959   2.997
 5209SOL    HW116526   5.400   5.949   3.096
 5209SOL    HW216527   5.412   5.868   2.955
 5210SOL     OW16528   5.455   4.882   4.156
 5210SOL    HW116529   5.388   4.952   4.181
 5210SOL    HW216530   5.539   4.926   4.127
 5211SOL     OW16531   3.647   2.932   3.486
 5211SOL    HW116532   3.567   2.874   3.503
 5211SOL    HW216533   3.618   3.027   3.475
 5212SOL     OW16534   0.744   2.161   0.937
 5212SOL    HW116535   0.824   2.177   0.880
 5212SOL    HW216536   0.758   2.078   0.991
 5213SOL     OW16537   4.740   2.694   5.801
 5213SOL    HW116538   4.804   2.623   5.774
 5213SOL    HW216539   4.665   2.700   5.735
 5214SOL     OW16540   5.210   1.566   6.080
 5214SOL    HW116541   5.123   1.563   6.031
 5214SOL    HW216542   5.267   1.640   6.043
 5215SOL     OW16543   4.874   4.816   2.946
 5215SOL    HW116544   4.870   4.762   2.861
 5215SOL    HW216545   4.804   4.783   3.009
 5216SOL     OW16546   4.945   5.035   0.400
 5216SOL    HW116547   5.032   5.008   0.359
 5216SOL    HW216548   4.900   5.103   0.343
 5217SOL     OW16549   3.169   5.528   4.050
 5217SOL    HW116550   3.080   5.540   4.095
 5217SOL    HW216551   3.234   5.595   4.085
 5218SOL     OW16552   1.543   6.187   3.166
 5218SOL    HW116553   1.456   6.223   3.134
 5218SOL    HW216554   1.558   6.096   3.127
 5219SOL     OW16555   3.309   0.041   6.380
 5219SOL    HW116556   3.281   0.003   6.291
 5219SOL    HW216557   3.349   6.984   6.435
 5220SOL     OW16558   0.190   6.282   2.773
 5220SOL    HW116559   0.127   6.209   2.801
 5220SOL    HW216560   0.141   6.349   2.718
 5221SOL     OW16561   5.093   0.955   4.837
 5221SOL    HW116562   5.184   0.996   4.839
 5221SOL    HW216563   5.068   0.934   4.742
 5222SOL     OW16564   1.781   0.493   3.817
 5222SOL    HW116565   1.831   0.568   3.773
 5222SOL    HW216566   1.792   0.410   3.763
 5223SOL     OW16567   4.752   0.603   1.622
 5223SOL    HW116568   4.658   0.597   1.657
 5223SOL    HW216569   4.756   0.675   1.552
 5224SOL     OW16570   6.359   1.938   2.739
 5224SOL    HW116571   6.281   1.907   2.685
 5224SOL    HW216572   6.435   1.962   2.678
 5225SOL     OW16573   6.248   6.213   3.987
 5225SOL    HW116574   6.319   6.220   4.057
 5225SOL    HW216575   6.199   6.299   3.980
 5226SOL     OW16576   0.911   6.637   4.189
 5226SOL    HW116577   0.998   6.611   4.232
 5226SOL    HW216578   0.872   6.557   4.143
 5227SOL     OW16579   6.379   4.599   3.231
 5227SOL    HW116580   6.290   4.560   3.207
 5227SOL    HW216581   6.435   4.528   3.273
 5228SOL     OW16582   5.809   1.814   0.621
 5228SOL    HW116583   5.718   1.782   0.646
 5228SOL    HW216584   5.802   1.879   0.545
 5229SOL     OW16585   1.257   3.642   5.804
 5229SOL    HW116586   1.179   3.580   5.802
 5229SOL    HW216587   1.328   3.604   5.863
 5230SOL     OW16588   0.213   0.297   0.331
 5230SOL    HW116589   0.182   0.363   0.400
 5230SOL    HW216590   0.226   0.344   0.244
 5231SOL     OW16591   4.086   3.279   3.902
 5231SOL    HW116592   4.084   3.371   3.939
 5231SOL    HW216593   4.144   3.276   3.820
 5232SOL     OW16594   4.839   2.407   7.009
 5232SOL    HW116595   4.773   2.460   0.046
 5232SOL    HW216596   4.794   2.367   6.930
 5233SOL     OW16597   0.135   6.304   2.381
 5233SOL    HW116598   0.181   6.388   2.352
 5233SOL    HW216599   0.066   6.278   2.314
 5234SOL     OW16600   3.241   6.765   0.676
 5234SOL    HW116601   3.270   6.850   0.632
 5234SOL    HW216602   3.195   6.707   0.609
 5235SOL     OW16603   1.202   3.167   0.837
 5235SOL    HW116604   1.196   3.069   0.853
 5235SOL    HW216605   1.111   3.205   0.820
 5236SOL     OW16606   4.841   3.451   1.134
 5236SOL    HW116607   4.855   3.397   1.217
 5236SOL    HW216608   4.793   3.535   1.157
 5237SOL     OW16609   2.674   2.022   5.390
 5237SOL    HW116610   2.675   1.923   5.379
 5237SOL    HW216611   2.629   2.046   5.476
 5238SOL     OW16612   1.633   4.605   0.651
 5238SOL    HW116613   1.731   4.622   0.658
 5238SOL    HW216614   1.584   4.671   0.707
 5239SOL     OW16615   3.148   2.997   3.714
 5239SOL    HW116616   3.085   2.990   3.791
 5239SOL    HW216617   3.115   3.067   3.650
 5240SOL     OW16618   3.273   2.044   5.137
 5240SOL    HW116619   3.237   1.962   5.091
 5240SOL    HW216620   3.228   2.125   5.100
 5241SOL     OW16621   1.254   6.411   6.236
 5241SOL    HW116622   1.321   6.338   6.251
 5241SOL    HW216623   1.208   6.432   6.323
 5242SOL     OW16624   6.011   1.209   6.148
 5242SOL    HW116625   6.011   1.302   6.186
 5242SOL    HW216626   6.103   1.185   6.120
 5243SOL     OW16627   1.165   5.121   0.817
 5243SOL    HW116628   1.125   5.199   0.768
 5243SOL    HW216629   1.195   5.052   0.751
 5244SOL     OW16630   4.453   4.401   5.789
 5244SOL    HW116631   4.387   4.332   5.818
 5244SOL    HW216632   4.436   4.427   5.694
 5245SOL     OW16633   4.587   3.817   6.571
 5245SOL    HW116634   4.570   3.896   6.513
 5245SOL    HW216635   4.529   3.822   6.653
 5246SOL     OW16636   1.032   3.495   2.501
 5246SOL    HW116637   0.970   3.530   2.572
 5246SOL    HW216638   1.106   3.561   2.486
 5247SOL     OW16639   6.838   5.124   0.717
 5247SOL    HW116640   6.805   5.107   0.624
 5247SOL    HW216641   6.812   5.216   0.745
 5248SOL     OW16642   5.558   0.879   6.133
 5248SOL    HW116643   5.634   0.936   6.163
 5248SOL    HW216644   5.531   0.906   6.041
 5249SOL     OW16645   0.843   4.760   5.335
 5249SOL    HW116646   0.811   4.765   5.240
 5249SOL    HW216647   0.766   4.780   5.397
 5250SOL     OW16648   0.288   1.721   5.731
 5250SOL    HW116649   0.385   1.728   5.705
 5250SOL    HW216650   0.245   1.810   5.721
 5251SOL     OW16651   6.197   3.371   1.453
 5251SOL    HW116652   6.124   3.310   1.424
 5251SOL    HW216653   6.268   3.319   1.500
 5252SOL     OW16654   3.639   6.358   0.230
 5252SOL    HW116655   3.682   6.376   0.319
 5252SOL    HW216656   3.595   6.441   0.197
 5253SOL     OW16657   5.641   3.729   4.270
 5253SOL    HW116658   5.541   3.727   4.269
 5253SOL    HW216659   5.672   3.824   4.269
 5254SOL     OW16660   4.252   0.960   4.128
 5254SOL    HW116661   4.289   0.900   4.198
 5254SOL    HW216662   4.196   1.031   4.170
 5255SOL     OW16663   3.067   6.468   5.147
 5255SOL    HW116664   3.138   6.396   5.148
 5255SOL    HW216665   3.102   6.547   5.097
 5256SOL     OW16666   5.037   0.769   3.384
 5256SOL    HW116667   5.064   0.755   3.289
 5256SOL    HW216668   5.036   0.867   3.404
 5257SOL     OW16669   3.969   0.109   0.152
 5257SOL    HW116670   3.918   0.164   0.219
 5257SOL    HW216671   3.904   0.052   0.101
 5258SOL     OW16672   4.725   4.311   2.444
 5258SOL    HW116673   4.749   4.241   2.376
 5258SOL    HW216674   4.677   4.386   2.399
 5259SOL     OW16675   4.210   5.998   2.912
 5259SOL    HW116676   4.288   5.986   2.851
 5259SOL    HW216677   4.163   5.910   2.924
 5260SOL     OW16678   5.717   3.320   1.284
 5260SOL    HW116679   5.631   3.282   1.318
 5260SOL    HW216680   5.705   3.353   1.191
 5261SOL     OW16681   0.369   2.287   4.709
 5261SOL    HW116682   0.376   2.328   4.799
 5261SOL    HW216683   0.361   2.359   4.640
 5262SOL     OW16684   2.691   6.705   2.294
 5262SOL    HW116685   2.674   6.803   2.283
 5262SOL    HW216686   2.622   6.666   2.355
 5263SOL     OW16687   1.558   6.822   6.603
 5263SOL    HW116688   1.584   6.919   6.600
 5263SOL    HW216689   1.638   6.767   6.626
 5264SOL     OW16690   6.962   1.648   1.449
 5264SOL    HW116691   0.033   1.697   1.451
 5264SOL    HW216692   6.971   1.563   1.501
 5265SOL     OW16693   5.394   4.904   2.084
 5265SOL    HW116694   5.367   4.810   2.103
 5265SOL    HW216695   5.466   4.932   2.148
 5266SOL     OW16696   1.406   6.607   1.742
 5266SOL    HW116697   1.409   6.634   1.838
 5266SOL    HW216698   1.401   6.688   1.684
 5267SOL     OW16699   4.897   5.087   5.039
 5267SOL    HW116700   4.937   5.167   4.994
 5267SOL    HW216701   4.949   5.067   5.122
 5268SOL     OW16702   6.694   5.399   5.502
 5268SOL    HW116703   6.746   5.485   5.495
 5268SOL    HW216704   6.721   5.350   5.585
 5269SOL     OW16705   1.808   5.322   4.336
 5269SOL    HW116706   1.905   5.341   4.353
 5269SOL    HW216707   1.800   5.258   4.260
 5270SOL     OW16708   6.003   2.815   2.128
 5270SOL    HW116709   5.977   2.888   2.191
 5270SOL    HW216710   5.945   2.735   2.145
 5271SOL     OW16711   5.128   4.744   4.688
 5271SOL    HW116712   5.152   4.653   4.654
 5271SOL    HW216713   5.192   4.772   4.759
 5272SOL     OW16714   6.977   6.499   4.394
 5272SOL    HW116715   0.015   6.443   4.457
 5272SOL    HW216716   7.001   6.475   4.299
 5273SOL     OW16717   0.499   1.587   3.967
 5273SOL    HW116718   0.488   1.538   4.053
 5273SOL    HW216719   0.421   1.568   3.907
 5274SOL     OW16720   6.862   4.555   3.995
 5274SOL    HW116721   6.952   4.596   3.982
 5274SOL    HW216722   6.858   4.469   3.944
 5275SOL     OW16723   2.568   0.366   6.463
 5275SOL    HW116724   2.534   0.431   6.395
 5275SOL    HW216725   2.501   0.356   6.536
 5276SOL     OW16726   6.942   6.780   1.553
 5276SOL    HW116727   6.981   6.737   1.472
 5276SOL    HW216728   6.970   6.876   1.557
 5277SOL     OW16729   1.450   1.723   3.298
 5277SOL    HW116730   1.358   1.756   3.277
 5277SOL    HW216731   1.459   1.712   3.397
 5278SOL     OW16732   0.450   5.891   5.965
 5278SOL    HW116733   0.436   5.879   5.867
 5278SOL    HW216734   0.545   5.914   5.983
 5279SOL     OW16735   1.656   5.493   5.981
 5279SOL    HW116736   1.579   5.555   5.967
 5279SOL    HW216737   1.741   5.541   5.961
 5280SOL     OW16738   3.575   6.282   4.797
 5280SOL    HW116739   3.649   6.230   4.756
 5280SOL    HW216740   3.487   6.238   4.776
 5281SOL     OW16741   1.341   0.960   4.213
 5281SOL    HW116742   1.300   1.006   4.292
 5281SOL    HW216743   1.299   0.994   4.129
 5282SOL     OW16744   1.522   0.234   2.601
 5282SOL    HW116745   1.610   0.232   2.553
 5282SOL    HW216746   1.452   0.192   2.543
 5283SOL     OW16747   0.077   0.780   3.893
 5283SOL    HW116748   0.152   0.817   3.947
 5283SOL    HW216749   0.026   0.713   3.947
 5284SOL     OW16750   5.594   2.018   2.158
 5284SOL    HW116751   5.546   2.070   2.087
 5284SOL    HW216752   5.527   1.969   2.214
 5285SOL     OW16753   0.611   2.939   3.463
 5285SOL    HW116754   0.627   2.842   3.480
 5285SOL    HW216755   0.637   2.961   3.369
 5286SOL     OW16756   6.425   2.775   0.990
 5286SOL    HW116757   6.510   2.827   0.982
 5286SOL    HW216758   6.386   2.788   1.082
 5287SOL     OW16759   3.621   5.368   1.443
 5287SOL    HW116760   3.563   5.419   1.506
 5287SOL    HW216761   3.603   5.397   1.350
 5288SOL     OW16762   5.246   0.244   1.880
 5288SOL    HW116763   5.236   0.237   1.781
 5288SOL    HW216764   5.280   0.335   1.903
 5289SOL     OW16765   1.690   5.280   6.713
 5289SOL    HW116766   1.755   5.354   6.697
 5289SOL    HW216767   1.738   5.192   6.711
 5290SOL     OW16768   1.860   3.720   5.771
 5290SOL    HW116769   1.876   3.759   5.680
 5290SOL    HW216770   1.772   3.754   5.806
 5291SOL     OW16771   2.870   3.892   5.419
 5291SOL    HW116772   2.776   3.870   5.394
 5291SOL    HW216773   2.870   3.940   5.507
 5292SOL     OW16774   6.788   4.236   6.560
 5292SOL    HW116775   6.775   4.283   6.473
 5292SOL    HW216776   6.741   4.286   6.632
 5293SOL     OW16777   2.319   5.483   4.597
 5293SOL    HW116778   2.368   5.426   4.532
 5293SOL    HW216779   2.370   5.568   4.612
 5294SOL     OW16780   4.209   0.558   5.056
 5294SOL    HW116781   4.273   0.482   5.046
 5294SOL    HW216782   4.193   0.576   5.153
 5295SOL     OW16783   3.225   0.711   3.043
 5295SOL    HW116784   3.285   0.762   3.104
 5295SOL    HW216785   3.152   0.669   3.097
 5296SOL     OW16786   3.727   4.437   0.833
 5296SOL    HW116787   3.736   4.536   0.820
 5296SOL    HW216788   3.817   4.394   0.824
 5297SOL     OW16789   2.562   3.878   0.232
 5297SOL    HW116790   2.645   3.829   0.205
 5297SOL    HW216791   2.575   3.976   0.219
 5298SOL     OW16792   2.553   6.832   0.094
 5298SOL    HW116793   2.457   6.856   0.085
 5298SOL    HW216794   2.600   6.852   0.008
 5299SOL     OW16795   3.071   1.845   0.646
 5299SOL    HW116796   3.139   1.819   0.577
 5299SOL    HW216797   3.074   1.780   0.722
 5300SOL     OW16798   1.348   4.595   0.300
 5300SOL    HW116799   1.404   4.527   0.253
 5300SOL    HW216800   1.303   4.552   0.379
 5301SOL     OW16801   4.578   0.522   6.604
 5301SOL    HW116802   4.562   0.522   6.702
 5301SOL    HW216803   4.669   0.486   6.584
 5302SOL     OW16804   4.485   6.127   3.278
 5302SOL    HW116805   4.583   6.119   3.260
 5302SOL    HW216806   4.451   6.213   3.241
 5303SOL     OW16807   6.804   5.163   6.294
 5303SOL    HW116808   6.850   5.096   6.353
 5303SOL    HW216809   6.716   5.126   6.263
 5304SOL     OW16810   5.938   1.384   1.006
 5304SOL    HW116811   5.993   1.419   1.082
 5304SOL    HW216812   5.997   1.334   0.942
 5305SOL     OW16813   1.467   5.443   2.755
 5305SOL    HW116814   1.408   5.366   2.730
 5305SOL    HW216815   1.494   5.434   2.851
 5306SOL     OW16816   6.899   4.172   6.235
 5306SOL    HW116817   6.892   4.160   6.136
 5306SOL    HW216818   6.973   4.115   6.270
 5307SOL     OW16819   4.684   2.416   0.386
 5307SOL    HW116820   4.701   2.319   0.373
 5307SOL    HW216821   4.666   2.459   0.297
 5308SOL     OW16822   1.498   4.726   2.854
 5308SOL    HW116823   1.589   4.749   2.889
 5308SOL    HW216824   1.506   4.686   2.763
 5309SOL     OW16825   3.734   5.713   2.733
 5309SOL    HW116826   3.720   5.615   2.717
 5309SOL    HW216827   3.702   5.764   2.653
 5310SOL     OW16828   5.880   3.370   2.822
 5310SOL    HW116829   5.784   3.398   2.825
 5310SOL    HW216830   5.914   3.376   2.728
 5311SOL     OW16831   5.845   0.049   0.114
 5311SOL    HW116832   5.749   0.028   0.098
 5311SOL    HW216833   5.892   0.061   0.026
 5312SOL     OW16834   0.441   6.179   1.534
 5312SOL    HW116835   0.455   6.203   1.438
 5312SOL    HW216836   0.357   6.222   1.567
 5313SOL     OW16837   6.780   4.947   5.189
 5313SOL    HW116838   6.708   5.006   5.226
 5313SOL    HW216839   6.862   4.956   5.246
 5314SOL     OW16840   5.695   6.586   0.969
 5314SOL    HW116841   5.729   6.673   1.002
 5314SOL    HW216842   5.645   6.599   0.883
 5315SOL     OW16843   4.522   2.091   3.574
 5315SOL    HW116844   4.511   2.048   3.664
 5315SOL    HW216845   4.559   2.024   3.510
 5316SOL     OW16846   0.934   3.521   5.051
 5316SOL    HW116847   0.971   3.431   5.027
 5316SOL    HW216848   0.902   3.566   4.968
 5317SOL     OW16849   6.839   1.607   5.837
 5317SOL    HW116850   6.845   1.695   5.790
 5317SOL    HW216851   6.864   1.533   5.774
 5318SOL     OW16852   0.104   3.074   0.303
 5318SOL    HW116853   0.167   3.002   0.331
 5318SOL    HW216854   0.022   3.070   0.360
 5319SOL     OW16855   4.486   6.582   0.557
 5319SOL    HW116856   4.390   6.575   0.530
 5319SOL    HW216857   4.536   6.501   0.526
 5320SOL     OW16858   4.121   5.528   1.344
 5320SOL    HW116859   4.033   5.574   1.345
 5320SOL    HW216860   4.121   5.457   1.273
 5321SOL     OW16861   1.828   4.312   4.998
 5321SOL    HW116862   1.832   4.266   4.909
 5321SOL    HW216863   1.833   4.411   4.984
 5322SOL     OW16864   5.576   6.996   1.236
 5322SOL    HW116865   5.491   6.946   1.222
 5322SOL    HW216866   5.562   0.077   1.217
 5323SOL     OW16867   4.396   1.635   6.004
 5323SOL    HW116868   4.313   1.586   5.979
 5323SOL    HW216869   4.473   1.601   5.950
 5324SOL     OW16870   2.644   2.367   6.706
 5324SOL    HW116871   2.676   2.276   6.732
 5324SOL    HW216872   2.631   2.422   6.788
 5325SOL     OW16873   2.675   1.791   5.183
 5325SOL    HW116874   2.645   1.711   5.131
 5325SOL    HW216875   2.724   1.854   5.122
 5326SOL     OW16876   6.406   5.951   3.343
 5326SOL    HW116877   6.347   5.988   3.415
 5326SOL    HW216878   6.370   5.977   3.253
 5327SOL     OW16879   5.482   2.202   4.699
 5327SOL    HW116880   5.412   2.226   4.767
 5327SOL    HW216881   5.502   2.104   4.705
 5328SOL     OW16882   4.195   3.763   5.844
 5328SOL    HW116883   4.126   3.753   5.772
 5328SOL    HW216884   4.239   3.674   5.860
 5329SOL     OW16885   1.364   5.581   6.182
 5329SOL    HW116886   1.353   5.487   6.150
 5329SOL    HW216887   1.383   5.641   6.104
 5330SOL     OW16888   3.728   3.922   0.516
 5330SOL    HW116889   3.794   3.847   0.517
 5330SOL    HW216890   3.639   3.888   0.486
 5331SOL     OW16891   6.289   2.083   6.938
 5331SOL    HW116892   6.226   2.156   6.913
 5331SOL    HW216893   6.354   2.068   6.864
 5332SOL     OW16894   1.508   4.265   1.792
 5332SOL    HW116895   1.444   4.341   1.780
 5332SOL    HW216896   1.459   4.186   1.829
 5333SOL     OW16897   1.058   0.957   2.940
 5333SOL    HW116898   1.102   0.998   2.859
 5333SOL    HW216899   1.037   1.029   3.006
 5334SOL     OW16900   3.151   0.508   5.212
 5334SOL    HW116901   3.146   0.607   5.229
 5334SOL    HW216902   3.058   0.472   5.201
 5335SOL     OW16903   6.410   5.979   0.785
 5335SOL    HW116904   6.381   6.074   0.788
 5335SOL    HW216905   6.354   5.925   0.848
 5336SOL     OW16906   1.574   3.288   2.099
 5336SOL    HW116907   1.618   3.251   2.181
 5336SOL    HW216908   1.534   3.213   2.046
 5337SOL     OW16909   4.688   3.908   1.567
 5337SOL    HW116910   4.776   3.900   1.521
 5337SOL    HW216911   4.694   3.980   1.636
 5338SOL     OW16912   6.105   1.912   6.591
 5338SOL    HW116913   6.111   1.873   6.499
 5338SOL    HW216914   6.081   1.839   6.656
 5339SOL     OW16915   6.403   2.122   3.900
 5339SOL    HW116916   6.433   2.056   3.969
 5339SOL    HW216917   6.451   2.106   3.814
 5340SOL     OW16918   5.732   3.006   6.841
 5340SOL    HW116919   5.795   3.061   6.895
 5340SOL    HW216920   5.716   3.051   6.753
 5341SOL     OW16921   3.751   2.426   5.855
 5341SOL    HW116922   3.655   2.406   5.876
 5341SOL    HW216923   3.799   2.450   5.939
 5342SOL     OW16924   3.673   0.426   5.379
 5342SOL    HW116925   3.690   0.506   5.321
 5342SOL    HW216926   3.585   0.385   5.355
 5343SOL     OW16927   3.780   3.718   3.168
 5343SOL    HW116928   3.767   3.805   3.120
 5343SOL    HW216929   3.829   3.654   3.108
 5344SOL     OW16930   1.754   2.702   2.411
 5344SOL    HW116931   1.723   2.785   2.364
 5344SOL    HW216932   1.854   2.705   2.422
 5345SOL     OW16933   4.561   6.089   0.703
 5345SOL    HW116934   4.583   6.173   0.752
 5345SOL    HW216935   4.642   6.056   0.655
 5346SOL     OW16936   3.198   6.045   3.870
 5346SOL    HW116937   3.145   5.960   3.876
 5346SOL    HW216938   3.138   6.122   3.889
 5347SOL     OW16939   6.870   2.122   2.460
 5347SOL    HW116940   6.771   2.133   2.449
 5347SOL    HW216941   6.917   2.172   2.387
 5348SOL     OW16942   1.053   1.475   0.521
 5348SOL    HW116943   1.120   1.442   0.454
 5348SOL    HW216944   1.076   1.569   0.547
 5349SOL     OW16945   0.621   2.307   0.180
 5349SOL    HW116946   0.621   2.352   0.269
 5349SOL    HW216947   0.545   2.242   0.176
 5350SOL     OW16948   2.495   0.569   6.306
 5350SOL    HW116949   2.511   0.648   6.366
 5350SOL    HW216950   2.498   0.598   6.210
 5351SOL     OW16951   4.876   6.092   1.356
 5351SOL    HW116952   4.956   6.149   1.339
 5351SOL    HW216953   4.815   6.138   1.421
 5352SOL     OW16954   2.364   6.384   4.066
 5352SOL    HW116955   2.369   6.344   3.974
 5352SOL    HW216956   2.399   6.318   4.132
 5353SOL     OW16957   4.413   6.314   4.486
 5353SOL    HW116958   4.329   6.366   4.499
 5353SOL    HW216959   4.404   6.224   4.530
 5354SOL     OW16960   2.499   4.662   2.565
 5354SOL    HW116961   2.495   4.707   2.475
 5354SOL    HW216962   2.425   4.696   2.622
 5355SOL     OW16963   4.714   2.160   4.053
 5355SOL    HW116964   4.664   2.155   4.139
 5355SOL    HW216965   4.698   2.250   4.011
 5356SOL     OW16966   6.077   3.814   1.674
 5356SOL    HW116967   6.141   3.802   1.750
 5356SOL    HW216968   5.988   3.776   1.700
 5357SOL     OW16969   3.419   1.120   0.904
 5357SOL    HW116970   3.323   1.141   0.888
 5357SOL    HW216971   3.426   1.040   0.963
 5358SOL     OW16972   4.086   2.115   0.531
 5358SOL    HW116973   4.107   2.127   0.628
 5358SOL    HW216974   4.061   2.020   0.513
 5359SOL     OW16975   2.239   1.621   1.158
 5359SOL    HW116976   2.181   1.540   1.151
 5359SOL    HW216977   2.295   1.629   1.076
 5360SOL     OW16978   4.016   6.781   5.390
 5360SOL    HW116979   4.071   6.864   5.390
 5360SOL    HW216980   4.054   6.716   5.324
 5361SOL     OW16981   2.351   1.163   4.469
 5361SOL    HW116982   2.381   1.242   4.522
 5361SOL    HW216983   2.411   1.085   4.487
 5362SOL     OW16984   5.063   4.455   3.047
 5362SOL    HW116985   5.070   4.555   3.051
 5362SOL    HW216986   5.153   4.414   3.063
 5363SOL     OW16987   0.948   6.200   5.552
 5363SOL    HW116988   0.922   6.284   5.599
 5363SOL    HW216989   0.964   6.219   5.455
 5364SOL     OW16990   6.226   5.276   0.804
 5364SOL    HW116991   6.323   5.257   0.794
 5364SOL    HW216992   6.211   5.375   0.803
 5365SOL     OW16993   4.595   2.816   6.286
 5365SOL    HW116994   4.496   2.808   6.270
 5365SOL    HW216995   4.644   2.798   6.200
 5366SOL     OW16996   4.660   4.820   0.538
 5366SOL    HW116997   4.649   4.804   0.440
 5366SOL    HW216998   4.585   4.777   0.587
 5367SOL     OW16999   0.661   5.090   0.254
 5367SOL    HW117000   0.684   5.156   0.326
 5367SOL    HW217001   0.682   4.998   0.285
 5368SOL     OW17002   5.444   1.798   2.807
 5368SOL    HW117003   5.423   1.894   2.789
 5368SOL    HW217004   5.371   1.740   2.771
 5369SOL     OW17005   2.273   5.332   3.339
 5369SOL    HW117006   2.253   5.304   3.245
 5369SOL    HW217007   2.240   5.426   3.354
 5370SOL     OW17008   4.355   3.042   1.613
 5370SOL    HW117009   4.452   3.069   1.607
 5370SOL    HW217010   4.309   3.065   1.527
 5371SOL     OW17011   1.786   4.248   4.422
 5371SOL    HW117012   1.716   4.271   4.354
 5371SOL    HW217013   1.766   4.295   4.508
 5372SOL     OW17014   3.151   5.777   1.997
 5372SOL    HW117015   3.117   5.755   2.089
 5372SOL    HW217016   3.209   5.858   2.001
 5373SOL     OW17017   2.921   5.039   4.306
 5373SOL    HW117018   2.905   4.983   4.387
 5373SOL    HW217019   2.861   5.007   4.232
 5374SOL     OW17020   1.311   3.241   6.581
 5374SOL    HW117021   1.303   3.264   6.678
 5374SOL    HW217022   1.380   3.170   6.569
 5375SOL     OW17023   1.044   4.523   5.421
 5375SOL    HW117024   0.948   4.545   5.407
 5375SOL    HW217025   1.089   4.511   5.333
 5376SOL     OW17026   1.488   3.360   1.430
 5376SOL    HW117027   1.441   3.300   1.365
 5376SOL    HW217028   1.494   3.316   1.519
 5377SOL     OW17029   6.524   0.074   1.660
 5377SOL    HW117030   6.561   0.150   1.714
 5377SOL    HW217031   6.589   7.014   1.660
 5378SOL     OW17032   6.216   0.756   0.959
 5378SOL    HW117033   6.220   0.815   0.878
 5378SOL    HW217034   6.141   0.785   1.018
 5379SOL     OW17035   0.080   5.087   3.922
 5379SOL    HW117036   0.069   5.076   3.823
 5379SOL    HW217037   0.142   5.017   3.956
 5380SOL     OW17038   2.105   0.873   3.464
 5380SOL    HW117039   2.076   0.923   3.382
 5380SOL    HW217040   2.117   0.937   3.540
 5381SOL     OW17041   6.715   3.923   0.901
 5381SOL    HW117042   6.768   3.939   0.818
 5381SOL    HW217043   6.642   3.991   0.908
 5382SOL     OW17044   3.009   0.201   1.716
 5382SOL    HW117045   3.060   0.207   1.802
 5382SOL    HW217046   3.072   0.215   1.640
 5383SOL     OW17047   2.844   2.289   5.434
 5383SOL    HW117048   2.793   2.288   5.520
 5383SOL    HW217049   2.864   2.196   5.406
 5384SOL     OW17050   6.355   6.714   4.031
 5384SOL    HW117051   6.412   6.725   3.949
 5384SOL    HW217052   6.413   6.712   4.112
 5385SOL     OW17053   3.053   3.964   2.823
 5385SOL    HW117054   3.105   3.886   2.787
 5385SOL    HW217055   3.035   3.949   2.920
 5386SOL     OW17056   4.931   6.520   4.074
 5386SOL    HW117057   4.973   6.499   3.986
 5386SOL    HW217058   4.998   6.511   4.147
 5387SOL     OW17059   2.624   5.764   2.608
 5387SOL    HW117060   2.620   5.666   2.593
 5387SOL    HW217061   2.683   5.806   2.538
 5388SOL     OW17062   5.069   6.621   2.487
 5388SOL    HW117063   5.031   6.532   2.462
 5388SOL    HW217064   5.019   6.693   2.439
 5389SOL     OW17065   4.907   1.077   1.219
 5389SOL    HW117066   4.879   1.171   1.196
 5389SOL    HW217067   4.835   1.014   1.193
 5390SOL     OW17068   5.131   5.506   4.081
 5390SOL    HW117069   5.048   5.451   4.074
 5390SOL    HW217070   5.146   5.533   4.176
 5391SOL     OW17071   2.589   2.952   0.662
 5391SOL    HW117072   2.666   2.890   0.646
 5391SOL    HW217073   2.513   2.928   0.602
 5392SOL     OW17074   6.409   3.348   1.112
 5392SOL    HW117075   6.394   3.440   1.076
 5392SOL    HW217076   6.321   3.304   1.131
 5393SOL     OW17077   6.801   6.796   0.114
 5393SOL    HW117078   6.761   6.810   0.205
 5393SOL    HW217079   6.742   6.734   0.062
 5394SOL     OW17080   0.397   3.821   6.358
 5394SOL    HW117081   0.439   3.736   6.325
 5394SOL    HW217082   0.461   3.867   6.419
 5395SOL     OW17083   4.860   0.722   1.198
 5395SOL    HW117084   4.941   0.682   1.242
 5395SOL    HW217085   4.814   0.654   1.142
 5396SOL     OW17086   5.234   3.569   2.438
 5396SOL    HW117087   5.280   3.657   2.451
 5396SOL    HW217088   5.258   3.507   2.513
 5397SOL     OW17089   6.789   2.932   2.154
 5397SOL    HW117090   6.747   3.000   2.094
 5397SOL    HW217091   6.880   2.908   2.119
 5398SOL     OW17092   3.415   2.673   1.638
 5398SOL    HW117093   3.336   2.612   1.647
 5398SOL    HW217094   3.494   2.632   1.684
 5399SOL     OW17095   2.537   6.553   0.854
 5399SOL    HW117096   2.547   6.500   0.938
 5399SOL    HW217097   2.594   6.512   0.782
 5400SOL     OW17098   2.686   4.173   0.877
 5400SOL    HW117099   2.652   4.087   0.841
 5400SOL    HW217100   2.690   4.169   0.977
 5401SOL     OW17101   5.672   3.221   2.275
 5401SOL    HW117102   5.661   3.316   2.248
 5401SOL    HW217103   5.743   3.179   2.218
 5402SOL     OW17104   2.593   5.660   1.815
 5402SOL    HW117105   2.662   5.727   1.842
 5402SOL    HW217106   2.546   5.692   1.733
 5403SOL     OW17107   6.788   3.368   6.581
 5403SOL    HW117108   6.763   3.456   6.541
 5403SOL    HW217109   6.706   3.312   6.592
 5404SOL     OW17110   1.083   2.899   3.763
 5404SOL    HW117111   0.990   2.925   3.788
 5404SOL    HW217112   1.081   2.816   3.707
 5405SOL     OW17113   6.796   5.587   0.021
 5405SOL    HW117114   6.740   5.517   0.065
 5405SOL    HW217115   6.873   5.610   0.081
 5406SOL     OW17116   2.304   1.946   0.062
 5406SOL    HW117117   2.209   1.966   0.037
 5406SOL    HW217118   2.353   2.033   0.074
 5407SOL     OW17119   4.451   3.222   0.173
 5407SOL    HW117120   4.430   3.181   0.262
 5407SOL    HW217121   4.509   3.302   0.185
 5408SOL     OW17122   2.207   1.022   5.715
 5408SOL    HW117123   2.277   0.968   5.668
 5408SOL    HW217124   2.177   1.097   5.656
 5409SOL     OW17125   5.327   0.292   3.125
 5409SOL    HW117126   5.367   0.353   3.194
 5409SOL    HW217127   5.307   0.203   3.166
 5410SOL     OW17128   2.506   2.311   1.652
 5410SOL    HW117129   2.462   2.369   1.584
 5410SOL    HW217130   2.580   2.361   1.696
 5411SOL     OW17131   6.592   5.058   6.148
 5411SOL    HW117132   6.519   5.055   6.216
 5411SOL    HW217133   6.573   5.131   6.082
 5412SOL     OW17134   4.985   2.669   0.610
 5412SOL    HW117135   4.990   2.698   0.514
 5412SOL    HW217136   5.066   2.701   0.658
 5413SOL     OW17137   2.976   1.517   1.750
 5413SOL    HW117138   3.042   1.592   1.742
 5413SOL    HW217139   2.883   1.554   1.738
 5414SOL     OW17140   5.341   1.833   4.652
 5414SOL    HW117141   5.364   1.773   4.576
 5414SOL    HW217142   5.419   1.891   4.675
 5415SOL     OW17143   0.411   5.798   1.360
 5415SOL    HW117144   0.385   5.708   1.397
 5415SOL    HW217145   0.427   5.790   1.262
 5416SOL     OW17146   4.494   5.065   5.333
 5416SOL    HW117147   4.585   5.049   5.372
 5416SOL    HW217148   4.439   4.982   5.340
 5417SOL     OW17149   3.743   6.735   5.504
 5417SOL    HW117150   3.834   6.732   5.463
 5417SOL    HW217151   3.675   6.705   5.437
 5418SOL     OW17152   3.136   0.431   2.858
 5418SOL    HW117153   3.151   0.415   2.955
 5418SOL    HW217154   3.038   0.431   2.838
 5419SOL     OW17155   3.652   4.937   0.306
 5419SOL    HW117156   3.670   5.030   0.338
 5419SOL    HW217157   3.590   4.891   0.370
 5420SOL     OW17158   2.165   3.075   3.015
 5420SOL    HW117159   2.160   3.034   3.106
 5420SOL    HW217160   2.169   3.174   3.022
 5421SOL     OW17161   1.626   3.725   1.285
 5421SOL    HW117162   1.657   3.654   1.349
 5421SOL    HW217163   1.527   3.731   1.289
 5422SOL     OW17164   0.709   4.969   0.650
 5422SOL    HW117165   0.682   5.038   0.717
 5422SOL    HW217166   0.700   4.878   0.690
 5423SOL     OW17167   6.522   3.247   6.974
 5423SOL    HW117168   6.468   3.307   0.017
 5423SOL    HW217169   6.533   3.158   0.003
 5424SOL     OW17170   4.963   3.460   4.331
 5424SOL    HW117171   4.931   3.426   4.243
 5424SOL    HW217172   4.972   3.384   4.395
 5425SOL     OW17173   4.134   1.060   4.901
 5425SOL    HW117174   4.189   1.032   4.979
 5425SOL    HW217175   4.125   1.159   4.900
 5426SOL     OW17176   5.670   6.253   4.151
 5426SOL    HW117177   5.747   6.197   4.120
 5426SOL    HW217178   5.649   6.231   4.246
 5427SOL     OW17179   4.481   6.303   6.675
 5427SOL    HW117180   4.513   6.228   6.734
 5427SOL    HW217181   4.410   6.355   6.723
 5428SOL     OW17182   0.778   0.264   0.850
 5428SOL    HW117183   0.791   0.245   0.752
 5428SOL    HW217184   0.717   0.343   0.861
 5429SOL     OW17185   1.616   1.534   6.906
 5429SOL    HW117186   1.635   1.447   6.859
 5429SOL    HW217187   1.654   1.609   6.853
 5430SOL     OW17188   0.226   2.130   5.957
 5430SOL    HW117189   0.210   2.059   5.888
 5430SOL    HW217190   0.139   2.174   5.980
 5431SOL     OW17191   3.665   6.568   6.509
 5431SOL    HW117192   3.666   6.668   6.502
 5431SOL    HW217193   3.756   6.536   6.534
 5432SOL     OW17194   5.450   0.111   6.862
 5432SOL    HW117195   5.420   0.059   6.781
 5432SOL    HW217196   5.488   0.048   6.929
 5433SOL     OW17197   0.473   2.048   4.623
 5433SOL    HW117198   0.497   2.065   4.527
 5433SOL    HW217199   0.424   2.128   4.659
 5434SOL     OW17200   2.863   0.418   5.425
 5434SOL    HW117201   2.914   0.484   5.480
 5434SOL    HW217202   2.868   0.444   5.328
 5435SOL     OW17203   4.883   0.199   1.919
 5435SOL    HW117204   4.851   0.141   1.844
 5435SOL    HW217205   4.979   0.222   1.905
 5436SOL     OW17206   4.921   4.194   3.686
 5436SOL    HW117207   4.983   4.198   3.764
 5436SOL    HW217208   4.953   4.254   3.613
 5437SOL     OW17209   2.845   4.518   0.300
 5437SOL    HW117210   2.864   4.584   0.372
 5437SOL    HW217211   2.747   4.517   0.280
 5438SOL     OW17212   6.845   2.499   1.742
 5438SOL    HW117213   6.927   2.500   1.683
 5438SOL    HW217214   6.854   2.570   1.812
 5439SOL     OW17215   1.329   1.723   1.523
 5439SOL    HW117216   1.396   1.650   1.505
 5439SOL    HW217217   1.378   1.809   1.541
 5440SOL     OW17218   1.384   1.251   1.145
 5440SOL    HW117219   1.391   1.322   1.076
 5440SOL    HW217220   1.454   1.264   1.215
 5441SOL     OW17221   4.071   1.586   4.065
 5441SOL    HW117222   4.127   1.564   3.985
 5441SOL    HW217223   4.101   1.674   4.104
 5442SOL     OW17224   4.267   6.770   2.701
 5442SOL    HW117225   4.289   6.680   2.739
 5442SOL    HW217226   4.167   6.781   2.699
 5443SOL     OW17227   3.058   0.035   4.915
 5443SOL    HW117228   3.132   0.001   4.857
 5443SOL    HW217229   3.008   6.973   4.953
 5444SOL     OW17230   0.942   0.653   4.180
 5444SOL    HW117231   0.890   0.576   4.143
 5444SOL    HW217232   0.931   0.733   4.122
 5445SOL     OW17233   6.508   4.072   3.366
 5445SOL    HW117234   6.468   4.022   3.443
 5445SOL    HW217235   6.598   4.108   3.392
 5446SOL     OW17236   6.385   5.585   4.684
 5446SOL    HW117237   6.349   5.659   4.628
 5446SOL    HW217238   6.311   5.546   4.740
 5447SOL     OW17239   3.164   2.301   0.029
 5447SOL    HW117240   3.195   2.359   6.970
 5447SOL    HW217241   3.064   2.296   0.029
 5448SOL     OW17242   4.314   2.682   5.295
 5448SOL    HW117243   4.229   2.646   5.258
 5448SOL    HW217244   4.304   2.780   5.312
 5449SOL     OW17245   1.634   2.512   5.960
 5449SOL    HW117246   1.711   2.481   6.015
 5449SOL    HW217247   1.667   2.572   5.887
 5450SOL     OW17248   2.550   0.668   1.934
 5450SOL    HW117249   2.589   0.606   1.865
 5450SOL    HW217250   2.517   0.751   1.889
 5451SOL     OW17251   1.864   6.106   3.244
 5451SOL    HW117252   1.929   6.172   3.207
 5451SOL    HW217253   1.785   6.100   3.183
 5452SOL     OW17254   2.194   4.562   6.957
 5452SOL    HW117255   2.264   4.519   7.013
 5452SOL    HW217256   2.114   4.503   6.952
 5453SOL     OW17257   6.600   4.039   0.489
 5453SOL    HW117258   6.642   4.088   0.565
 5453SOL    HW217259   6.667   3.978   0.448
 5454SOL     OW17260   0.164   4.367   6.768
 5454SOL    HW117261   0.194   4.386   6.861
 5454SOL    HW217262   0.070   4.397   6.756
 5455SOL     OW17263   6.522   3.101   0.951
 5455SOL    HW117264   6.483   3.168   0.887
 5455SOL    HW217265   6.490   3.122   1.044
 5456SOL     OW17266   3.330   0.613   6.285
 5456SOL    HW117267   3.324   0.513   6.281
 5456SOL    HW217268   3.424   0.641   6.267
 5457SOL     OW17269   5.388   2.357   1.074
 5457SOL    HW117270   5.477   2.352   1.120
 5457SOL    HW217271   5.349   2.265   1.068
 5458SOL     OW17272   1.285   4.767   6.782
 5458SOL    HW117273   1.385   4.773   6.784
 5458SOL    HW217274   1.252   4.722   6.864
 5459SOL     OW17275   1.829   5.444   0.326
 5459SOL    HW117276   1.863   5.392   0.404
 5459SOL    HW217277   1.811   5.381   0.250
 5460SOL     OW17278   3.217   6.940   1.994
 5460SOL    HW117279   3.176   6.849   1.986
 5460SOL    HW217280   3.173   7.002   1.929
 5461SOL     OW17281   5.481   6.356   5.577
 5461SOL    HW117282   5.552   6.288   5.559
 5461SOL    HW217283   5.450   6.395   5.490
 5462SOL     OW17284   1.715   0.693   1.198
 5462SOL    HW117285   1.721   0.610   1.253
 5462SOL    HW217286   1.793   0.752   1.217
 5463SOL     OW17287   6.353   2.264   0.420
 5463SOL    HW117288   6.380   2.209   0.341
 5463SOL    HW217289   6.295   2.339   0.391
 5464SOL     OW17290   1.560   0.967   3.961
 5464SOL    HW117291   1.502   0.960   4.043
 5464SOL    HW217292   1.535   0.896   3.896
 5465SOL     OW17293   3.999   6.916   3.283
 5465SOL    HW117294   4.045   6.926   3.371
 5465SOL    HW217295   3.922   6.852   3.293
 5466SOL     OW17296   5.472   4.954   4.744
 5466SOL    HW117297   5.566   4.980   4.766
 5466SOL    HW217298   5.465   4.854   4.740
 5467SOL     OW17299   5.238   2.208   2.624
 5467SOL    HW117300   5.160   2.264   2.651
 5467SOL    HW217301   5.207   2.115   2.605
 5468SOL     OW17302   4.991   1.682   4.463
 5468SOL    HW117303   4.957   1.688   4.556
 5468SOL    HW217304   4.935   1.738   4.402
 5469SOL     OW17305   3.733   4.491   6.181
 5469SOL    HW117306   3.754   4.582   6.217
 5469SOL    HW217307   3.817   4.447   6.151
 5470SOL     OW17308   1.823   5.096   3.704
 5470SOL    HW117309   1.840   5.080   3.607
 5470SOL    HW217310   1.754   5.169   3.713
 5471SOL     OW17311   5.629   6.438   1.195
 5471SOL    HW117312   5.669   6.462   1.106
 5471SOL    HW217313   5.532   6.465   1.196
 5472SOL     OW17314   4.993   3.819   5.801
 5472SOL    HW117315   4.995   3.780   5.709
 5472SOL    HW217316   4.943   3.906   5.799
 5473SOL     OW17317   0.736   3.511   3.156
 5473SOL    HW117318   0.832   3.482   3.152
 5473SOL    HW217319   0.720   3.582   3.087
 5474SOL     OW17320   1.939   5.014   4.676
 5474SOL    HW117321   2.002   5.004   4.599
 5474SOL    HW217322   1.991   5.021   4.761
 5475SOL     OW17323   3.899   2.662   1.201
 5475SOL    HW117324   3.819   2.718   1.181
 5475SOL    HW217325   3.956   2.708   1.268
 5476SOL     OW17326   2.141   3.519   6.009
 5476SOL    HW117327   2.232   3.482   5.990
 5476SOL    HW217328   2.121   3.594   5.946
 5477SOL     OW17329   1.890   3.436   3.191
 5477SOL    HW117330   1.841   3.446   3.105
 5477SOL    HW217331   1.897   3.524   3.237
 5478SOL     OW17332   5.620   5.849   6.360
 5478SOL    HW117333   5.690   5.920   6.357
 5478SOL    HW217334   5.619   5.799   6.274
 5479SOL     OW17335   4.601   0.670   5.234
 5479SOL    HW117336   4.604   0.759   5.279
 5479SOL    HW217337   4.686   0.620   5.253
 5480SOL     OW17338   0.748   4.170   4.459
 5480SOL    HW117339   0.744   4.160   4.558
 5480SOL    HW217340   0.780   4.084   4.418
 5481SOL     OW17341   2.855   0.079   4.748
 5481SOL    HW117342   2.878   0.122   4.661
 5481SOL    HW217343   2.937   0.076   4.806
 5482SOL     OW17344   3.785   4.452   1.704
 5482SOL    HW117345   3.751   4.532   1.753
 5482SOL    HW217346   3.727   4.434   1.624
 5483SOL     OW17347   0.709   2.634   5.455
 5483SOL    HW117348   0.798   2.587   5.457
 5483SOL    HW217349   0.678   2.644   5.361
 5484SOL     OW17350   4.451   0.337   4.816
 5484SOL    HW117351   4.446   0.237   4.817
 5484SOL    HW217352   4.463   0.370   4.910
 5485SOL     OW17353   2.935   6.623   5.332
 5485SOL    HW117354   2.836   6.613   5.322
 5485SOL    HW217355   2.980   6.576   5.256
 5486SOL     OW17356   2.882   5.843   5.253
 5486SOL    HW117357   2.953   5.798   5.308
 5486SOL    HW217358   2.896   5.942   5.256
 5487SOL     OW17359   2.979   4.392   5.940
 5487SOL    HW117360   2.946   4.465   5.879
 5487SOL    HW217361   2.910   4.320   5.946
 5488SOL     OW17362   6.182   1.223   0.317
 5488SOL    HW117363   6.164   1.307   0.368
 5488SOL    HW217364   6.241   1.243   0.239
 5489SOL     OW17365   6.679   3.174   2.027
 5489SOL    HW117366   6.688   3.226   2.112
 5489SOL    HW217367   6.583   3.152   2.012
 5490SOL     OW17368   1.178   6.725   2.210
 5490SOL    HW117369   1.084   6.705   2.184
 5490SOL    HW217370   1.178   6.781   2.294
 5491SOL     OW17371   6.708   3.117   0.634
 5491SOL    HW117372   6.739   3.156   0.720
 5491SOL    HW217373   6.708   3.188   0.563
 5492SOL     OW17374   0.755   2.320   5.412
 5492SOL    HW117375   0.703   2.330   5.497
 5492SOL    HW217376   0.825   2.250   5.424
 5493SOL     OW17377   4.196   3.603   1.759
 5493SOL    HW117378   4.173   3.629   1.853
 5493SOL    HW217379   4.196   3.503   1.752
 5494SOL     OW17380   5.941   4.431   5.127
 5494SOL    HW117381   5.971   4.353   5.073
 5494SOL    HW217382   6.006   4.448   5.201
 5495SOL     OW17383   6.101   0.540   0.419
 5495SOL    HW117384   6.092   0.487   0.503
 5495SOL    HW217385   6.114   0.478   0.341
 5496SOL     OW17386   4.488   0.485   4.177
 5496SOL    HW117387   4.576   0.529   4.155
 5496SOL    HW217388   4.440   0.464   4.092
 5497SOL     OW17389   0.773   0.912   5.841
 5497SOL    HW117390   0.679   0.877   5.838
 5497SOL    HW217391   0.771   1.011   5.855
 5498SOL     OW17392   0.391   4.614   1.819
 5498SOL    HW117393   0.353   4.699   1.854
 5498SOL    HW217394   0.334   4.581   1.743
 5499SOL     OW17395   0.250   0.507   4.769
 5499SOL    HW117396   0.283   0.494   4.676
 5499SOL    HW217397   0.285   0.593   4.806
 5500SOL     OW17398   1.800   0.546   0.372
 5500SOL    HW117399   1.721   0.504   0.418
 5500SOL    HW217400   1.868   0.476   0.352
 5501SOL     OW17401   4.013   1.845   0.193
 5501SOL    HW117402   3.915   1.850   0.172
 5501SOL    HW217403   4.055   1.773   0.138
 5502SOL     OW17404   5.171   2.990   6.741
 5502SOL    HW117405   5.161   3.089   6.749
 5502SOL    HW217406   5.182   2.950   6.832
 5503SOL     OW17407   0.816   3.704   0.302
 5503SOL    HW117408   0.831   3.679   0.206
 5503SOL    HW217409   0.718   3.710   0.320
 5504SOL     OW17410   3.784   1.018   6.935
 5504SOL    HW117411   3.784   0.954   7.012
 5504SOL    HW217412   3.819   0.972   6.854
 5505SOL     OW17413   2.164   4.496   4.134
 5505SOL    HW117414   2.073   4.459   4.155
 5505SOL    HW217415   2.162   4.540   4.044
 5506SOL     OW17416   0.349   3.687   6.016
 5506SOL    HW117417   0.357   3.714   5.920
 5506SOL    HW217418   0.323   3.591   6.022
 5507SOL     OW17419   3.149   0.274   6.212
 5507SOL    HW117420   3.078   0.249   6.146
 5507SOL    HW217421   3.129   0.232   6.301
 5508SOL     OW17422   0.712   0.926   6.821
 5508SOL    HW117423   0.687   1.000   6.759
 5508SOL    HW217424   0.632   0.869   6.839
 5509SOL     OW17425   0.052   5.362   1.011
 5509SOL    HW117426   0.138   5.344   1.058
 5509SOL    HW217427   0.061   5.445   0.955
 5510SOL     OW17428   4.084   5.295   6.850
 5510SOL    HW117429   4.138   5.291   6.766
 5510SOL    HW217430   4.051   5.203   6.872
 5511SOL     OW17431   0.724   1.506   5.700
 5511SOL    HW117432   0.694   1.424   5.748
 5511SOL    HW217433   0.751   1.483   5.607
 5512SOL     OW17434   3.914   0.854   2.008
 5512SOL    HW117435   3.842   0.923   2.021
 5512SOL    HW217436   3.874   0.769   1.974
 5513SOL     OW17437   4.254   4.626   6.819
 5513SOL    HW117438   4.304   4.565   6.759
 5513SOL    HW217439   4.296   4.717   6.817
 5514SOL     OW17440   3.005   6.877   5.618
 5514SOL    HW117441   2.937   6.915   5.555
 5514SOL    HW217442   3.011   6.778   5.605
 5515SOL     OW17443   2.340   5.782   2.172
 5515SOL    HW117444   2.432   5.821   2.167
 5515SOL    HW217445   2.329   5.713   2.101
 5516SOL     OW17446   2.513   2.739   5.233
 5516SOL    HW117447   2.457   2.660   5.211
 5516SOL    HW217448   2.470   2.822   5.197
 5517SOL     OW17449   1.852   4.089   2.961
 5517SOL    HW117450   1.773   4.144   2.934
 5517SOL    HW217451   1.825   3.993   2.966
 5518SOL     OW17452   4.862   4.371   5.256
 5518SOL    HW117453   4.880   4.457   5.303
 5518SOL    HW217454   4.926   4.301   5.288
 5519SOL     OW17455   4.508   2.456   3.894
 5519SOL    HW117456   4.607   2.448   3.880
 5519SOL    HW217457   4.462   2.379   3.850
 5520SOL     OW17458   5.663   6.509   1.952
 5520SOL    HW117459   5.651   6.543   1.859
 5520SOL    HW217460   5.586   6.538   2.009
 5521SOL     OW17461   5.490   5.429   1.607
 5521SOL    HW117462   5.466   5.339   1.644
 5521SOL    HW217463   5.556   5.417   1.532
 5522SOL     OW17464   5.744   5.360   0.822
 5522SOL    HW117465   5.744   5.342   0.724
 5522SOL    HW217466   5.824   5.317   0.864
 5523SOL     OW17467   5.881   1.536   2.295
 5523SOL    HW117468   5.807   1.478   2.261
 5523SOL    HW217469   5.949   1.550   2.223
 5524SOL     OW17470   3.042   0.497   4.874
 5524SOL    HW117471   3.026   0.420   4.935
 5524SOL    HW217472   3.127   0.543   4.900
 5525SOL     OW17473   6.219   2.575   1.450
 5525SOL    HW117474   6.281   2.589   1.527
 5525SOL    HW217475   6.136   2.629   1.465
 5526SOL     OW17476   4.639   4.767   3.365
 5526SOL    HW117477   4.629   4.777   3.266
 5526SOL    HW217478   4.722   4.813   3.395
 5527SOL     OW17479   5.291   2.341   4.211
 5527SOL    HW117480   5.332   2.303   4.294
 5527SOL    HW217481   5.276   2.268   4.144
 5528SOL     OW17482   1.053   1.758   1.415
 5528SOL    HW117483   1.055   1.751   1.315
 5528SOL    HW217484   1.145   1.742   1.452
 5529SOL     OW17485   3.646   0.676   2.410
 5529SOL    HW117486   3.619   0.604   2.473
 5529SOL    HW217487   3.610   0.764   2.442
 5530SOL     OW17488   6.627   2.453   1.569
 5530SOL    HW117489   6.547   2.506   1.595
 5530SOL    HW217490   6.703   2.474   1.630
 5531SOL     OW17491   3.530   4.040   1.181
 5531SOL    HW117492   3.494   3.948   1.162
 5531SOL    HW217493   3.543   4.089   1.094
 5532SOL     OW17494   1.619   3.114   1.083
 5532SOL    HW117495   1.581   3.133   0.993
 5532SOL    HW217496   1.659   3.023   1.085
 5533SOL     OW17497   4.247   1.426   4.407
 5533SOL    HW117498   4.153   1.445   4.377
 5533SOL    HW217499   4.271   1.487   4.482
 5534SOL     OW17500   1.075   1.533   5.623
 5534SOL    HW117501   1.030   1.443   5.629
 5534SOL    HW217502   1.006   1.605   5.628
 5535SOL     OW17503   0.913   2.201   3.315
 5535SOL    HW117504   0.880   2.206   3.409
 5535SOL    HW217505   0.886   2.114   3.274
 5536SOL     OW17506   3.058   0.342   4.610
 5536SOL    HW117507   3.096   0.375   4.697
 5536SOL    HW217508   3.105   0.386   4.534
 5537SOL     OW17509   2.921   0.910   2.846
 5537SOL    HW117510   2.833   0.900   2.798
 5537SOL    HW217511   2.989   0.851   2.802
 5538SOL     OW17512   4.866   6.004   4.703
 5538SOL    HW117513   4.812   5.950   4.768
 5538SOL    HW217514   4.805   6.064   4.651
 5539SOL     OW17515   2.640   2.518   1.144
 5539SOL    HW117516   2.619   2.612   1.169
 5539SOL    HW217517   2.604   2.499   1.053
 5540SOL     OW17518   4.859   4.413   2.870
 5540SOL    HW117519   4.934   4.421   2.936
 5540SOL    HW217520   4.798   4.339   2.899
 5541SOL     OW17521   4.701   1.192   5.564
 5541SOL    HW117522   4.730   1.287   5.558
 5541SOL    HW217523   4.622   1.177   5.505
 5542SOL     OW17524   4.298   4.328   6.131
 5542SOL    HW117525   4.353   4.396   6.082
 5542SOL    HW217526   4.280   4.250   6.071
 5543SOL     OW17527   6.384   2.718   6.159
 5543SOL    HW117528   6.427   2.809   6.155
 5543SOL    HW217529   6.299   2.719   6.107
 5544SOL     OW17530   6.281   0.501   5.875
 5544SOL    HW117531   6.249   0.455   5.793
 5544SOL    HW217532   6.208   0.502   5.944
 5545SOL     OW17533   3.053   2.153   2.274
 5545SOL    HW117534   3.091   2.105   2.194
 5545SOL    HW217535   3.044   2.250   2.253
 5546SOL     OW17536   1.815   4.880   5.908
 5546SOL    HW117537   1.800   4.968   5.954
 5546SOL    HW217538   1.896   4.837   5.947
 5547SOL     OW17539   3.724   5.543   4.985
 5547SOL    HW117540   3.745   5.464   5.043
 5547SOL    HW217541   3.661   5.515   4.913
 5548SOL     OW17542   6.239   3.222   4.938
 5548SOL    HW117543   6.196   3.302   4.980
 5548SOL    HW217544   6.248   3.236   4.839
 5549SOL     OW17545   2.582   4.923   6.980
 5549SOL    HW117546   2.601   4.987   0.038
 5549SOL    HW217547   2.484   4.925   6.958
 5550SOL     OW17548   4.156   6.514   1.116
 5550SOL    HW117549   4.096   6.511   1.195
 5550SOL    HW217550   4.126   6.586   1.053
 5551SOL     OW17551   0.748   1.929   2.945
 5551SOL    HW117552   0.844   1.928   2.972
 5551SOL    HW217553   0.727   2.015   2.899
 5552SOL     OW17554   0.332   2.729   1.708
 5552SOL    HW117555   0.416   2.776   1.679
 5552SOL    HW217556   0.279   2.703   1.627
 5553SOL     OW17557   5.310   5.706   0.904
 5553SOL    HW117558   5.250   5.762   0.846
 5553SOL    HW217559   5.266   5.619   0.923
 5554SOL     OW17560   2.789   2.185   4.717
 5554SOL    HW117561   2.759   2.161   4.625
 5554SOL    HW217562   2.883   2.221   4.713
 5555SOL     OW17563   0.050   6.071   2.860
 5555SOL    HW117564   0.010   6.083   2.770
 5555SOL    HW217565   0.019   5.984   2.899
 5556SOL     OW17566   0.295   1.733   5.310
 5556SOL    HW117567   0.307   1.635   5.296
 5556SOL    HW217568   0.236   1.770   5.238
 5557SOL     OW17569   2.410   0.533   4.023
 5557SOL    HW117570   2.313   0.538   3.999
 5557SOL    HW217571   2.436   0.437   4.037
 5558SOL     OW17572   5.123   3.176   5.105
 5558SOL    HW117573   5.089   3.133   5.188
 5558SOL    HW217574   5.087   3.269   5.098
 5559SOL     OW17575   1.986   0.655   1.461
 5559SOL    HW117576   1.961   0.564   1.429
 5559SOL    HW217577   2.053   0.648   1.535
 5560SOL     OW17578   0.119   1.139   4.042
 5560SOL    HW117579   0.204   1.085   4.044
 5560SOL    HW217580   0.049   1.094   4.096
 5561SOL     OW17581   1.586   2.848   3.341
 5561SOL    HW117582   1.509   2.881   3.286
 5561SOL    HW217583   1.577   2.750   3.356
 5562SOL     OW17584   2.423   2.563   5.799
 5562SOL    HW117585   2.488   2.572   5.875
 5562SOL    HW217586   2.330   2.567   5.834
 5563SOL     OW17587   4.474   5.681   1.843
 5563SOL    HW117588   4.482   5.631   1.757
 5563SOL    HW217589   4.385   5.664   1.884
 5564SOL     OW17590   5.674   4.129   1.898
 5564SOL    HW117591   5.643   4.149   1.805
 5564SOL    HW217592   5.720   4.040   1.899
 5565SOL     OW17593   3.459   3.584   5.345
 5565SOL    HW117594   3.513   3.508   5.380
 5565SOL    HW217595   3.509   3.670   5.359
 5566SOL     OW17596   1.525   4.621   1.279
 5566SOL    HW117597   1.553   4.549   1.342
 5566SOL    HW217598   1.569   4.606   1.190
 5567SOL     OW17599   1.357   5.546   1.753
 5567SOL    HW117600   1.343   5.580   1.846
 5567SOL    HW217601   1.428   5.475   1.753
 5568SOL     OW17602   3.236   2.453   1.643
 5568SOL    HW117603   3.213   2.411   1.555
 5568SOL    HW217604   3.256   2.382   1.710
 5569SOL     OW17605   5.240   1.785   0.082
 5569SOL    HW117606   5.326   1.777   0.132
 5569SOL    HW217607   5.230   1.878   0.047
 5570SOL     OW17608   0.002   4.509   5.974
 5570SOL    HW117609   0.030   4.514   5.878
 5570SOL    HW217610   6.970   4.423   5.990
 5571SOL     OW17611   6.869   4.778   5.797
 5571SOL    HW117612   6.879   4.803   5.701
 5571SOL    HW217613   6.958   4.754   5.835
 5572SOL     OW17614   5.237   2.164   5.840
 5572SOL    HW117615   5.303   2.238   5.855
 5572SOL    HW217616   5.260   2.115   5.756
 5573SOL     OW17617   1.357   3.838   0.229
 5573SOL    HW117618   1.340   3.750   0.273
 5573SOL    HW217619   1.360   3.910   0.299
 5574SOL     OW17620   0.652   5.842   4.854
 5574SOL    HW117621   0.559   5.809   4.836
 5574SOL    HW217622   0.701   5.774   4.910
 5575SOL     OW17623   1.776   1.032   1.010
 5575SOL    HW117624   1.817   1.006   0.923
 5575SOL    HW217625   1.680   1.058   0.996
 5576SOL     OW17626   5.852   5.843   0.173
 5576SOL    HW117627   5.759   5.828   0.140
 5576SOL    HW217628   5.916   5.843   0.096
 5577SOL     OW17629   2.026   3.689   5.384
 5577SOL    HW117630   2.028   3.625   5.307
 5577SOL    HW217631   2.091   3.763   5.368
 5578SOL     OW17632   3.868   2.766   6.492
 5578SOL    HW117633   3.927   2.847   6.487
 5578SOL    HW217634   3.822   2.754   6.404
 5579SOL     OW17635   4.810   4.483   0.043
 5579SOL    HW117636   4.823   4.411   6.991
 5579SOL    HW217637   4.873   4.559   0.024
 5580SOL     OW17638   5.825   1.321   0.449
 5580SOL    HW117639   5.907   1.369   0.480
 5580SOL    HW217640   5.836   1.223   0.465
 5581SOL     OW17641   2.636   2.144   6.862
 5581SOL    HW117642   2.614   2.174   6.955
 5581SOL    HW217643   2.707   2.074   6.866
 5582SOL     OW17644   4.090   3.538   3.351
 5582SOL    HW117645   4.094   3.592   3.435
 5582SOL    HW217646   4.000   3.495   3.344
 5583SOL     OW17647   4.080   0.005   1.064
 5583SOL    HW117648   4.137   0.001   1.146
 5583SOL    HW217649   4.094   0.092   1.018
 5584SOL     OW17650   6.575   3.006   3.669
 5584SOL    HW117651   6.588   2.913   3.633
 5584SOL    HW217652   6.508   3.055   3.613
 5585SOL     OW17653   6.162   6.867   3.910
 5585SOL    HW117654   6.215   6.949   3.888
 5585SOL    HW217655   6.217   6.806   3.967
 5586SOL     OW17656   2.037   1.167   6.381
 5586SOL    HW117657   2.042   1.083   6.435
 5586SOL    HW217658   1.975   1.152   6.304
 5587SOL     OW17659   3.636   7.009   4.432
 5587SOL    HW117660   3.696   6.959   4.370
 5587SOL    HW217661   3.566   0.042   4.379
 5588SOL     OW17662   4.145   0.511   6.669
 5588SOL    HW117663   4.071   0.525   6.603
 5588SOL    HW217664   4.211   0.445   6.632
 5589SOL     OW17665   4.110   3.414   6.866
 5589SOL    HW117666   4.064   3.367   6.791
 5589SOL    HW217667   4.126   3.349   6.941
 5590SOL     OW17668   0.450   6.443   3.114
 5590SOL    HW117669   0.458   6.350   3.078
 5590SOL    HW217670   0.536   6.492   3.097
 5591SOL     OW17671   4.809   1.157   0.120
 5591SOL    HW117672   4.887   1.219   0.104
 5591SOL    HW217673   4.766   1.135   0.033
 5592SOL     OW17674   2.019   2.645   2.313
 5592SOL    HW117675   2.054   2.715   2.375
 5592SOL    HW217676   2.090   2.575   2.298
 5593SOL     OW17677   1.567   3.281   5.357
 5593SOL    HW117678   1.636   3.230   5.306
 5593SOL    HW217679   1.497   3.315   5.293
 5594SOL     OW17680   2.820   0.670   0.065
 5594SOL    HW117681   2.753   0.678   0.139
 5594SOL    HW217682   2.774   0.681   6.992
 5595SOL     OW17683   0.101   1.625   5.552
 5595SOL    HW117684   0.167   1.676   5.606
 5595SOL    HW217685   0.149   1.559   5.495
 5596SOL     OW17686   5.165   1.577   3.013
 5596SOL    HW117687   5.136   1.658   3.064
 5596SOL    HW217688   5.087   1.539   2.964
 5597SOL     OW17689   7.000   1.083   6.146
 5597SOL    HW117690   6.921   1.050   6.197
 5597SOL    HW217691   6.995   1.182   6.137
 5598SOL     OW17692   6.861   2.274   4.023
 5598SOL    HW117693   6.772   2.292   4.064
 5598SOL    HW217694   6.852   2.267   3.924
 5599SOL     OW17695   4.990   2.569   3.303
 5599SOL    HW117696   4.890   2.570   3.315
 5599SOL    HW217697   5.031   2.514   3.375
 5600SOL     OW17698   2.762   1.330   2.009
 5600SOL    HW117699   2.710   1.279   1.940
 5600SOL    HW217700   2.701   1.396   2.054
 5601SOL     OW17701   6.050   3.074   5.295
 5601SOL    HW117702   6.053   3.002   5.226
 5601SOL    HW217703   6.142   3.109   5.312
 5602SOL     OW17704   6.516   2.386   3.102
 5602SOL    HW117705   6.578   2.309   3.117
 5602SOL    HW217706   6.546   2.438   3.022
 5603SOL     OW17707   4.222   1.377   5.245
 5603SOL    HW117708   4.257   1.311   5.178
 5603SOL    HW217709   4.262   1.467   5.227
 5604SOL     OW17710   1.120   0.537   4.325
 5604SOL    HW117711   1.042   0.580   4.280
 5604SOL    HW217712   1.199   0.600   4.322
 5605SOL     OW17713   3.817   6.406   4.271
 5605SOL    HW117714   3.877   6.367   4.201
 5605SOL    HW217715   3.785   6.496   4.241
 5606SOL     OW17716   4.736   2.804   0.612
 5606SOL    HW117717   4.697   2.716   0.585
 5606SOL    HW217718   4.830   2.792   0.643
 5607SOL     OW17719   6.029   2.639   2.404
 5607SOL    HW117720   6.063   2.635   2.498
 5607SOL    HW217721   6.021   2.547   2.367
 5608SOL     OW17722   4.820   0.345   3.137
 5608SOL    HW117723   4.846   0.432   3.096
 5608SOL    HW217724   4.781   0.285   3.066
 5609SOL     OW17725   0.446   0.300   0.706
 5609SOL    HW117726   0.502   0.371   0.749
 5609SOL    HW217727   0.505   0.222   0.683
 5610SOL     OW17728   5.594   4.641   0.764
 5610SOL    HW117729   5.635   4.599   0.844
 5610SOL    HW217730   5.599   4.741   0.772
 5611SOL     OW17731   6.323   4.855   1.633
 5611SOL    HW117732   6.223   4.852   1.633
 5611SOL    HW217733   6.358   4.766   1.662
 5612SOL     OW17734   3.235   1.501   0.539
 5612SOL    HW117735   3.258   1.417   0.588
 5612SOL    HW217736   3.187   1.479   0.454
 5613SOL     OW17737   5.665   4.949   5.971
 5613SOL    HW117738   5.727   4.871   5.962
 5613SOL    HW217739   5.612   4.960   5.887
 5614SOL     OW17740   5.339   3.244   4.063
 5614SOL    HW117741   5.296   3.334   4.075
 5614SOL    HW217742   5.283   3.174   4.108
 5615SOL     OW17743   0.267   2.483   3.190
 5615SOL    HW117744   0.272   2.385   3.207
 5615SOL    HW217745   0.267   2.499   3.091
 5616SOL     OW17746   1.581   3.213   2.375
 5616SOL    HW117747   1.508   3.275   2.403
 5616SOL    HW217748   1.544   3.121   2.362
 5617SOL     OW17749   2.330   4.909   5.927
 5617SOL    HW117750   2.376   4.863   5.851
 5617SOL    HW217751   2.245   4.861   5.949
 5618SOL     OW17752   6.014   5.968   2.822
 5618SOL    HW117753   6.079   5.897   2.849
 5618SOL    HW217754   6.062   6.056   2.814
 5619SOL     OW17755   3.916   3.104   3.734
 5619SOL    HW117756   3.887   3.019   3.779
 5619SOL    HW217757   3.940   3.172   3.802
 5620SOL     OW17758   5.423   4.350   4.799
 5620SOL    HW117759   5.428   4.397   4.711
 5620SOL    HW217760   5.481   4.397   4.865
 5621SOL     OW17761   1.335   2.143   5.475
 5621SOL    HW117762   1.326   2.174   5.570
 5621SOL    HW217763   1.395   2.064   5.471
 5622SOL     OW17764   4.722   6.065   3.978
 5622SOL    HW117765   4.695   5.987   3.922
 5622SOL    HW217766   4.647   6.131   3.980
 5623SOL     OW17767   4.714   5.466   3.744
 5623SOL    HW117768   4.672   5.502   3.661
 5623SOL    HW217769   4.766   5.539   3.789
 5624SOL     OW17770   5.930   5.203   3.097
 5624SOL    HW117771   6.023   5.189   3.064
 5624SOL    HW217772   5.926   5.285   3.154
 5625SOL     OW17773   1.292   6.168   5.159
 5625SOL    HW117774   1.310   6.263   5.134
 5625SOL    HW217775   1.338   6.147   5.245
 5626SOL     OW17776   0.984   4.398   6.638
 5626SOL    HW117777   0.992   4.396   6.538
 5626SOL    HW217778   0.953   4.489   6.666
 5627SOL     OW17779   0.603   6.037   0.248
 5627SOL    HW117780   0.684   6.055   0.192
 5627SOL    HW217781   0.522   6.034   0.190
 5628SOL     OW17782   2.507   2.487   1.390
 5628SOL    HW117783   2.561   2.526   1.465
 5628SOL    HW217784   2.560   2.487   1.306
 5629SOL     OW17785   5.773   3.566   2.601
 5629SOL    HW117786   5.826   3.650   2.606
 5629SOL    HW217787   5.835   3.488   2.597
 5630SOL     OW17788   1.262   3.820   6.550
 5630SOL    HW117789   1.350   3.779   6.524
 5630SOL    HW217790   1.216   3.760   6.616
 5631SOL     OW17791   3.723   1.776   2.148
 5631SOL    HW117792   3.681   1.846   2.089
 5631SOL    HW217793   3.666   1.763   2.229
 5632SOL     OW17794   5.440   0.008   5.718
 5632SOL    HW117795   5.353   0.054   5.705
 5632SOL    HW217796   5.513   0.061   5.676
 5633SOL     OW17797   0.579   4.942   5.702
 5633SOL    HW117798   0.610   4.862   5.754
 5633SOL    HW217799   0.502   4.985   5.750
 5634SOL     OW17800   2.275   0.018   1.230
 5634SOL    HW117801   2.255   0.065   1.144
 5634SOL    HW217802   2.352   0.063   1.276
 5635SOL     OW17803   2.610   0.464   0.408
 5635SOL    HW117804   2.514   0.464   0.382
 5635SOL    HW217805   2.619   0.432   0.503
 5636SOL     OW17806   5.398   1.498   5.433
 5636SOL    HW117807   5.400   1.539   5.524
 5636SOL    HW217808   5.348   1.411   5.437
 5637SOL     OW17809   4.866   6.784   4.185
 5637SOL    HW117810   4.901   6.698   4.148
 5637SOL    HW217811   4.823   6.836   4.111
 5638SOL     OW17812   5.959   5.221   0.903
 5638SOL    HW117813   6.048   5.213   0.859
 5638SOL    HW217814   5.969   5.200   1.001
 5639SOL     OW17815   1.999   0.226   1.517
 5639SOL    HW117816   1.987   0.298   1.448
 5639SOL    HW217817   2.020   0.140   1.472
 5640SOL     OW17818   2.731   6.189   2.806
 5640SOL    HW117819   2.781   6.103   2.791
 5640SOL    HW217820   2.795   6.261   2.831
 5641SOL     OW17821   0.626   4.519   4.022
 5641SOL    HW117822   0.689   4.525   4.100
 5641SOL    HW217823   0.620   4.609   3.978
 5642SOL     OW17824   1.921   4.874   7.011
 5642SOL    HW117825   2.006   4.822   7.014
 5642SOL    HW217826   1.849   4.824   0.043
 5643SOL     OW17827   4.291   2.284   5.247
 5643SOL    HW117828   4.250   2.350   5.185
 5643SOL    HW217829   4.320   2.203   5.196
 5644SOL     OW17830   4.347   1.257   5.025
 5644SOL    HW117831   4.328   1.291   4.933
 5644SOL    HW217832   4.437   1.214   5.027
 5645SOL     OW17833   6.315   5.813   4.156
 5645SOL    HW117834   6.302   5.903   4.198
 5645SOL    HW217835   6.255   5.747   4.199
 5646SOL     OW17836   0.445   5.801   4.359
 5646SOL    HW117837   0.491   5.712   4.364
 5646SOL    HW217838   0.512   5.874   4.373
 5647SOL     OW17839   5.560   5.204   6.026
 5647SOL    HW117840   5.602   5.268   6.091
 5647SOL    HW217841   5.614   5.121   6.022
 5648SOL     OW17842   2.101   1.615   5.066
 5648SOL    HW117843   2.188   1.658   5.091
 5648SOL    HW217844   2.027   1.681   5.077
 5649SOL     OW17845   0.899   0.639   5.386
 5649SOL    HW117846   0.903   0.683   5.475
 5649SOL    HW217847   0.897   0.709   5.314
 5650SOL     OW17848   6.036   5.182   6.729
 5650SOL    HW117849   6.116   5.211   6.781
 5650SOL    HW217850   5.998   5.099   6.770
 5651SOL     OW17851   6.832   0.750   2.903
 5651SOL    HW117852   6.792   0.659   2.908
 5651SOL    HW217853   6.875   0.773   2.990
 5652SOL     OW17854   4.636   4.809   0.273
 5652SOL    HW117855   4.620   4.764   0.185
 5652SOL    HW217856   4.613   4.906   0.265
 5653SOL     OW17857   1.345   5.981   6.050
 5653SOL    HW117858   1.254   5.951   6.020
 5653SOL    HW217859   1.388   5.909   6.103
 5654SOL     OW17860   0.119   5.822   5.591
 5654SOL    HW117861   0.207   5.817   5.544
 5654SOL    HW217862   0.117   5.757   5.666
 5655SOL     OW17863   6.759   3.358   3.741
 5655SOL    HW117864   6.660   3.365   3.736
 5655SOL    HW217865   6.797   3.448   3.763
 5656SOL     OW17866   3.690   4.550   0.394
 5656SOL    HW117867   3.708   4.505   0.307
 5656SOL    HW217868   3.681   4.482   0.467
 5657SOL     OW17869   3.917   6.645   1.951
 5657SOL    HW117870   4.001   6.647   2.004
 5657SOL    HW217871   3.897   6.737   1.917
 5658SOL     OW17872   4.414   0.291   5.619
 5658SOL    HW117873   4.362   0.212   5.584
 5658SOL    HW217874   4.491   0.259   5.673
 5659SOL     OW17875   3.710   3.828   2.645
 5659SOL    HW117876   3.785   3.831   2.579
 5659SOL    HW217877   3.688   3.920   2.676
 5660SOL     OW17878   5.605   6.267   0.437
 5660SOL    HW117879   5.694   6.220   0.433
 5660SOL    HW217880   5.619   6.365   0.426
 5661SOL     OW17881   6.194   5.607   4.339
 5661SOL    HW117882   6.101   5.638   4.320
 5661SOL    HW217883   6.199   5.508   4.331
 5662SOL     OW17884   2.511   4.542   4.550
 5662SOL    HW117885   2.609   4.553   4.567
 5662SOL    HW217886   2.463   4.530   4.637
 5663SOL     OW17887   1.737   4.334   7.006
 5663SOL    HW117888   1.687   4.292   6.931
 5663SOL    HW217889   1.675   4.353   0.067
 5664SOL     OW17890   0.668   4.446   2.774
 5664SOL    HW117891   0.574   4.453   2.806
 5664SOL    HW217892   0.707   4.359   2.805
 5665SOL     OW17893   2.224   2.430   5.988
 5665SOL    HW117894   2.167   2.501   5.946
 5665SOL    HW217895   2.259   2.464   6.076
 5666SOL     OW17896   5.305   5.340   0.666
 5666SOL    HW117897   5.382   5.330   0.729
 5666SOL    HW217898   5.294   5.437   0.643
 5667SOL     OW17899   0.244   5.333   3.471
 5667SOL    HW117900   0.317   5.343   3.538
 5667SOL    HW217901   0.185   5.256   3.496
 5668SOL     OW17902   6.082   2.253   5.974
 5668SOL    HW117903   6.017   2.235   5.900
 5668SOL    HW217904   6.101   2.168   6.023
 5669SOL     OW17905   0.254   4.344   6.507
 5669SOL    HW117906   0.251   4.262   6.450
 5669SOL    HW217907   0.226   4.322   6.600
 5670SOL     OW17908   0.697   4.044   3.935
 5670SOL    HW117909   0.623   4.022   3.999
 5670SOL    HW217910   0.752   3.962   3.919
 5671SOL     OW17911   1.742   0.931   5.962
 5671SOL    HW117912   1.770   0.892   5.874
 5671SOL    HW217913   1.774   0.872   6.036
 5672SOL     OW17914   4.611   5.218   5.692
 5672SOL    HW117915   4.670   5.138   5.682
 5672SOL    HW217916   4.585   5.229   5.789
 5673SOL     OW17917   0.305   0.701   2.398
 5673SOL    HW117918   0.256   0.615   2.382
 5673SOL    HW217919   0.290   0.763   2.320
 5674SOL     OW17920   6.961   3.239   1.630
 5674SOL    HW117921   0.030   3.266   1.676
 5674SOL    HW217922   6.977   3.229   1.532
 5675SOL     OW17923   4.055   2.528   5.691
 5675SOL    HW117924   4.059   2.456   5.760
 5675SOL    HW217925   4.078   2.489   5.602
 5676SOL     OW17926   2.045   0.527   1.948
 5676SOL    HW117927   2.067   0.430   1.956
 5676SOL    HW217928   2.121   0.581   1.982
 5677SOL     OW17929   6.518   0.833   3.843
 5677SOL    HW117930   6.524   0.922   3.800
 5677SOL    HW217931   6.572   0.767   3.792
 5678SOL     OW17932   2.562   6.407   2.982
 5678SOL    HW117933   2.630   6.340   2.950
 5678SOL    HW217934   2.477   6.394   2.931
 5679SOL     OW17935   1.927   6.244   4.879
 5679SOL    HW117936   2.025   6.237   4.900
 5679SOL    HW217937   1.889   6.153   4.867
 5680SOL     OW17938   2.202   6.355   6.418
 5680SOL    HW117939   2.109   6.334   6.447
 5680SOL    HW217940   2.255   6.271   6.410
 5681SOL     OW17941   1.468   2.689   6.954
 5681SOL    HW117942   1.457   2.613   0.003
 5681SOL    HW217943   1.556   2.735   6.972
 5682SOL     OW17944   1.282   3.562   4.923
 5682SOL    HW117945   1.338   3.570   4.841
 5682SOL    HW217946   1.203   3.504   4.904
 5683SOL     OW17947   3.495   2.091   5.884
 5683SOL    HW117948   3.404   2.073   5.920
 5683SOL    HW217949   3.517   2.188   5.896
 5684SOL     OW17950   3.295   4.097   4.104
 5684SOL    HW117951   3.359   4.024   4.082
 5684SOL    HW217952   3.288   4.160   4.026
 5685SOL     OW17953   0.158   5.175   2.218
 5685SOL    HW117954   0.151   5.083   2.255
 5685SOL    HW217955   0.154   5.242   2.293
 5686SOL     OW17956   3.030   6.768   0.207
 5686SOL    HW117957   3.020   6.741   0.112
 5686SOL    HW217958   2.963   6.838   0.230
 5687SOL     OW17959   5.241   4.979   5.544
 5687SOL    HW117960   5.277   4.954   5.454
 5687SOL    HW217961   5.300   5.049   5.585
 5688SOL     OW17962   5.867   1.814   1.141
 5688SOL    HW117963   5.950   1.782   1.186
 5688SOL    HW217964   5.880   1.813   1.042
 5689SOL     OW17965   3.552   2.420   0.886
 5689SOL    HW117966   3.624   2.469   0.838
 5689SOL    HW217967   3.577   2.324   0.894
 5690SOL     OW17968   4.658   6.297   0.861
 5690SOL    HW117969   4.739   6.238   0.855
 5690SOL    HW217970   4.646   6.327   0.955
 5691SOL     OW17971   1.160   0.342   1.860
 5691SOL    HW117972   1.163   0.414   1.791
 5691SOL    HW217973   1.251   0.329   1.900
 5692SOL     OW17974   6.415   2.491   6.919
 5692SOL    HW117975   6.372   2.404   6.891
 5692SOL    HW217976   6.455   2.480   7.010
 5693SOL     OW17977   5.051   2.762   2.956
 5693SOL    HW117978   5.131   2.791   2.903
 5693SOL    HW217979   5.001   2.842   2.988
 5694SOL     OW17980   6.928   1.880   3.864
 5694SOL    HW117981   0.005   1.919   3.859
 5694SOL    HW217982   6.931   1.784   3.836
 5695SOL     OW17983   1.819   3.305   3.557
 5695SOL    HW117984   1.750   3.263   3.498
 5695SOL    HW217985   1.902   3.320   3.505
 5696SOL     OW17986   2.640   0.419   5.040
 5696SOL    HW117987   2.585   0.378   5.113
 5696SOL    HW217988   2.582   0.480   4.986
 5697SOL     OW17989   6.584   2.877   0.556
 5697SOL    HW117990   6.530   2.866   0.639
 5697SOL    HW217991   6.635   2.963   0.560
 5698SOL     OW17992   0.843   3.641   1.641
 5698SOL    HW117993   0.901   3.602   1.713
 5698SOL    HW217994   0.844   3.741   1.648
 5699SOL     OW17995   6.223   0.838   5.106
 5699SOL    HW117996   6.151   0.852   5.038
 5699SOL    HW217997   6.186   0.792   5.186
 5700SOL     OW17998   1.605   5.449   4.048
 5700SOL    HW117999   1.524   5.476   4.099
 5700SOL    HW218000   1.664   5.528   4.034
 5701SOL     OW18001   6.284   5.459   1.382
 5701SOL    HW118002   6.274   5.444   1.283
 5701SOL    HW218003   6.359   5.524   1.398
 5702SOL     OW18004   2.234   0.460   6.328
 5702SOL    HW118005   2.324   0.499   6.308
 5702SOL    HW218006   2.242   0.361   6.338
 5703SOL     OW18007   4.508   4.658   0.738
 5703SOL    HW118008   4.534   4.689   0.829
 5703SOL    HW218009   4.523   4.559   0.731
 5704SOL     OW18010   3.977   5.382   3.452
 5704SOL    HW118011   4.045   5.311   3.470
 5704SOL    HW218012   4.002   5.431   3.369
 5705SOL     OW18013   5.897   1.000   1.614
 5705SOL    HW118014   5.857   0.989   1.523
 5705SOL    HW218015   5.905   1.097   1.635
 5706SOL     OW18016   1.116   1.180   6.579
 5706SOL    HW118017   1.061   1.131   6.646
 5706SOL    HW218018   1.152   1.264   6.620
 5707SOL     OW18019   2.430   2.192   0.087
 5707SOL    HW118020   2.468   2.196   0.180
 5707SOL    HW218021   2.389   2.279   0.063
 5708SOL     OW18022   5.038   6.926   2.029
 5708SOL    HW118023   4.949   6.968   2.009
 5708SOL    HW218024   5.035   6.829   2.008
 5709SOL     OW18025   1.117   0.367   2.702
 5709SOL    HW118026   1.169   0.452   2.712
 5709SOL    HW218027   1.115   0.318   2.789
 5710SOL     OW18028   2.906   3.380   6.213
 5710SOL    HW118029   2.889   3.454   6.277
 5710SOL    HW218030   2.932   3.418   6.124
 5711SOL     OW18031   4.298   0.944   4.413
 5711SOL    HW118032   4.348   0.858   4.409
 5711SOL    HW218033   4.283   0.970   4.509
 5712SOL     OW18034   0.213   5.996   6.268
 5712SOL    HW118035   0.255   6.030   6.352
 5712SOL    HW218036   0.247   6.048   6.190
 5713SOL     OW18037   6.873   2.737   2.429
 5713SOL    HW118038   6.913   2.810   2.483
 5713SOL    HW218039   6.795   2.772   2.377
 5714SOL     OW18040   1.599   0.777   6.266
 5714SOL    HW118041   1.556   0.705   6.318
 5714SOL    HW218042   1.530   0.828   6.215
 5715SOL     OW18043   1.373   6.590   2.618
 5715SOL    HW118044   1.399   6.500   2.652
 5715SOL    HW218045   1.290   6.581   2.562
 5716SOL     OW18046   2.354   3.819   5.914
 5716SOL    HW118047   2.411   3.867   5.846
 5716SOL    HW218048   2.272   3.783   5.869
 5717SOL     OW18049   1.633   4.126   0.248
 5717SOL    HW118050   1.560   4.081   0.299
 5717SOL    HW218051   1.653   4.074   0.164
 5718SOL     OW18052   2.927   4.304   6.416
 5718SOL    HW118053   2.958   4.359   6.493
 5718SOL    HW218054   2.978   4.219   6.413
 5719SOL     OW18055   3.430   0.879   6.602
 5719SOL    HW118056   3.394   0.820   6.674
 5719SOL    HW218057   3.518   0.844   6.570
 5720SOL     OW18058   1.221   4.752   4.985
 5720SOL    HW118059   1.271   4.807   5.053
 5720SOL    HW218060   1.212   4.804   4.900
 5721SOL     OW18061   0.659   4.225   1.366
 5721SOL    HW118062   0.665   4.152   1.434
 5721SOL    HW218063   0.655   4.185   1.275
 5722SOL     OW18064   5.331   6.622   4.259
 5722SOL    HW118065   5.263   6.554   4.232
 5722SOL    HW218066   5.292   6.683   4.328
 5723SOL     OW18067   2.987   5.306   0.581
 5723SOL    HW118068   2.933   5.229   0.547
 5723SOL    HW218069   3.042   5.277   0.659
 5724SOL     OW18070   5.236   1.496   6.454
 5724SOL    HW118071   5.148   1.503   6.406
 5724SOL    HW218072   5.233   1.551   6.538
 5725SOL     OW18073   5.279   5.474   5.856
 5725SOL    HW118074   5.305   5.508   5.765
 5725SOL    HW218075   5.317   5.383   5.869
 5726SOL     OW18076   5.522   3.535   5.865
 5726SOL    HW118077   5.571   3.545   5.778
 5726SOL    HW218078   5.588   3.535   5.940
 5727SOL     OW18079   5.759   2.142   3.714
 5727SOL    HW118080   5.831   2.125   3.782
 5727SOL    HW218081   5.673   2.104   3.747
 5728SOL     OW18082   6.154   0.597   5.577
 5728SOL    HW118083   6.231   0.534   5.585
 5728SOL    HW218084   6.069   0.544   5.571
 5729SOL     OW18085   0.621   2.071   6.644
 5729SOL    HW118086   0.682   2.119   6.581
 5729SOL    HW218087   0.631   1.972   6.631
 5730SOL     OW18088   4.353   4.830   5.856
 5730SOL    HW118089   4.275   4.771   5.879
 5730SOL    HW218090   4.336   4.922   5.892
 5731SOL     OW18091   2.914   1.058   4.142
 5731SOL    HW118092   2.901   0.983   4.207
 5731SOL    HW218093   2.993   1.038   4.083
 5732SOL     OW18094   5.967   5.364   5.256
 5732SOL    HW118095   5.908   5.427   5.206
 5732SOL    HW218096   6.059   5.366   5.217
 5733SOL     OW18097   3.367   1.179   0.013
 5733SOL    HW118098   3.407   1.259   6.984
 5733SOL    HW218099   3.393   1.179   0.109
 5734SOL     OW18100   1.949   6.273   5.895
 5734SOL    HW118101   1.996   6.313   5.974
 5734SOL    HW218102   2.015   6.220   5.841
 5735SOL     OW18103   4.004   0.509   2.323
 5735SOL    HW118104   3.952   0.564   2.389
 5735SOL    HW218105   4.070   0.452   2.373
 5736SOL     OW18106   4.647   4.257   6.420
 5736SOL    HW118107   4.720   4.323   6.406
 5736SOL    HW218108   4.558   4.303   6.413
 5737SOL     OW18109   4.522   5.318   1.077
 5737SOL    HW118110   4.438   5.284   1.119
 5737SOL    HW218111   4.549   5.403   1.122
 5738SOL     OW18112   3.124   1.111   6.299
 5738SOL    HW118113   3.148   1.151   6.211
 5738SOL    HW218114   3.040   1.153   6.333
 5739SOL     OW18115   2.357   0.284   5.701
 5739SOL    HW118116   2.386   0.189   5.715
 5739SOL    HW218117   2.262   0.285   5.667
 5740SOL     OW18118   5.369   3.702   2.230
 5740SOL    HW118119   5.437   3.729   2.297
 5740SOL    HW218120   5.309   3.632   2.270
 5741SOL     OW18121   0.415   3.748   4.162
 5741SOL    HW118122   0.428   3.649   4.158
 5741SOL    HW218123   0.331   3.769   4.212
 5742SOL     OW18124   4.877   0.580   3.004
 5742SOL    HW118125   4.962   0.609   3.047
 5742SOL    HW218126   4.800   0.626   3.047
 5743SOL     OW18127   3.573   4.139   5.464
 5743SOL    HW118128   3.628   4.205   5.413
 5743SOL    HW218129   3.521   4.082   5.399
 5744SOL     OW18130   5.742   6.660   2.377
 5744SOL    HW118131   5.686   6.740   2.357
 5744SOL    HW218132   5.699   6.579   2.336
 5745SOL     OW18133   1.981   2.531   3.435
 5745SOL    HW118134   2.026   2.442   3.424
 5745SOL    HW218135   2.020   2.578   3.514
 5746SOL     OW18136   4.470   0.530   3.196
 5746SOL    HW118137   4.496   0.609   3.251
 5746SOL    HW218138   4.472   0.448   3.252
 5747SOL     OW18139   0.880   6.238   1.666
 5747SOL    HW118140   0.870   6.233   1.566
 5747SOL    HW218141   0.791   6.227   1.710
 5748SOL     OW18142   0.412   5.988   0.483
 5748SOL    HW118143   0.454   6.007   0.573
 5748SOL    HW218144   0.466   6.033   0.412
 5749SOL     OW18145   1.858   6.076   5.218
 5749SOL    HW118146   1.869   6.020   5.136
 5749SOL    HW218147   1.947   6.110   5.248
 5750SOL     OW18148   6.627   4.551   4.090
 5750SOL    HW118149   6.567   4.631   4.091
 5750SOL    HW218150   6.720   4.580   4.069
 5751SOL     OW18151   2.146   3.788   4.195
 5751SOL    HW118152   2.202   3.808   4.114
 5751SOL    HW218153   2.138   3.689   4.205
 5752SOL     OW18154   5.244   0.755   1.035
 5752SOL    HW118155   5.264   0.723   1.128
 5752SOL    HW218156   5.221   0.852   1.037
 5753SOL     OW18157   3.343   4.003   4.543
 5753SOL    HW118158   3.397   3.923   4.566
 5753SOL    HW218159   3.324   4.056   4.625
 5754SOL     OW18160   0.949   6.026   1.264
 5754SOL    HW118161   1.040   6.025   1.222
 5754SOL    HW218162   0.893   5.954   1.223
 5755SOL     OW18163   1.905   2.254   0.075
 5755SOL    HW118164   1.814   2.214   0.085
 5755SOL    HW218165   1.901   2.332   0.013
 5756SOL     OW18166   5.777   5.903   1.568
 5756SOL    HW118167   5.794   5.983   1.627
 5756SOL    HW218168   5.705   5.847   1.609
 5757SOL     OW18169   6.908   0.255   3.571
 5757SOL    HW118170   6.892   0.353   3.568
 5757SOL    HW218171   6.868   0.212   3.490
 5758SOL     OW18172   1.016   6.981   2.957
 5758SOL    HW118173   1.022   0.065   2.962
 5758SOL    HW218174   0.924   6.956   2.925
 5759SOL     OW18175   3.873   6.656   1.253
 5759SOL    HW118176   3.931   6.693   1.181
 5759SOL    HW218177   3.828   6.730   1.303
 5760SOL     OW18178   0.197   3.014   1.661
 5760SOL    HW118179   0.221   2.936   1.719
 5760SOL    HW218180   0.177   3.094   1.718
 5761SOL     OW18181   5.428   5.397   5.127
 5761SOL    HW118182   5.444   5.315   5.072
 5761SOL    HW218183   5.506   5.459   5.118
 5762SOL     OW18184   5.394   4.525   0.084
 5762SOL    HW118185   5.385   4.552   7.004
 5762SOL    HW218186   5.398   4.607   0.141
 5763SOL     OW18187   5.466   0.322   0.253
 5763SOL    HW118188   5.444   0.411   0.294
 5763SOL    HW218189   5.559   0.296   0.278
 5764SOL     OW18190   4.225   5.773   3.602
 5764SOL    HW118191   4.220   5.848   3.669
 5764SOL    HW218192   4.156   5.704   3.623
 5765SOL     OW18193   5.819   4.668   1.575
 5765SOL    HW118194   5.772   4.724   1.506
 5765SOL    HW218195   5.792   4.698   1.667
 5766SOL     OW18196   0.559   1.696   4.421
 5766SOL    HW118197   0.511   1.766   4.369
 5766SOL    HW218198   0.525   1.696   4.515
 5767SOL     OW18199   2.207   0.105   0.955
 5767SOL    HW118200   2.245   0.037   0.892
 5767SOL    HW218201   2.230   0.197   0.922
 5768SOL     OW18202   6.760   6.167   4.488
 5768SOL    HW118203   6.704   6.198   4.565
 5768SOL    HW218204   6.809   6.245   4.449
 5769SOL     OW18205   1.307   4.901   6.245
 5769SOL    HW118206   1.320   4.825   6.181
 5769SOL    HW218207   1.386   4.962   6.241
 5770SOL     OW18208   1.659   5.668   1.289
 5770SOL    HW118209   1.671   5.733   1.364
 5770SOL    HW218210   1.562   5.644   1.282
 5771SOL     OW18211   2.457   5.232   3.972
 5771SOL    HW118212   2.485   5.140   3.944
 5771SOL    HW218213   2.484   5.248   4.067
 5772SOL     OW18214   4.328   0.541   2.307
 5772SOL    HW118215   4.272   0.494   2.375
 5772SOL    HW218216   4.314   0.499   2.217
 5773SOL     OW18217   4.431   2.272   2.254
 5773SOL    HW118218   4.473   2.354   2.217
 5773SOL    HW218219   4.371   2.231   2.184
 5774SOL     OW18220   0.476   6.332   3.394
 5774SOL    HW118221   0.460   6.360   3.299
 5774SOL    HW218222   0.417   6.256   3.417
 5775SOL     OW18223   0.575   5.469   2.696
 5775SOL    HW118224   0.575   5.546   2.760
 5775SOL    HW218225   0.507   5.401   2.726
 5776SOL     OW18226   1.862   0.531   3.139
 5776SOL    HW118227   1.890   0.459   3.077
 5776SOL    HW218228   1.777   0.505   3.185
 5777SOL     OW18229   1.852   0.248   3.365
 5777SOL    HW118230   1.900   0.325   3.323
 5777SOL    HW218231   1.755   0.251   3.339
 5778SOL     OW18232   0.919   1.620   6.633
 5778SOL    HW118233   0.956   1.572   6.712
 5778SOL    HW218234   0.944   1.571   6.549
 5779SOL     OW18235   5.196   2.068   6.092
 5779SOL    HW118236   5.216   1.974   6.118
 5779SOL    HW218237   5.229   2.086   5.999
 5780SOL     OW18238   5.022   4.722   3.566
 5780SOL    HW118239   5.059   4.764   3.649
 5780SOL    HW218240   4.940   4.669   3.590
 5781SOL     OW18241   0.540   3.948   5.101
 5781SOL    HW118242   0.547   4.030   5.159
 5781SOL    HW218243   0.628   3.902   5.098
 5782SOL     OW18244   0.554   1.087   0.815
 5782SOL    HW118245   0.560   1.099   0.914
 5782SOL    HW218246   0.586   1.170   0.769
 5783SOL     OW18247   2.102   2.272   2.265
 5783SOL    HW118248   2.008   2.266   2.231
 5783SOL    HW218249   2.149   2.348   2.221
 5784SOL     OW18250   0.714   6.359   6.621
 5784SOL    HW118251   0.614   6.358   6.613
 5784SOL    HW218252   0.745   6.453   6.633
 5785SOL     OW18253   2.240   1.333   1.178
 5785SOL    HW118254   2.194   1.273   1.245
 5785SOL    HW218255   2.271   1.278   1.100
 5786SOL     OW18256   0.294   3.899   0.463
 5786SOL    HW118257   0.222   3.831   0.474
 5786SOL    HW218258   0.346   3.906   0.549
 5787SOL     OW18259   2.558   1.639   5.538
 5787SOL    HW118260   2.479   1.635   5.476
 5787SOL    HW218261   2.544   1.711   5.605
 5788SOL     OW18262   2.590   0.621   3.147
 5788SOL    HW118263   2.594   0.595   3.050
 5788SOL    HW218264   2.543   0.708   3.157
 5789SOL     OW18265   4.055   4.996   6.591
 5789SOL    HW118266   4.000   4.920   6.556
 5789SOL    HW218267   4.152   4.980   6.570
 5790SOL     OW18268   0.655   3.098   3.979
 5790SOL    HW118269   0.714   3.032   3.934
 5790SOL    HW218270   0.608   3.055   4.056
 5791SOL     OW18271   2.539   0.310   3.042
 5791SOL    HW118272   2.634   0.332   3.061
 5791SOL    HW218273   2.507   0.363   2.963
 5792SOL     OW18274   6.803   1.897   3.250
 5792SOL    HW118275   6.792   1.799   3.233
 5792SOL    HW218276   6.838   1.910   3.343
 5793SOL     OW18277   6.199   1.052   3.855
 5793SOL    HW118278   6.195   0.955   3.878
 5793SOL    HW218279   6.158   1.106   3.929
 5794SOL     OW18280   3.858   3.033   0.325
 5794SOL    HW118281   3.932   3.097   0.344
 5794SOL    HW218282   3.834   3.038   0.228
 5795SOL     OW18283   5.393   4.558   5.901
 5795SOL    HW118284   5.309   4.504   5.903
 5795SOL    HW218285   5.429   4.561   5.808
 5796SOL     OW18286   3.080   1.500   0.307
 5796SOL    HW118287   3.127   1.415   0.284
 5796SOL    HW218288   2.995   1.506   0.254
 5797SOL     OW18289   3.333   2.086   4.521
 5797SOL    HW118290   3.280   2.072   4.605
 5797SOL    HW218291   3.428   2.106   4.545
 5798SOL     OW18292   0.203   4.507   4.800
 5798SOL    HW118293   0.165   4.471   4.715
 5798SOL    HW218294   0.204   4.606   4.797
 5799SOL     OW18295   5.154   6.908   3.022
 5799SOL    HW118296   5.096   6.977   3.065
 5799SOL    HW218297   5.156   6.922   2.923
 5800SOL     OW18298   5.590   4.503   1.271
 5800SOL    HW118299   5.503   4.456   1.288
 5800SOL    HW218300   5.573   4.591   1.228
 5801SOL     OW18301   0.440   1.292   3.586
 5801SOL    HW118302   0.496   1.305   3.504
 5801SOL    HW218303   0.409   1.197   3.590
 5802SOL     OW18304   0.535   3.995   6.543
 5802SOL    HW118305   0.454   3.959   6.588
 5802SOL    HW218306   0.592   4.042   6.610
 5803SOL     OW18307   1.083   4.398   0.979
 5803SOL    HW118308   1.039   4.488   0.975
 5803SOL    HW218309   1.108   4.369   0.887
 5804SOL     OW18310   6.522   3.937   4.499
 5804SOL    HW118311   6.432   3.915   4.463
 5804SOL    HW218312   6.523   3.923   4.598
 5805SOL     OW18313   4.212   3.828   6.110
 5805SOL    HW118314   4.169   3.832   6.020
 5805SOL    HW218315   4.143   3.811   6.180
 5806SOL     OW18316   0.893   6.955   0.415
 5806SOL    HW118317   0.860   6.880   0.471
 5806SOL    HW218318   0.817   7.015   0.391
 5807SOL     OW18319   1.827   3.706   0.469
 5807SOL    HW118320   1.865   3.792   0.505
 5807SOL    HW218321   1.809   3.644   0.545
 5808SOL     OW18322   5.338   4.050   2.390
 5808SOL    HW118323   5.263   3.997   2.352
 5808SOL    HW218324   5.354   4.024   2.485
 5809SOL     OW18325   6.702   3.065   4.726
 5809SOL    HW118326   6.605   3.075   4.704
 5809SOL    HW218327   6.723   3.117   4.809
 5810SOL     OW18328   3.140   1.601   3.574
 5810SOL    HW118329   3.117   1.504   3.567
 5810SOL    HW218330   3.162   1.637   3.483
 5811SOL     OW18331   2.616   0.190   4.905
 5811SOL    HW118332   2.633   0.276   4.952
 5811SOL    HW218333   2.702   0.150   4.875
 5812SOL     OW18334   4.728   0.432   3.383
 5812SOL    HW118335   4.635   0.400   3.401
 5812SOL    HW218336   4.754   0.409   3.289
 5813SOL     OW18337   1.134   1.329   5.894
 5813SOL    HW118338   1.063   1.318   5.825
 5813SOL    HW218339   1.189   1.410   5.873
 5814SOL     OW18340   0.221   4.449   0.635
 5814SOL    HW118341   0.320   4.443   0.643
 5814SOL    HW218342   0.186   4.509   0.708
 5815SOL     OW18343   4.053   2.182   2.943
 5815SOL    HW118344   4.040   2.147   3.036
 5815SOL    HW218345   3.973   2.162   2.887
 5816SOL     OW18346   5.106   0.085   0.167
 5816SOL    HW118347   5.199   0.051   0.180
 5816SOL    HW218348   5.075   0.062   0.075
 5817SOL     OW18349   5.797   3.100   6.150
 5817SOL    HW118350   5.719   3.148   6.189
 5817SOL    HW218351   5.828   3.147   6.067
 5818SOL     OW18352   6.000   6.780   5.491
 5818SOL    HW118353   6.092   6.815   5.474
 5818SOL    HW218354   6.006   6.687   5.527
 5819SOL     OW18355   5.163   0.519   0.912
 5819SOL    HW118356   5.069   0.487   0.922
 5819SOL    HW218357   5.172   0.609   0.953
 5820SOL     OW18358   4.972   0.083   3.109
 5820SOL    HW118359   4.921   0.164   3.137
 5820SOL    HW218360   4.910   0.018   3.065
 5821SOL     OW18361   2.848   0.420   2.013
 5821SOL    HW118362   2.801   0.492   2.064
 5821SOL    HW218363   2.800   0.404   1.927
 5822SOL     OW18364   0.578   2.528   1.755
 5822SOL    HW118365   0.615   2.440   1.725
 5822SOL    HW218366   0.505   2.556   1.692
 5823SOL     OW18367   1.467   0.964   4.997
 5823SOL    HW118368   1.380   1.001   5.029
 5823SOL    HW218369   1.494   0.887   5.055
 5824SOL     OW18370   6.351   6.893   3.380
 5824SOL    HW118371   6.395   6.822   3.435
 5824SOL    HW218372   6.382   6.885   3.285
 5825SOL     OW18373   2.449   1.604   6.474
 5825SOL    HW118374   2.399   1.528   6.514
 5825SOL    HW218375   2.546   1.583   6.471
 5826SOL     OW18376   6.056   6.217   5.469
 5826SOL    HW118377   6.124   6.279   5.429
 5826SOL    HW218378   6.044   6.239   5.566
 5827SOL     OW18379   0.566   5.349   4.867
 5827SOL    HW118380   0.529   5.400   4.945
 5827SOL    HW218381   0.523   5.380   4.783
 5828SOL     OW18382   0.521   3.860   2.123
 5828SOL    HW118383   0.594   3.796   2.147
 5828SOL    HW218384   0.461   3.874   2.202
 5829SOL     OW18385   3.132   1.118   2.173
 5829SOL    HW118386   3.115   1.155   2.082
 5829SOL    HW218387   3.165   1.191   2.233
 5830SOL     OW18388   3.565   1.130   5.848
 5830SOL    HW118389   3.483   1.173   5.813
 5830SOL    HW218390   3.616   1.195   5.905
 5831SOL     OW18391   5.931   6.166   2.502
 5831SOL    HW118392   6.013   6.214   2.470
 5831SOL    HW218393   5.898   6.209   2.586
 5832SOL     OW18394   4.128   4.118   5.435
 5832SOL    HW118395   4.122   4.032   5.384
 5832SOL    HW218396   4.200   4.175   5.395
 5833SOL     OW18397   2.926   3.491   4.052
 5833SOL    HW118398   2.959   3.583   4.031
 5833SOL    HW218399   2.829   3.484   4.032
 5834SOL     OW18400   6.132   1.411   0.513
 5834SOL    HW118401   6.191   1.444   0.587
 5834SOL    HW218402   6.045   1.461   0.516
 5835SOL     OW18403   4.924   2.135   3.636
 5835SOL    HW118404   4.984   2.064   3.674
 5835SOL    HW218405   4.954   2.225   3.669
 5836SOL     OW18406   3.241   6.310   2.703
 5836SOL    HW118407   3.307   6.340   2.772
 5836SOL    HW218408   3.185   6.236   2.740
 5837SOL     OW18409   4.558   4.437   0.047
 5837SOL    HW118410   4.653   4.464   0.064
 5837SOL    HW218411   4.556   4.355   7.007
 5838SOL     OW18412   1.645   1.621   6.279
 5838SOL    HW118413   1.700   1.608   6.197
 5838SOL    HW218414   1.573   1.551   6.283
 5839SOL     OW18415   6.811   3.133   2.485
 5839SOL    HW118416   6.846   3.179   2.403
 5839SOL    HW218417   6.711   3.140   2.486
 5840SOL     OW18418   1.390   5.809   6.323
 5840SOL    HW118419   1.400   5.715   6.290
 5840SOL    HW218420   1.293   5.832   6.330
 5841SOL     OW18421   6.042   3.447   3.340
 5841SOL    HW118422   6.104   3.510   3.387
 5841SOL    HW218423   6.008   3.490   3.256
 5842SOL     OW18424   3.775   2.969   0.798
 5842SOL    HW118425   3.775   3.052   0.854
 5842SOL    HW218426   3.750   2.993   0.704
 5843SOL     OW18427   1.882   3.700   2.456
 5843SOL    HW118428   1.855   3.770   2.522
 5843SOL    HW218429   1.908   3.617   2.505
 5844SOL     OW18430   0.188   5.459   6.361
 5844SOL    HW118431   0.094   5.463   6.326
 5844SOL    HW218432   0.190   5.496   6.454
 5845SOL     OW18433   1.131   2.660   3.560
 5845SOL    HW118434   1.188   2.646   3.479
 5845SOL    HW218435   1.036   2.672   3.531
 5846SOL     OW18436   6.762   2.790   5.284
 5846SOL    HW118437   6.854   2.828   5.275
 5846SOL    HW218438   6.766   2.696   5.317
 5847SOL     OW18439   2.366   2.330   2.635
 5847SOL    HW118440   2.290   2.394   2.636
 5847SOL    HW218441   2.427   2.352   2.559
 5848SOL     OW18442   2.246   5.031   3.644
 5848SOL    HW118443   2.259   4.945   3.594
 5848SOL    HW218444   2.187   5.092   3.591
 5849SOL     OW18445   1.074   0.347   5.834
 5849SOL    HW118446   1.049   0.290   5.756
 5849SOL    HW218447   1.065   0.295   5.918
 5850SOL     OW18448   1.613   3.863   2.499
 5850SOL    HW118449   1.612   3.795   2.426
 5850SOL    HW218450   1.676   3.937   2.475
 5851SOL     OW18451   5.976   4.052   2.750
 5851SOL    HW118452   5.913   4.126   2.774
 5851SOL    HW218453   6.069   4.087   2.743
 5852SOL     OW18454   4.015   6.389   2.770
 5852SOL    HW118455   3.981   6.313   2.826
 5852SOL    HW218456   3.941   6.424   2.713
 5853SOL     OW18457   3.052   5.181   6.447
 5853SOL    HW118458   3.095   5.220   6.365
 5853SOL    HW218459   3.054   5.081   6.442
 5854SOL     OW18460   6.959   2.263   5.640
 5854SOL    HW118461   7.001   2.340   5.687
 5854SOL    HW218462   6.958   2.280   5.541
 5855SOL     OW18463   1.268   1.016   4.474
 5855SOL    HW118464   1.182   1.062   4.497
 5855SOL    HW218465   1.321   1.000   4.557
 5856SOL     OW18466   2.540   5.066   3.109
 5856SOL    HW118467   2.486   5.001   3.162
 5856SOL    HW218468   2.480   5.136   3.069
 5857SOL     OW18469   6.067   2.636   5.023
 5857SOL    HW118470   6.136   2.707   5.038
 5857SOL    HW218471   6.090   2.555   5.077
 5858SOL     OW18472   3.244   1.283   2.349
 5858SOL    HW118473   3.274   1.374   2.320
 5858SOL    HW218474   3.223   1.284   2.447
 5859SOL     OW18475   6.500   6.292   0.571
 5859SOL    HW118476   6.488   6.273   0.474
 5859SOL    HW218477   6.437   6.235   0.625
 5860SOL     OW18478   1.550   4.598   1.906
 5860SOL    HW118479   1.597   4.517   1.941
 5860SOL    HW218480   1.473   4.569   1.849
 5861SOL     OW18481   5.334   2.124   4.033
 5861SOL    HW118482   5.428   2.154   4.016
 5861SOL    HW218483   5.302   2.068   3.956
 5862SOL     OW18484   3.793   5.171   3.184
 5862SOL    HW118485   3.883   5.191   3.224
 5862SOL    HW218486   3.762   5.082   3.217
 5863SOL     OW18487   2.093   0.886   6.143
 5863SOL    HW118488   2.076   0.983   6.158
 5863SOL    HW218489   2.009   0.835   6.161
 5864SOL     OW18490   4.236   4.204   1.654
 5864SOL    HW118491   4.213   4.107   1.661
 5864SOL    HW218492   4.320   4.222   1.706
 5865SOL     OW18493   5.253   0.768   3.603
 5865SOL    HW118494   5.194   0.822   3.662
 5865SOL    HW218495   5.198   0.702   3.551
 5866SOL     OW18496   4.375   6.870   5.587
 5866SOL    HW118497   4.422   6.784   5.567
 5866SOL    HW218498   4.402   6.939   5.520
 5867SOL     OW18499   0.192   2.945   1.274
 5867SOL    HW118500   0.250   2.876   1.318
 5867SOL    HW218501   0.111   2.961   1.330
 5868SOL     OW18502   0.747   0.158   5.361
 5868SOL    HW118503   0.729   0.255   5.376
 5868SOL    HW218504   0.816   0.147   5.290
 5869SOL     OW18505   2.791   4.747   4.303
 5869SOL    HW118506   2.791   4.717   4.207
 5869SOL    HW218507   2.719   4.815   4.316
 5870SOL     OW18508   5.521   5.395   4.432
 5870SOL    HW118509   5.492   5.334   4.506
 5870SOL    HW218510   5.454   5.390   4.358
 5871SOL     OW18511   3.580   3.240   0.187
 5871SOL    HW118512   3.672   3.222   0.219
 5871SOL    HW218513   3.525   3.157   0.193
 5872SOL     OW18514   4.376   6.170   6.435
 5872SOL    HW118515   4.278   6.150   6.425
 5872SOL    HW218516   4.396   6.196   6.529
 5873SOL     OW18517   2.394   2.840   0.391
 5873SOL    HW118518   2.475   2.818   0.337
 5873SOL    HW218519   2.347   2.756   0.418
 5874SOL     OW18520   2.368   3.526   1.420
 5874SOL    HW118521   2.278   3.552   1.455
 5874SOL    HW218522   2.410   3.458   1.480
 5875SOL     OW18523   3.275   1.848   0.172
 5875SOL    HW118524   3.176   1.846   0.157
 5875SOL    HW218525   3.296   1.902   0.253
 5876SOL     OW18526   3.353   3.191   6.845
 5876SOL    HW118527   3.301   3.177   6.760
 5876SOL    HW218528   3.326   3.122   6.912
 5877SOL     OW18529   6.432   0.451   1.281
 5877SOL    HW118530   6.416   0.396   1.363
 5877SOL    HW218531   6.345   0.472   1.238
 5878SOL     OW18532   4.475   5.473   2.165
 5878SOL    HW118533   4.541   5.546   2.149
 5878SOL    HW218534   4.387   5.513   2.192
 5879SOL     OW18535   3.630   2.966   6.472
 5879SOL    HW118536   3.549   3.010   6.511
 5879SOL    HW218537   3.688   3.036   6.430
 5880SOL     OW18538   5.241   3.239   5.650
 5880SOL    HW118539   5.232   3.288   5.736
 5880SOL    HW218540   5.150   3.222   5.612
 5881SOL     OW18541   0.887   6.711   2.501
 5881SOL    HW118542   0.853   6.786   2.557
 5881SOL    HW218543   0.810   6.662   2.460
 5882SOL     OW18544   1.204   6.354   5.700
 5882SOL    HW118545   1.221   6.442   5.657
 5882SOL    HW218546   1.105   6.338   5.707
 5883SOL     OW18547   0.120   3.778   0.749
 5883SOL    HW118548   0.102   3.734   0.661
 5883SOL    HW218549   0.079   3.723   0.822
 5884SOL     OW18550   5.805   1.776   3.860
 5884SOL    HW118551   5.776   1.831   3.938
 5884SOL    HW218552   5.904   1.765   3.862
 5885SOL     OW18553   0.461   5.496   0.329
 5885SOL    HW118554   0.406   5.423   0.370
 5885SOL    HW218555   0.407   5.580   0.326
 5886SOL     OW18556   1.386   3.684   3.019
 5886SOL    HW118557   1.398   3.769   3.071
 5886SOL    HW218558   1.441   3.612   3.061
 5887SOL     OW18559   2.096   1.997   1.449
 5887SOL    HW118560   2.003   1.962   1.456
 5887SOL    HW218561   2.108   2.073   1.513
 5888SOL     OW18562   2.561   6.627   1.857
 5888SOL    HW118563   2.643   6.644   1.911
 5888SOL    HW218564   2.570   6.673   1.768
 5889SOL     OW18565   0.361   0.859   0.976
 5889SOL    HW118566   0.349   0.927   0.903
 5889SOL    HW218567   0.273   0.820   1.000
 5890SOL     OW18568   2.704   6.351   2.360
 5890SOL    HW118569   2.799   6.379   2.352
 5890SOL    HW218570   2.678   6.347   2.457
 5891SOL     OW18571   2.970   3.253   0.890
 5891SOL    HW118572   3.051   3.238   0.947
 5891SOL    HW218573   2.913   3.325   0.930
 5892SOL     OW18574   0.831   3.444   0.799
 5892SOL    HW118575   0.910   3.502   0.780
 5892SOL    HW218576   0.749   3.486   0.761
 5893SOL     OW18577   0.816   5.517   2.037
 5893SOL    HW118578   0.871   5.586   1.990
 5893SOL    HW218579   0.740   5.560   2.085
 5894SOL     OW18580   1.265   5.641   5.779
 5894SOL    HW118581   1.314   5.704   5.718
 5894SOL    HW218582   1.171   5.630   5.746
 5895SOL     OW18583   5.624   3.218   4.684
 5895SOL    HW118584   5.624   3.159   4.602
 5895SOL    HW218585   5.629   3.161   4.766
 5896SOL     OW18586   6.008   1.878   1.522
 5896SOL    HW118587   5.956   1.881   1.607
 5896SOL    HW218588   6.106   1.871   1.543
 5897SOL     OW18589   4.567   1.618   1.032
 5897SOL    HW118590   4.586   1.658   0.943
 5897SOL    HW218591   4.515   1.683   1.088
 5898SOL     OW18592   1.861   1.445   5.793
 5898SOL    HW118593   1.878   1.366   5.852
 5898SOL    HW218594   1.936   1.455   5.728
 5899SOL     OW18595   6.909   5.440   6.309
 5899SOL    HW118596   6.848   5.513   6.280
 5899SOL    HW218597   6.863   5.351   6.300
 5900SOL     OW18598   6.522   6.412   2.926
 5900SOL    HW118599   6.588   6.486   2.939
 5900SOL    HW218600   6.445   6.426   2.989
 5901SOL     OW18601   1.805   0.200   6.526
 5901SOL    HW118602   1.855   0.179   6.610
 5901SOL    HW218603   1.717   0.154   6.528
 5902SOL     OW18604   5.961   4.604   4.902
 5902SOL    HW118605   6.050   4.580   4.864
 5902SOL    HW218606   5.954   4.570   4.996
 5903SOL     OW18607   6.313   2.348   6.528
 5903SOL    HW118608   6.328   2.283   6.454
 5903SOL    HW218609   6.311   2.441   6.490
 5904SOL     OW18610   2.132   4.664   3.012
 5904SOL    HW118611   2.227   4.678   2.983
 5904SOL    HW218612   2.108   4.568   3.000
 5905SOL     OW18613   5.636   0.908   4.280
 5905SOL    HW118614   5.724   0.869   4.307
 5905SOL    HW218615   5.650   0.996   4.235
 5906SOL     OW18616   5.088   0.965   5.354
 5906SOL    HW118617   5.004   0.977   5.301
 5906SOL    HW218618   5.068   0.978   5.451
 5907SOL     OW18619   1.892   1.850   6.895
 5907SOL    HW118620   1.808   1.822   6.849
 5907SOL    HW218621   1.930   1.772   6.945
 5908SOL     OW18622   4.597   3.451   6.240
 5908SOL    HW118623   4.546   3.535   6.229
 5908SOL    HW218624   4.676   3.451   6.178
 5909SOL     OW18625   6.980   4.550   5.230
 5909SOL    HW118626   6.916   4.549   5.153
 5909SOL    HW218627   7.011   4.457   5.249
 5910SOL     OW18628   2.099   3.765   1.273
 5910SOL    HW118629   2.025   3.785   1.209
 5910SOL    HW218630   2.183   3.809   1.241
 5911SOL     OW18631   6.228   5.137   6.198
 5911SOL    HW118632   6.170   5.125   6.278
 5911SOL    HW218633   6.275   5.225   6.203
 5912SOL     OW18634   6.124   3.816   6.930
 5912SOL    HW118635   6.191   3.883   6.898
 5912SOL    HW218636   6.157   3.775   7.016
 5913SOL     OW18637   2.012   1.836   5.880
 5913SOL    HW118638   2.062   1.801   5.801
 5913SOL    HW218639   1.972   1.925   5.858
 5914SOL     OW18640   2.446   5.348   0.626
 5914SOL    HW118641   2.480   5.381   0.538
 5914SOL    HW218642   2.443   5.423   0.691
 5915SOL     OW18643   4.908   3.097   2.570
 5915SOL    HW118644   4.857   3.053   2.645
 5915SOL    HW218645   4.922   3.032   2.496
 5916SOL     OW18646   4.274   0.090   5.450
 5916SOL    HW118647   4.198   0.154   5.457
 5916SOL    HW218648   4.247   0.013   5.391
 5917SOL     OW18649   3.598   3.430   2.972
 5917SOL    HW118650   3.573   3.467   3.062
 5917SOL    HW218651   3.609   3.506   2.908
 5918SOL     OW18652   1.803   3.676   3.846
 5918SOL    HW118653   1.841   3.696   3.936
 5918SOL    HW218654   1.833   3.586   3.816
 5919SOL     OW18655   2.327   2.427   0.001
 5919SOL    HW118656   2.319   2.527   0.006
 5919SOL    HW218657   2.373   2.401   6.932
 5920SOL     OW18658   3.722   0.612   6.637
 5920SOL    HW118659   3.710   0.556   6.719
 5920SOL    HW218660   3.807   0.586   6.591
 5921SOL     OW18661   3.769   4.957   5.589
 5921SOL    HW118662   3.869   4.948   5.580
 5921SOL    HW218663   3.748   5.032   5.651
 5922SOL     OW18664   6.497   4.871   3.193
 5922SOL    HW118665   6.420   4.912   3.143
 5922SOL    HW218666   6.471   4.781   3.226
 5923SOL     OW18667   6.686   0.104   3.379
 5923SOL    HW118668   6.671   0.159   3.297
 5923SOL    HW218669   6.611   0.120   3.443
 5924SOL     OW18670   5.117   2.010   4.576
 5924SOL    HW118671   5.055   2.021   4.654
 5924SOL    HW218672   5.195   1.954   4.603
 5925SOL     OW18673   5.300   5.693   1.434
 5925SOL    HW118674   5.287   5.784   1.473
 5925SOL    HW218675   5.331   5.702   1.339
 5926SOL     OW18676   3.661   5.095   1.479
 5926SOL    HW118677   3.586   5.042   1.517
 5926SOL    HW218678   3.643   5.193   1.492
 5927SOL     OW18679   2.758   5.896   1.852
 5927SOL    HW118680   2.792   5.925   1.763
 5927SOL    HW218681   2.828   5.912   1.921
 5928SOL     OW18682   1.210   6.891   2.660
 5928SOL    HW118683   1.252   6.971   2.703
 5928SOL    HW218684   1.171   6.832   2.731
 5929SOL     OW18685   1.104   6.693   6.071
 5929SOL    HW118686   1.107   6.718   6.167
 5929SOL    HW218687   1.183   6.637   6.048
 5930SOL     OW18688   6.200   1.232   4.758
 5930SOL    HW118689   6.296   1.213   4.738
 5930SOL    HW218690   6.147   1.147   4.756
 5931SOL     OW18691   5.991   5.389   1.417
 5931SOL    HW118692   5.918   5.406   1.352
 5931SOL    HW218693   6.069   5.347   1.370
 5932SOL     OW18694   2.186   6.531   1.057
 5932SOL    HW118695   2.221   6.624   1.067
 5932SOL    HW218696   2.262   6.466   1.055
 5933SOL     OW18697   0.135   4.050   2.907
 5933SOL    HW118698   0.204   4.089   2.967
 5933SOL    HW218699   0.070   3.996   2.961
 5934SOL     OW18700   3.621   3.679   2.884
 5934SOL    HW118701   3.647   3.755   2.944
 5934SOL    HW218702   3.623   3.710   2.789
 5935SOL     OW18703   3.865   3.966   4.473
 5935SOL    HW118704   3.910   3.879   4.454
 5935SOL    HW218705   3.820   4.000   4.391
 5936SOL     OW18706   4.845   4.710   6.781
 5936SOL    HW118707   4.911   4.635   6.786
 5936SOL    HW218708   4.813   4.732   6.874
 5937SOL     OW18709   1.757   3.790   0.846
 5937SOL    HW118710   1.756   3.716   0.779
 5937SOL    HW218711   1.818   3.862   0.815
 5938SOL     OW18712   2.388   4.385   3.087
 5938SOL    HW118713   2.453   4.451   3.049
 5938SOL    HW218714   2.354   4.326   3.013
 5939SOL     OW18715   2.822   0.322   3.000
 5939SOL    HW118716   2.824   0.224   2.978
 5939SOL    HW218717   2.832   0.334   3.098
 5940SOL     OW18718   4.082   0.369   3.009
 5940SOL    HW118719   4.154   0.313   3.049
 5940SOL    HW218720   3.994   0.323   3.019
 5941SOL     OW18721   6.495   5.082   2.176
 5941SOL    HW118722   6.518   5.109   2.269
 5941SOL    HW218723   6.545   5.000   2.151
 5942SOL     OW18724   4.173   3.442   6.331
 5942SOL    HW118725   4.180   3.509   6.405
 5942SOL    HW218726   4.077   3.416   6.319
 5943SOL     OW18727   1.932   5.890   0.427
 5943SOL    HW118728   2.008   5.914   0.488
 5943SOL    HW218729   1.853   5.948   0.447
 5944SOL     OW18730   5.125   1.415   2.157
 5944SOL    HW118731   5.029   1.426   2.184
 5944SOL    HW218732   5.147   1.480   2.084
 5945SOL     OW18733   6.408   4.789   5.849
 5945SOL    HW118734   6.373   4.746   5.765
 5945SOL    HW218735   6.335   4.839   5.894
 5946SOL     OW18736   4.751   3.173   6.214
 5946SOL    HW118737   4.706   3.180   6.125
 5946SOL    HW218738   4.704   3.105   6.270
 5947SOL     OW18739   4.323   3.332   1.633
 5947SOL    HW118740   4.241   3.365   1.586
 5947SOL    HW218741   4.321   3.233   1.639
 5948SOL     OW18742   3.612   4.912   3.002
 5948SOL    HW118743   3.678   4.907   2.927
 5948SOL    HW218744   3.660   4.908   3.089
 5949SOL     OW18745   3.983   5.044   1.264
 5949SOL    HW118746   4.083   5.049   1.258
 5949SOL    HW218747   3.951   4.966   1.210
 5950SOL     OW18748   6.054   1.923   4.486
 5950SOL    HW118749   6.025   1.985   4.559
 5950SOL    HW218750   6.150   1.899   4.499
 5951SOL     OW18751   2.178   6.048   4.295
 5951SOL    HW118752   2.114   6.093   4.357
 5951SOL    HW218753   2.171   5.949   4.306
 5952SOL     OW18754   6.836   6.553   3.886
 5952SOL    HW118755   6.927   6.521   3.860
 5952SOL    HW218756   6.770   6.526   3.815
 5953SOL     OW18757   6.731   3.174   5.768
 5953SOL    HW118758   6.652   3.158   5.709
 5953SOL    HW218759   6.706   3.238   5.841
 5954SOL     OW18760   6.886   4.758   6.566
 5954SOL    HW118761   6.928   4.667   6.558
 5954SOL    HW218762   6.875   4.798   6.474
 5955SOL     OW18763   5.037   5.351   2.075
 5955SOL    HW118764   5.112   5.289   2.052
 5955SOL    HW218765   4.985   5.314   2.152
 5956SOL     OW18766   4.368   2.422   6.960
 5956SOL    HW118767   4.281   2.373   6.961
 5956SOL    HW218768   4.378   2.470   6.872
 5957SOL     OW18769   6.053   6.047   6.035
 5957SOL    HW118770   5.968   6.094   6.011
 5957SOL    HW218771   6.064   6.047   6.135
 5958SOL     OW18772   6.721   5.855   1.770
 5958SOL    HW118773   6.694   5.820   1.680
 5958SOL    HW218774   6.640   5.867   1.827
 5959SOL     OW18775   2.885   1.602   5.834
 5959SOL    HW118776   2.890   1.690   5.787
 5959SOL    HW218777   2.812   1.547   5.795
 5960SOL     OW18778   2.600   0.090   3.645
 5960SOL    HW118779   2.696   0.117   3.649
 5960SOL    HW218780   2.565   0.102   3.553
 5961SOL     OW18781   3.385   0.846   5.117
 5961SOL    HW118782   3.425   0.879   5.203
 5961SOL    HW218783   3.458   0.831   5.050
 5962SOL     OW18784   4.823   5.589   2.478
 5962SOL    HW118785   4.910   5.628   2.448
 5962SOL    HW218786   4.812   5.498   2.438
 5963SOL     OW18787   3.731   3.573   2.392
 5963SOL    HW118788   3.741   3.497   2.329
 5963SOL    HW218789   3.641   3.570   2.435
 5964SOL     OW18790   0.146   4.871   6.334
 5964SOL    HW118791   0.161   4.819   6.418
 5964SOL    HW218792   0.115   4.963   6.357
 5965SOL     OW18793   2.198   2.790   6.116
 5965SOL    HW118794   2.136   2.866   6.133
 5965SOL    HW218795   2.218   2.742   6.201
 5966SOL     OW18796   3.198   5.888   4.675
 5966SOL    HW118797   3.279   5.889   4.617
 5966SOL    HW218798   3.197   5.804   4.730
 5967SOL     OW18799   4.472   0.027   3.031
 5967SOL    HW118800   4.458   6.999   2.942
 5967SOL    HW218801   4.394   0.087   3.050
 5968SOL     OW18802   6.534   2.505   3.362
 5968SOL    HW118803   6.519   2.451   3.280
 5968SOL    HW218804   6.633   2.514   3.379
 5969SOL     OW18805   5.661   3.849   3.760
 5969SOL    HW118806   5.752   3.816   3.786
 5969SOL    HW218807   5.621   3.787   3.693
 5970SOL     OW18808   1.243   3.674   2.484
 5970SOL    HW118809   1.264   3.737   2.560
 5970SOL    HW218810   1.306   3.692   2.409
 5971SOL     OW18811   1.845   6.217   2.914
 5971SOL    HW118812   1.790   6.143   2.875
 5971SOL    HW218813   1.937   6.183   2.935
 5972SOL     OW18814   5.284   6.892   0.084
 5972SOL    HW118815   5.328   6.923   0.169
 5972SOL    HW218816   5.352   6.890   0.011
 5973SOL     OW18817   1.644   4.279   2.846
 5973SOL    HW118818   1.616   4.267   2.751
 5973SOL    HW218819   1.563   4.275   2.905
 5974SOL     OW18820   0.110   3.647   0.504
 5974SOL    HW118821   0.052   3.653   0.423
 5974SOL    HW218822   0.083   3.567   0.558
 5975SOL     OW18823   3.615   2.740   1.223
 5975SOL    HW118824   3.534   2.682   1.212
 5975SOL    HW218825   3.617   2.777   1.315
 5976SOL     OW18826   3.115   3.175   5.202
 5976SOL    HW118827   3.102   3.192   5.104
 5976SOL    HW218828   3.083   3.082   5.224
 5977SOL     OW18829   1.542   4.862   2.019
 5977SOL    HW118830   1.556   4.774   1.973
 5977SOL    HW218831   1.626   4.889   2.066
 5978SOL     OW18832   5.308   4.528   2.426
 5978SOL    HW118833   5.402   4.509   2.454
 5978SOL    HW218834   5.285   4.469   2.348
 5979SOL     OW18835   6.365   0.980   3.424
 5979SOL    HW118836   6.297   1.048   3.395
 5979SOL    HW218837   6.407   1.010   3.510
 5980SOL     OW18838   5.091   4.132   0.559
 5980SOL    HW118839   5.111   4.201   0.628
 5980SOL    HW218840   5.173   4.078   0.540
 5981SOL     OW18841   5.577   1.582   2.555
 5981SOL    HW118842   5.513   1.657   2.571
 5981SOL    HW218843   5.532   1.495   2.574
 5982SOL     OW18844   6.891   1.842   6.814
 5982SOL    HW118845   6.871   1.748   6.787
 5982SOL    HW218846   6.988   1.861   6.801
 5983SOL     OW18847   1.754   1.599   4.001
 5983SOL    HW118848   1.682   1.658   3.963
 5983SOL    HW218849   1.828   1.589   3.934
 5984SOL     OW18850   6.805   5.797   4.481
 5984SOL    HW118851   6.888   5.808   4.534
 5984SOL    HW218852   6.727   5.787   4.543
 5985SOL     OW18853   5.017   1.884   3.923
 5985SOL    HW118854   5.002   1.798   3.972
 5985SOL    HW218855   4.977   1.960   3.975
 5986SOL     OW18856   3.671   3.225   2.760
 5986SOL    HW118857   3.660   3.284   2.839
 5986SOL    HW218858   3.737   3.266   2.697
 5987SOL     OW18859   4.521   6.567   4.739
 5987SOL    HW118860   4.484   6.589   4.649
 5987SOL    HW218861   4.526   6.650   4.795
 5988SOL     OW18862   4.227   6.975   4.146
 5988SOL    HW118863   4.278   6.998   4.063
 5988SOL    HW218864   4.129   6.985   4.128
 5989SOL     OW18865   2.925   0.238   5.987
 5989SOL    HW118866   2.830   0.267   5.974
 5989SOL    HW218867   2.982   0.278   5.915
 5990SOL     OW18868   3.523   4.936   0.782
 5990SOL    HW118869   3.489   4.844   0.802
 5990SOL    HW218870   3.619   4.943   0.810
 5991SOL     OW18871   3.574   5.260   4.474
 5991SOL    HW118872   3.657   5.233   4.425
 5991SOL    HW218873   3.595   5.337   4.535
 5992SOL     OW18874   3.591   0.582   3.828
 5992SOL    HW118875   3.495   0.591   3.802
 5992SOL    HW218876   3.600   0.596   3.926
 5993SOL     OW18877   2.595   6.136   5.971
 5993SOL    HW118878   2.663   6.090   6.028
 5993SOL    HW218879   2.585   6.087   5.884
 5994SOL     OW18880   5.827   2.818   2.456
 5994SOL    HW118881   5.857   2.905   2.496
 5994SOL    HW218882   5.901   2.779   2.403
 5995SOL     OW18883   6.517   4.931   1.207
 5995SOL    HW118884   6.533   4.835   1.231
 5995SOL    HW218885   6.593   4.964   1.151
 5996SOL     OW18886   0.442   4.996   6.564
 5996SOL    HW118887   0.412   4.917   6.511
 5996SOL    HW218888   0.492   4.965   6.645
 5997SOL     OW18889   0.449   6.764   1.772
 5997SOL    HW118890   0.454   6.862   1.792
 5997SOL    HW218891   0.492   6.746   1.684
 5998SOL     OW18892   5.562   1.884   2.576
 5998SOL    HW118893   5.569   1.866   2.674
 5998SOL    HW218894   5.653   1.910   2.540
 5999SOL     OW18895   1.844   1.712   2.967
 5999SOL    HW118896   1.932   1.759   2.960
 5999SOL    HW218897   1.776   1.776   3.002
 6000SOL     OW18898   4.376   5.287   2.594
 6000SOL    HW118899   4.345   5.237   2.512
 6000SOL    HW218900   4.391   5.383   2.571
 6001SOL     OW18901   6.562   2.596   6.647
 6001SOL    HW118902   6.592   2.514   6.598
 6001SOL    HW218903   6.554   2.576   6.744
 6002SOL     OW18904   1.744   0.603   1.850
 6002SOL    HW118905   1.660   0.639   1.891
 6002SOL    HW218906   1.819   0.610   1.916
 6003SOL     OW18907   5.343   4.069   4.762
 6003SOL    HW118908   5.425   4.056   4.706
 6003SOL    HW218909   5.344   4.160   4.802
 6004SOL     OW18910   0.668   3.382   2.532
 6004SOL    HW118911   0.693   3.299   2.483
 6004SOL    HW218912   0.617   3.442   2.471
 6005SOL     OW18913   3.415   5.666   4.093
 6005SOL    HW118914   3.483   5.716   4.039
 6005SOL    HW218915   3.461   5.591   4.142
 6006SOL     OW18916   2.697   6.549   6.471
 6006SOL    HW118917   2.693   6.647   6.491
 6006SOL    HW218918   2.604   6.512   6.467
 6007SOL     OW18919   5.884   2.824   3.901
 6007SOL    HW118920   5.966   2.879   3.885
 6007SOL    HW218921   5.811   2.852   3.839
 6008SOL     OW18922   3.193   4.684   6.108
 6008SOL    HW118923   3.138   4.612   6.150
 6008SOL    HW218924   3.290   4.664   6.122
 6009SOL     OW18925   2.877   1.776   4.203
 6009SOL    HW118926   2.866   1.836   4.282
 6009SOL    HW218927   2.944   1.815   4.140
 6010SOL     OW18928   1.812   4.419   2.438
 6010SOL    HW118929   1.776   4.330   2.466
 6010SOL    HW218930   1.827   4.419   2.339
 6011SOL     OW18931   5.308   2.817   2.289
 6011SOL    HW118932   5.375   2.891   2.281
 6011SOL    HW218933   5.339   2.738   2.236
 6012SOL     OW18934   6.754   2.696   0.695
 6012SOL    HW118935   6.703   2.740   0.621
 6012SOL    HW218936   6.690   2.647   0.755
 6013SOL     OW18937   6.286   0.944   2.173
 6013SOL    HW118938   6.279   0.932   2.074
 6013SOL    HW218939   6.305   0.856   2.216
 6014SOL     OW18940   5.745   0.361   0.598
 6014SOL    HW118941   5.730   0.301   0.520
 6014SOL    HW218942   5.714   0.316   0.682
 6015SOL     OW18943   5.758   2.122   4.818
 6015SOL    HW118944   5.766   2.203   4.876
 6015SOL    HW218945   5.789   2.145   4.725
 6016SOL     OW18946   1.835   0.698   5.058
 6016SOL    HW118947   1.921   0.679   5.106
 6016SOL    HW218948   1.780   0.614   5.054
 6017SOL     OW18949   6.215   5.236   3.000
 6017SOL    HW118950   6.184   5.315   2.946
 6017SOL    HW218951   6.285   5.266   3.065
 6018SOL     OW18952   2.904   3.282   0.602
 6018SOL    HW118953   2.930   3.268   0.697
 6018SOL    HW218954   2.805   3.271   0.592
 6019SOL     OW18955   3.439   0.986   4.150
 6019SOL    HW118956   3.537   1.006   4.151
 6019SOL    HW218957   3.390   1.057   4.201
 6020SOL     OW18958   3.844   0.645   2.794
 6020SOL    HW118959   3.877   0.639   2.700
 6020SOL    HW218960   3.861   0.737   2.829
 6021SOL     OW18961   4.070   1.242   2.307
 6021SOL    HW118962   4.062   1.227   2.406
 6021SOL    HW218963   4.062   1.154   2.260
 6022SOL     OW18964   4.471   1.347   3.390
 6022SOL    HW118965   4.376   1.356   3.419
 6022SOL    HW218966   4.504   1.433   3.353
 6023SOL     OW18967   0.481   1.622   3.258
 6023SOL    HW118968   0.483   1.535   3.209
 6023SOL    HW218969   0.395   1.630   3.308
 6024SOL     OW18970   0.531   4.956   1.437
 6024SOL    HW118971   0.569   4.882   1.493
 6024SOL    HW218972   0.555   5.044   1.477
 6025SOL     OW18973   4.360   1.491   1.700
 6025SOL    HW118974   4.397   1.541   1.779
 6025SOL    HW218975   4.323   1.556   1.634
 6026SOL     OW18976   6.381   4.614   5.337
 6026SOL    HW118977   6.456   4.581   5.394
 6026SOL    HW218978   6.416   4.685   5.274
 6027SOL     OW18979   2.742   2.464   6.470
 6027SOL    HW118980   2.674   2.519   6.422
 6027SOL    HW218981   2.707   2.439   6.561
 6028SOL     OW18982   1.967   4.146   0.008
 6028SOL    HW118983   2.054   4.182   0.041
 6028SOL    HW218984   1.895   4.214   0.025
 6029SOL     OW18985   2.097   5.996   0.761
 6029SOL    HW118986   2.084   6.069   0.829
 6029SOL    HW218987   2.050   5.913   0.791
 6030SOL     OW18988   2.405   0.825   1.772
 6030SOL    HW118989   2.441   0.833   1.679
 6030SOL    HW218990   2.306   0.843   1.772
 6031SOL     OW18991   5.105   6.474   5.973
 6031SOL    HW118992   5.108   6.490   6.071
 6031SOL    HW218993   5.110   6.561   5.925
 6032SOL     OW18994   1.354   3.449   2.109
 6032SOL    HW118995   1.340   3.410   2.018
 6032SOL    HW218996   1.435   3.408   2.151
 6033SOL     OW18997   1.499   2.047   3.303
 6033SOL    HW118998   1.433   2.086   3.239
 6033SOL    HW218999   1.452   2.014   3.385
 6034SOL     OW19000   2.084   4.524   5.162
 6034SOL    HW119001   2.149   4.574   5.219
 6034SOL    HW219002   2.057   4.440   5.208
 6035SOL     OW19003   5.486   0.578   4.532
 6035SOL    HW119004   5.512   0.483   4.551
 6035SOL    HW219005   5.512   0.602   4.439
 6036SOL     OW19006   0.665   6.886   5.305
 6036SOL    HW119007   0.680   6.809   5.367
 6036SOL    HW219008   0.637   6.966   5.358
 6037SOL     OW19009   5.805   5.788   5.106
 6037SOL    HW119010   5.824   5.694   5.077
 6037SOL    HW219011   5.890   5.833   5.132
 6038SOL     OW19012   6.305   4.343   5.874
 6038SOL    HW119013   6.231   4.395   5.831
 6038SOL    HW219014   6.267   4.283   5.944
 6039SOL     OW19015   3.350   3.524   2.251
 6039SOL    HW119016   3.314   3.606   2.208
 6039SOL    HW219017   3.275   3.458   2.264
 6040SOL     OW19018   0.676   2.431   6.696
 6040SOL    HW119019   0.714   2.350   6.652
 6040SOL    HW219020   0.728   2.453   6.778
 6041SOL     OW19021   0.756   1.673   0.061
 6041SOL    HW119022   0.816   1.599   0.092
 6041SOL    HW219023   0.779   1.758   0.108
 6042SOL     OW19024   5.177   4.892   2.910
 6042SOL    HW119025   5.096   4.950   2.904
 6042SOL    HW219026   5.164   4.825   2.982
 6043SOL     OW19027   1.130   4.524   4.870
 6043SOL    HW119028   1.172   4.592   4.930
 6043SOL    HW219029   1.182   4.517   4.785
 6044SOL     OW19030   0.794   0.631   1.194
 6044SOL    HW119031   0.870   0.649   1.256
 6044SOL    HW219032   0.796   0.698   1.119
 6045SOL     OW19033   5.768   5.026   0.726
 6045SOL    HW119034   5.788   4.968   0.647
 6045SOL    HW219035   5.853   5.064   0.762
 6046SOL     OW19036   3.008   2.748   0.274
 6046SOL    HW119037   3.004   2.743   0.373
 6046SOL    HW219038   3.013   2.843   0.245
 6047SOL     OW19039   6.567   0.371   3.926
 6047SOL    HW119040   6.502   0.297   3.940
 6047SOL    HW219041   6.571   0.394   3.828
 6048SOL     OW19042   4.281   0.238   3.850
 6048SOL    HW119043   4.181   0.239   3.847
 6048SOL    HW219044   4.310   0.210   3.942
 6049SOL     OW19045   4.834   3.975   6.605
 6049SOL    HW119046   4.875   3.988   6.515
 6049SOL    HW219047   4.831   3.877   6.627
 6050SOL     OW19048   4.495   4.674   5.222
 6050SOL    HW119049   4.402   4.697   5.252
 6050SOL    HW219050   4.546   4.758   5.204
 6051SOL     OW19051   2.379   2.042   2.685
 6051SOL    HW119052   2.293   2.028   2.735
 6051SOL    HW219053   2.395   2.141   2.675
 6052SOL     OW19054   0.111   1.734   0.914
 6052SOL    HW119055   0.028   1.751   0.860
 6052SOL    HW219056   0.091   1.667   0.985
 6053SOL     OW19057   2.312   0.026   6.772
 6053SOL    HW119058   2.290   6.967   6.709
 6053SOL    HW219059   2.411   0.038   6.776
 6054SOL     OW19060   1.466   5.078   0.499
 6054SOL    HW119061   1.424   5.163   0.531
 6054SOL    HW219062   1.528   5.043   0.569
 6055SOL     OW19063   4.743   0.900   4.901
 6055SOL    HW119064   4.817   0.964   4.880
 6055SOL    HW219065   4.693   0.879   4.817
 6056SOL     OW19066   3.852   1.471   6.442
 6056SOL    HW119067   3.844   1.476   6.541
 6056SOL    HW219068   3.949   1.464   6.417
 6057SOL     OW19069   3.710   1.040   5.095
 6057SOL    HW119070   3.649   1.055   5.173
 6057SOL    HW219071   3.659   0.997   5.021
 6058SOL     OW19072   5.722   2.268   4.571
 6058SOL    HW119073   5.712   2.306   4.479
 6058SOL    HW219074   5.637   2.283   4.622
 6059SOL     OW19075   5.229   4.372   6.351
 6059SOL    HW119076   5.274   4.299   6.403
 6059SOL    HW219077   5.150   4.336   6.302
 6060SOL     OW19078   4.555   5.407   5.495
 6060SOL    HW119079   4.568   5.339   5.568
 6060SOL    HW219080   4.573   5.499   5.532
 6061SOL     OW19081   2.943   2.081   6.840
 6061SOL    HW119082   2.973   2.175   6.855
 6061SOL    HW219083   2.943   2.061   6.742
 6062SOL     OW19084   1.630   1.132   4.491
 6062SOL    HW119085   1.548   1.147   4.546
 6062SOL    HW219086   1.710   1.121   4.551
 6063SOL     OW19087   4.185   1.008   6.864
 6063SOL    HW119088   4.102   0.962   6.831
 6063SOL    HW219089   4.245   0.941   6.909
 6064SOL     OW19090   1.400   5.684   2.856
 6064SOL    HW119091   1.408   5.600   2.802
 6064SOL    HW219092   1.380   5.661   2.951
 6065SOL     OW19093   6.447   6.665   0.728
 6065SOL    HW119094   6.474   6.732   0.797
 6065SOL    HW219095   6.523   6.601   0.712
 6066SOL     OW19096   4.667   2.128   1.068
 6066SOL    HW119097   4.588   2.099   1.123
 6066SOL    HW219098   4.647   2.112   0.971
 6067SOL     OW19099   6.013   1.479   6.234
 6067SOL    HW119100   6.049   1.482   6.327
 6067SOL    HW219101   5.923   1.523   6.231
 6068SOL     OW19102   4.708   2.894   4.921
 6068SOL    HW119103   4.631   2.933   4.870
 6068SOL    HW219104   4.790   2.949   4.904
 6069SOL     OW19105   6.705   3.975   5.363
 6069SOL    HW119106   6.692   3.895   5.422
 6069SOL    HW219107   6.646   3.967   5.282
 6070SOL     OW19108   4.569   2.561   6.732
 6070SOL    HW119109   4.530   2.597   6.647
 6070SOL    HW219110   4.628   2.629   6.774
 6071SOL     OW19111   4.128   6.332   5.303
 6071SOL    HW119112   4.036   6.352   5.337
 6071SOL    HW219113   4.121   6.294   5.210
 6072SOL     OW19114   1.179   1.479   2.094
 6072SOL    HW119115   1.119   1.457   2.017
 6072SOL    HW219116   1.220   1.396   2.129
 6073SOL     OW19117   6.808   2.968   1.186
 6073SOL    HW119118   6.886   2.959   1.249
 6073SOL    HW219119   6.831   2.927   1.098
 6074SOL     OW19120   0.514   7.011   4.902
 6074SOL    HW119121   0.523   7.004   4.802
 6074SOL    HW219122   0.460   6.934   4.936
 6075SOL     OW19123   6.187   3.426   0.460
 6075SOL    HW119124   6.139   3.455   0.378
 6075SOL    HW219125   6.164   3.330   0.480
 6076SOL     OW19126   1.913   0.024   3.518
 6076SOL    HW119127   2.013   0.015   3.526
 6076SOL    HW219128   1.891   0.083   3.441
 6077SOL     OW19129   5.833   6.291   2.024
 6077SOL    HW119130   5.793   6.378   1.995
 6077SOL    HW219131   5.932   6.295   2.014
 6078SOL     OW19132   2.813   4.856   3.781
 6078SOL    HW119133   2.795   4.865   3.683
 6078SOL    HW219134   2.911   4.861   3.798
 6079SOL     OW19135   2.564   2.742   0.183
 6079SOL    HW119136   2.500   2.721   0.109
 6079SOL    HW219137   2.646   2.785   0.145
 6080SOL     OW19138   6.227   2.262   1.567
 6080SOL    HW119139   6.206   2.182   1.622
 6080SOL    HW219140   6.154   2.278   1.501
 6081SOL     OW19141   6.294   3.635   4.055
 6081SOL    HW119142   6.228   3.561   4.068
 6081SOL    HW219143   6.358   3.636   4.131
 6082SOL     OW19144   4.558   1.049   2.742
 6082SOL    HW119145   4.638   1.057   2.800
 6082SOL    HW219146   4.564   1.114   2.667
 6083SOL     OW19147   1.573   5.967   6.465
 6083SOL    HW119148   1.664   5.947   6.428
 6083SOL    HW219149   1.505   5.909   6.420
 6084SOL     OW19150   6.566   5.352   5.078
 6084SOL    HW119151   6.630   5.323   5.006
 6084SOL    HW219152   6.499   5.415   5.041
 6085SOL     OW19153   6.381   3.411   0.103
 6085SOL    HW119154   6.423   3.502   0.097
 6085SOL    HW219155   6.313   3.411   0.177
 6086SOL     OW19156   3.773   1.302   4.438
 6086SOL    HW119157   3.839   1.352   4.383
 6086SOL    HW219158   3.801   1.304   4.534
 6087SOL     OW19159   5.538   6.449   6.600
 6087SOL    HW119160   5.516   6.539   6.637
 6087SOL    HW219161   5.494   6.438   6.511
 6088SOL     OW19162   0.835   0.350   4.695
 6088SOL    HW119163   0.828   0.270   4.635
 6088SOL    HW219164   0.746   0.394   4.704
 6089SOL     OW19165   0.659   3.224   1.007
 6089SOL    HW119166   0.565   3.195   0.989
 6089SOL    HW219167   0.658   3.303   1.069
 6090SOL     OW19168   0.364   5.836   5.408
 6090SOL    HW119169   0.385   5.750   5.361
 6090SOL    HW219170   0.327   5.901   5.342
 6091SOL     OW19171   6.321   1.836   2.071
 6091SOL    HW119172   6.365   1.869   2.155
 6091SOL    HW219173   6.388   1.786   2.016
 6092SOL     OW19174   2.040   1.041   2.504
 6092SOL    HW119175   2.117   0.991   2.464
 6092SOL    HW219176   1.989   1.087   2.431
 6093SOL     OW19177   1.454   2.763   1.129
 6093SOL    HW119178   1.388   2.691   1.150
 6093SOL    HW219179   1.465   2.771   1.030
 6094SOL     OW19180   1.219   1.294   1.764
 6094SOL    HW119181   1.203   1.196   1.774
 6094SOL    HW219182   1.141   1.345   1.799
 6095SOL     OW19183   5.905   3.535   6.854
 6095SOL    HW119184   6.001   3.528   6.880
 6095SOL    HW219185   5.859   3.450   6.876
 6096SOL     OW19186   4.157   1.207   4.207
 6096SOL    HW119187   4.083   1.254   4.160
 6096SOL    HW219188   4.196   1.268   4.277
 6097SOL     OW19189   2.691   1.102   2.151
 6097SOL    HW119190   2.686   1.090   2.250
 6097SOL    HW219191   2.747   1.183   2.130
 6098SOL     OW19192   2.501   2.431   5.405
 6098SOL    HW119193   2.583   2.401   5.357
 6098SOL    HW219194   2.420   2.404   5.353
 6099SOL     OW19195   5.985   6.017   5.081
 6099SOL    HW119196   5.990   5.986   4.987
 6099SOL    HW219197   5.922   6.094   5.088
 6100SOL     OW19198   6.509   3.158   0.359
 6100SOL    HW119199   6.574   3.218   0.405
 6100SOL    HW219200   6.439   3.129   0.425
 6101SOL     OW19201   6.600   1.616   5.964
 6101SOL    HW119202   6.684   1.659   5.932
 6101SOL    HW219203   6.560   1.563   5.888
 6102SOL     OW19204   3.256   1.025   4.902
 6102SOL    HW119205   3.266   0.971   4.986
 6102SOL    HW219206   3.318   0.990   4.832
 6103SOL     OW19207   6.338   7.014   4.467
 6103SOL    HW119208   6.358   6.983   4.560
 6103SOL    HW219209   6.267   6.955   4.427
 6104SOL     OW19210   5.965   1.479   0.040
 6104SOL    HW119211   5.923   1.401   0.084
 6104SOL    HW219212   5.894   1.540   0.004
 6105SOL     OW19213   3.419   5.636   5.782
 6105SOL    HW119214   3.478   5.704   5.739
 6105SOL    HW219215   3.473   5.555   5.805
 6106SOL     OW19216   2.987   4.509   6.211
 6106SOL    HW119217   2.987   4.446   6.288
 6106SOL    HW219218   2.931   4.472   6.137
 6107SOL     OW19219   2.371   5.075   4.735
 6107SOL    HW119220   2.324   4.993   4.765
 6107SOL    HW219221   2.308   5.153   4.736
 6108SOL     OW19222   0.769   2.017   4.279
 6108SOL    HW119223   0.822   2.099   4.300
 6108SOL    HW219224   0.726   1.983   4.363
 6109SOL     OW19225   5.552   3.280   0.690
 6109SOL    HW119226   5.476   3.232   0.647
 6109SOL    HW219227   5.539   3.379   0.680
 6110SOL     OW19228   3.364   1.407   5.247
 6110SOL    HW119229   3.285   1.416   5.186
 6110SOL    HW219230   3.370   1.312   5.278
 6111SOL     OW19231   1.441   4.889   3.133
 6111SOL    HW119232   1.531   4.932   3.137
 6111SOL    HW219233   1.445   4.798   3.176
 6112SOL     OW19234   1.308   1.768   2.852
 6112SOL    HW119235   1.333   1.671   2.847
 6112SOL    HW219236   1.372   1.821   2.796
 6113SOL     OW19237   1.406   6.838   5.805
 6113SOL    HW119238   1.456   6.886   5.733
 6113SOL    HW219239   1.435   6.743   5.808
 6114SOL     OW19240   4.800   5.973   0.597
 6114SOL    HW119241   4.733   5.963   0.524
 6114SOL    HW219242   4.841   5.883   0.616
 6115SOL     OW19243   4.765   5.344   2.782
 6115SOL    HW119244   4.707   5.375   2.707
 6115SOL    HW219245   4.711   5.288   2.845
 6116SOL     OW19246   3.697   1.007   2.052
 6116SOL    HW119247   3.672   1.017   2.148
 6116SOL    HW219248   3.629   0.949   2.005
 6117SOL     OW19249   5.679   6.549   4.846
 6117SOL    HW119250   5.766   6.588   4.877
 6117SOL    HW219251   5.616   6.622   4.821
 6118SOL     OW19252   6.208   1.198   3.386
 6118SOL    HW119253   6.155   1.245   3.316
 6118SOL    HW219254   6.195   1.244   3.474
 6119SOL     OW19255   0.035   5.540   4.245
 6119SOL    HW119256   0.065   5.516   4.153
 6119SOL    HW219257   0.093   5.613   4.281
 6120SOL     OW19258   2.729   6.596   2.612
 6120SOL    HW119259   2.648   6.569   2.561
 6120SOL    HW219260   2.809   6.548   2.576
 6121SOL     OW19261   0.264   2.621   3.698
 6121SOL    HW119262   0.239   2.716   3.715
 6121SOL    HW219263   0.299   2.611   3.604
 6122SOL     OW19264   3.866   6.158   3.207
 6122SOL    HW119265   3.964   6.138   3.216
 6122SOL    HW219266   3.818   6.074   3.182
 6123SOL     OW19267   6.494   1.204   2.073
 6123SOL    HW119268   6.420   1.179   2.135
 6123SOL    HW219269   6.465   1.188   1.978
 6124SOL     OW19270   3.103   0.313   5.770
 6124SOL    HW119271   3.128   0.405   5.802
 6124SOL    HW219272   3.181   0.252   5.781
 6125SOL     OW19273   2.196   6.090   1.551
 6125SOL    HW119274   2.221   6.111   1.645
 6125SOL    HW219275   2.112   6.036   1.550
 6126SOL     OW19276   5.336   4.570   2.871
 6126SOL    HW119277   5.367   4.635   2.941
 6126SOL    HW219278   5.410   4.556   2.805
 6127SOL     OW19279   2.400   5.937   1.489
 6127SOL    HW119280   2.323   5.997   1.512
 6127SOL    HW219281   2.461   5.929   1.567
 6128SOL     OW19282   6.732   2.254   0.100
 6128SOL    HW119283   6.652   2.200   0.127
 6128SOL    HW219284   6.738   2.336   0.158
 6129SOL     OW19285   6.152   4.189   2.306
 6129SOL    HW119286   6.128   4.259   2.374
 6129SOL    HW219287   6.182   4.234   2.221
 6130SOL     OW19288   4.992   3.002   3.529
 6130SOL    HW119289   4.979   2.987   3.627
 6130SOL    HW219290   5.016   2.916   3.485
 6131SOL     OW19291   6.566   1.207   5.381
 6131SOL    HW119292   6.486   1.219   5.322
 6131SOL    HW219293   6.591   1.110   5.383
 6132SOL     OW19294   4.250   2.804   1.175
 6132SOL    HW119295   4.179   2.844   1.233
 6132SOL    HW219296   4.208   2.743   1.108
 6133SOL     OW19297   0.993   3.995   1.339
 6133SOL    HW119298   1.026   4.051   1.263
 6133SOL    HW219299   1.045   3.910   1.342
 6134SOL     OW19300   4.207   3.653   6.522
 6134SOL    HW119301   4.193   3.685   6.615
 6134SOL    HW219302   4.294   3.604   6.515
 6135SOL     OW19303   6.515   6.883   0.923
 6135SOL    HW119304   6.427   6.922   0.951
 6135SOL    HW219305   6.571   6.953   0.880
 6136SOL     OW19306   0.955   1.937   1.907
 6136SOL    HW119307   0.940   2.034   1.887
 6136SOL    HW219308   0.868   1.888   1.903
 6137SOL     OW19309   2.726   6.384   5.950
 6137SOL    HW119310   2.671   6.304   5.974
 6137SOL    HW219311   2.806   6.388   6.008
 6138SOL     OW19312   3.429   5.937   2.777
 6138SOL    HW119313   3.504   6.000   2.798
 6138SOL    HW219314   3.451   5.884   2.695
 6139SOL     OW19315   1.388   4.103   4.593
 6139SOL    HW119316   1.326   4.176   4.566
 6139SOL    HW219317   1.335   4.022   4.619
 6140SOL     OW19318   1.249   0.080   1.766
 6140SOL    HW119319   1.303   0.134   1.831
 6140SOL    HW219320   1.236   7.004   1.802
 6141SOL     OW19321   6.489   5.154   5.738
 6141SOL    HW119322   6.518   5.059   5.730
 6141SOL    HW219323   6.491   5.181   5.835
 6142SOL     OW19324   6.828   3.942   1.156
 6142SOL    HW119325   6.805   4.034   1.187
 6142SOL    HW219326   6.781   3.922   1.070
 6143SOL     OW19327   5.836   5.142   6.559
 6143SOL    HW119328   5.900   5.153   6.635
 6143SOL    HW219329   5.756   5.090   6.590
 6144SOL     OW19330   0.011   3.927   3.654
 6144SOL    HW119331   0.105   3.923   3.688
 6144SOL    HW219332   6.973   3.988   3.712
 6145SOL     OW19333   4.652   5.943   2.971
 6145SOL    HW119334   4.614   5.965   3.061
 6145SOL    HW219335   4.706   5.859   2.978
 6146SOL     OW19336   5.516   1.561   3.195
 6146SOL    HW119337   5.593   1.584   3.255
 6146SOL    HW219338   5.522   1.465   3.168
 6147SOL     OW19339   2.186   3.917   2.560
 6147SOL    HW119340   2.174   3.839   2.499
 6147SOL    HW219341   2.157   4.001   2.512
 6148SOL     OW19342   6.420   6.242   4.202
 6148SOL    HW119343   6.502   6.185   4.216
 6148SOL    HW219344   6.418   6.314   4.272
 6149SOL     OW19345   3.404   5.303   3.063
 6149SOL    HW119346   3.364   5.211   3.069
 6149SOL    HW219347   3.341   5.369   3.103
 6150SOL     OW19348   4.744   6.414   5.951
 6150SOL    HW119349   4.831   6.369   5.931
 6150SOL    HW219350   4.674   6.344   5.969
 6151SOL     OW19351   5.095   2.254   5.199
 6151SOL    HW119352   5.122   2.256   5.103
 6151SOL    HW219353   4.997   2.273   5.207
 6152SOL     OW19354   5.960   4.356   6.490
 6152SOL    HW119355   5.995   4.303   6.414
 6152SOL    HW219356   5.865   4.330   6.509
 6153SOL     OW19357   4.246   3.996   1.409
 6153SOL    HW119358   4.298   3.970   1.490
 6153SOL    HW219359   4.149   4.003   1.432
 6154SOL     OW19360   5.611   2.661   3.278
 6154SOL    HW119361   5.531   2.613   3.313
 6154SOL    HW219362   5.638   2.621   3.190
 6155SOL     OW19363   0.169   3.391   4.923
 6155SOL    HW119364   0.090   3.452   4.926
 6155SOL    HW219365   0.238   3.422   4.988
 6156SOL     OW19366   6.020   6.634   2.804
 6156SOL    HW119367   6.003   6.543   2.766
 6156SOL    HW219368   5.990   6.704   2.738
 6157SOL     OW19369   2.091   1.436   4.353
 6157SOL    HW119370   2.177   1.427   4.403
 6157SOL    HW219371   2.098   1.508   4.285
 6158SOL     OW19372   4.864   0.983   6.400
 6158SOL    HW119373   4.945   1.031   6.366
 6158SOL    HW219374   4.886   0.886   6.413
 6159SOL     OW19375   5.524   2.904   0.644
 6159SOL    HW119376   5.459   2.895   0.720
 6159SOL    HW219377   5.506   2.832   0.577
 6160SOL     OW19378   5.545   5.995   1.730
 6160SOL    HW119379   5.598   6.041   1.658
 6160SOL    HW219380   5.584   6.017   1.819
 6161SOL     OW19381   5.457   0.147   5.979
 6161SOL    HW119382   5.438   0.184   6.070
 6161SOL    HW219383   5.554   0.122   5.973
 6162SOL     OW19384   0.380   5.309   4.404
 6162SOL    HW119385   0.326   5.345   4.480
 6162SOL    HW219386   0.349   5.351   4.318
 6163SOL     OW19387   6.209   4.108   0.727
 6163SOL    HW119388   6.241   4.023   0.768
 6163SOL    HW219389   6.116   4.128   0.758
 6164SOL     OW19390   3.136   1.554   1.026
 6164SOL    HW119391   3.043   1.528   1.052
 6164SOL    HW219392   3.189   1.576   1.109
 6165SOL     OW19393   3.907   6.611   6.975
 6165SOL    HW119394   3.875   6.609   0.054
 6165SOL    HW219395   3.829   6.599   6.913
 6166SOL     OW19396   2.646   1.136   5.967
 6166SOL    HW119397   2.673   1.223   6.008
 6166SOL    HW219398   2.701   1.062   6.004
 6167SOL     OW19399   0.640   4.092   3.426
 6167SOL    HW119400   0.668   4.014   3.370
 6167SOL    HW219401   0.599   4.059   3.511
 6168SOL     OW19402   0.438   4.164   2.522
 6168SOL    HW119403   0.466   4.197   2.432
 6168SOL    HW219404   0.340   4.182   2.534
 6169SOL     OW19405   2.069   4.179   2.485
 6169SOL    HW119406   2.155   4.209   2.443
 6169SOL    HW219407   2.007   4.257   2.492
 6170SOL     OW19408   0.001   3.459   5.415
 6170SOL    HW119409   0.092   3.498   5.407
 6170SOL    HW219410   0.007   3.362   5.436
 6171SOL     OW19411   0.391   0.257   6.671
 6171SOL    HW119412   0.476   0.302   6.643
 6171SOL    HW219413   0.386   0.166   6.629
 6172SOL     OW19414   0.491   3.181   2.684
 6172SOL    HW119415   0.406   3.228   2.708
 6172SOL    HW219416   0.533   3.226   2.605
 6173SOL     OW19417   6.360   6.810   2.829
 6173SOL    HW119418   6.308   6.894   2.808
 6173SOL    HW219419   6.454   6.835   2.854
 6174SOL     OW19420   5.758   4.248   2.808
 6174SOL    HW119421   5.713   4.338   2.806
 6174SOL    HW219422   5.712   4.189   2.874
 6175SOL     OW19423   2.471   1.386   4.839
 6175SOL    HW119424   2.372   1.374   4.824
 6175SOL    HW219425   2.509   1.444   4.768
 6176SOL     OW19426   4.216   4.576   5.304
 6176SOL    HW119427   4.197   4.649   5.238
 6176SOL    HW219428   4.251   4.496   5.256
 6177SOL     OW19429   6.086   1.594   2.125
 6177SOL    HW119430   6.153   1.537   2.172
 6177SOL    HW219431   6.040   1.541   2.054
 6178SOL     OW19432   5.463   4.297   1.973
 6178SOL    HW119433   5.524   4.225   1.939
 6178SOL    HW219434   5.515   4.360   2.030
 6179SOL     OW19435   6.333   4.935   2.985
 6179SOL    HW119436   6.266   5.007   2.965
 6179SOL    HW219437   6.379   4.907   2.900
 6180SOL     OW19438   3.039   4.550   0.114
 6180SOL    HW119439   2.968   4.531   0.181
 6180SOL    HW219440   2.999   4.551   0.022
 6181SOL     OW19441   4.716   5.021   6.202
 6181SOL    HW119442   4.699   4.923   6.196
 6181SOL    HW219443   4.778   5.039   6.279
 6182SOL     OW19444   3.170   3.239   0.166
 6182SOL    HW119445   3.217   3.283   0.243
 6182SOL    HW219446   3.225   3.163   0.132
 6183SOL     OW19447   0.696   2.051   1.328
 6183SOL    HW119448   0.719   2.115   1.401
 6183SOL    HW219449   0.603   2.016   1.342
 6184SOL     OW19450   2.621   0.651   5.849
 6184SOL    HW119451   2.568   0.732   5.875
 6184SOL    HW219452   2.595   0.622   5.757
 6185SOL     OW19453   3.139   2.679   5.584
 6185SOL    HW119454   3.116   2.627   5.502
 6185SOL    HW219455   3.078   2.652   5.659
 6186SOL     OW19456   6.273   1.730   1.822
 6186SOL    HW119457   6.263   1.773   1.911
 6186SOL    HW219458   6.304   1.798   1.755
 6187SOL     OW19459   4.940   1.748   5.503
 6187SOL    HW119460   5.005   1.722   5.431
 6187SOL    HW219461   4.956   1.843   5.529
 6188SOL     OW19462   1.946   1.853   5.177
 6188SOL    HW119463   1.909   1.792   5.247
 6188SOL    HW219464   1.917   1.947   5.196
 6189SOL     OW19465   5.213   6.322   2.368
 6189SOL    HW119466   5.246   6.335   2.462
 6189SOL    HW219467   5.158   6.238   2.364
 6190SOL     OW19468   0.266   2.228   5.351
 6190SOL    HW119469   0.299   2.152   5.296
 6190SOL    HW219470   0.287   2.211   5.448
 6191SOL     OW19471   3.455   3.478   6.703
 6191SOL    HW119472   3.454   3.550   6.772
 6191SOL    HW219473   3.432   3.516   6.614
 6192SOL     OW19474   2.813   1.928   0.613
 6192SOL    HW119475   2.754   1.891   0.541
 6192SOL    HW219476   2.905   1.890   0.604
 6193SOL     OW19477   4.833   5.397   6.683
 6193SOL    HW119478   4.845   5.446   6.597
 6193SOL    HW219479   4.849   5.299   6.669
 6194SOL     OW19480   6.657   0.067   6.331
 6194SOL    HW119481   6.666   6.983   6.335
 6194SOL    HW219482   6.562   0.092   6.351
 6195SOL     OW19483   6.261   6.713   5.756
 6195SOL    HW119484   6.344   6.742   5.709
 6195SOL    HW219485   6.248   6.615   5.743
 6196SOL     OW19486   5.553   3.948   3.211
 6196SOL    HW119487   5.579   3.852   3.204
 6196SOL    HW219488   5.489   3.971   3.138
 6197SOL     OW19489   2.973   5.476   1.901
 6197SOL    HW119490   3.025   5.475   1.987
 6197SOL    HW219491   3.027   5.523   1.831
 6198SOL     OW19492   6.531   6.696   6.510
 6198SOL    HW119493   6.590   6.621   6.540
 6198SOL    HW219494   6.574   6.741   6.431
 6199SOL     OW19495   1.130   0.247   0.828
 6199SOL    HW119496   1.128   0.232   0.729
 6199SOL    HW219497   1.194   0.183   0.870
 6200SOL     OW19498   1.916   2.201   2.738
 6200SOL    HW119499   1.901   2.115   2.689
 6200SOL    HW219500   1.833   2.226   2.787
 6201SOL     OW19501   6.734   3.470   4.216
 6201SOL    HW119502   6.809   3.448   4.279
 6201SOL    HW219503   6.771   3.515   4.135
 6202SOL     OW19504   6.367   1.748   2.913
 6202SOL    HW119505   6.358   1.813   2.837
 6202SOL    HW219506   6.352   1.655   2.879
 6203SOL     OW19507   6.118   5.986   1.800
 6203SOL    HW119508   6.160   5.900   1.772
 6203SOL    HW219509   6.068   5.973   1.886
 6204SOL     OW19510   2.100   0.172   5.067
 6204SOL    HW119511   2.079   0.248   5.005
 6204SOL    HW219512   2.169   0.200   5.133
 6205SOL     OW19513   4.899   4.357   3.238
 6205SOL    HW119514   4.951   4.421   3.182
 6205SOL    HW219515   4.904   4.266   3.197
 6206SOL     OW19516   5.068   2.281   3.831
 6206SOL    HW119517   5.159   2.270   3.793
 6206SOL    HW219518   5.067   2.248   3.926
 6207SOL     OW19519   2.137   5.768   4.373
 6207SOL    HW119520   2.065   5.727   4.317
 6207SOL    HW219521   2.221   5.776   4.319
 6208SOL     OW19522   3.763   2.839   5.829
 6208SOL    HW119523   3.810   2.827   5.917
 6208SOL    HW219524   3.783   2.762   5.769
 6209SOL     OW19525   3.816   3.628   0.965
 6209SOL    HW119526   3.844   3.706   1.021
 6209SOL    HW219527   3.729   3.592   0.999
 6210SOL     OW19528   4.617   2.377   3.573
 6210SOL    HW119529   4.622   2.286   3.612
 6210SOL    HW219530   4.526   2.415   3.588
 6211SOL     OW19531   5.432   5.255   4.665
 6211SOL    HW119532   5.349   5.300   4.698
 6211SOL    HW219533   5.407   5.172   4.615
 6212SOL     OW19534   4.322   4.152   5.920
 6212SOL    HW119535   4.267   4.117   5.844
 6212SOL    HW219536   4.401   4.092   5.933
 6213SOL     OW19537   4.461   5.802   0.229
 6213SOL    HW119538   4.528   5.806   0.155
 6213SOL    HW219539   4.418   5.711   0.230
 6214SOL     OW19540   5.881   5.844   5.983
 6214SOL    HW119541   5.963   5.899   5.999
 6214SOL    HW219542   5.897   5.750   6.013
 6215SOL     OW19543   5.749   2.388   5.784
 6215SOL    HW119544   5.816   2.318   5.762
 6215SOL    HW219545   5.779   2.438   5.866
 6216SOL     OW19546   4.768   2.288   3.152
 6216SOL    HW119547   4.712   2.370   3.167
 6216SOL    HW219548   4.852   2.294   3.206
 6217SOL     OW19549   0.878   4.669   2.305
 6217SOL    HW119550   0.793   4.652   2.354
 6217SOL    HW219551   0.874   4.625   2.215
 6218SOL     OW19552   4.550   6.604   6.789
 6218SOL    HW119553   4.537   6.694   6.831
 6218SOL    HW219554   4.537   6.532   6.857
 6219SOL     OW19555   0.849   0.987   6.149
 6219SOL    HW119556   0.863   0.888   6.152
 6219SOL    HW219557   0.929   1.034   6.186
 6220SOL     OW19558   4.331   0.890   1.023
 6220SOL    HW119559   4.352   0.985   1.000
 6220SOL    HW219560   4.242   0.865   0.985
 6221SOL     OW19561   6.246   5.857   6.576
 6221SOL    HW119562   6.334   5.886   6.536
 6221SOL    HW219563   6.194   5.807   6.507
 6222SOL     OW19564   6.664   1.405   2.837
 6222SOL    HW119565   6.700   1.356   2.916
 6222SOL    HW219566   6.681   1.353   2.754
 6223SOL     OW19567   0.437   4.681   3.745
 6223SOL    HW119568   0.472   4.663   3.653
 6223SOL    HW219569   0.510   4.715   3.803
 6224SOL     OW19570   4.582   2.057   0.058
 6224SOL    HW119571   4.528   2.024   6.996
 6224SOL    HW219572   4.540   2.140   0.095
 6225SOL     OW19573   4.330   0.029   6.533
 6225SOL    HW119574   4.298   0.115   6.574
 6225SOL    HW219575   4.430   0.027   6.532
 6226SOL     OW19576   0.891   1.411   4.223
 6226SOL    HW119577   0.854   1.485   4.167
 6226SOL    HW219578   0.980   1.439   4.259
 6227SOL     OW19579   2.935   3.833   4.987
 6227SOL    HW119580   2.916   3.742   5.024
 6227SOL    HW219581   2.850   3.876   4.958
 6228SOL     OW19582   2.143   2.658   3.606
 6228SOL    HW119583   2.125   2.659   3.705
 6228SOL    HW219584   2.239   2.682   3.590
 6229SOL     OW19585   0.287   3.780   3.906
 6229SOL    HW119586   0.367   3.775   3.966
 6229SOL    HW219587   0.235   3.862   3.927
 6230SOL     OW19588   0.554   1.271   2.072
 6230SOL    HW119589   0.600   1.211   2.138
 6230SOL    HW219590   0.476   1.222   2.032
 6231SOL     OW19591   0.655   5.652   0.143
 6231SOL    HW119592   0.684   5.567   0.187
 6231SOL    HW219593   0.663   5.728   0.207
 6232SOL     OW19594   4.550   1.541   6.832
 6232SOL    HW119595   4.605   1.557   6.749
 6232SOL    HW219596   4.582   1.600   6.906
 6233SOL     OW19597   0.423   3.443   1.788
 6233SOL    HW119598   0.499   3.446   1.723
 6233SOL    HW219599   0.402   3.536   1.819
 6234SOL     OW19600   5.287   0.020   4.509
 6234SOL    HW119601   5.308   0.104   4.559
 6234SOL    HW219602   5.336   0.020   4.422
 6235SOL     OW19603   6.878   0.478   2.926
 6235SOL    HW119604   6.799   0.459   2.868
 6235SOL    HW219605   6.960   0.486   2.868
 6236SOL     OW19606   0.482   4.765   1.002
 6236SOL    HW119607   0.492   4.857   1.039
 6236SOL    HW219608   0.447   4.770   0.909
 6237SOL     OW19609   3.963   1.066   1.185
 6237SOL    HW119610   3.888   1.020   1.139
 6237SOL    HW219611   4.012   1.124   1.120
 6238SOL     OW19612   2.264   6.949   4.585
 6238SOL    HW119613   2.248   6.870   4.526
 6238SOL    HW219614   2.355   6.986   4.568
 6239SOL     OW19615   4.717   1.360   3.078
 6239SOL    HW119616   4.794   1.298   3.063
 6239SOL    HW219617   4.643   1.311   3.123
 6240SOL     OW19618   4.108   3.534   4.039
 6240SOL    HW119619   4.008   3.540   4.043
 6240SOL    HW219620   4.140   3.574   3.953
 6241SOL     OW19621   3.296   6.836   3.246
 6241SOL    HW119622   3.372   6.847   3.309
 6241SOL    HW219623   3.210   6.841   3.297
 6242SOL     OW19624   3.000   2.024   3.766
 6242SOL    HW119625   2.922   2.010   3.705
 6242SOL    HW219626   3.069   1.954   3.749
 6243SOL     OW19627   5.350   1.398   5.897
 6243SOL    HW119628   5.322   1.304   5.881
 6243SOL    HW219629   5.311   1.431   5.983
 6244SOL     OW19630   4.201   4.753   3.008
 6244SOL    HW119631   4.271   4.691   3.044
 6244SOL    HW219632   4.177   4.725   2.915
 6245SOL     OW19633   0.828   4.547   2.576
 6245SOL    HW119634   0.770   4.506   2.646
 6245SOL    HW219635   0.790   4.526   2.486
 6246SOL     OW19636   6.836   6.560   4.615
 6246SOL    HW119637   6.900   6.544   4.540
 6246SOL    HW219638   6.749   6.516   4.594
 6247SOL     OW19639   6.493   6.256   2.171
 6247SOL    HW119640   6.471   6.353   2.160
 6247SOL    HW219641   6.590   6.246   2.194
 6248SOL     OW19642   3.385   3.066   6.553
 6248SOL    HW119643   3.353   3.047   6.460
 6248SOL    HW219644   3.336   3.145   6.589
 6249SOL     OW19645   5.977   3.267   1.349
 6249SOL    HW119646   5.884   3.298   1.330
 6249SOL    HW219647   5.975   3.175   1.387
 6250SOL     OW19648   6.947   0.398   0.600
 6250SOL    HW119649   0.023   0.400   0.639
 6250SOL    HW219650   6.904   0.488   0.610
 6251SOL     OW19651   2.679   6.793   4.157
 6251SOL    HW119652   2.770   6.773   4.195
 6251SOL    HW219653   2.649   6.716   4.100
 6252SOL     OW19654   2.695   5.373   6.964
 6252SOL    HW119655   2.761   5.305   6.996
 6252SOL    HW219656   2.739   5.433   6.896
 6253SOL     OW19657   3.409   5.095   4.797
 6253SOL    HW119658   3.382   5.011   4.843
 6253SOL    HW219659   3.499   5.082   4.754
 6254SOL     OW19660   0.301   6.158   1.097
 6254SOL    HW119661   0.366   6.165   1.022
 6254SOL    HW219662   0.225   6.221   1.082
 6255SOL     OW19663   0.516   1.185   1.511
 6255SOL    HW119664   0.520   1.252   1.437
 6255SOL    HW219665   0.595   1.124   1.504
 6256SOL     OW19666   5.043   5.642   2.774
 6256SOL    HW119667   5.142   5.625   2.773
 6256SOL    HW219668   4.999   5.581   2.708
 6257SOL     OW19669   3.944   4.248   1.608
 6257SOL    HW119670   3.900   4.318   1.664
 6257SOL    HW219671   4.043   4.256   1.615
 6258SOL     OW19672   4.627   6.131   5.720
 6258SOL    HW119673   4.637   6.192   5.642
 6258SOL    HW219674   4.584   6.179   5.796
 6259SOL     OW19675   2.597   0.811   4.883
 6259SOL    HW119676   2.558   0.903   4.895
 6259SOL    HW219677   2.696   0.818   4.876
 6260SOL     OW19678   2.069   1.870   0.394
 6260SOL    HW119679   2.166   1.894   0.400
 6260SOL    HW219680   2.015   1.952   0.381
 6261SOL     OW19681   4.008   6.756   1.033
 6261SOL    HW119682   4.024   6.854   1.036
 6261SOL    HW219683   4.028   6.722   0.941
 6262SOL     OW19684   6.288   0.370   1.803
 6262SOL    HW119685   6.231   0.348   1.724
 6262SOL    HW219686   6.270   0.305   1.877
 6263SOL     OW19687   6.248   6.376   5.956
 6263SOL    HW119688   6.158   6.394   5.996
 6263SOL    HW219689   6.292   6.301   6.005
 6264SOL     OW19690   1.611   6.824   1.075
 6264SOL    HW119691   1.548   6.755   1.040
 6264SOL    HW219692   1.562   6.883   1.140
 6265SOL     OW19693   4.858   1.415   0.033
 6265SOL    HW119694   4.865   1.514   0.024
 6265SOL    HW219695   4.815   1.378   6.966
 6266SOL     OW19696   2.823   5.066   3.110
 6266SOL    HW119697   2.859   5.024   3.193
 6266SOL    HW219698   2.723   5.074   3.117
 6267SOL     OW19699   1.378   6.549   4.741
 6267SOL    HW119700   1.294   6.501   4.716
 6267SOL    HW219701   1.425   6.498   4.813
 6268SOL     OW19702   3.787   0.651   1.231
 6268SOL    HW119703   3.784   0.624   1.328
 6268SOL    HW219704   3.881   0.670   1.205
 6269SOL     OW19705   5.766   5.367   0.543
 6269SOL    HW119706   5.803   5.460   0.543
 6269SOL    HW219707   5.693   5.359   0.475
 6270SOL     OW19708   2.037   6.246   0.403
 6270SOL    HW119709   1.998   6.169   0.352
 6270SOL    HW219710   2.136   6.246   0.394
 6271SOL     OW19711   6.075   3.092   6.253
 6271SOL    HW119712   6.042   3.107   6.346
 6271SOL    HW219713   6.011   3.134   6.189
 6272SOL     OW19714   0.105   6.677   0.690
 6272SOL    HW119715   0.079   6.773   0.699
 6272SOL    HW219716   0.193   6.671   0.643
 6273SOL     OW19717   7.006   0.085   1.313
 6273SOL    HW119718   0.075   0.072   1.262
 6273SOL    HW219719   0.009   0.074   1.411
 6274SOL     OW19720   3.338   5.599   4.384
 6274SOL    HW119721   3.305   5.669   4.320
 6274SOL    HW219722   3.271   5.525   4.389
 6275SOL     OW19723   1.987   5.305   6.770
 6275SOL    HW119724   2.005   5.373   6.842
 6275SOL    HW219725   2.049   5.227   6.782
 6276SOL     OW19726   1.542   5.650   2.511
 6276SOL    HW119727   1.502   5.614   2.595
 6276SOL    HW219728   1.601   5.729   2.532
 6277SOL     OW19729   5.348   3.514   1.459
 6277SOL    HW119730   5.419   3.448   1.435
 6277SOL    HW219731   5.259   3.479   1.429
 6278SOL     OW19732   2.746   0.373   6.218
 6278SOL    HW119733   2.842   0.344   6.222
 6278SOL    HW219734   2.696   0.331   6.293
 6279SOL     OW19735   2.711   0.354   1.761
 6279SOL    HW119736   2.775   0.304   1.702
 6279SOL    HW219737   2.707   0.450   1.731
 6280SOL     OW19738   6.750   1.701   0.028
 6280SOL    HW119739   6.722   1.669   6.953
 6280SOL    HW219740   6.722   1.796   0.040
 6281SOL     OW19741   6.028   3.945   5.509
 6281SOL    HW119742   6.025   3.845   5.506
 6281SOL    HW219743   6.046   3.974   5.603
 6282SOL     OW19744   0.247   3.688   5.679
 6282SOL    HW119745   0.195   3.609   5.646
 6282SOL    HW219746   0.343   3.679   5.653
 6283SOL     OW19747   1.361   5.646   4.740
 6283SOL    HW119748   1.394   5.556   4.712
 6283SOL    HW219749   1.438   5.701   4.773
 6284SOL     OW19750   2.231   4.263   6.248
 6284SOL    HW119751   2.270   4.355   6.261
 6284SOL    HW219752   2.223   4.218   6.337
 6285SOL     OW19753   0.942   4.023   3.605
 6285SOL    HW119754   0.968   3.927   3.592
 6285SOL    HW219755   0.996   4.081   3.543
 6286SOL     OW19756   1.011   2.681   5.799
 6286SOL    HW119757   1.076   2.646   5.731
 6286SOL    HW219758   1.016   2.781   5.801
 6287SOL     OW19759   4.868   4.894   4.836
 6287SOL    HW119760   4.955   4.846   4.830
 6287SOL    HW219761   4.877   4.973   4.897
 6288SOL     OW19762   3.725   3.095   6.829
 6288SOL    HW119763   3.692   3.002   6.810
 6288SOL    HW219764   3.825   3.096   6.826
 6289SOL     OW19765   2.802   4.549   5.789
 6289SOL    HW119766   2.782   4.631   5.736
 6289SOL    HW219767   2.735   4.478   5.767
 6290SOL     OW19768   5.055   5.818   4.734
 6290SOL    HW119769   4.993   5.896   4.728
 6290SOL    HW219770   5.094   5.813   4.826
 6291SOL     OW19771   3.805   3.459   3.393
 6291SOL    HW119772   3.751   3.375   3.391
 6291SOL    HW219773   3.744   3.538   3.398
 6292SOL     OW19774   1.783   3.154   4.546
 6292SOL    HW119775   1.873   3.113   4.552
 6292SOL    HW219776   1.752   3.151   4.451
 6293SOL     OW19777   4.280   1.468   6.841
 6293SOL    HW119778   4.379   1.473   6.851
 6293SOL    HW219779   4.254   1.501   6.750
 6294SOL     OW19780   1.842   1.562   3.231
 6294SOL    HW119781   1.812   1.583   3.137
 6294SOL    HW219782   1.936   1.592   3.244
 6295SOL     OW19783   5.614   3.603   5.526
 6295SOL    HW119784   5.519   3.632   5.518
 6295SOL    HW219785   5.633   3.530   5.460
 6296SOL     OW19786   0.611   2.695   6.634
 6296SOL    HW119787   0.639   2.600   6.645
 6296SOL    HW219788   0.570   2.728   6.720
 6297SOL     OW19789   5.759   0.687   3.830
 6297SOL    HW119790   5.765   0.587   3.833
 6297SOL    HW219791   5.663   0.715   3.829
 6298SOL     OW19792   6.176   5.112   0.593
 6298SOL    HW119793   6.252   5.047   0.584
 6298SOL    HW219794   6.180   5.156   0.682
 6299SOL     OW19795   4.542   1.849   2.546
 6299SOL    HW119796   4.597   1.894   2.475
 6299SOL    HW219797   4.452   1.891   2.550
 6300SOL     OW19798   2.944   0.230   6.401
 6300SOL    HW119799   2.930   0.240   6.499
 6300SOL    HW219800   2.889   0.153   6.367
 6301SOL     OW19801   3.590   6.118   0.057
 6301SOL    HW119802   3.613   6.154   6.982
 6301SOL    HW219803   3.584   6.194   0.122
 6302SOL     OW19804   2.813   1.345   6.023
 6302SOL    HW119805   2.774   1.410   5.958
 6302SOL    HW219806   2.909   1.367   6.039
 6303SOL     OW19807   1.233   5.737   5.413
 6303SOL    HW119808   1.169   5.729   5.489
 6303SOL    HW219809   1.227   5.655   5.356
 6304SOL     OW19810   4.305   0.983   3.388
 6304SOL    HW119811   4.223   1.034   3.365
 6304SOL    HW219812   4.346   0.946   3.305
 6305SOL     OW19813   1.106   6.197   6.095
 6305SOL    HW119814   1.065   6.268   6.037
 6305SOL    HW219815   1.149   6.240   6.174
 6306SOL     OW19816   0.105   4.618   3.940
 6306SOL    HW119817   0.151   4.707   3.944
 6306SOL    HW219818   0.169   4.549   3.909
 6307SOL     OW19819   3.950   3.561   3.018
 6307SOL    HW119820   3.934   3.517   2.929
 6307SOL    HW219821   4.025   3.516   3.065
 6308SOL     OW19822   0.257   2.308   0.300
 6308SOL    HW119823   0.277   2.300   0.203
 6308SOL    HW219824   0.206   2.227   0.330
 6309SOL     OW19825   1.897   6.006   4.346
 6309SOL    HW119826   1.821   6.002   4.282
 6309SOL    HW219827   1.866   5.976   4.436
 6310SOL     OW19828   1.195   6.128   3.378
 6310SOL    HW119829   1.141   6.174   3.307
 6310SOL    HW219830   1.249   6.055   3.336
 6311SOL     OW19831   4.938   1.060   5.594
 6311SOL    HW119832   4.849   1.094   5.564
 6311SOL    HW219833   4.929   1.015   5.682
 6312SOL     OW19834   3.862   6.391   6.626
 6312SOL    HW119835   3.838   6.333   6.549
 6312SOL    HW219836   3.957   6.421   6.617
 6313SOL     OW19837   6.027   6.049   4.081
 6313SOL    HW119838   5.997   6.032   4.175
 6313SOL    HW219839   6.112   6.100   4.082
 6314SOL     OW19840   1.526   6.729   2.434
 6314SOL    HW119841   1.476   6.680   2.505
 6314SOL    HW219842   1.474   6.809   2.406
 6315SOL     OW19843   2.118   2.608   4.203
 6315SOL    HW119844   2.039   2.561   4.241
 6315SOL    HW219845   2.088   2.685   4.146
 6316SOL     OW19846   5.419   0.732   4.721
 6316SOL    HW119847   5.453   0.671   4.650
 6316SOL    HW219848   5.381   0.678   4.796
 6317SOL     OW19849   4.946   4.786   1.727
 6317SOL    HW119850   5.031   4.833   1.751
 6317SOL    HW219851   4.886   4.784   1.807
 6318SOL     OW19852   6.728   6.798   6.334
 6318SOL    HW119853   6.730   6.742   6.251
 6318SOL    HW219854   6.817   6.839   6.349
 6319SOL     OW19855   5.526   1.456   4.739
 6319SOL    HW119856   5.564   1.548   4.749
 6319SOL    HW219857   5.456   1.441   4.808
 6320SOL     OW19858   6.271   0.270   5.076
 6320SOL    HW119859   6.303   0.253   4.983
 6320SOL    HW219860   6.273   0.368   5.095
 6321SOL     OW19861   5.789   2.079   0.195
 6321SOL    HW119862   5.784   2.133   0.110
 6321SOL    HW219863   5.745   2.130   0.269
 6322SOL     OW19864   1.563   1.205   1.917
 6322SOL    HW119865   1.660   1.204   1.941
 6322SOL    HW219866   1.535   1.113   1.889
 6323SOL     OW19867   2.814   3.497   1.272
 6323SOL    HW119868   2.739   3.503   1.207
 6323SOL    HW219869   2.835   3.401   1.292
 6324SOL     OW19870   4.826   1.458   0.943
 6324SOL    HW119871   4.862   1.523   1.010
 6324SOL    HW219872   4.732   1.482   0.920
 6325SOL     OW19873   1.516   2.469   3.658
 6325SOL    HW119874   1.483   2.401   3.593
 6325SOL    HW219875   1.616   2.466   3.661
 6326SOL     OW19876   5.400   4.574   5.620
 6326SOL    HW119877   5.392   4.502   5.552
 6326SOL    HW219878   5.484   4.625   5.605
 6327SOL     OW19879   0.283   0.620   3.305
 6327SOL    HW119880   0.326   0.614   3.215
 6327SOL    HW219881   0.350   0.600   3.376
 6328SOL     OW19882   4.436   3.703   5.306
 6328SOL    HW119883   4.496   3.681   5.229
 6328SOL    HW219884   4.434   3.802   5.320
 6329SOL     OW19885   1.358   2.608   5.444
 6329SOL    HW119886   1.441   2.555   5.431
 6329SOL    HW219887   1.311   2.619   5.357
 6330SOL     OW19888   5.452   1.614   3.613
 6330SOL    HW119889   5.548   1.590   3.624
 6330SOL    HW219890   5.399   1.531   3.595
 6331SOL     OW19891   0.166   3.321   2.991
 6331SOL    HW119892   0.170   3.231   3.036
 6331SOL    HW219893   0.181   3.393   3.059
 6332SOL     OW19894   2.795   1.612   0.623
 6332SOL    HW119895   2.749   1.583   0.707
 6332SOL    HW219896   2.894   1.607   0.635
 6333SOL     OW19897   5.121   1.596   0.794
 6333SOL    HW119898   5.171   1.536   0.856
 6333SOL    HW219899   5.023   1.578   0.802
 6334SOL     OW19900   1.843   1.125   1.992
 6334SOL    HW119901   1.899   1.204   1.966
 6334SOL    HW219902   1.852   1.053   1.923
 6335SOL     OW19903   6.498   1.778   0.832
 6335SOL    HW119904   6.486   1.874   0.855
 6335SOL    HW219905   6.410   1.731   0.838
 6336SOL     OW19906   0.441   3.034   5.440
 6336SOL    HW119907   0.415   2.953   5.388
 6336SOL    HW219908   0.540   3.035   5.452
 6337SOL     OW19909   4.674   5.748   4.679
 6337SOL    HW119910   4.630   5.804   4.749
 6337SOL    HW219911   4.760   5.711   4.715
 6338SOL     OW19912   2.863   1.624   3.662
 6338SOL    HW119913   2.825   1.563   3.732
 6338SOL    HW219914   2.963   1.617   3.663
 6339SOL     OW19915   0.866   4.572   3.306
 6339SOL    HW119916   0.825   4.513   3.376
 6339SOL    HW219917   0.963   4.585   3.326
 6340SOL     OW19918   2.012   4.373   1.105
 6340SOL    HW119919   2.102   4.344   1.071
 6340SOL    HW219920   2.018   4.391   1.203
 6341SOL     OW19921   0.825   4.768   3.628
 6341SOL    HW119922   0.747   4.758   3.566
 6341SOL    HW219923   0.882   4.845   3.597
 6342SOL     OW19924   1.737   1.824   1.686
 6342SOL    HW119925   1.677   1.807   1.764
 6342SOL    HW219926   1.833   1.822   1.717
 6343SOL     OW19927   2.103   5.603   0.652
 6343SOL    HW119928   2.106   5.517   0.704
 6343SOL    HW219929   2.008   5.627   0.634
 6344SOL     OW19930   6.522   1.402   3.826
 6344SOL    HW119931   6.469   1.475   3.868
 6344SOL    HW219932   6.460   1.340   3.777
 6345SOL     OW19933   5.574   3.721   2.055
 6345SOL    HW119934   5.480   3.710   2.088
 6345SOL    HW219935   5.622   3.789   2.110
 6346SOL     OW19936   6.867   4.201   5.410
 6346SOL    HW119937   6.817   4.279   5.373
 6346SOL    HW219938   6.815   4.117   5.393
 6347SOL     OW19939   2.084   1.853   2.949
 6347SOL    HW119940   2.166   1.801   2.972
 6347SOL    HW219941   2.108   1.929   2.889
 6348SOL     OW19942   6.952   2.314   5.929
 6348SOL    HW119943   6.893   2.327   6.009
 6348SOL    HW219944   6.990   2.402   5.901
 6349SOL     OW19945   6.872   1.209   6.700
 6349SOL    HW119946   6.915   1.198   6.610
 6349SOL    HW219947   6.939   1.247   6.764
 6350SOL     OW19948   1.580   5.132   1.493
 6350SOL    HW119949   1.639   5.053   1.480
 6350SOL    HW219950   1.511   5.112   1.563
 6351SOL     OW19951   5.606   3.230   2.699
 6351SOL    HW119952   5.562   3.211   2.787
 6351SOL    HW219953   5.553   3.299   2.649
 6352SOL     OW19954   2.833   0.540   4.699
 6352SOL    HW119955   2.736   0.530   4.720
 6352SOL    HW219956   2.887   0.510   4.778
 6353SOL     OW19957   4.110   6.200   5.913
 6353SOL    HW119958   4.169   6.144   5.972
 6353SOL    HW219959   4.081   6.146   5.834
 6354SOL     OW19960   4.546   5.231   2.227
 6354SOL    HW119961   4.610   5.185   2.165
 6354SOL    HW219962   4.516   5.317   2.186
 6355SOL     OW19963   2.457   4.833   0.714
 6355SOL    HW119964   2.499   4.742   0.713
 6355SOL    HW219965   2.358   4.823   0.703
 6356SOL     OW19966   6.226   4.018   6.778
 6356SOL    HW119967   6.215   3.983   6.685
 6356SOL    HW219968   6.185   4.109   6.785
 6357SOL     OW19969   5.911   1.210   1.418
 6357SOL    HW119970   5.879   1.304   1.432
 6357SOL    HW219971   6.011   1.208   1.424
 6358SOL     OW19972   1.346   2.356   6.794
 6358SOL    HW119973   1.413   2.417   6.753
 6358SOL    HW219974   1.317   2.287   6.727
 6359SOL     OW19975   5.163   6.243   0.713
 6359SOL    HW119976   5.222   6.311   0.757
 6359SOL    HW219977   5.101   6.289   0.649
 6360SOL     OW19978   0.991   2.469   1.907
 6360SOL    HW119979   0.928   2.527   1.855
 6360SOL    HW219980   1.018   2.516   1.991
 6361SOL     OW19981   0.814   0.060   6.968
 6361SOL    HW119982   0.736   0.095   0.004
 6361SOL    HW219983   0.831   0.118   6.889
 6362SOL     OW19984   1.307   5.773   6.986
 6362SOL    HW119985   1.233   5.834   6.957
 6362SOL    HW219986   1.308   5.765   0.070
 6363SOL     OW19987   2.551   4.690   3.608
 6363SOL    HW119988   2.458   4.653   3.609
 6363SOL    HW219989   2.602   4.657   3.687
 6364SOL     OW19990   2.099   2.884   4.364
 6364SOL    HW119991   2.003   2.857   4.365
 6364SOL    HW219992   2.107   2.980   4.391
 6365SOL     OW19993   5.368   5.309   3.286
 6365SOL    HW119994   5.378   5.357   3.373
 6365SOL    HW219995   5.335   5.216   3.302
 6366SOL     OW19996   5.798   6.969   4.578
 6366SOL    HW119997   5.872   6.954   4.644
 6366SOL    HW219998   5.751   6.883   4.561
 6367SOL     OW19999   1.816   2.459   2.207
 6367SOL    HW120000   1.757   2.384   2.236
 6367SOL    HW220001   1.825   2.526   2.280
 6368SOL     OW20002   4.689   2.857   4.562
 6368SOL    HW120003   4.763   2.925   4.556
 6368SOL    HW220004   4.603   2.899   4.533
 6369SOL     OW20005   3.769   5.480   6.460
 6369SOL    HW120006   3.776   5.451   6.365
 6369SOL    HW220007   3.844   5.438   6.513
 6370SOL     OW20008   5.587   3.047   4.463
 6370SOL    HW120009   5.569   3.090   4.375
 6370SOL    HW220010   5.652   2.972   4.451
 6371SOL     OW20011   4.766   4.742   1.930
 6371SOL    HW120012   4.696   4.780   1.991
 6371SOL    HW220013   4.752   4.644   1.921
 6372SOL     OW20014   6.410   1.502   2.818
 6372SOL    HW120015   6.509   1.486   2.824
 6372SOL    HW220016   6.361   1.418   2.837
 6373SOL     OW20017   4.898   4.179   1.141
 6373SOL    HW120018   4.938   4.270   1.137
 6373SOL    HW220019   4.804   4.186   1.176
 6374SOL     OW20020   4.548   3.481   0.212
 6374SOL    HW120021   4.570   3.515   0.120
 6374SOL    HW220022   4.491   3.548   0.259
 6375SOL     OW20023   6.056   2.703   1.864
 6375SOL    HW120024   6.036   2.759   1.945
 6375SOL    HW220025   6.060   2.607   1.891
 6376SOL     OW20026   3.503   1.175   6.570
 6376SOL    HW120027   3.553   1.091   6.550
 6376SOL    HW220028   3.492   1.184   6.669
 6377SOL     OW20029   6.989   0.604   0.311
 6377SOL    HW120030   0.056   0.578   0.363
 6377SOL    HW220031   6.914   0.619   0.375
 6378SOL     OW20032   5.526   6.028   2.231
 6378SOL    HW120033   5.586   6.033   2.311
 6378SOL    HW220034   5.520   5.932   2.201
 6379SOL     OW20035   2.287   6.167   0.373
 6379SOL    HW120036   2.274   6.076   0.412
 6379SOL    HW220037   2.335   6.159   0.286
 6380SOL     OW20038   1.304   3.723   5.149
 6380SOL    HW120039   1.386   3.691   5.198
 6380SOL    HW220040   1.279   3.656   5.079
 6381SOL     OW20041   4.637   2.491   0.135
 6381SOL    HW120042   4.587   2.578   0.129
 6381SOL    HW220043   4.572   2.416   0.147
 6382SOL     OW20044   1.572   1.596   1.508
 6382SOL    HW120045   1.610   1.504   1.517
 6382SOL    HW220046   1.644   1.664   1.521
 6383SOL     OW20047   2.226   2.507   2.172
 6383SOL    HW120048   2.242   2.603   2.149
 6383SOL    HW220049   2.295   2.449   2.128
 6384SOL     OW20050   6.042   2.628   2.694
 6384SOL    HW120051   5.974   2.697   2.717
 6384SOL    HW220052   5.996   2.540   2.679
 6385SOL     OW20053   6.439   3.300   1.589
 6385SOL    HW120054   6.427   3.214   1.638
 6385SOL    HW220055   6.493   3.284   1.507
 6386SOL     OW20056   2.639   3.578   0.390
 6386SOL    HW120057   2.581   3.503   0.420
 6386SOL    HW220058   2.735   3.549   0.391
 6387SOL     OW20059   0.280   0.373   6.235
 6387SOL    HW120060   0.284   0.425   6.321
 6387SOL    HW220061   0.184   0.355   6.212
 6388SOL     OW20062   6.860   5.411   2.332
 6388SOL    HW120063   6.912   5.488   2.295
 6388SOL    HW220064   6.879   5.329   2.278
 6389SOL     OW20065   0.852   0.778   0.079
 6389SOL    HW120066   0.904   0.837   0.017
 6389SOL    HW220067   0.756   0.804   0.077
 6390SOL     OW20068   6.474   1.206   6.147
 6390SOL    HW120069   6.447   1.154   6.228
 6390SOL    HW220070   6.455   1.153   6.065
 6391SOL     OW20071   0.870   1.353   5.190
 6391SOL    HW120072   0.840   1.435   5.141
 6391SOL    HW220073   0.969   1.355   5.203
 6392SOL     OW20074   4.028   6.609   3.710
 6392SOL    HW120075   3.986   6.522   3.736
 6392SOL    HW220076   4.087   6.641   3.784
 6393SOL     OW20077   6.795   5.391   0.520
 6393SOL    HW120078   6.778   5.334   0.440
 6393SOL    HW220079   6.894   5.406   0.530
 6394SOL     OW20080   1.293   5.525   1.199
 6394SOL    HW120081   1.340   5.457   1.255
 6394SOL    HW220082   1.347   5.543   1.116
 6395SOL     OW20083   2.282   4.487   3.335
 6395SOL    HW120084   2.254   4.583   3.333
 6395SOL    HW220085   2.335   4.465   3.253
 6396SOL     OW20086   0.839   3.452   6.658
 6396SOL    HW120087   0.867   3.470   6.752
 6396SOL    HW220088   0.864   3.531   6.600
 6397SOL     OW20089   5.728   3.241   3.632
 6397SOL    HW120090   5.774   3.286   3.709
 6397SOL    HW220091   5.632   3.226   3.655
 6398SOL     OW20092   1.699   0.455   1.042
 6398SOL    HW120093   1.719   0.551   1.061
 6398SOL    HW220094   1.760   0.397   1.096
 6399SOL     OW20095   3.060   1.433   5.950
 6399SOL    HW120096   3.139   1.403   5.896
 6399SOL    HW220097   3.017   1.511   5.905
 6400SOL     OW20098   1.245   5.939   2.944
 6400SOL    HW120099   1.322   5.889   2.904
 6400SOL    HW220100   1.192   5.983   2.872
 6401SOL     OW20101   3.683   6.159   3.728
 6401SOL    HW120102   3.677   6.188   3.633
 6401SOL    HW220103   3.689   6.059   3.732
 6402SOL     OW20104   1.680   4.997   5.213
 6402SOL    HW120105   1.700   5.057   5.291
 6402SOL    HW220106   1.765   4.962   5.175
 6403SOL     OW20107   4.860   5.741   4.922
 6403SOL    HW120108   4.875   5.820   4.982
 6403SOL    HW220109   4.947   5.711   4.885
 6404SOL     OW20110   4.038   0.054   2.120
 6404SOL    HW120111   4.101   0.131   2.116
 6404SOL    HW220112   4.054   0.001   2.204
 6405SOL     OW20113   5.198   1.527   2.434
 6405SOL    HW120114   5.203   1.597   2.363
 6405SOL    HW220115   5.257   1.450   2.410
 6406SOL     OW20116   0.489   2.804   3.112
 6406SOL    HW120117   0.562   2.855   3.159
 6406SOL    HW220118   0.414   2.787   3.176
 6407SOL     OW20119   1.739   5.830   2.517
 6407SOL    HW120120   1.785   5.895   2.456
 6407SOL    HW220121   1.803   5.797   2.586
 6408SOL     OW20122   6.466   0.637   0.872
 6408SOL    HW120123   6.519   0.645   0.956
 6408SOL    HW220124   6.383   0.694   0.879
 6409SOL     OW20125   5.285   5.058   3.188
 6409SOL    HW120126   5.347   5.037   3.112
 6409SOL    HW220127   5.308   5.000   3.266
 6410SOL     OW20128   2.305   1.614   5.820
 6410SOL    HW120129   2.377   1.679   5.797
 6410SOL    HW220130   2.270   1.634   5.912
 6411SOL     OW20131   0.269   2.459   2.248
 6411SOL    HW120132   0.231   2.543   2.209
 6411SOL    HW220133   0.274   2.468   2.348
 6412SOL     OW20134   3.529   0.368   0.274
 6412SOL    HW120135   3.459   0.337   0.209
 6412SOL    HW220136   3.515   0.465   0.293
 6413SOL     OW20137   5.380   6.392   3.593
 6413SOL    HW120138   5.452   6.458   3.616
 6413SOL    HW220139   5.341   6.415   3.504
 6414SOL     OW20140   1.880   0.130   0.289
 6414SOL    HW120141   1.941   0.140   0.368
 6414SOL    HW220142   1.787   0.154   0.314
 6415SOL     OW20143   0.356   2.486   3.468
 6415SOL    HW120144   0.372   2.470   3.371
 6415SOL    HW220145   0.378   2.404   3.520
 6416SOL     OW20146   2.819   6.923   0.228
 6416SOL    HW120147   2.784   6.833   0.254
 6416SOL    HW220148   2.782   6.949   0.139
 6417SOL     OW20149   3.862   1.613   0.456
 6417SOL    HW120150   3.949   1.583   0.417
 6417SOL    HW220151   3.789   1.598   0.390
 6418SOL     OW20152   4.756   5.280   0.697
 6418SOL    HW120153   4.754   5.295   0.795
 6418SOL    HW220154   4.763   5.182   0.678
 6419SOL     OW20155   0.878   6.580   6.680
 6419SOL    HW120156   0.955   6.525   6.713
 6419SOL    HW220157   0.913   6.656   6.625
 6420SOL     OW20158   1.912   4.031   4.495
 6420SOL    HW120159   2.001   4.073   4.481
 6420SOL    HW220160   1.841   4.089   4.455
 6421SOL     OW20161   4.473   0.399   2.106
 6421SOL    HW120162   4.445   0.455   2.028
 6421SOL    HW220163   4.530   0.454   2.167
 6422SOL     OW20164   6.129   1.735   4.721
 6422SOL    HW120165   6.049   1.718   4.778
 6422SOL    HW220166   6.207   1.758   4.778
 6423SOL     OW20167   2.234   4.420   4.478
 6423SOL    HW120168   2.332   4.403   4.484
 6423SOL    HW220169   2.217   4.500   4.419
 6424SOL     OW20170   6.412   4.715   4.887
 6424SOL    HW120171   6.329   4.659   4.892
 6424SOL    HW220172   6.470   4.683   4.812
 6425SOL     OW20173   0.170   5.802   3.645
 6425SOL    HW120174   0.256   5.823   3.693
 6425SOL    HW220175   0.129   5.720   3.685
 6426SOL     OW20176   4.737   4.432   4.879
 6426SOL    HW120177   4.707   4.464   4.789
 6426SOL    HW220178   4.780   4.508   4.927
 6427SOL     OW20179   3.739   2.900   3.238
 6427SOL    HW120180   3.665   2.898   3.305
 6427SOL    HW220181   3.825   2.920   3.285
 6428SOL     OW20182   5.199   3.080   0.509
 6428SOL    HW120183   5.290   3.121   0.500
 6428SOL    HW220184   5.180   3.024   0.429
 6429SOL     OW20185   2.191   0.905   5.299
 6429SOL    HW120186   2.092   0.900   5.310
 6429SOL    HW220187   2.213   0.916   5.202
 6430SOL     OW20188   6.984   0.180   5.345
 6430SOL    HW120189   6.997   0.274   5.378
 6430SOL    HW220190   0.056   0.132   5.345
 6431SOL     OW20191   3.922   5.047   1.548
 6431SOL    HW120192   3.833   5.057   1.503
 6431SOL    HW220193   3.994   5.045   1.478
 6432SOL     OW20194   4.712   4.262   5.732
 6432SOL    HW120195   4.781   4.334   5.736
 6432SOL    HW220196   4.621   4.303   5.744
 6433SOL     OW20197   2.557   5.761   6.869
 6433SOL    HW120198   2.634   5.753   6.805
 6433SOL    HW220199   2.475   5.723   6.826
 6434SOL     OW20200   3.710   5.156   5.780
 6434SOL    HW120201   3.655   5.214   5.721
 6434SOL    HW220202   3.656   5.127   5.859
 6435SOL     OW20203   4.688   1.220   0.766
 6435SOL    HW120204   4.772   1.274   0.775
 6435SOL    HW220205   4.690   1.169   0.680
 6436SOL     OW20206   7.011   4.194   4.400
 6436SOL    HW120207   6.956   4.240   4.330
 6436SOL    HW220208   6.958   4.187   4.484
 6437SOL     OW20209   0.884   2.091   5.106
 6437SOL    HW120210   0.858   2.186   5.092
 6437SOL    HW220211   0.970   2.087   5.157
 6438SOL     OW20212   0.343   5.746   0.348
 6438SOL    HW120213   0.376   5.825   0.399
 6438SOL    HW220214   0.286   5.777   0.272
 6439SOL     OW20215   5.762   0.404   3.028
 6439SOL    HW120216   5.699   0.326   3.018
 6439SOL    HW220217   5.856   0.371   3.021
 6440SOL     OW20218   2.641   1.793   6.716
 6440SOL    HW120219   2.628   1.881   6.671
 6440SOL    HW220220   2.671   1.724   6.649
 6441SOL     OW20221   0.812   1.582   2.735
 6441SOL    HW120222   0.767   1.501   2.696
 6441SOL    HW220223   0.909   1.580   2.714
 6442SOL     OW20224   3.228   2.818   5.194
 6442SOL    HW120225   3.148   2.853   5.244
 6442SOL    HW220226   3.261   2.735   5.238
 6443SOL     OW20227   4.933   2.290   0.452
 6443SOL    HW120228   4.921   2.203   0.500
 6443SOL    HW220229   4.855   2.350   0.469
 6444SOL     OW20230   6.754   3.252   5.188
 6444SOL    HW120231   6.766   3.239   5.286
 6444SOL    HW220232   6.657   3.266   5.168
 6445SOL     OW20233   3.061   3.030   3.222
 6445SOL    HW120234   3.022   2.944   3.188
 6445SOL    HW220235   3.024   3.107   3.171
 6446SOL     OW20236   2.262   1.007   6.429
 6446SOL    HW120237   2.310   1.043   6.509
 6446SOL    HW220238   2.245   1.082   6.365
 6447SOL     OW20239   6.274   3.692   1.880
 6447SOL    HW120240   6.336   3.746   1.823
 6447SOL    HW220241   6.264   3.601   1.841
 6448SOL     OW20242   3.833   5.578   1.254
 6448SOL    HW120243   3.739   5.575   1.287
 6448SOL    HW220244   3.838   5.545   1.160
 6449SOL     OW20245   2.280   5.147   0.889
 6449SOL    HW120246   2.372   5.165   0.853
 6449SOL    HW220247   2.287   5.087   0.968
 6450SOL     OW20248   0.148   4.326   1.215
 6450SOL    HW120249   0.200   4.404   1.180
 6450SOL    HW220250   0.185   4.299   1.304
 6451SOL     OW20251   3.812   2.197   1.392
 6451SOL    HW120252   3.746   2.272   1.384
 6451SOL    HW220253   3.838   2.186   1.488
 6452SOL     OW20254   4.770   2.406   3.927
 6452SOL    HW120255   4.832   2.432   4.001
 6452SOL    HW220256   4.822   2.394   3.843
 6453SOL     OW20257   3.115   0.685   1.194
 6453SOL    HW120258   3.204   0.728   1.187
 6453SOL    HW220259   3.090   0.673   1.290
 6454SOL     OW20260   5.599   2.874   3.445
 6454SOL    HW120261   5.610   2.796   3.385
 6454SOL    HW220262   5.506   2.875   3.482
 6455SOL     OW20263   6.509   3.568   3.216
 6455SOL    HW120264   6.465   3.481   3.193
 6455SOL    HW220265   6.525   3.571   3.315
 6456SOL     OW20266   6.168   1.770   3.138
 6456SOL    HW120267   6.093   1.830   3.165
 6456SOL    HW220268   6.201   1.797   3.048
 6457SOL     OW20269   4.129   0.642   2.097
 6457SOL    HW120270   4.139   0.618   2.193
 6457SOL    HW220271   4.045   0.695   2.084
 6458SOL     OW20272   0.355   4.987   3.651
 6458SOL    HW120273   0.335   4.898   3.693
 6458SOL    HW220274   0.421   5.036   3.707
 6459SOL     OW20275   6.321   3.344   2.273
 6459SOL    HW120276   6.310   3.421   2.336
 6459SOL    HW220277   6.257   3.355   2.197
 6460SOL     OW20278   0.717   5.912   6.048
 6460SOL    HW120279   0.802   5.962   6.059
 6460SOL    HW220280   0.736   5.818   6.020
 6461SOL     OW20281   2.558   5.255   1.133
 6461SOL    HW120282   2.546   5.354   1.141
 6461SOL    HW220283   2.556   5.229   1.037
 6462SOL     OW20284   1.529   3.632   5.291
 6462SOL    HW120285   1.553   3.599   5.382
 6462SOL    HW220286   1.600   3.605   5.226
 6463SOL     OW20287   4.941   2.110   1.648
 6463SOL    HW120288   4.914   2.146   1.737
 6463SOL    HW220289   4.938   2.184   1.580
 6464SOL     OW20290   1.290   5.181   4.528
 6464SOL    HW120291   1.217   5.202   4.592
 6464SOL    HW220292   1.365   5.136   4.577
 6465SOL     OW20293   4.023   0.928   3.081
 6465SOL    HW120294   3.949   0.890   3.025
 6465SOL    HW220295   4.029   0.876   3.167
 6466SOL     OW20296   0.687   2.733   0.286
 6466SOL    HW120297   0.730   2.705   0.201
 6466SOL    HW220298   0.697   2.832   0.297
 6467SOL     OW20299   3.368   1.850   0.879
 6467SOL    HW120300   3.340   1.927   0.936
 6467SOL    HW220301   3.287   1.796   0.854
 6468SOL     OW20302   2.703   0.675   1.003
 6468SOL    HW120303   2.626   0.709   1.057
 6468SOL    HW220304   2.788   0.714   1.040
 6469SOL     OW20305   3.469   2.079   3.351
 6469SOL    HW120306   3.426   2.025   3.278
 6469SOL    HW220307   3.401   2.104   3.419
 6470SOL     OW20308   6.646   1.955   6.898
 6470SOL    HW120309   6.730   1.936   6.847
 6470SOL    HW220310   6.597   2.030   6.854
 6471SOL     OW20311   0.318   6.235   5.415
 6471SOL    HW120312   0.402   6.228   5.362
 6471SOL    HW220313   0.239   6.242   5.354
 6472SOL     OW20314   6.621   6.267   2.567
 6472SOL    HW120315   6.646   6.352   2.613
 6472SOL    HW220316   6.536   6.232   2.605
 6473SOL     OW20317   2.430   1.576   3.761
 6473SOL    HW120318   2.434   1.646   3.689
 6473SOL    HW220319   2.342   1.583   3.809
 6474SOL     OW20320   3.792   5.199   5.351
 6474SOL    HW120321   3.878   5.220   5.305
 6474SOL    HW220322   3.798   5.106   5.389
 6475SOL     OW20323   5.606   4.845   2.669
 6475SOL    HW120324   5.604   4.862   2.767
 6475SOL    HW220325   5.519   4.804   2.640
 6476SOL     OW20326   3.362   1.400   6.486
 6476SOL    HW120327   3.433   1.341   6.525
 6476SOL    HW220328   3.371   1.401   6.386
 6477SOL     OW20329   6.361   6.250   1.391
 6477SOL    HW120330   6.315   6.290   1.470
 6477SOL    HW220331   6.455   6.226   1.415
 6478SOL     OW20332   3.549   5.612   1.339
 6478SOL    HW120333   3.574   5.683   1.404
 6478SOL    HW220334   3.472   5.559   1.375
 6479SOL     OW20335   3.404   6.075   4.029
 6479SOL    HW120336   3.398   6.173   4.050
 6479SOL    HW220337   3.334   6.052   3.962
 6480SOL     OW20338   3.175   1.457   6.838
 6480SOL    HW120339   3.144   1.417   6.751
 6480SOL    HW220340   3.121   1.538   6.859
 6481SOL     OW20341   3.411   2.898   1.848
 6481SOL    HW120342   3.319   2.895   1.886
 6481SOL    HW220343   3.420   2.828   1.777
 6482SOL     OW20344   5.905   3.812   5.233
 6482SOL    HW120345   5.952   3.897   5.253
 6482SOL    HW220346   5.831   3.829   5.167
 6483SOL     OW20347   1.273   5.448   4.943
 6483SOL    HW120348   1.367   5.466   4.972
 6483SOL    HW220349   1.246   5.516   4.874
 6484SOL     OW20350   2.692   0.973   4.403
 6484SOL    HW120351   2.692   0.932   4.311
 6484SOL    HW220352   2.608   0.947   4.451
 6485SOL     OW20353   2.103   6.933   3.916
 6485SOL    HW120354   2.090   6.916   4.013
 6485SOL    HW220355   2.014   6.938   3.870
 6486SOL     OW20356   1.699   4.627   3.438
 6486SOL    HW120357   1.612   4.588   3.407
 6486SOL    HW220358   1.721   4.591   3.528
 6487SOL     OW20359   5.904   4.639   3.720
 6487SOL    HW120360   5.947   4.645   3.810
 6487SOL    HW220361   5.865   4.548   3.707
 6488SOL     OW20362   4.373   5.448   4.218
 6488SOL    HW120363   4.456   5.428   4.270
 6488SOL    HW220364   4.293   5.419   4.271
 6489SOL     OW20365   4.260   3.202   5.739
 6489SOL    HW120366   4.322   3.227   5.813
 6489SOL    HW220367   4.248   3.279   5.677
 6490SOL     OW20368   1.926   2.130   0.362
 6490SOL    HW120369   1.926   2.162   0.267
 6490SOL    HW220370   1.998   2.176   0.413
 6491SOL     OW20371   2.516   0.086   1.348
 6491SOL    HW120372   2.599   0.030   1.353
 6491SOL    HW220373   2.541   0.183   1.347
 6492SOL     OW20374   3.476   3.760   4.542
 6492SOL    HW120375   3.547   3.820   4.579
 6492SOL    HW220376   3.463   3.682   4.603
 6493SOL     OW20377   0.912   3.884   5.628
 6493SOL    HW120378   0.935   3.981   5.636
 6493SOL    HW220379   0.956   3.846   5.546
 6494SOL     OW20380   5.875   0.145   1.790
 6494SOL    HW120381   5.848   0.187   1.703
 6494SOL    HW220382   5.883   0.216   1.860
 6495SOL     OW20383   6.286   0.052   3.793
 6495SOL    HW120384   6.282   0.152   3.791
 6495SOL    HW220385   6.324   0.018   3.707
 6496SOL     OW20386   4.132   1.012   1.391
 6496SOL    HW120387   4.104   1.072   1.465
 6496SOL    HW220388   4.063   1.013   1.318
 6497SOL     OW20389   0.206   1.207   1.057
 6497SOL    HW120390   0.249   1.213   0.967
 6497SOL    HW220391   0.259   1.145   1.115
 6498SOL     OW20392   1.084   4.224   4.519
 6498SOL    HW120393   1.022   4.301   4.505
 6498SOL    HW220394   1.111   4.219   4.615
 6499SOL     OW20395   5.125   3.247   3.495
 6499SOL    HW120396   5.089   3.313   3.561
 6499SOL    HW220397   5.086   3.157   3.513
 6500SOL     OW20398   1.561   4.012   3.105
 6500SOL    HW120399   1.506   4.080   3.057
 6500SOL    HW220400   1.575   4.042   3.200
 6501SOL     OW20401   6.199   2.131   0.924
 6501SOL    HW120402   6.263   2.173   0.859
 6501SOL    HW220403   6.142   2.202   0.965
 6502SOL     OW20404   6.603   3.896   1.932
 6502SOL    HW120405   6.527   3.932   1.987
 6502SOL    HW220406   6.579   3.898   1.835
 6503SOL     OW20407   6.474   3.171   5.628
 6503SOL    HW120408   6.410   3.122   5.569
 6503SOL    HW220409   6.429   3.251   5.668
 6504SOL     OW20410   4.719   6.368   6.478
 6504SOL    HW120411   4.634   6.320   6.499
 6504SOL    HW220412   4.717   6.460   6.520
 6505SOL     OW20413   6.704   5.707   0.879
 6505SOL    HW120414   6.698   5.804   0.899
 6505SOL    HW220415   6.738   5.694   0.786
 6506SOL     OW20416   0.320   3.806   2.317
 6506SOL    HW120417   0.297   3.814   2.414
 6506SOL    HW220418   0.237   3.810   2.262
 6507SOL     OW20419   4.077   4.182   6.781
 6507SOL    HW120420   4.110   4.093   6.748
 6507SOL    HW220421   4.148   4.227   6.833
 6508SOL     OW20422   0.549   6.683   2.205
 6508SOL    HW120423   0.577   6.588   2.222
 6508SOL    HW220424   0.625   6.744   2.227
 6509SOL     OW20425   2.855   1.461   6.272
 6509SOL    HW120426   2.795   1.540   6.256
 6509SOL    HW220427   2.839   1.393   6.201
 6510SOL     OW20428   4.178   5.606   5.883
 6510SOL    HW120429   4.242   5.624   5.958
 6510SOL    HW220430   4.139   5.692   5.851
 6511SOL     OW20431   2.883   1.053   0.220
 6511SOL    HW120432   2.924   1.006   0.142
 6511SOL    HW220433   2.896   0.998   0.302
 6512SOL     OW20434   3.960   1.107   0.630
 6512SOL    HW120435   4.043   1.107   0.686
 6512SOL    HW220436   3.918   1.197   0.633
 6513SOL     OW20437   2.111   5.210   3.500
 6513SOL    HW120438   2.191   5.251   3.456
 6513SOL    HW220439   2.045   5.281   3.524
 6514SOL     OW20440   5.947   0.048   5.595
 6514SOL    HW120441   5.947   6.964   5.595
 6514SOL    HW220442   5.861   0.081   5.555
 6515SOL     OW20443   2.177   5.063   1.965
 6515SOL    HW120444   2.140   5.063   1.872
 6515SOL    HW220445   2.191   4.969   1.995
 6516SOL     OW20446   6.809   3.612   1.572
 6516SOL    HW120447   6.902   3.574   1.565
 6516SOL    HW220448   6.761   3.597   1.486
 6517SOL     OW20449   6.944   3.032   0.511
 6517SOL    HW120450   6.974   2.954   0.565
 6517SOL    HW220451   6.854   3.062   0.542
 6518SOL     OW20452   1.211   1.836   3.264
 6518SOL    HW120453   1.165   1.829   3.175
 6518SOL    HW220454   1.196   1.928   3.301
 6519SOL     OW20455   0.629   1.688   2.902
 6519SOL    HW120456   0.637   1.788   2.902
 6519SOL    HW220457   0.701   1.649   2.845
 6520SOL     OW20458   0.418   5.530   0.021
 6520SOL    HW120459   0.493   5.591   0.042
 6520SOL    HW220460   0.362   5.515   0.102
 6521SOL     OW20461   1.210   3.806   4.157
 6521SOL    HW120462   1.187   3.710   4.171
 6521SOL    HW220463   1.308   3.814   4.135
 6522SOL     OW20464   2.803   3.294   5.228
 6522SOL    HW120465   2.705   3.291   5.209
 6522SOL    HW220466   2.831   3.207   5.270
 6523SOL     OW20467   6.020   0.104   6.915
 6523SOL    HW120468   6.028   0.005   6.923
 6523SOL    HW220469   5.953   0.127   6.845
 6524SOL     OW20470   2.456   2.386   2.088
 6524SOL    HW120471   2.537   2.369   2.145
 6524SOL    HW220472   2.444   2.309   2.024
 6525SOL     OW20473   1.068   4.757   3.416
 6525SOL    HW120474   1.166   4.768   3.429
 6525SOL    HW220475   1.035   4.682   3.473
 6526SOL     OW20476   0.495   6.915   0.506
 6526SOL    HW120477   0.485   6.962   0.418
 6526SOL    HW220478   0.417   6.938   0.565
 6527SOL     OW20479   0.462   2.481   0.401
 6527SOL    HW120480   0.407   2.399   0.385
 6527SOL    HW220481   0.402   2.560   0.415
 6528SOL     OW20482   5.520   0.505   6.411
 6528SOL    HW120483   5.563   0.526   6.499
 6528SOL    HW220484   5.583   0.450   6.356
 6529SOL     OW20485   6.820   0.936   2.106
 6529SOL    HW120486   6.820   0.924   2.007
 6529SOL    HW220487   6.890   0.877   2.146
 6530SOL     OW20488   1.424   3.000   2.328
 6530SOL    HW120489   1.363   3.029   2.254
 6530SOL    HW220490   1.370   2.987   2.412
 6531SOL     OW20491   4.130   3.883   5.314
 6531SOL    HW120492   4.134   3.807   5.378
 6531SOL    HW220493   4.156   3.851   5.223
 6532SOL     OW20494   1.350   0.842   0.993
 6532SOL    HW120495   1.356   0.771   0.923
 6532SOL    HW220496   1.408   0.920   0.966
 6533SOL     OW20497   4.987   3.826   0.529
 6533SOL    HW120498   5.057   3.821   0.601
 6533SOL    HW220499   5.031   3.847   0.441
 6534SOL     OW20500   0.075   4.545   3.218
 6534SOL    HW120501   7.007   4.518   3.171
 6534SOL    HW220502   0.153   4.494   3.180
 6535SOL     OW20503   6.411   3.226   5.222
 6535SOL    HW120504   6.434   3.164   5.146
 6535SOL    HW220505   6.387   3.172   5.303
 6536SOL     OW20506   1.008   3.784   4.869
 6536SOL    HW120507   0.936   3.782   4.800
 6536SOL    HW220508   1.060   3.699   4.867
 6537SOL     OW20509   5.928   5.388   4.112
 6537SOL    HW120510   5.837   5.425   4.129
 6537SOL    HW220511   5.980   5.453   4.057
 6538SOL     OW20512   2.642   3.109   5.549
 6538SOL    HW120513   2.552   3.150   5.557
 6538SOL    HW220514   2.703   3.147   5.618
 6539SOL     OW20515   5.624   1.139   5.154
 6539SOL    HW120516   5.682   1.133   5.236
 6539SOL    HW220517   5.550   1.072   5.160
 6540SOL     OW20518   5.448   2.362   5.836
 6540SOL    HW120519   5.434   2.460   5.818
 6540SOL    HW220520   5.538   2.335   5.803
 6541SOL     OW20521   5.677   0.632   4.770
 6541SOL    HW120522   5.740   0.658   4.697
 6541SOL    HW220523   5.586   0.670   4.751
 6542SOL     OW20524   1.476   4.164   3.658
 6542SOL    HW120525   1.571   4.168   3.688
 6542SOL    HW220526   1.432   4.253   3.674
 6543SOL     OW20527   3.949   1.974   5.113
 6543SOL    HW120528   3.987   2.055   5.068
 6543SOL    HW220529   3.971   1.893   5.060
 6544SOL     OW20530   1.207   6.477   1.600
 6544SOL    HW120531   1.114   6.502   1.627
 6544SOL    HW220532   1.272   6.522   1.661
 6545SOL     OW20533   4.623   7.002   0.552
 6545SOL    HW120534   4.634   6.992   0.453
 6545SOL    HW220535   4.536   6.961   0.581
 6546SOL     OW20536   4.928   3.466   6.379
 6546SOL    HW120537   4.920   3.514   6.467
 6546SOL    HW220538   5.021   3.430   6.370
 6547SOL     OW20539   6.124   5.439   0.113
 6547SOL    HW120540   6.112   5.355   0.165
 6547SOL    HW220541   6.085   5.516   0.164
 6548SOL     OW20542   0.400   1.968   5.387
 6548SOL    HW120543   0.373   1.878   5.352
 6548SOL    HW220544   0.331   2.001   5.451
 6549SOL     OW20545   4.656   0.247   1.431
 6549SOL    HW120546   4.715   0.328   1.427
 6549SOL    HW220547   4.710   0.166   1.408
 6550SOL     OW20548   6.275   0.109   3.174
 6550SOL    HW120549   6.238   0.195   3.141
 6550SOL    HW220550   6.201   0.044   3.190
 6551SOL     OW20551   2.937   3.809   0.781
 6551SOL    HW120552   2.921   3.804   0.880
 6551SOL    HW220553   2.854   3.781   0.732
 6552SOL     OW20554   2.649   6.413   0.596
 6552SOL    HW120555   2.573   6.349   0.600
 6552SOL    HW220556   2.726   6.371   0.549
 6553SOL     OW20557   0.259   1.618   3.430
 6553SOL    HW120558   0.309   1.674   3.496
 6553SOL    HW220559   0.261   1.522   3.460
 6554SOL     OW20560   2.688   1.231   4.923
 6554SOL    HW120561   2.687   1.156   4.856
 6554SOL    HW220562   2.609   1.290   4.908
 6555SOL     OW20563   6.855   3.589   4.040
 6555SOL    HW120564   6.902   3.673   4.065
 6555SOL    HW220565   6.914   3.534   3.980
 6556SOL     OW20566   4.681   2.806   3.349
 6556SOL    HW120567   4.703   2.829   3.443
 6556SOL    HW220568   4.707   2.711   3.331
 6557SOL     OW20569   1.924   0.353   2.320
 6557SOL    HW120570   1.964   0.380   2.408
 6557SOL    HW220571   1.925   0.431   2.258
 6558SOL     OW20572   5.364   5.401   0.156
 6558SOL    HW120573   5.341   5.348   0.238
 6558SOL    HW220574   5.284   5.455   0.129
 6559SOL     OW20575   0.278   2.653   6.238
 6559SOL    HW120576   0.263   2.742   6.196
 6559SOL    HW220577   0.190   2.616   6.269
 6560SOL     OW20578   5.744   5.100   0.285
 6560SOL    HW120579   5.801   5.040   0.341
 6560SOL    HW220580   5.718   5.180   0.339
 6561SOL     OW20581   3.983   4.315   0.796
 6561SOL    HW120582   3.981   4.285   0.891
 6561SOL    HW220583   3.953   4.240   0.737
 6562SOL     OW20584   5.823   3.157   1.046
 6562SOL    HW120585   5.846   3.112   0.959
 6562SOL    HW220586   5.901   3.209   1.078
 6563SOL     OW20587   5.168   6.171   5.366
 6563SOL    HW120588   5.123   6.240   5.422
 6563SOL    HW220589   5.253   6.142   5.411
 6564SOL     OW20590   6.906   3.977   3.059
 6564SOL    HW120591   6.888   4.041   3.134
 6564SOL    HW220592   6.821   3.931   3.034
 6565SOL     OW20593   5.687   0.406   3.409
 6565SOL    HW120594   5.771   0.356   3.388
 6565SOL    HW220595   5.646   0.369   3.492
 6566SOL     OW20596   4.158   6.100   2.596
 6566SOL    HW120597   4.212   6.180   2.571
 6566SOL    HW220598   4.212   6.040   2.655
 6567SOL     OW20599   4.383   0.527   0.726
 6567SOL    HW120600   4.443   0.606   0.739
 6567SOL    HW220601   4.365   0.515   0.628
 6568SOL     OW20602   3.830   1.220   1.379
 6568SOL    HW120603   3.800   1.308   1.341
 6568SOL    HW220604   3.872   1.165   1.307
 6569SOL     OW20605   0.261   4.460   5.393
 6569SOL    HW120606   0.225   4.394   5.327
 6569SOL    HW220607   0.275   4.414   5.481
 6570SOL     OW20608   4.156   6.321   1.832
 6570SOL    HW120609   4.173   6.320   1.733
 6570SOL    HW220610   4.072   6.271   1.852
 6571SOL     OW20611   3.097   6.090   2.747
 6571SOL    HW120612   3.150   6.063   2.828
 6571SOL    HW220613   3.017   6.031   2.738
 6572SOL     OW20614   1.079   5.847   3.757
 6572SOL    HW120615   1.088   5.785   3.835
 6572SOL    HW220616   1.085   5.942   3.790
 6573SOL     OW20617   1.380   1.378   3.444
 6573SOL    HW120618   1.345   1.439   3.514
 6573SOL    HW220619   1.450   1.318   3.483
 6574SOL     OW20620   1.589   6.073   1.812
 6574SOL    HW120621   1.626   6.154   1.859
 6574SOL    HW220622   1.531   6.103   1.736
 6575SOL     OW20623   6.742   0.555   2.508
 6575SOL    HW120624   6.701   0.542   2.418
 6575SOL    HW220625   6.766   0.465   2.547
 6576SOL     OW20626   4.415   6.071   0.924
 6576SOL    HW120627   4.379   6.164   0.914
 6576SOL    HW220628   4.477   6.052   0.848
 6577SOL     OW20629   2.054   1.508   3.455
 6577SOL    HW120630   2.077   1.444   3.381
 6577SOL    HW220631   2.040   1.456   3.539
 6578SOL     OW20632   1.536   4.795   1.614
 6578SOL    HW120633   1.611   4.830   1.558
 6578SOL    HW220634   1.573   4.755   1.698
 6579SOL     OW20635   6.643   1.074   3.907
 6579SOL    HW120636   6.705   1.024   3.967
 6579SOL    HW220637   6.592   1.141   3.961
 6580SOL     OW20638   1.322   0.266   0.157
 6580SOL    HW120639   1.258   0.228   0.090
 6580SOL    HW220640   1.317   0.366   0.154
 6581SOL     OW20641   1.446   1.894   6.941
 6581SOL    HW120642   1.454   1.973   7.002
 6581SOL    HW220643   1.358   1.849   6.957
 6582SOL     OW20644   6.756   1.248   3.054
 6582SOL    HW120645   6.823   1.229   2.982
 6582SOL    HW220646   6.803   1.265   3.140
 6583SOL     OW20647   4.178   6.363   6.636
 6583SOL    HW120648   4.214   6.345   6.728
 6583SOL    HW220649   4.170   6.276   6.586
 6584SOL     OW20650   3.411   2.545   1.077
 6584SOL    HW120651   3.385   2.468   1.135
 6584SOL    HW220652   3.461   2.511   0.997
 6585SOL     OW20653   6.114   6.773   1.083
 6585SOL    HW120654   6.121   6.714   1.003
 6585SOL    HW220655   6.188   6.841   1.081
 6586SOL     OW20656   6.188   2.272   6.755
 6586SOL    HW120657   6.106   2.216   6.746
 6586SOL    HW220658   6.216   2.306   6.665
 6587SOL     OW20659   1.660   4.171   5.825
 6587SOL    HW120660   1.625   4.257   5.787
 6587SOL    HW220661   1.648   4.097   5.757
 6588SOL     OW20662   0.497   3.408   0.867
 6588SOL    HW120663   0.432   3.381   0.796
 6588SOL    HW220664   0.581   3.355   0.857
 6589SOL     OW20665   0.372   1.100   1.936
 6589SOL    HW120666   0.360   1.163   1.858
 6589SOL    HW220667   0.367   1.006   1.903
 6590SOL     OW20668   1.141   6.990   3.778
 6590SOL    HW120669   1.147   6.978   3.877
 6590SOL    HW220670   1.095   0.061   3.757
 6591SOL     OW20671   5.524   4.255   4.222
 6591SOL    HW120672   5.431   4.291   4.230
 6591SOL    HW220673   5.566   4.291   4.138
 6592SOL     OW20674   5.768   6.282   2.716
 6592SOL    HW120675   5.728   6.312   2.629
 6592SOL    HW220676   5.696   6.257   2.780
 6593SOL     OW20677   2.649   2.060   2.429
 6593SOL    HW120678   2.620   1.984   2.371
 6593SOL    HW220679   2.591   2.140   2.412
 6594SOL     OW20680   4.673   1.525   6.579
 6594SOL    HW120681   4.682   1.434   6.539
 6594SOL    HW220682   4.748   1.583   6.546
 6595SOL     OW20683   1.555   2.546   5.115
 6595SOL    HW120684   1.556   2.629   5.060
 6595SOL    HW220685   1.556   2.570   5.212
 6596SOL     OW20686   5.620   5.956   2.496
 6596SOL    HW120687   5.550   5.885   2.496
 6596SOL    HW220688   5.697   5.928   2.554
 6597SOL     OW20689   1.678   5.138   1.890
 6597SOL    HW120690   1.751   5.104   1.949
 6597SOL    HW220691   1.619   5.062   1.864
 6598SOL     OW20692   2.174   4.834   4.710
 6598SOL    HW120693   2.216   4.821   4.621
 6598SOL    HW220694   2.082   4.794   4.710
 6599SOL     OW20695   6.107   5.500   6.321
 6599SOL    HW120696   6.098   5.453   6.409
 6599SOL    HW220697   6.172   5.575   6.330
 6600SOL     OW20698   4.589   6.824   4.840
 6600SOL    HW120699   4.655   6.827   4.765
 6600SOL    HW220700   4.510   6.881   4.818
 6601SOL     OW20701   1.585   2.150   1.834
 6601SOL    HW120702   1.642   2.139   1.752
 6601SOL    HW220703   1.566   2.247   1.848
 6602SOL     OW20704   2.508   6.203   1.651
 6602SOL    HW120705   2.555   6.162   1.574
 6602SOL    HW220706   2.445   6.274   1.619
 6603SOL     OW20707   0.221   3.014   3.091
 6603SOL    HW120708   0.299   3.073   3.114
 6603SOL    HW220709   0.218   2.937   3.155
 6604SOL     OW20710   2.013   6.341   2.534
 6604SOL    HW120711   1.922   6.358   2.496
 6604SOL    HW220712   2.059   6.428   2.551
 6605SOL     OW20713   6.988   5.383   1.417
 6605SOL    HW120714   6.913   5.333   1.374
 6605SOL    HW220715   7.006   5.467   1.366
 6606SOL     OW20716   1.793   3.680   3.296
 6606SOL    HW120717   1.745   3.627   3.365
 6606SOL    HW220718   1.872   3.726   3.338
 6607SOL     OW20719   5.648   4.074   3.581
 6607SOL    HW120720   5.634   4.158   3.634
 6607SOL    HW220721   5.649   3.995   3.643
 6608SOL     OW20722   0.419   6.128   5.647
 6608SOL    HW120723   0.379   6.164   5.563
 6608SOL    HW220724   0.510   6.092   5.627
 6609SOL     OW20725   4.223   2.144   6.050
 6609SOL    HW120726   4.258   2.051   6.038
 6609SOL    HW220727   4.188   2.178   5.963
 6610SOL     OW20728   2.857   5.211   1.109
 6610SOL    HW120729   2.778   5.245   1.160
 6610SOL    HW220730   2.937   5.267   1.130
 6611SOL     OW20731   4.628   1.451   4.341
 6611SOL    HW120732   4.572   1.513   4.286
 6611SOL    HW220733   4.624   1.359   4.300
 6612SOL     OW20734   5.921   1.684   5.912
 6612SOL    HW120735   5.969   1.602   5.880
 6612SOL    HW220736   5.840   1.657   5.964
 6613SOL     OW20737   4.953   6.982   6.931
 6613SOL    HW120738   5.028   6.934   6.885
 6613SOL    HW220739   4.881   6.917   6.953
 6614SOL     OW20740   4.216   5.788   1.417
 6614SOL    HW120741   4.310   5.794   1.382
 6614SOL    HW220742   4.176   5.701   1.391
 6615SOL     OW20743   3.227   4.868   0.053
 6615SOL    HW120744   3.284   4.947   0.074
 6615SOL    HW220745   3.251   4.792   0.114
 6616SOL     OW20746   4.474   1.408   5.641
 6616SOL    HW120747   4.410   1.476   5.607
 6616SOL    HW220748   4.526   1.447   5.718
 6617SOL     OW20749   3.642   0.622   4.091
 6617SOL    HW120750   3.670   0.715   4.065
 6617SOL    HW220751   3.723   0.563   4.094
 6618SOL     OW20752   6.496   2.223   2.358
 6618SOL    HW120753   6.522   2.303   2.412
 6618SOL    HW220754   6.524   2.237   2.263
 6619SOL     OW20755   5.063   6.587   3.824
 6619SOL    HW120756   5.111   6.672   3.804
 6619SOL    HW220757   5.006   6.561   3.746
 6620SOL     OW20758   0.579   3.229   3.484
 6620SOL    HW120759   0.492   3.233   3.533
 6620SOL    HW220760   0.594   3.136   3.451
 6621SOL     OW20761   3.579   3.077   4.783
 6621SOL    HW120762   3.535   3.073   4.693
 6621SOL    HW220763   3.637   3.158   4.787
 6622SOL     OW20764   0.452   5.464   0.734
 6622SOL    HW120765   0.409   5.538   0.682
 6622SOL    HW220766   0.387   5.389   0.745
 6623SOL     OW20767   3.408   4.110   5.681
 6623SOL    HW120768   3.331   4.078   5.626
 6623SOL    HW220769   3.468   4.166   5.624
 6624SOL     OW20770   1.204   2.217   4.184
 6624SOL    HW120771   1.160   2.205   4.095
 6624SOL    HW220772   1.262   2.299   4.182
 6625SOL     OW20773   5.868   2.780   5.620
 6625SOL    HW120774   5.797   2.711   5.615
 6625SOL    HW220775   5.835   2.859   5.672
 6626SOL     OW20776   2.361   6.296   5.083
 6626SOL    HW120777   2.416   6.290   5.165
 6626SOL    HW220778   2.415   6.337   5.009
 6627SOL     OW20779   1.859   5.793   4.530
 6627SOL    HW120780   1.856   5.718   4.596
 6627SOL    HW220781   1.892   5.758   4.442
 6628SOL     OW20782   4.451   6.067   3.753
 6628SOL    HW120783   4.355   6.078   3.779
 6628SOL    HW220784   4.500   6.152   3.771
 6629SOL     OW20785   5.461   6.117   6.663
 6629SOL    HW120786   5.447   6.023   6.693
 6629SOL    HW220787   5.525   6.163   6.724
 6630SOL     OW20788   2.410   1.493   1.340
 6630SOL    HW120789   2.419   1.396   1.365
 6630SOL    HW220790   2.363   1.501   1.252
 6631SOL     OW20791   2.340   4.512   6.284
 6631SOL    HW120792   2.244   4.537   6.292
 6631SOL    HW220793   2.397   4.590   6.309
 6632SOL     OW20794   1.676   0.778   0.679
 6632SOL    HW120795   1.739   0.755   0.604
 6632SOL    HW220796   1.686   0.876   0.701
 6633SOL     OW20797   3.441   5.579   6.388
 6633SOL    HW120798   3.384   5.607   6.312
 6633SOL    HW220799   3.531   5.623   6.381
 6634SOL     OW20800   4.152   2.229   4.608
 6634SOL    HW120801   4.217   2.271   4.671
 6634SOL    HW220802   4.062   2.225   4.651
 6635SOL     OW20803   5.241   4.981   2.635
 6635SOL    HW120804   5.256   4.932   2.549
 6635SOL    HW220805   5.229   4.915   2.709
 6636SOL     OW20806   3.619   7.003   1.019
 6636SOL    HW120807   3.625   6.904   1.014
 6636SOL    HW220808   3.704   0.025   1.056
 6637SOL     OW20809   1.350   1.232   0.806
 6637SOL    HW120810   1.363   1.316   0.858
 6637SOL    HW220811   1.253   1.220   0.784
 6638SOL     OW20812   2.862   3.500   3.578
 6638SOL    HW120813   2.884   3.500   3.480
 6638SOL    HW220814   2.857   3.595   3.610
 6639SOL     OW20815   5.215   3.127   1.387
 6639SOL    HW120816   5.180   3.079   1.467
 6639SOL    HW220817   5.154   3.111   1.309
 6640SOL     OW20818   0.856   3.023   4.873
 6640SOL    HW120819   0.763   3.035   4.837
 6640SOL    HW220820   0.880   3.102   4.929
 6641SOL     OW20821   4.122   2.030   1.199
 6641SOL    HW120822   4.160   1.941   1.173
 6641SOL    HW220823   4.110   2.033   1.298
 6642SOL     OW20824   1.070   5.651   0.827
 6642SOL    HW120825   1.128   5.579   0.866
 6642SOL    HW220826   1.088   5.658   0.729
 6643SOL     OW20827   4.463   6.637   0.100
 6643SOL    HW120828   4.424   6.700   0.032
 6643SOL    HW220829   4.545   6.677   0.140
 6644SOL     OW20830   1.718   6.391   3.102
 6644SOL    HW120831   1.777   6.346   3.035
 6644SOL    HW220832   1.646   6.327   3.131
 6645SOL     OW20833   6.373   2.785   0.733
 6645SOL    HW120834   6.399   2.756   0.826
 6645SOL    HW220835   6.381   2.708   0.671
 6646SOL     OW20836   4.715   0.241   6.436
 6646SOL    HW120837   4.707   0.206   6.342
 6646SOL    HW220838   4.727   0.341   6.434
 6647SOL     OW20839   4.774   5.220   0.978
 6647SOL    HW120840   4.750   5.123   0.970
 6647SOL    HW220841   4.703   5.267   1.029
 6648SOL     OW20842   2.547   6.245   5.622
 6648SOL    HW120843   2.488   6.260   5.542
 6648SOL    HW220844   2.522   6.158   5.665
 6649SOL     OW20845   5.989   2.392   0.142
 6649SOL    HW120846   6.031   2.422   0.056
 6649SOL    HW220847   5.903   2.345   0.123
 6650SOL     OW20848   2.657   1.010   5.203
 6650SOL    HW120849   2.728   1.081   5.203
 6650SOL    HW220850   2.675   0.944   5.276
 6651SOL     OW20851   0.079   2.238   6.709
 6651SOL    HW120852   0.130   2.320   6.684
 6651SOL    HW220853   0.139   2.158   6.699
 6652SOL     OW20854   0.938   4.538   0.123
 6652SOL    HW120855   0.941   4.616   0.186
 6652SOL    HW220856   0.847   4.498   0.123
 6653SOL     OW20857   5.266   3.688   0.592
 6653SOL    HW120858   5.291   3.647   0.679
 6653SOL    HW220859   5.172   3.661   0.568
 6654SOL     OW20860   0.475   4.298   3.411
 6654SOL    HW120861   0.484   4.340   3.321
 6654SOL    HW220862   0.550   4.233   3.425
 6655SOL     OW20863   6.614   5.383   1.773
 6655SOL    HW120864   6.712   5.365   1.767
 6655SOL    HW220865   6.580   5.351   1.861
 6656SOL     OW20866   3.991   1.310   3.013
 6656SOL    HW120867   3.902   1.271   3.034
 6656SOL    HW220868   3.982   1.409   2.998
 6657SOL     OW20869   5.486   1.820   4.052
 6657SOL    HW120870   5.563   1.828   4.115
 6657SOL    HW220871   5.413   1.882   4.080
 6658SOL     OW20872   6.085   6.291   4.992
 6658SOL    HW120873   6.036   6.227   4.933
 6658SOL    HW220874   6.032   6.307   5.075
 6659SOL     OW20875   1.291   5.584   2.020
 6659SOL    HW120876   1.339   5.521   2.082
 6659SOL    HW220877   1.232   5.644   2.073
 6660SOL     OW20878   0.122   6.349   3.592
 6660SOL    HW120879   0.052   6.301   3.539
 6660SOL    HW220880   0.159   6.424   3.537
 6661SOL     OW20881   3.803   6.866   4.251
 6661SOL    HW120882   3.877   6.857   4.318
 6661SOL    HW220883   3.761   6.776   4.235
 6662SOL     OW20884   3.065   6.657   1.969
 6662SOL    HW120885   2.991   6.679   2.032
 6662SOL    HW220886   3.129   6.594   2.014
 6663SOL     OW20887   1.321   4.075   6.193
 6663SOL    HW120888   1.254   4.011   6.156
 6663SOL    HW220889   1.275   4.140   6.254
 6664SOL     OW20890   2.981   0.703   1.448
 6664SOL    HW120891   2.988   0.604   1.449
 6664SOL    HW220892   3.054   0.742   1.505
 6665SOL     OW20893   2.453   0.572   5.613
 6665SOL    HW120894   2.522   0.505   5.584
 6665SOL    HW220895   2.381   0.525   5.664
 6666SOL     OW20896   4.773   6.505   5.059
 6666SOL    HW120897   4.725   6.592   5.056
 6666SOL    HW220898   4.839   6.505   5.134
 6667SOL     OW20899   0.525   6.147   6.298
 6667SOL    HW120900   0.530   6.048   6.279
 6667SOL    HW220901   0.490   6.161   6.391
 6668SOL     OW20902   0.145   5.870   0.719
 6668SOL    HW120903   0.080   5.883   0.645
 6668SOL    HW220904   0.173   5.959   0.755
 6669SOL     OW20905   1.219   1.301   2.947
 6669SOL    HW120906   1.240   1.327   3.041
 6669SOL    HW220907   1.122   1.316   2.929
 6670SOL     OW20908   3.953   2.323   0.872
 6670SOL    HW120909   3.857   2.311   0.847
 6670SOL    HW220910   3.969   2.285   0.964
 6671SOL     OW20911   5.057   5.757   0.312
 6671SOL    HW120912   5.055   5.857   0.318
 6671SOL    HW220913   5.150   5.725   0.328
 6672SOL     OW20914   1.343   1.861   1.213
 6672SOL    HW120915   1.376   1.778   1.258
 6672SOL    HW220916   1.249   1.848   1.184
 6673SOL     OW20917   5.646   3.992   4.223
 6673SOL    HW120918   5.744   3.997   4.203
 6673SOL    HW220919   5.608   4.085   4.228
 6674SOL     OW20920   0.076   2.694   0.239
 6674SOL    HW120921   0.160   2.723   0.193
 6674SOL    HW220922   0.042   2.610   0.196
 6675SOL     OW20923   5.047   2.626   6.499
 6675SOL    HW120924   5.028   2.596   6.592
 6675SOL    HW220925   4.967   2.611   6.442
 6676SOL     OW20926   1.302   3.797   3.658
 6676SOL    HW120927   1.369   3.722   3.657
 6676SOL    HW220928   1.301   3.840   3.748
 6677SOL     OW20929   0.461   2.144   0.514
 6677SOL    HW120930   0.478   2.158   0.416
 6677SOL    HW220931   0.363   2.130   0.529
 6678SOL     OW20932   1.828   4.890   0.358
 6678SOL    HW120933   1.768   4.944   0.299
 6678SOL    HW220934   1.853   4.805   0.312
 6679SOL     OW20935   2.097   1.361   3.719
 6679SOL    HW120936   1.999   1.361   3.741
 6679SOL    HW220937   2.150   1.347   3.802
 6680SOL     OW20938   5.626   6.612   0.708
 6680SOL    HW120939   5.582   6.586   0.622
 6680SOL    HW220940   5.720   6.643   0.689
 6681SOL     OW20941   3.626   5.839   1.542
 6681SOL    HW120942   3.635   5.937   1.530
 6681SOL    HW220943   3.617   5.817   1.639
 6682SOL     OW20944   3.358   5.225   6.762
 6682SOL    HW120945   3.455   5.206   6.772
 6682SOL    HW220946   3.344   5.296   6.693
 6683SOL     OW20947   6.384   3.503   6.651
 6683SOL    HW120948   6.311   3.505   6.720
 6683SOL    HW220949   6.344   3.490   6.560
 6684SOL     OW20950   3.054   6.553   1.385
 6684SOL    HW120951   3.077   6.649   1.364
 6684SOL    HW220952   3.018   6.510   1.302
 6685SOL     OW20953   4.431   3.770   6.808
 6685SOL    HW120954   4.463   3.687   6.854
 6685SOL    HW220955   4.336   3.758   6.780
 6686SOL     OW20956   5.290   5.617   3.670
 6686SOL    HW120957   5.198   5.655   3.669
 6686SOL    HW220958   5.354   5.685   3.706
 6687SOL     OW20959   6.486   2.236   1.483
 6687SOL    HW120960   6.390   2.235   1.511
 6687SOL    HW220961   6.529   2.321   1.513
 6688SOL     OW20962   3.824   5.593   0.668
 6688SOL    HW120963   3.741   5.624   0.715
 6688SOL    HW220964   3.853   5.664   0.603
 6689SOL     OW20965   2.607   5.096   5.995
 6689SOL    HW120966   2.535   5.032   5.969
 6689SOL    HW220967   2.669   5.109   5.918
 6690SOL     OW20968   1.047   0.142   6.048
 6690SOL    HW120969   1.103   0.071   6.005
 6690SOL    HW220970   0.991   0.102   6.120
 6691SOL     OW20971   2.455   2.668   2.981
 6691SOL    HW120972   2.534   2.696   2.926
 6691SOL    HW220973   2.390   2.744   2.985
 6692SOL     OW20974   4.744   5.019   1.310
 6692SOL    HW120975   4.750   5.028   1.409
 6692SOL    HW220976   4.770   4.926   1.283
 6693SOL     OW20977   4.086   1.624   4.734
 6693SOL    HW120978   4.166   1.640   4.676
 6693SOL    HW220979   4.101   1.542   4.789
 6694SOL     OW20980   4.075   5.189   0.577
 6694SOL    HW120981   4.156   5.132   0.587
 6694SOL    HW220982   4.002   5.154   0.637
 6695SOL     OW20983   2.822   2.238   6.361
 6695SOL    HW120984   2.796   2.326   6.402
 6695SOL    HW220985   2.911   2.210   6.396
 6696SOL     OW20986   3.988   3.894   4.060
 6696SOL    HW120987   4.076   3.889   4.012
 6696SOL    HW220988   3.936   3.972   4.025
 6697SOL     OW20989   4.554   2.524   2.439
 6697SOL    HW120990   4.539   2.443   2.495
 6697SOL    HW220991   4.466   2.564   2.414
 6698SOL     OW20992   3.622   4.001   1.653
 6698SOL    HW120993   3.672   3.979   1.736
 6698SOL    HW220994   3.610   4.100   1.647
 6699SOL     OW20995   1.188   4.548   5.659
 6699SOL    HW120996   1.231   4.638   5.656
 6699SOL    HW220997   1.131   4.535   5.577
 6700SOL     OW20998   6.107   0.399   0.187
 6700SOL    HW120999   6.010   0.375   0.174
 6700SOL    HW221000   6.164   0.339   0.132
 6701SOL     OW21001   6.310   6.981   1.262
 6701SOL    HW121002   6.274   0.058   1.245
 6701SOL    HW221003   6.409   6.982   1.248
 6702SOL     OW21004   3.274   2.031   1.076
 6702SOL    HW121005   3.346   2.093   1.108
 6702SOL    HW221006   3.213   2.080   1.015
 6703SOL     OW21007   1.162   1.747   6.422
 6703SOL    HW121008   1.143   1.741   6.520
 6703SOL    HW221009   1.203   1.837   6.402
 6704SOL     OW21010   3.555   1.087   5.303
 6704SOL    HW121011   3.596   1.126   5.386
 6704SOL    HW221012   3.456   1.081   5.315
 6705SOL     OW21013   6.292   3.761   2.147
 6705SOL    HW121014   6.271   3.760   2.049
 6705SOL    HW221015   6.379   3.715   2.164
 6706SOL     OW21016   7.009   6.521   1.880
 6706SOL    HW121017   0.002   6.619   1.861
 6706SOL    HW221018   6.985   6.472   1.796
 6707SOL     OW21019   5.823   0.696   2.372
 6707SOL    HW121020   5.747   0.681   2.435
 6707SOL    HW221021   5.789   0.738   2.288
 6708SOL     OW21022   0.240   4.027   1.687
 6708SOL    HW121023   0.310   3.959   1.707
 6708SOL    HW221024   0.162   3.983   1.643
 6709SOL     OW21025   1.454   4.894   2.480
 6709SOL    HW121026   1.512   4.818   2.512
 6709SOL    HW221027   1.419   4.872   2.388
 6710SOL     OW21028   4.656   1.538   1.504
 6710SOL    HW121029   4.673   1.474   1.579
 6710SOL    HW221030   4.609   1.490   1.430
 6711SOL     OW21031   4.196   6.329   6.203
 6711SOL    HW121032   4.213   6.236   6.169
 6711SOL    HW221033   4.283   6.376   6.218
 6712SOL     OW21034   6.164   3.693   1.141
 6712SOL    HW121035   6.153   3.595   1.128
 6712SOL    HW221036   6.092   3.742   1.091
 6713SOL     OW21037   1.624   7.003   4.464
 6713SOL    HW121038   1.593   6.935   4.531
 6713SOL    HW221039   1.577   0.074   4.481
 6714SOL     OW21040   5.995   1.023   0.215
 6714SOL    HW121041   5.978   0.937   0.263
 6714SOL    HW221042   6.055   1.081   0.270
 6715SOL     OW21043   1.594   0.111   0.437
 6715SOL    HW121044   1.499   0.129   0.463
 6715SOL    HW221045   1.651   0.104   0.518
 6716SOL     OW21046   6.877   4.878   2.294
 6716SOL    HW121047   6.798   4.816   2.302
 6716SOL    HW221048   6.864   4.956   2.355
 6717SOL     OW21049   4.018   3.001   6.492
 6717SOL    HW121050   4.105   3.035   6.527
 6717SOL    HW221051   3.952   3.076   6.489
 6718SOL     OW21052   3.021   0.079   2.157
 6718SOL    HW121053   3.057   0.132   2.234
 6718SOL    HW221054   3.083   0.003   2.138
 6719SOL     OW21055   2.238   0.853   0.032
 6719SOL    HW121056   2.194   0.804   6.972
 6719SOL    HW221057   2.286   0.788   0.090
 6720SOL     OW21058   2.291   0.536   5.911
 6720SOL    HW121059   2.370   0.475   5.910
 6720SOL    HW221060   2.300   0.600   5.988
 6721SOL     OW21061   0.370   1.549   0.860
 6721SOL    HW121062   0.333   1.642   0.853
 6721SOL    HW221063   0.310   1.486   0.811
 6722SOL     OW21064   6.243   3.090   0.479
 6722SOL    HW121065   6.290   3.071   0.565
 6722SOL    HW221066   6.257   3.015   0.415
 6723SOL     OW21067   1.849   1.985   6.632
 6723SOL    HW121068   1.922   1.919   6.647
 6723SOL    HW221069   1.772   1.965   6.693
 6724SOL     OW21070   2.149   3.699   5.791
 6724SOL    HW121071   2.053   3.723   5.804
 6724SOL    HW221072   2.159   3.642   5.710
 6725SOL     OW21073   6.003   2.802   3.370
 6725SOL    HW121074   6.042   2.828   3.458
 6725SOL    HW221075   5.923   2.743   3.385
 6726SOL     OW21076   6.955   1.230   5.437
 6726SOL    HW121077   6.939   1.272   5.348
 6726SOL    HW221078   0.037   1.211   5.448
 6727SOL     OW21079   0.991   4.734   6.011
 6727SOL    HW121080   1.004   4.737   6.111
 6727SOL    HW221081   1.042   4.657   5.973
 6728SOL     OW21082   3.840   1.875   3.774
 6728SOL    HW121083   3.742   1.873   3.760
 6728SOL    HW221084   3.860   1.913   3.864
 6729SOL     OW21085   4.947   1.624   1.183
 6729SOL    HW121086   4.881   1.695   1.207
 6729SOL    HW221087   5.025   1.628   1.246
 6730SOL     OW21088   0.994   0.954   1.518
 6730SOL    HW121089   1.080   0.990   1.482
 6730SOL    HW221090   0.970   0.869   1.471
 6731SOL     OW21091   3.496   6.582   0.000
 6731SOL    HW121092   3.445   6.633   6.946
 6731SOL    HW221093   3.569   6.529   6.972
 6732SOL     OW21094   5.891   5.384   4.586
 6732SOL    HW121095   5.865   5.431   4.501
 6732SOL    HW221096   5.897   5.286   4.570
 6733SOL     OW21097   3.907   5.235   6.593
 6733SOL    HW121098   3.939   5.141   6.583
 6733SOL    HW221099   3.926   5.268   6.685
 6734SOL     OW21100   5.235   1.278   4.895
 6734SOL    HW121101   5.257   1.204   4.832
 6734SOL    HW221102   5.286   1.266   4.980
 6735SOL     OW21103   6.366   3.134   3.524
 6735SOL    HW121104   6.392   3.122   3.428
 6735SOL    HW221105   6.267   3.145   3.531
 6736SOL     OW21106   3.258   3.957   1.008
 6736SOL    HW121107   3.282   3.917   1.096
 6736SOL    HW221108   3.209   3.889   0.953
 6737SOL     OW21109   1.191   2.916   1.141
 6737SOL    HW121110   1.168   2.898   1.046
 6737SOL    HW221111   1.281   2.878   1.162
 6738SOL     OW21112   2.057   5.672   3.011
 6738SOL    HW121113   2.139   5.728   3.018
 6738SOL    HW221114   2.083   5.575   3.012
 6739SOL     OW21115   6.828   0.362   4.175
 6739SOL    HW121116   6.788   0.280   4.132
 6739SOL    HW221117   6.792   0.371   4.268
 6740SOL     OW21118   6.528   6.753   4.265
 6740SOL    HW121119   6.609   6.715   4.220
 6740SOL    HW221120   6.553   6.838   4.311
 6741SOL     OW21121   4.513   2.182   5.560
 6741SOL    HW121122   4.519   2.114   5.488
 6741SOL    HW221123   4.605   2.215   5.581
 6742SOL     OW21124   5.360   4.927   3.442
 6742SOL    HW121125   5.443   4.976   3.466
 6742SOL    HW221126   5.356   4.842   3.494
 6743SOL     OW21127   4.119   4.095   0.487
 6743SOL    HW121128   4.036   4.084   0.432
 6743SOL    HW221129   4.200   4.079   0.429
 6744SOL     OW21130   6.780   5.445   6.014
 6744SOL    HW121131   6.870   5.444   5.971
 6744SOL    HW221132   6.780   5.511   6.090
 6745SOL     OW21133   6.882   6.766   4.324
 6745SOL    HW121134   6.972   6.801   4.298
 6745SOL    HW221135   6.888   6.667   4.338
 6746SOL     OW21136   1.480   1.159   2.789
 6746SOL    HW121137   1.509   1.090   2.723
 6746SOL    HW221138   1.500   1.250   2.753
 6747SOL     OW21139   1.541   6.935   6.858
 6747SOL    HW121140   1.491   0.005   6.869
 6747SOL    HW221141   1.513   6.890   6.773
 6748SOL     OW21142   2.408   1.929   4.088
 6748SOL    HW121143   2.431   1.878   4.171
 6748SOL    HW221144   2.465   2.011   4.082
 6749SOL     OW21145   3.440   4.386   0.663
 6749SOL    HW121146   3.529   4.363   0.624
 6749SOL    HW221147   3.436   4.484   0.683
 6750SOL     OW21148   3.040   2.231   4.652
 6750SOL    HW121149   3.065   2.268   4.563
 6750SOL    HW221150   3.123   2.203   4.701
 6751SOL     OW21151   4.083   6.892   3.555
 6751SOL    HW121152   4.020   6.814   3.556
 6751SOL    HW221153   4.172   6.863   3.590
 6752SOL     OW21154   1.711   6.038   2.713
 6752SOL    HW121155   1.628   6.045   2.657
 6752SOL    HW221156   1.791   6.028   2.654
 6753SOL     OW21157   3.698   2.771   5.192
 6753SOL    HW121158   3.709   2.823   5.107
 6753SOL    HW221159   3.605   2.735   5.197
 6754SOL     OW21160   6.113   1.390   1.213
 6754SOL    HW121161   6.161   1.331   1.278
 6754SOL    HW221162   6.146   1.484   1.223
 6755SOL     OW21163   2.868   4.881   0.184
 6755SOL    HW121164   2.906   4.847   0.098
 6755SOL    HW221165   2.942   4.899   0.248
 6756SOL     OW21166   2.138   2.077   5.626
 6756SOL    HW121167   2.160   1.979   5.625
 6756SOL    HW221168   2.173   2.118   5.711
 6757SOL     OW21169   3.775   0.554   0.563
 6757SOL    HW121170   3.730   0.601   0.488
 6757SOL    HW221171   3.706   0.512   0.622
 6758SOL     OW21172   6.047   2.975   1.365
 6758SOL    HW121173   6.023   2.896   1.421
 6758SOL    HW221174   6.063   2.945   1.271
 6759SOL     OW21175   0.297   3.476   3.180
 6759SOL    HW121176   0.232   3.454   3.252
 6759SOL    HW221177   0.265   3.557   3.130
 6760SOL     OW21178   5.275   3.032   3.238
 6760SOL    HW121179   5.308   3.008   3.146
 6760SOL    HW221180   5.205   3.103   3.231
 6761SOL     OW21181   4.821   1.998   4.635
 6761SOL    HW121182   4.871   1.914   4.658
 6761SOL    HW221183   4.726   1.989   4.662
 6762SOL     OW21184   6.428   5.624   3.526
 6762SOL    HW121185   6.405   5.529   3.549
 6762SOL    HW221186   6.345   5.680   3.529
 6763SOL     OW21187   4.554   5.301   4.852
 6763SOL    HW121188   4.532   5.376   4.789
 6763SOL    HW221189   4.591   5.338   4.937
 6764SOL     OW21190   1.267   5.799   1.685
 6764SOL    HW121191   1.306   5.847   1.764
 6764SOL    HW221192   1.261   5.701   1.705
 6765SOL     OW21193   6.207   4.791   3.371
 6765SOL    HW121194   6.279   4.731   3.336
 6765SOL    HW221195   6.245   4.882   3.385
 6766SOL     OW21196   4.901   6.164   0.797
 6766SOL    HW121197   4.883   6.090   0.732
 6766SOL    HW221198   4.994   6.199   0.783
 6767SOL     OW21199   2.718   0.760   0.642
 6767SOL    HW121200   2.622   0.741   0.621
 6767SOL    HW221201   2.753   0.687   0.702
 6768SOL     OW21202   2.139   0.973   0.264
 6768SOL    HW121203   2.159   0.929   0.177
 6768SOL    HW221204   2.069   1.044   0.250
 6769SOL     OW21205   3.729   2.423   1.208
 6769SOL    HW121206   3.721   2.374   1.121
 6769SOL    HW221207   3.787   2.503   1.196
 6770SOL     OW21208   0.016   0.921   1.887
 6770SOL    HW121209   7.011   1.001   1.831
 6770SOL    HW221210   0.068   0.949   1.968
 6771SOL     OW21211   4.260   2.087   2.804
 6771SOL    HW121212   4.347   2.094   2.852
 6771SOL    HW221213   4.187   2.123   2.862
 6772SOL     OW21214   3.050   1.599   2.560
 6772SOL    HW121215   3.026   1.671   2.494
 6772SOL    HW221216   2.966   1.563   2.601
 6773SOL     OW21217   6.788   3.657   1.845
 6773SOL    HW121218   6.814   3.738   1.897
 6773SOL    HW221219   6.816   3.668   1.750
 6774SOL     OW21220   0.672   2.952   6.611
 6774SOL    HW121221   0.644   2.855   6.612
 6774SOL    HW221222   0.654   2.990   6.521
 6775SOL     OW21223   2.927   3.761   1.089
 6775SOL    HW121224   2.872   3.681   1.065
 6775SOL    HW221225   3.020   3.733   1.111
 6776SOL     OW21226   5.017   4.422   0.293
 6776SOL    HW121227   5.103   4.381   0.261
 6776SOL    HW221228   4.944   4.354   0.288
 6777SOL     OW21229   4.020   4.757   6.434
 6777SOL    HW121230   4.075   4.679   6.463
 6777SOL    HW221231   4.080   4.828   6.397
 6778SOL     OW21232   0.714   4.174   2.360
 6778SOL    HW121233   0.656   4.237   2.308
 6778SOL    HW221234   0.682   4.168   2.454
 6779SOL     OW21235   6.540   4.438   0.066
 6779SOL    HW121236   6.485   4.435   6.998
 6779SOL    HW221237   6.540   4.531   0.102
 6780SOL     OW21238   0.741   2.163   2.774
 6780SOL    HW121239   0.661   2.213   2.806
 6780SOL    HW221240   0.719   2.118   2.687
 6781SOL     OW21241   5.436   6.562   5.748
 6781SOL    HW121242   5.427   6.478   5.693
 6781SOL    HW221243   5.365   6.627   5.721
 6782SOL     OW21244   0.556   1.355   2.438
 6782SOL    HW121245   0.541   1.358   2.536
 6782SOL    HW221246   0.655   1.357   2.419
 6783SOL     OW21247   0.173   6.155   5.757
 6783SOL    HW121248   0.132   6.236   5.715
 6783SOL    HW221249   0.262   6.137   5.715
 6784SOL     OW21250   3.825   3.886   6.681
 6784SOL    HW121251   3.840   3.921   6.773
 6784SOL    HW221252   3.893   3.927   6.619
 6785SOL     OW21253   5.907   4.941   1.877
 6785SOL    HW121254   5.809   4.922   1.868
 6785SOL    HW221255   5.919   5.029   1.924
 6786SOL     OW21256   1.676   2.386   6.837
 6786SOL    HW121257   1.610   2.444   6.790
 6786SOL    HW221258   1.769   2.414   6.812
 6787SOL     OW21259   1.905   3.791   1.087
 6787SOL    HW121260   1.821   3.826   1.127
 6787SOL    HW221261   1.900   3.797   0.987
 6788SOL     OW21262   2.817   3.853   1.587
 6788SOL    HW121263   2.858   3.858   1.679
 6788SOL    HW221264   2.745   3.784   1.587
 6789SOL     OW21265   0.017   6.767   2.256
 6789SOL    HW121266   0.011   6.678   2.212
 6789SOL    HW221267   0.114   6.792   2.268
 6790SOL     OW21268   2.149   3.345   0.175
 6790SOL    HW121269   2.075   3.398   0.217
 6790SOL    HW221270   2.130   3.248   0.186
 6791SOL     OW21271   4.380   2.295   0.916
 6791SOL    HW121272   4.330   2.317   1.000
 6791SOL    HW221273   4.445   2.369   0.896
 6792SOL     OW21274   6.357   6.068   6.364
 6792SOL    HW121275   6.278   6.099   6.415
 6792SOL    HW221276   6.435   6.128   6.383
 6793SOL     OW21277   0.825   2.027   0.319
 6793SOL    HW121278   0.919   2.054   0.299
 6793SOL    HW221279   0.805   2.041   0.416
 6794SOL     OW21280   5.158   0.857   4.221
 6794SOL    HW121281   5.212   0.894   4.297
 6794SOL    HW221282   5.094   0.927   4.190
 6795SOL     OW21283   2.812   5.587   0.721
 6795SOL    HW121284   2.748   5.555   0.790
 6795SOL    HW221285   2.805   5.530   0.639
 6796SOL     OW21286   5.739   1.056   2.266
 6796SOL    HW121287   5.821   1.001   2.286
 6796SOL    HW221288   5.742   1.140   2.320
 6797SOL     OW21289   5.341   3.408   2.076
 6797SOL    HW121290   5.254   3.443   2.112
 6797SOL    HW221291   5.336   3.401   1.976
 6798SOL     OW21292   5.521   5.273   3.047
 6798SOL    HW121293   5.479   5.183   3.040
 6798SOL    HW221294   5.493   5.316   3.132
 6799SOL     OW21295   5.219   5.602   0.616
 6799SOL    HW121296   5.312   5.602   0.581
 6799SOL    HW221297   5.187   5.696   0.626
 6800SOL     OW21298   2.021   4.437   0.550
 6800SOL    HW121299   1.987   4.350   0.586
 6800SOL    HW221300   2.037   4.429   0.452
 6801SOL     OW21301   1.498   1.529   2.140
 6801SOL    HW121302   1.443   1.604   2.103
 6801SOL    HW221303   1.453   1.442   2.120
 6802SOL     OW21304   2.032   5.759   0.927
 6802SOL    HW121305   2.126   5.727   0.910
 6802SOL    HW221306   1.974   5.682   0.951
 6803SOL     OW21307   4.715   2.141   6.521
 6803SOL    HW121308   4.694   2.052   6.562
 6803SOL    HW221309   4.812   2.147   6.500
 6804SOL     OW21310   2.054   6.279   3.333
 6804SOL    HW121311   2.114   6.199   3.323
 6804SOL    HW221312   2.105   6.362   3.309
 6805SOL     OW21313   5.652   6.711   4.527
 6805SOL    HW121314   5.617   6.618   4.519
 6805SOL    HW221315   5.594   6.762   4.592
 6806SOL     OW21316   5.081   1.192   4.320
 6806SOL    HW121317   5.033   1.135   4.253
 6806SOL    HW221318   5.060   1.288   4.304
 6807SOL     OW21319   2.405   3.088   0.114
 6807SOL    HW121320   2.496   3.092   0.155
 6807SOL    HW221321   2.401   3.151   0.036
 6808SOL     OW21322   0.773   3.057   5.192
 6808SOL    HW121323   0.767   3.037   5.290
 6808SOL    HW221324   0.685   3.089   5.158
 6809SOL     OW21325   1.683   4.741   0.069
 6809SOL    HW121326   1.679   4.681   0.149
 6809SOL    HW221327   1.633   4.698   7.009
 6810SOL     OW21328   1.119   0.795   2.095
 6810SOL    HW121329   1.200   0.764   2.145
 6810SOL    HW221330   1.123   0.894   2.083
 6811SOL     OW21331   6.016   4.199   0.506
 6811SOL    HW121332   6.110   4.223   0.531
 6811SOL    HW221333   6.013   4.174   0.409
 6812SOL     OW21334   4.126   3.405   3.140
 6812SOL    HW121335   4.145   3.468   3.215
 6812SOL    HW221336   4.078   3.325   3.175
 6813SOL     OW21337   5.133   1.886   1.566
 6813SOL    HW121338   5.087   1.797   1.556
 6813SOL    HW221339   5.070   1.951   1.608
 6814SOL     OW21340   3.112   2.727   1.217
 6814SOL    HW121341   3.080   2.665   1.288
 6814SOL    HW221342   3.198   2.769   1.246
 6815SOL     OW21343   2.805   7.014   1.779
 6815SOL    HW121344   2.726   0.007   1.718
 6815SOL    HW221345   2.865   0.077   1.768
 6816SOL     OW21346   6.263   5.297   6.891
 6816SOL    HW121347   6.259   5.387   6.934
 6816SOL    HW221348   6.357   5.264   6.891
 6817SOL     OW21349   6.329   1.410   5.217
 6817SOL    HW121350   6.255   1.474   5.193
 6817SOL    HW221351   6.368   1.436   5.305
 6818SOL     OW21352   3.492   6.272   1.817
 6818SOL    HW121353   3.493   6.349   1.879
 6818SOL    HW221354   3.440   6.296   1.735
 6819SOL     OW21355   2.994   0.715   3.524
 6819SOL    HW121356   2.897   0.695   3.514
 6819SOL    HW221357   3.017   0.797   3.471
 6820SOL     OW21358   1.001   4.570   3.587
 6820SOL    HW121359   1.044   4.541   3.672
 6820SOL    HW221360   0.935   4.642   3.606
 6821SOL     OW21361   2.556   2.195   5.229
 6821SOL    HW121362   2.625   2.130   5.259
 6821SOL    HW221363   2.577   2.226   5.136
 6822SOL     OW21364   5.631   1.395   5.909
 6822SOL    HW121365   5.656   1.298   5.902
 6822SOL    HW221366   5.532   1.403   5.915
 6823SOL     OW21367   3.669   3.696   3.797
 6823SOL    HW121368   3.692   3.692   3.699
 6823SOL    HW221369   3.581   3.652   3.812
 6824SOL     OW21370   0.196   3.428   6.572
 6824SOL    HW121371   0.262   3.369   6.525
 6824SOL    HW221372   0.241   3.512   6.600
 6825SOL     OW21373   5.079   0.378   2.207
 6825SOL    HW121374   5.099   0.280   2.218
 6825SOL    HW221375   5.063   0.419   2.297
 6826SOL     OW21376   2.138   3.712   2.373
 6826SOL    HW121377   2.040   3.701   2.391
 6826SOL    HW221378   2.175   3.625   2.340
 6827SOL     OW21379   4.648   5.811   0.026
 6827SOL    HW121380   4.742   5.843   0.041
 6827SOL    HW221381   4.646   5.751   6.962
 6828SOL     OW21382   1.264   2.363   1.823
 6828SOL    HW121383   1.177   2.398   1.856
 6828SOL    HW221384   1.257   2.265   1.807
 6829SOL     OW21385   5.419   6.756   3.558
 6829SOL    HW121386   5.491   6.689   3.573
 6829SOL    HW221387   5.450   6.823   3.490
 6830SOL     OW21388   5.602   1.438   2.884
 6830SOL    HW121389   5.510   1.431   2.845
 6830SOL    HW221390   5.640   1.528   2.864
 6831SOL     OW21391   0.744   0.830   6.437
 6831SOL    HW121392   0.665   0.844   6.376
 6831SOL    HW221393   0.799   0.754   6.403
 6832SOL     OW21394   2.793   4.393   1.580
 6832SOL    HW121395   2.839   4.408   1.668
 6832SOL    HW221396   2.791   4.295   1.560
 6833SOL     OW21397   3.750   5.143   6.939
 6833SOL    HW121398   3.722   5.151   0.019
 6833SOL    HW221399   3.833   5.088   6.933
 6834SOL     OW21400   4.636   6.920   1.517
 6834SOL    HW121401   4.593   6.848   1.573
 6834SOL    HW221402   4.591   6.925   1.428
 6835SOL     OW21403   3.924   0.377   5.154
 6835SOL    HW121404   3.834   0.351   5.120
 6835SOL    HW221405   3.919   0.468   5.194
 6836SOL     OW21406   3.145   6.211   0.680
 6836SOL    HW121407   3.080   6.134   0.681
 6836SOL    HW221408   3.097   6.295   0.704
 6837SOL     OW21409   1.845   3.257   1.749
 6837SOL    HW121410   1.891   3.253   1.660
 6837SOL    HW221411   1.747   3.274   1.735
 6838SOL     OW21412   2.349   0.944   0.423
 6838SOL    HW121413   2.426   0.955   0.360
 6838SOL    HW221414   2.263   0.961   0.374
 6839SOL     OW21415   4.574   1.140   1.001
 6839SOL    HW121416   4.635   1.088   1.061
 6839SOL    HW221417   4.628   1.185   0.929
 6840SOL     OW21418   2.588   1.590   6.219
 6840SOL    HW121419   2.636   1.658   6.163
 6840SOL    HW221420   2.499   1.627   6.247
 6841SOL     OW21421   6.434   3.565   5.939
 6841SOL    HW121422   6.449   3.483   5.994
 6841SOL    HW221423   6.341   3.564   5.902
 6842SOL     OW21424   1.778   4.885   1.472
 6842SOL    HW121425   1.822   4.868   1.560
 6842SOL    HW221426   1.825   4.961   1.426
 6843SOL     OW21427   5.316   6.946   6.655
 6843SOL    HW121428   5.345   6.884   6.581
 6843SOL    HW221429   5.244   7.006   6.621
 6844SOL     OW21430   5.112   0.939   3.754
 6844SOL    HW121431   5.202   0.940   3.798
 6844SOL    HW221432   5.050   1.000   3.803
 6845SOL     OW21433   4.698   2.820   3.036
 6845SOL    HW121434   4.657   2.808   3.126
 6845SOL    HW221435   4.670   2.745   2.976
 6846SOL     OW21436   2.883   4.198   0.425
 6846SOL    HW121437   2.905   4.105   0.456
 6846SOL    HW221438   2.964   4.256   0.433
 6847SOL     OW21439   6.070   4.072   4.539
 6847SOL    HW121440   6.017   4.008   4.595
 6847SOL    HW221441   6.121   4.133   4.599
 6848SOL     OW21442   5.247   4.032   4.128
 6848SOL    HW121443   5.201   4.083   4.200
 6848SOL    HW221444   5.344   4.056   4.127
 6849SOL     OW21445   3.669   3.795   5.822
 6849SOL    HW121446   3.736   3.868   5.810
 6849SOL    HW221447   3.709   3.721   5.876
 6850SOL     OW21448   4.284   2.257   3.479
 6850SOL    HW121449   4.345   2.177   3.477
 6850SOL    HW221450   4.189   2.226   3.492
 6851SOL     OW21451   2.052   2.806   2.532
 6851SOL    HW121452   2.116   2.879   2.508
 6851SOL    HW221453   2.100   2.736   2.586
 6852SOL     OW21454   2.278   5.615   0.947
 6852SOL    HW121455   2.371   5.583   0.969
 6852SOL    HW221456   2.213   5.542   0.962
 6853SOL     OW21457   5.603   3.543   6.533
 6853SOL    HW121458   5.564   3.565   6.443
 6853SOL    HW221459   5.701   3.561   6.533
 6854SOL     OW21460   4.964   6.287   5.861
 6854SOL    HW121461   5.024   6.251   5.790
 6854SOL    HW221462   5.013   6.355   5.916
 6855SOL     OW21463   3.578   5.327   3.511
 6855SOL    HW121464   3.648   5.269   3.552
 6855SOL    HW221465   3.618   5.380   3.437
 6856SOL     OW21466   0.678   2.691   6.253
 6856SOL    HW121467   0.683   2.660   6.158
 6856SOL    HW221468   0.626   2.624   6.306
 6857SOL     OW21469   1.291   3.319   6.857
 6857SOL    HW121470   1.216   3.270   6.903
 6857SOL    HW221471   1.378   3.279   6.884
 6858SOL     OW21472   3.297   4.125   1.685
 6858SOL    HW121473   3.319   4.028   1.681
 6858SOL    HW221474   3.212   4.142   1.635
 6859SOL     OW21475   0.683   1.593   1.953
 6859SOL    HW121476   0.585   1.573   1.955
 6859SOL    HW221477   0.720   1.588   2.046
 6860SOL     OW21478   6.914   5.597   2.101
 6860SOL    HW121479   6.817   5.578   2.118
 6860SOL    HW221480   6.923   5.650   2.016
 6861SOL     OW21481   5.002   3.283   5.477
 6861SOL    HW121482   5.049   3.358   5.431
 6861SOL    HW221483   4.986   3.208   5.412
 6862SOL     OW21484   0.646   4.664   6.405
 6862SOL    HW121485   0.744   4.681   6.392
 6862SOL    HW221486   0.613   4.603   6.333
 6863SOL     OW21487   6.572   6.217   4.984
 6863SOL    HW121488   6.644   6.210   4.915
 6863SOL    HW221489   6.613   6.216   5.075
 6864SOL     OW21490   1.604   3.813   5.859
 6864SOL    HW121491   1.598   3.714   5.873
 6864SOL    HW221492   1.542   3.860   5.921
 6865SOL     OW21493   1.165   0.302   4.460
 6865SOL    HW121494   1.148   0.384   4.406
 6865SOL    HW221495   1.183   0.327   4.555
 6866SOL     OW21496   6.742   4.539   2.334
 6866SOL    HW121497   6.706   4.447   2.348
 6866SOL    HW221498   6.837   4.544   2.365
 6867SOL     OW21499   2.036   3.528   0.586
 6867SOL    HW121500   2.101   3.453   0.598
 6867SOL    HW221501   1.943   3.492   0.587
 6868SOL     OW21502   1.979   5.465   5.086
 6868SOL    HW121503   1.934   5.378   5.106
 6868SOL    HW221504   1.929   5.513   5.015
 6869SOL     OW21505   3.403   6.821   5.493
 6869SOL    HW121506   3.485   6.879   5.497
 6869SOL    HW221507   3.427   6.728   5.520
 6870SOL     OW21508   0.015   2.820   0.687
 6870SOL    HW121509   6.981   2.736   0.712
 6870SOL    HW221510   0.098   2.827   0.743
 6871SOL     OW21511   6.745   3.571   2.371
 6871SOL    HW121512   6.699   3.500   2.319
 6871SOL    HW221513   6.842   3.572   2.348
 6872SOL     OW21514   1.206   2.784   1.938
 6872SOL    HW121515   1.274   2.846   1.898
 6872SOL    HW221516   1.237   2.753   2.027
 6873SOL     OW21517   1.285   4.522   4.585
 6873SOL    HW121518   1.377   4.519   4.546
 6873SOL    HW221519   1.247   4.430   4.587
 6874SOL     OW21520   5.752   5.625   2.791
 6874SOL    HW121521   5.738   5.724   2.795
 6874SOL    HW221522   5.803   5.602   2.708
 6875SOL     OW21523   1.668   2.244   0.987
 6875SOL    HW121524   1.662   2.146   0.966
 6875SOL    HW221525   1.763   2.269   1.002
 6876SOL     OW21526   3.709   6.818   3.275
 6876SOL    HW121527   3.679   6.724   3.256
 6876SOL    HW221528   3.711   6.870   3.189
 6877SOL     OW21529   2.265   4.267   1.933
 6877SOL    HW121530   2.226   4.235   2.019
 6877SOL    HW221531   2.198   4.254   1.859
 6878SOL     OW21532   1.872   0.834   3.917
 6878SOL    HW121533   1.970   0.854   3.919
 6878SOL    HW221534   1.829   0.888   3.844
 6879SOL     OW21535   2.032   2.185   0.631
 6879SOL    HW121536   1.960   2.255   0.632
 6879SOL    HW221537   1.993   2.097   0.659
 6880SOL     OW21538   1.841   5.911   6.403
 6880SOL    HW121539   1.901   5.990   6.410
 6880SOL    HW221540   1.894   5.832   6.372
 6881SOL     OW21541   1.905   3.460   6.919
 6881SOL    HW121542   1.913   3.551   6.959
 6881SOL    HW221543   1.809   3.442   6.897
 6882SOL     OW21544   2.977   6.452   0.709
 6882SOL    HW121545   3.006   6.464   0.614
 6882SOL    HW221546   2.964   6.542   0.751
 6883SOL     OW21547   5.292   0.246   6.237
 6883SOL    HW121548   5.309   0.221   6.332
 6883SOL    HW221549   5.199   0.283   6.229
 6884SOL     OW21550   2.097   4.161   3.091
 6884SOL    HW121551   2.017   4.117   3.052
 6884SOL    HW221552   2.171   4.161   3.024
 6885SOL     OW21553   4.465   5.009   3.718
 6885SOL    HW121554   4.563   5.025   3.705
 6885SOL    HW221555   4.421   5.001   3.628
 6886SOL     OW21556   5.229   0.896   5.741
 6886SOL    HW121557   5.277   0.828   5.797
 6886SOL    HW221558   5.139   0.861   5.716
 6887SOL     OW21559   5.162   6.532   6.539
 6887SOL    HW121560   5.185   6.615   6.488
 6887SOL    HW221561   5.170   6.453   6.478
 6888SOL     OW21562   5.622   4.710   6.490
 6888SOL    HW121563   5.524   4.693   6.487
 6888SOL    HW221564   5.661   4.695   6.399
 6889SOL     OW21565   1.000   2.710   5.489
 6889SOL    HW121566   1.055   2.653   5.550
 6889SOL    HW221567   0.976   2.795   5.535
 6890SOL     OW21568   3.541   5.205   2.857
 6890SOL    HW121569   3.537   5.139   2.932
 6890SOL    HW221570   3.502   5.292   2.888
 6891SOL     OW21571   2.255   2.732   1.145
 6891SOL    HW121572   2.184   2.797   1.120
 6891SOL    HW221573   2.240   2.699   1.238
 6892SOL     OW21574   3.147   1.218   4.510
 6892SOL    HW121575   3.094   1.174   4.583
 6892SOL    HW221576   3.209   1.285   4.551
 6893SOL     OW21577   6.113   2.975   6.874
 6893SOL    HW121578   6.170   2.897   6.898
 6893SOL    HW221579   6.055   3.000   6.952
 6894SOL     OW21580   5.517   4.728   1.120
 6894SOL    HW121581   5.417   4.733   1.129
 6894SOL    HW221582   5.546   4.774   1.037
 6895SOL     OW21583   1.699   5.973   1.039
 6895SOL    HW121584   1.761   5.924   1.101
 6895SOL    HW221585   1.635   6.028   1.092
 6896SOL     OW21586   3.714   2.005   4.276
 6896SOL    HW121587   3.689   2.052   4.191
 6896SOL    HW221588   3.688   2.062   4.354
 6897SOL     OW21589   4.929   3.843   5.163
 6897SOL    HW121590   4.884   3.756   5.145
 6897SOL    HW221591   5.025   3.837   5.133
 6898SOL     OW21592   2.469   1.229   1.423
 6898SOL    HW121593   2.568   1.218   1.434
 6898SOL    HW221594   2.429   1.141   1.397
 6899SOL     OW21595   6.133   5.534   2.381
 6899SOL    HW121596   6.119   5.631   2.361
 6899SOL    HW221597   6.184   5.492   2.306
 6900SOL     OW21598   6.726   4.366   6.315
 6900SOL    HW121599   6.698   4.437   6.250
 6900SOL    HW221600   6.785   4.301   6.268
 6901SOL     OW21601   4.302   4.911   6.832
 6901SOL    HW121602   4.383   4.969   6.820
 6901SOL    HW221603   4.220   4.969   6.834
 6902SOL     OW21604   7.007   6.086   6.137
 6902SOL    HW121605   0.072   6.048   6.181
 6902SOL    HW221606   6.959   6.014   6.087
 6903SOL     OW21607   2.781   5.183   5.091
 6903SOL    HW121608   2.788   5.136   5.179
 6903SOL    HW221609   2.701   5.149   5.042
 6904SOL     OW21610   0.409   5.679   4.858
 6904SOL    HW121611   0.425   5.625   4.775
 6904SOL    HW221612   0.422   5.621   4.939
 6905SOL     OW21613   5.115   5.568   6.051
 6905SOL    HW121614   5.182   5.544   5.982
 6905SOL    HW221615   5.028   5.591   6.007
 6906SOL     OW21616   3.994   1.022   3.622
 6906SOL    HW121617   3.991   1.033   3.722
 6906SOL    HW221618   4.069   0.960   3.598
 6907SOL     OW21619   6.185   1.494   1.550
 6907SOL    HW121620   6.110   1.454   1.497
 6907SOL    HW221621   6.148   1.562   1.613
 6908SOL     OW21622   2.529   4.202   6.547
 6908SOL    HW121623   2.590   4.129   6.577
 6908SOL    HW221624   2.546   4.221   6.450
 6909SOL     OW21625   5.417   4.643   1.740
 6909SOL    HW121626   5.473   4.561   1.745
 6909SOL    HW221627   5.327   4.626   1.780
 6910SOL     OW21628   1.431   3.048   2.742
 6910SOL    HW121629   1.375   3.064   2.661
 6910SOL    HW221630   1.393   2.972   2.795
 6911SOL     OW21631   3.320   0.133   5.506
 6911SOL    HW121632   3.250   0.064   5.487
 6911SOL    HW221633   3.409   0.089   5.512
 6912SOL     OW21634   2.093   3.255   6.621
 6912SOL    HW121635   2.192   3.251   6.636
 6912SOL    HW221636   2.075   3.282   6.526
 6913SOL     OW21637   4.776   5.925   5.847
 6913SOL    HW121638   4.730   6.001   5.801
 6913SOL    HW221639   4.867   5.912   5.809
 6914SOL     OW21640   6.210   3.398   2.035
 6914SOL    HW121641   6.239   3.388   1.940
 6914SOL    HW221642   6.130   3.458   2.039
 6915SOL     OW21643   0.967   3.414   2.157
 6915SOL    HW121644   1.037   3.476   2.122
 6915SOL    HW221645   0.948   3.436   2.253
 6916SOL     OW21646   4.740   0.136   6.178
 6916SOL    HW121647   4.663   0.134   6.114
 6916SOL    HW221648   4.825   0.120   6.127
 6917SOL     OW21649   5.048   5.589   1.952
 6917SOL    HW121650   5.006   5.503   1.980
 6917SOL    HW221651   5.131   5.571   1.900
 6918SOL     OW21652   1.032   3.141   2.034
 6918SOL    HW121653   0.991   3.229   2.060
 6918SOL    HW221654   0.980   3.066   2.075
 6919SOL     OW21655   6.115   0.089   2.411
 6919SOL    HW121656   6.203   0.133   2.430
 6919SOL    HW221657   6.128   0.013   2.348
 6920SOL     OW21658   4.653   0.370   5.421
 6920SOL    HW121659   4.661   0.277   5.459
 6920SOL    HW221660   4.596   0.425   5.483
 6921SOL     OW21661   3.553   0.343   4.697
 6921SOL    HW121662   3.616   0.278   4.656
 6921SOL    HW221663   3.534   0.416   4.631
 6922SOL     OW21664   1.944   6.023   4.713
 6922SOL    HW121665   1.995   6.084   4.652
 6922SOL    HW221666   1.958   5.928   4.685
 6923SOL     OW21667   6.274   0.012   2.144
 6923SOL    HW121668   6.291   0.014   2.045
 6923SOL    HW221669   6.308   6.941   2.181
 6924SOL     OW21670   3.706   6.466   0.795
 6924SOL    HW121671   3.607   6.484   0.790
 6924SOL    HW221672   3.724   6.403   0.870
 6925SOL     OW21673   5.201   6.088   6.556
 6925SOL    HW121674   5.300   6.089   6.573
 6925SOL    HW221675   5.178   6.010   6.499
 6926SOL     OW21676   2.732   1.623   1.055
 6926SOL    HW121677   2.798   1.555   1.086
 6926SOL    HW221678   2.772   1.715   1.064
 6927SOL     OW21679   4.010   0.748   0.627
 6927SOL    HW121680   4.041   0.792   0.542
 6927SOL    HW221681   3.913   0.726   0.620
 6928SOL     OW21682   5.088   5.295   0.822
 6928SOL    HW121683   5.017   5.226   0.805
 6928SOL    HW221684   5.152   5.297   0.746
 6929SOL     OW21685   4.820   5.035   1.579
 6929SOL    HW121686   4.894   5.086   1.623
 6929SOL    HW221687   4.840   4.937   1.582
 6930SOL     OW21688   0.396   1.237   0.536
 6930SOL    HW121689   0.494   1.221   0.548
 6930SOL    HW221690   0.378   1.335   0.532
 6931SOL     OW21691   2.501   2.229   1.294
 6931SOL    HW121692   2.463   2.235   1.202
 6931SOL    HW221693   2.471   2.309   1.347
 6932SOL     OW21694   4.921   5.340   6.947
 6932SOL    HW121695   4.904   5.361   6.851
 6932SOL    HW221696   4.853   5.385   7.004
 6933SOL     OW21697   3.077   5.915   6.339
 6933SOL    HW121698   3.027   6.000   6.325
 6933SOL    HW221699   3.123   5.919   6.428
 6934SOL     OW21700   4.993   4.184   6.529
 6934SOL    HW121701   5.082   4.141   6.519
 6934SOL    HW221702   4.960   4.170   6.623
 6935SOL     OW21703   5.309   5.467   1.861
 6935SOL    HW121704   5.262   5.517   1.789
 6935SOL    HW221705   5.399   5.508   1.877
 6936SOL     OW21706   0.975   1.455   4.526
 6936SOL    HW121707   1.061   1.475   4.478
 6936SOL    HW221708   0.920   1.538   4.531
 6937SOL     OW21709   5.304   5.807   0.399
 6937SOL    HW121710   5.283   5.903   0.420
 6937SOL    HW221711   5.370   5.772   0.465
 6938SOL     OW21712   0.346   0.688   4.530
 6938SOL    HW121713   0.377   0.760   4.592
 6938SOL    HW221714   0.315   0.728   4.444
 6939SOL     OW21715   6.390   4.439   3.618
 6939SOL    HW121716   6.389   4.369   3.690
 6939SOL    HW221717   6.381   4.530   3.660
 6940SOL     OW21718   4.823   6.925   0.765
 6940SOL    HW121719   4.749   6.944   0.700
 6940SOL    HW221720   4.798   6.960   0.855
 6941SOL     OW21721   2.891   3.431   2.904
 6941SOL    HW121722   2.959   3.500   2.928
 6941SOL    HW221723   2.861   3.445   2.810
 6942SOL     OW21724   6.362   5.981   1.588
 6942SOL    HW121725   6.385   6.054   1.652
 6942SOL    HW221726   6.311   5.910   1.636
 6943SOL     OW21727   3.758   4.500   0.110
 6943SOL    HW121728   3.787   4.519   0.016
 6943SOL    HW221729   3.818   4.432   0.151
 6944SOL     OW21730   1.124   3.857   5.975
 6944SOL    HW121731   1.191   3.806   5.920
 6944SOL    HW221732   1.033   3.816   5.962
 6945SOL     OW21733   6.009   2.710   0.587
 6945SOL    HW121734   5.914   2.715   0.618
 6945SOL    HW221735   6.056   2.637   0.636
 6946SOL     OW21736   3.799   5.647   2.306
 6946SOL    HW121737   3.785   5.574   2.374
 6946SOL    HW221738   3.836   5.608   2.222
 6947SOL     OW21739   4.750   4.770   5.911
 6947SOL    HW121740   4.693   4.689   5.923
 6947SOL    HW221741   4.845   4.748   5.933
 6948SOL     OW21742   0.268   5.835   1.053
 6948SOL    HW121743   0.195   5.789   1.003
 6948SOL    HW221744   0.258   5.934   1.043
 6949SOL     OW21745   2.859   2.336   3.599
 6949SOL    HW121746   2.822   2.325   3.691
 6949SOL    HW221747   2.799   2.288   3.534
 6950SOL     OW21748   0.980   6.633   4.499
 6950SOL    HW121749   1.062   6.688   4.518
 6950SOL    HW221750   0.899   6.691   4.502
 6951SOL     OW21751   6.948   5.218   0.045
 6951SOL    HW121752   6.959   5.301   7.006
 6951SOL    HW221753   0.009   5.157   0.028
 6952SOL     OW21754   3.255   4.964   2.771
 6952SOL    HW121755   3.273   4.957   2.673
 6952SOL    HW221756   3.160   4.937   2.789
 6953SOL     OW21757   5.616   0.806   0.726
 6953SOL    HW121758   5.657   0.762   0.646
 6953SOL    HW221759   5.531   0.760   0.750
 6954SOL     OW21760   0.567   3.662   0.746
 6954SOL    HW121761   0.519   3.584   0.786
 6954SOL    HW221762   0.520   3.747   0.770
 6955SOL     OW21763   5.137   0.142   2.388
 6955SOL    HW121764   5.204   0.179   2.452
 6955SOL    HW221765   5.061   0.101   2.439
 6956SOL     OW21766   5.697   5.819   2.073
 6956SOL    HW121767   5.693   5.918   2.068
 6956SOL    HW221768   5.615   5.784   2.118
 6957SOL     OW21769   5.523   5.477   6.357
 6957SOL    HW121770   5.443   5.416   6.356
 6957SOL    HW221771   5.606   5.424   6.340
 6958SOL     OW21772   3.397   2.859   3.892
 6958SOL    HW121773   3.351   2.824   3.810
 6958SOL    HW221774   3.328   2.891   3.957
 6959SOL     OW21775   1.401   4.241   2.989
 6959SOL    HW121776   1.368   4.335   2.984
 6959SOL    HW221777   1.356   4.185   2.919
 6960SOL     OW21778   1.938   4.629   0.294
 6960SOL    HW121779   2.000   4.651   0.369
 6960SOL    HW221780   1.970   4.548   0.245
 6961SOL     OW21781   4.017   1.723   5.015
 6961SOL    HW121782   3.987   1.689   4.926
 6961SOL    HW221783   3.983   1.663   5.087
 6962SOL     OW21784   3.622   6.768   6.184
 6962SOL    HW121785   3.721   6.759   6.169
 6962SOL    HW221786   3.604   6.844   6.246
 6963SOL     OW21787   5.012   6.414   1.131
 6963SOL    HW121788   4.915   6.391   1.141
 6963SOL    HW221789   5.020   6.505   1.091
 6964SOL     OW21790   2.086   0.355   5.919
 6964SOL    HW121791   2.161   0.419   5.936
 6964SOL    HW221792   2.017   0.365   5.990
 6965SOL     OW21793   0.703   2.050   0.560
 6965SOL    HW121794   0.609   2.071   0.532
 6965SOL    HW221795   0.701   1.978   0.631
 6966SOL     OW21796   0.899   0.670   2.135
 6966SOL    HW121797   0.982   0.723   2.115
 6966SOL    HW221798   0.907   0.580   2.093
 6967SOL     OW21799   3.874   2.057   5.996
 6967SOL    HW121800   3.870   1.957   6.005
 6967SOL    HW221801   3.886   2.098   6.087
 6968SOL     OW21802   3.607   6.994   2.804
 6968SOL    HW121803   3.662   7.000   2.888
 6968SOL    HW221804   3.549   0.059   2.796
 6969SOL     OW21805   2.122   1.960   2.077
 6969SOL    HW121806   2.109   1.977   1.979
 6969SOL    HW221807   2.208   2.000   2.107
 6970SOL     OW21808   3.259   4.662   6.444
 6970SOL    HW121809   3.201   4.666   6.525
 6970SOL    HW221810   3.292   4.568   6.431
 6971SOL     OW21811   5.909   4.461   0.606
 6971SOL    HW121812   5.898   4.477   0.704
 6971SOL    HW221813   5.969   4.382   0.592
 6972SOL     OW21814   5.103   3.868   2.604
 6972SOL    HW121815   5.107   3.881   2.505
 6972SOL    HW221816   5.045   3.790   2.625
 6973SOL     OW21817   1.289   1.993   2.310
 6973SOL    HW121818   1.276   1.967   2.214
 6973SOL    HW221819   1.245   2.082   2.326
 6974SOL     OW21820   3.334   3.623   2.933
 6974SOL    HW121821   3.431   3.602   2.941
 6974SOL    HW221822   3.321   3.697   2.866
 6975SOL     OW21823   3.104   5.725   5.071
 6975SOL    HW121824   3.201   5.719   5.046
 6975SOL    HW221825   3.083   5.653   5.138
 6976SOL     OW21826   5.012   4.140   5.181
 6976SOL    HW121827   4.957   4.060   5.154
 6976SOL    HW221828   5.029   4.197   5.101
 6977SOL     OW21829   4.007   4.603   1.645
 6977SOL    HW121830   3.959   4.517   1.663
 6977SOL    HW221831   4.105   4.585   1.638
 6978SOL     OW21832   5.858   3.412   1.689
 6978SOL    HW121833   5.781   3.352   1.669
 6978SOL    HW221834   5.909   3.429   1.604
 6979SOL     OW21835   1.430   4.026   1.433
 6979SOL    HW121836   1.449   4.123   1.417
 6979SOL    HW221837   1.498   3.988   1.495
 6980SOL     OW21838   1.411   6.724   3.098
 6980SOL    HW121839   1.431   6.743   3.002
 6980SOL    HW221840   1.333   6.779   3.127
 6981SOL     OW21841   3.647   3.420   6.937
 6981SOL    HW121842   3.687   3.381   0.004
 6981SOL    HW221843   3.615   3.513   6.955
 6982SOL     OW21844   0.807   1.621   4.058
 6982SOL    HW121845   0.715   1.608   4.020
 6982SOL    HW221846   0.822   1.718   4.077
 6983SOL     OW21847   4.742   0.810   4.402
 6983SOL    HW121848   4.702   0.895   4.434
 6983SOL    HW221849   4.842   0.813   4.411
 6984SOL     OW21850   0.845   2.397   3.056
 6984SOL    HW121851   0.891   2.316   3.020
 6984SOL    HW221852   0.880   2.417   3.147
 6985SOL     OW21853   6.710   3.951   6.947
 6985SOL    HW121854   6.720   3.852   6.949
 6985SOL    HW221855   6.690   3.981   6.853
 6986SOL     OW21856   3.931   5.330   5.785
 6986SOL    HW121857   3.862   5.258   5.773
 6986SOL    HW221858   3.941   5.350   5.882
 6987SOL     OW21859   0.360   1.885   6.271
 6987SOL    HW121860   0.386   1.833   6.353
 6987SOL    HW221861   0.388   1.834   6.190
 6988SOL     OW21862   2.717   0.957   6.207
 6988SOL    HW121863   2.731   1.024   6.280
 6988SOL    HW221864   2.711   0.866   6.248
 6989SOL     OW21865   0.177   4.371   2.691
 6989SOL    HW121866   0.135   4.302   2.632
 6989SOL    HW221867   0.115   4.393   2.766
 6990SOL     OW21868   3.903   2.928   1.914
 6990SOL    HW121869   3.991   2.971   1.898
 6990SOL    HW221870   3.878   2.938   2.011
 6991SOL     OW21871   5.547   4.426   2.726
 6991SOL    HW121872   5.522   4.330   2.714
 6991SOL    HW221873   5.579   4.463   2.639
 6992SOL     OW21874   1.052   0.294   6.759
 6992SOL    HW121875   1.068   0.390   6.782
 6992SOL    HW221876   1.104   0.271   6.677
 6993SOL     OW21877   5.690   1.144   1.919
 6993SOL    HW121878   5.678   1.164   1.821
 6993SOL    HW221879   5.787   1.156   1.943
 6994SOL     OW21880   1.872   0.124   4.147
 6994SOL    HW121881   1.935   0.167   4.083
 6994SOL    HW221882   1.817   0.194   4.192
 6995SOL     OW21883   0.587   3.187   0.590
 6995SOL    HW121884   0.669   3.244   0.587
 6995SOL    HW221885   0.597   3.116   0.658
 6996SOL     OW21886   1.562   0.569   0.162
 6996SOL    HW121887   1.610   0.655   0.181
 6996SOL    HW221888   1.555   0.515   0.246
 6997SOL     OW21889   0.140   5.083   5.075
 6997SOL    HW121890   0.235   5.099   5.101
 6997SOL    HW221891   0.119   4.986   5.083
 6998SOL     OW21892   0.613   1.366   1.329
 6998SOL    HW121893   0.646   1.411   1.246
 6998SOL    HW221894   0.691   1.348   1.389
 6999SOL     OW21895   1.039   2.759   0.045
 6999SOL    HW121896   1.114   2.721   7.006
 6999SOL    HW221897   1.070   2.773   0.139
 7000SOL     OW21898   6.602   0.027   2.698
 7000SOL    HW121899   6.668   0.012   2.625
 7000SOL    HW221900   6.613   6.973   2.768
 7001SOL     OW21901   1.167   1.495   4.335
 7001SOL    HW121902   1.197   1.589   4.346
 7001SOL    HW221903   1.246   1.435   4.321
 7002SOL     OW21904   0.523   5.460   3.508
 7002SOL    HW121905   0.587   5.405   3.454
 7002SOL    HW221906   0.487   5.535   3.452
 7003SOL     OW21907   6.236   4.047   1.424
 7003SOL    HW121908   6.137   4.051   1.434
 7003SOL    HW221909   6.264   3.955   1.396
 7004SOL     OW21910   1.804   5.874   0.001
 7004SOL    HW121911   1.881   5.865   0.064
 7004SOL    HW221912   1.838   5.884   6.923
 7005SOL     OW21913   1.576   0.474   6.642
 7005SOL    HW121914   1.581   0.381   6.679
 7005SOL    HW221915   1.669   0.511   6.635
 7006SOL     OW21916   6.950   0.529   3.589
 7006SOL    HW121917   6.900   0.526   3.675
 7006SOL    HW221918   6.986   0.621   3.574
 7007SOL     OW21919   3.828   0.852   6.051
 7007SOL    HW121920   3.820   0.752   6.053
 7007SOL    HW221921   3.891   0.879   5.978
 7008SOL     OW21922   6.726   4.217   3.468
 7008SOL    HW121923   6.697   4.312   3.456
 7008SOL    HW221924   6.744   4.199   3.564
 7009SOL     OW21925   4.318   6.008   2.165
 7009SOL    HW121926   4.268   6.095   2.172
 7009SOL    HW221927   4.414   6.024   2.187
 7010SOL     OW21928   5.230   3.876   2.045
 7010SOL    HW121929   5.258   3.825   2.127
 7010SOL    HW221930   5.253   3.823   1.964
 7011SOL     OW21931   3.792   6.646   0.232
 7011SOL    HW121932   3.693   6.653   0.243
 7011SOL    HW221933   3.837   6.713   0.290
 7012SOL     OW21934   0.881   2.529   0.928
 7012SOL    HW121935   0.791   2.490   0.944
 7012SOL    HW221936   0.902   2.597   0.999
 7013SOL     OW21937   2.397   1.692   0.111
 7013SOL    HW121938   2.365   1.784   0.088
 7013SOL    HW221939   2.333   1.650   0.176
 7014SOL     OW21940   6.268   4.023   2.106
 7014SOL    HW121941   6.276   3.925   2.124
 7014SOL    HW221942   6.221   4.068   2.182
 7015SOL     OW21943   5.213   4.621   1.895
 7015SOL    HW121944   5.134   4.675   1.926
 7015SOL    HW221945   5.272   4.600   1.973
 7016SOL     OW21946   3.090   5.025   1.062
 7016SOL    HW121947   3.008   5.078   1.083
 7016SOL    HW221948   3.169   5.086   1.058
 7017SOL     OW21949   4.316   4.663   3.899
 7017SOL    HW121950   4.283   4.671   3.804
 7017SOL    HW221951   4.406   4.620   3.899
 7018SOL     OW21952   4.766   2.656   4.357
 7018SOL    HW121953   4.725   2.716   4.426
 7018SOL    HW221954   4.861   2.638   4.382
 7019SOL     OW21955   5.013   5.245   2.341
 7019SOL    HW121956   5.005   5.168   2.277
 7019SOL    HW221957   4.922   5.271   2.373
 7020SOL     OW21958   0.814   3.359   0.110
 7020SOL    HW121959   0.770   3.305   0.182
 7020SOL    HW221960   0.755   3.436   0.085
 7021SOL     OW21961   1.422   2.456   4.760
 7021SOL    HW121962   1.343   2.504   4.799
 7021SOL    HW221963   1.392   2.371   4.716
 7022SOL     OW21964   4.266   0.767   0.342
 7022SOL    HW121965   4.347   0.826   0.343
 7022SOL    HW221966   4.193   0.809   0.397
 7023SOL     OW21967   0.329   1.514   1.559
 7023SOL    HW121968   0.419   1.498   1.601
 7023SOL    HW221969   0.341   1.542   1.464
 7024SOL     OW21970   3.928   3.028   3.489
 7024SOL    HW121971   3.935   3.018   3.588
 7024SOL    HW221972   3.847   2.980   3.456
 7025SOL     OW21973   3.080   0.017   0.419
 7025SOL    HW121974   3.066   0.047   0.325
 7025SOL    HW221975   3.175   0.033   0.446
 7026SOL     OW21976   3.187   1.954   1.502
 7026SOL    HW121977   3.110   2.017   1.490
 7026SOL    HW221978   3.218   1.922   1.413
 7027SOL     OW21979   2.558   5.086   1.897
 7027SOL    HW121980   2.506   5.101   1.814
 7027SOL    HW221981   2.524   5.146   1.970
 7028SOL     OW21982   3.080   0.668   3.951
 7028SOL    HW121983   3.097   0.724   4.031
 7028SOL    HW221984   3.022   0.718   3.887
 7029SOL     OW21985   3.006   3.448   5.347
 7029SOL    HW121986   3.087   3.484   5.300
 7029SOL    HW221987   2.981   3.360   5.307
 7030SOL     OW21988   6.944   1.264   4.750
 7030SOL    HW121989   6.890   1.187   4.716
 7030SOL    HW221990   6.915   1.348   4.704
 7031SOL     OW21991   4.356   5.843   1.077
 7031SOL    HW121992   4.395   5.765   1.027
 7031SOL    HW221993   4.374   5.927   1.028
 7032SOL     OW21994   3.711   0.290   4.152
 7032SOL    HW121995   3.737   0.202   4.112
 7032SOL    HW221996   3.636   0.330   4.100
 7033SOL     OW21997   1.465   2.357   5.365
 7033SOL    HW121998   1.439   2.279   5.420
 7033SOL    HW221999   1.500   2.326   5.276
 7034SOL     OW22000   6.811   1.933   3.529
 7034SOL    HW122001   6.840   1.996   3.601
 7034SOL    HW222002   6.865   1.849   3.536
 7035SOL     OW22003   2.187   0.421   1.568
 7035SOL    HW122004   2.141   0.494   1.619
 7035SOL    HW222005   2.132   0.338   1.571
 7036SOL     OW22006   0.042   1.200   2.272
 7036SOL    HW122007   6.960   1.215   2.257
 7036SOL    HW222008   0.065   1.228   2.365
 7037SOL     OW22009   0.469   0.114   5.782
 7037SOL    HW122010   0.549   0.067   5.820
 7037SOL    HW222011   0.452   0.198   5.834
 7038SOL     OW22012   2.387   3.899   6.166
 7038SOL    HW122013   2.379   3.849   6.080
 7038SOL    HW222014   2.300   3.894   6.215
 7039SOL     OW22015   1.044   5.433   3.010
 7039SOL    HW122016   0.963   5.435   2.952
 7039SOL    HW222017   1.048   5.345   3.058
 7040SOL     OW22018   4.284   2.334   5.650
 7040SOL    HW122019   4.363   2.277   5.629
 7040SOL    HW222020   4.286   2.416   5.593
 7041SOL     OW22021   1.249   1.051   3.971
 7041SOL    HW122022   1.186   1.127   3.984
 7041SOL    HW222023   1.250   1.024   3.875
 7042SOL     OW22024   4.305   5.968   5.192
 7042SOL    HW122025   4.363   5.887   5.204
 7042SOL    HW222026   4.280   6.005   5.281
 7043SOL     OW22027   2.771   4.788   3.302
 7043SOL    HW122028   2.852   4.822   3.350
 7043SOL    HW222029   2.800   4.742   3.218
 7044SOL     OW22030   5.437   6.267   3.982
 7044SOL    HW122031   5.502   6.250   4.056
 7044SOL    HW222032   5.433   6.365   3.962
 7045SOL     OW22033   6.190   5.682   2.003
 7045SOL    HW122034   6.211   5.611   1.936
 7045SOL    HW222035   6.095   5.712   1.991
 7046SOL     OW22036   3.011   2.034   4.281
 7046SOL    HW122037   2.963   2.113   4.243
 7046SOL    HW222038   2.954   1.990   4.350
 7047SOL     OW22039   0.800   6.896   0.791
 7047SOL    HW122040   0.746   6.847   0.722
 7047SOL    HW222041   0.756   6.887   0.880
 7048SOL     OW22042   6.733   5.277   4.874
 7048SOL    HW122043   6.806   5.247   4.937
 7048SOL    HW222044   6.770   5.341   4.808
 7049SOL     OW22045   3.767   1.587   1.959
 7049SOL    HW122046   3.747   1.645   2.038
 7049SOL    HW222047   3.828   1.513   1.987
 7050SOL     OW22048   4.053   4.859   1.049
 7050SOL    HW122049   4.121   4.788   1.029
 7050SOL    HW222050   3.961   4.821   1.039
 7051SOL     OW22051   0.147   6.785   1.095
 7051SOL    HW122052   0.212   6.709   1.087
 7051SOL    HW222053   0.114   6.809   1.004
 7052SOL     OW22054   6.005   0.271   2.906
 7052SOL    HW122055   6.079   0.285   2.973
 7052SOL    HW222056   5.981   0.174   2.902
 7053SOL     OW22057   1.662   3.167   3.380
 7053SOL    HW122058   1.662   3.072   3.411
 7053SOL    HW222059   1.687   3.172   3.284
 7054SOL     OW22060   6.557   0.239   0.763
 7054SOL    HW122061   6.569   0.178   0.685
 7054SOL    HW222062   6.613   0.321   0.750
 7055SOL     OW22063   2.463   0.963   6.859
 7055SOL    HW122064   2.541   1.007   6.904
 7055SOL    HW222065   2.395   0.940   6.928
 7056SOL     OW22066   6.737   5.327   1.334
 7056SOL    HW122067   6.704   5.291   1.246
 7056SOL    HW222068   6.664   5.321   1.402
 7057SOL     OW22069   2.880   4.798   4.557
 7057SOL    HW122070   2.823   4.740   4.616
 7057SOL    HW222071   2.876   4.765   4.463
 7058SOL     OW22072   5.178   2.276   6.369
 7058SOL    HW122073   5.194   2.246   6.275
 7058SOL    HW222074   5.228   2.361   6.385
 7059SOL     OW22075   2.069   1.138   4.486
 7059SOL    HW122076   2.167   1.147   4.503
 7059SOL    HW222077   2.053   1.059   4.426
 7060SOL     OW22078   3.424   6.853   2.387
 7060SOL    HW122079   3.518   6.841   2.355
 7060SOL    HW222080   3.421   6.845   2.487
 7061SOL     OW22081   0.994   2.187   2.941
 7061SOL    HW122082   0.987   2.208   2.843
 7061SOL    HW222083   1.019   2.091   2.953
 7062SOL     OW22084   4.177   1.947   3.473
 7062SOL    HW122085   4.120   1.872   3.507
 7062SOL    HW222086   4.214   1.924   3.383
 7063SOL     OW22087   0.448   0.291   2.002
 7063SOL    HW122088   0.483   0.264   2.091
 7063SOL    HW222089   0.513   0.354   1.958
 7064SOL     OW22090   4.733   1.935   5.255
 7064SOL    HW122091   4.778   2.021   5.279
 7064SOL    HW222092   4.794   1.881   5.197
 7065SOL     OW22093   3.351   4.424   5.472
 7065SOL    HW122094   3.335   4.510   5.424
 7065SOL    HW222095   3.310   4.349   5.420
 7066SOL     OW22096   3.865   0.648   0.300
 7066SOL    HW122097   3.870   0.609   0.208
 7066SOL    HW222098   3.916   0.590   0.364
 7067SOL     OW22099   1.707   3.004   0.166
 7067SOL    HW122100   1.764   2.953   0.229
 7067SOL    HW222101   1.631   3.046   0.216
 7068SOL     OW22102   5.132   4.136   4.367
 7068SOL    HW122103   5.189   4.060   4.399
 7068SOL    HW222104   5.041   4.129   4.408
 7069SOL     OW22105   6.420   0.200   5.827
 7069SOL    HW122106   6.361   0.214   5.906
 7069SOL    HW222107   6.453   0.106   5.826
 7070SOL     OW22108   0.328   6.774   4.840
 7070SOL    HW122109   0.396   6.712   4.802
 7070SOL    HW222110   0.245   6.772   4.783
 7071SOL     OW22111   4.846   6.464   6.938
 7071SOL    HW122112   4.747   6.458   6.925
 7071SOL    HW222113   4.886   6.523   6.868
 7072SOL     OW22114   0.678   4.059   6.764
 7072SOL    HW122115   0.758   4.032   6.818
 7072SOL    HW222116   0.699   4.142   6.713
 7073SOL     OW22117   5.174   1.148   2.849
 7073SOL    HW122118   5.188   1.181   2.942
 7073SOL    HW222119   5.103   1.203   2.804
 7074SOL     OW22120   6.154   4.481   3.138
 7074SOL    HW122121   6.209   4.400   3.122
 7074SOL    HW222122   6.057   4.457   3.133
 7075SOL     OW22123   3.257   4.861   4.865
 7075SOL    HW122124   3.259   4.762   4.855
 7075SOL    HW222125   3.181   4.887   4.925
 7076SOL     OW22126   5.955   3.706   2.922
 7076SOL    HW122127   5.935   3.628   2.982
 7076SOL    HW222128   5.889   3.779   2.940
 7077SOL     OW22129   2.662   4.836   1.464
 7077SOL    HW122130   2.579   4.876   1.503
 7077SOL    HW222131   2.714   4.790   1.536
 7078SOL     OW22132   5.243   6.552   0.776
 7078SOL    HW122133   5.304   6.511   0.707
 7078SOL    HW222134   5.149   6.548   0.743
 7079SOL     OW22135   1.039   6.933   4.294
 7079SOL    HW122136   1.115   6.942   4.357
 7079SOL    HW222137   0.965   6.882   4.338
 7080SOL     OW22138   3.765   2.158   5.196
 7080SOL    HW122139   3.827   2.083   5.176
 7080SOL    HW222140   3.695   2.163   5.125
 7081SOL     OW22141   1.378   0.617   6.778
 7081SOL    HW122142   1.448   0.565   6.728
 7081SOL    HW222143   1.406   0.712   6.785
 7082SOL     OW22144   6.648   4.285   2.370
 7082SOL    HW122145   6.703   4.282   2.454
 7082SOL    HW222146   6.633   4.192   2.337
 7083SOL     OW22147   6.522   3.230   2.497
 7083SOL    HW122148   6.535   3.314   2.549
 7083SOL    HW222149   6.473   3.251   2.412
 7084SOL     OW22150   1.074   6.112   0.085
 7084SOL    HW122151   1.163   6.158   0.077
 7084SOL    HW222152   1.070   6.062   0.171
 7085SOL     OW22153   0.573   2.898   2.427
 7085SOL    HW122154   0.535   2.899   2.335
 7085SOL    HW222155   0.500   2.910   2.494
 7086SOL     OW22156   5.769   0.791   5.433
 7086SOL    HW122157   5.800   0.726   5.364
 7086SOL    HW222158   5.698   0.747   5.489
 7087SOL     OW22159   5.365   3.342   3.481
 7087SOL    HW122160   5.274   3.306   3.459
 7087SOL    HW222161   5.434   3.284   3.439
 7088SOL     OW22162   5.563   1.792   5.221
 7088SOL    HW122163   5.468   1.784   5.252
 7088SOL    HW222164   5.603   1.701   5.213
 7089SOL     OW22165   3.792   5.596   1.675
 7089SOL    HW122166   3.708   5.582   1.623
 7089SOL    HW222167   3.803   5.693   1.695
 7090SOL     OW22168   3.853   1.933   1.409
 7090SOL    HW122169   3.947   1.962   1.424
 7090SOL    HW222170   3.803   2.005   1.360
 7091SOL     OW22171   0.677   6.539   6.911
 7091SOL    HW122172   0.702   6.613   6.974
 7091SOL    HW222173   0.759   6.487   6.888
 7092SOL     OW22174   4.880   2.609   6.701
 7092SOL    HW122175   4.858   2.650   6.612
 7092SOL    HW222176   4.838   2.518   6.707
 7093SOL     OW22177   3.354   4.116   0.422
 7093SOL    HW122178   3.321   4.134   0.515
 7093SOL    HW222179   3.303   4.174   0.358
 7094SOL     OW22180   2.285   6.704   5.590
 7094SOL    HW122181   2.246   6.795   5.604
 7094SOL    HW222182   2.298   6.687   5.492
 7095SOL     OW22183   3.178   4.265   5.689
 7095SOL    HW122184   3.111   4.232   5.623
 7095SOL    HW222185   3.263   4.287   5.641
 7096SOL     OW22186   6.912   0.853   0.795
 7096SOL    HW122187   6.973   0.903   0.856
 7096SOL    HW222188   6.960   0.831   0.710
 7097SOL     OW22189   5.078   0.743   1.572
 7097SOL    HW122190   4.981   0.722   1.587
 7097SOL    HW222191   5.086   0.822   1.512
 7098SOL     OW22192   0.850   6.690   4.875
 7098SOL    HW122193   0.835   6.756   4.949
 7098SOL    HW222194   0.818   6.729   4.788
 7099SOL     OW22195   2.886   2.257   4.157
 7099SOL    HW122196   2.815   2.327   4.160
 7099SOL    HW222197   2.922   2.250   4.064
 7100SOL     OW22198   0.033   3.630   0.962
 7100SOL    HW122199   0.026   3.629   1.062
 7100SOL    HW222200   0.049   3.537   0.929
 7101SOL     OW22201   1.956   6.402   5.133
 7101SOL    HW122202   1.951   6.369   5.038
 7101SOL    HW222203   2.008   6.336   5.188
 7102SOL     OW22204   5.331   0.776   0.792
 7102SOL    HW122205   5.308   0.758   0.887
 7102SOL    HW222206   5.316   0.873   0.772
 7103SOL     OW22207   4.996   5.091   2.910
 7103SOL    HW122208   5.036   5.170   2.862
 7103SOL    HW222209   4.914   5.061   2.861
 7104SOL     OW22210   4.847   3.328   3.412
 7104SOL    HW122211   4.849   3.232   3.385
 7104SOL    HW222212   4.782   3.378   3.354
 7105SOL     OW22213   3.057   4.028   3.809
 7105SOL    HW122214   3.005   4.051   3.891
 7105SOL    HW222215   3.155   4.026   3.831
 7106SOL     OW22216   3.450   3.096   1.259
 7106SOL    HW122217   3.394   3.029   1.307
 7106SOL    HW222218   3.461   3.177   1.316
 7107SOL     OW22219   4.120   0.591   0.030
 7107SOL    HW122220   4.190   0.577   0.100
 7107SOL    HW222221   4.117   0.511   6.986
 7108SOL     OW22222   3.159   6.889   2.712
 7108SOL    HW122223   3.103   6.955   2.661
 7108SOL    HW222224   3.111   6.861   2.794
 7109SOL     OW22225   1.848   6.837   5.899
 7109SOL    HW122226   1.819   6.837   5.995
 7109SOL    HW222227   1.791   6.773   5.847
 7110SOL     OW22228   3.328   6.226   4.706
 7110SOL    HW122229   3.254   6.274   4.754
 7110SOL    HW222230   3.289   6.160   4.642
 7111SOL     OW22231   0.602   0.725   3.625
 7111SOL    HW122232   0.548   0.643   3.607
 7111SOL    HW222233   0.568   0.770   3.708
 7112SOL     OW22234   2.098   5.102   4.441
 7112SOL    HW122235   2.196   5.094   4.461
 7112SOL    HW222236   2.073   5.198   4.433
 7113SOL     OW22237   3.275   5.014   5.206
 7113SOL    HW122238   3.232   5.083   5.148
 7113SOL    HW222239   3.214   4.935   5.214
 7114SOL     OW22240   4.538   5.053   0.224
 7114SOL    HW122241   4.442   5.044   0.253
 7114SOL    HW222242   4.541   5.071   0.125
 7115SOL     OW22243   6.377   4.602   6.884
 7115SOL    HW122244   6.314   4.570   6.955
 7115SOL    HW222245   6.445   4.663   6.926
 7116SOL     OW22246   6.769   3.486   4.526
 7116SOL    HW122247   6.868   3.502   4.527
 7116SOL    HW222248   6.725   3.549   4.590
 7117SOL     OW22249   6.130   6.866   3.506
 7117SOL    HW122250   6.135   6.803   3.583
 7117SOL    HW222251   6.219   6.871   3.460
 7118SOL     OW22252   4.345   4.481   5.566
 7118SOL    HW122253   4.284   4.559   5.573
 7118SOL    HW222254   4.365   4.463   5.469
 7119SOL     OW22255   4.416   0.015   4.781
 7119SOL    HW122256   4.346   0.064   4.833
 7119SOL    HW222257   4.379   7.005   4.692
 7120SOL     OW22258   4.966   1.243   0.945
 7120SOL    HW122259   4.904   1.319   0.924
 7120SOL    HW222260   5.039   1.276   1.005
 7121SOL     OW22261   0.752   6.301   3.234
 7121SOL    HW122262   0.782   6.240   3.308
 7121SOL    HW222263   0.673   6.261   3.188
 7122SOL     OW22264   2.707   6.922   6.022
 7122SOL    HW122265   2.662   6.838   5.992
 7122SOL    HW222266   2.749   6.967   5.943
 7123SOL     OW22267   5.364   5.175   5.632
 7123SOL    HW122268   5.322   5.221   5.554
 7123SOL    HW222269   5.435   5.233   5.671
 7124SOL     OW22270   0.683   1.819   1.587
 7124SOL    HW122271   0.584   1.811   1.600
 7124SOL    HW222272   0.709   1.770   1.504
 7125SOL     OW22273   1.223   0.336   1.374
 7125SOL    HW122274   1.313   0.311   1.338
 7125SOL    HW222275   1.169   0.254   1.390
 7126SOL     OW22276   4.314   5.991   1.654
 7126SOL    HW122277   4.337   5.907   1.604
 7126SOL    HW222278   4.363   5.992   1.741
 7127SOL     OW22279   3.210   6.207   5.404
 7127SOL    HW122280   3.244   6.242   5.316
 7127SOL    HW222281   3.158   6.279   5.450
 7128SOL     OW22282   3.618   4.174   6.101
 7128SOL    HW122283   3.542   4.119   6.136
 7128SOL    HW222284   3.621   4.167   6.001
 7129SOL     OW22285   0.386   6.983   0.762
 7129SOL    HW122286   0.290   6.995   0.738
 7129SOL    HW222287   0.408   0.024   0.841
 7130SOL     OW22288   3.423   6.460   3.997
 7130SOL    HW122289   3.446   6.404   3.918
 7130SOL    HW222290   3.333   6.503   3.983
 7131SOL     OW22291   4.048   0.948   2.231
 7131SOL    HW122292   4.124   0.884   2.238
 7131SOL    HW222293   3.990   0.923   2.153
 7132SOL     OW22294   5.222   4.039   0.209
 7132SOL    HW122295   5.139   4.078   0.249
 7132SOL    HW222296   5.291   4.029   0.280
 7133SOL     OW22297   3.440   6.076   3.451
 7133SOL    HW122298   3.348   6.049   3.479
 7133SOL    HW222299   3.506   6.011   3.487
 7134SOL     OW22300   5.617   5.344   1.384
 7134SOL    HW122301   5.679   5.402   1.331
 7134SOL    HW222302   5.617   5.252   1.344
 7135SOL     OW22303   2.206   3.038   1.765
 7135SOL    HW122304   2.134   2.973   1.744
 7135SOL    HW222305   2.176   3.099   1.838
 7136SOL     OW22306   3.028   1.343   1.975
 7136SOL    HW122307   3.026   1.417   1.907
 7136SOL    HW222308   2.934   1.317   1.998
 7137SOL     OW22309   2.677   1.864   1.728
 7137SOL    HW122310   2.586   1.855   1.769
 7137SOL    HW222311   2.670   1.915   1.643
 7138SOL     OW22312   1.598   2.229   0.653
 7138SOL    HW122313   1.597   2.326   0.677
 7138SOL    HW222314   1.540   2.178   0.716
 7139SOL     OW22315   6.095   5.783   1.258
 7139SOL    HW122316   6.082   5.696   1.212
 7139SOL    HW222317   6.190   5.792   1.287
 7140SOL     OW22318   6.733   3.294   0.413
 7140SOL    HW122319   6.710   3.339   0.327
 7140SOL    HW222320   6.819   3.331   0.448
 7141SOL     OW22321   4.111   6.824   1.611
 7141SOL    HW122322   4.037   6.890   1.620
 7141SOL    HW222323   4.072   6.731   1.607
 7142SOL     OW22324   3.018   0.273   5.029
 7142SOL    HW122325   3.058   0.195   4.982
 7142SOL    HW222326   2.955   0.241   5.100
 7143SOL     OW22327   2.248   4.725   6.741
 7143SOL    HW122328   2.342   4.696   6.722
 7143SOL    HW222329   2.202   4.654   6.795
 7144SOL     OW22330   6.292   0.671   4.699
 7144SOL    HW122331   6.361   0.600   4.686
 7144SOL    HW222332   6.336   0.759   4.711
 7145SOL     OW22333   5.064   2.345   6.871
 7145SOL    HW122334   5.004   2.298   6.806
 7145SOL    HW222335   5.008   2.405   6.929
 7146SOL     OW22336   1.955   1.091   5.295
 7146SOL    HW122337   1.902   1.176   5.296
 7146SOL    HW222338   1.908   1.022   5.240
 7147SOL     OW22339   5.659   5.274   1.937
 7147SOL    HW122340   5.608   5.353   1.902
 7147SOL    HW222341   5.722   5.304   2.009
 7148SOL     OW22342   0.082   6.269   1.016
 7148SOL    HW122343   7.011   6.242   1.057
 7148SOL    HW222344   0.074   6.360   0.976
 7149SOL     OW22345   6.394   5.216   4.104
 7149SOL    HW122346   6.462   5.280   4.139
 7149SOL    HW222347   6.379   5.232   4.006
 7150SOL     OW22348   3.851   3.329   0.116
 7150SOL    HW122349   3.873   3.424   0.091
 7150SOL    HW222350   3.926   3.269   0.091
 7151SOL     OW22351   4.095   0.831   0.896
 7151SOL    HW122352   3.997   0.822   0.916
 7151SOL    HW222353   4.107   0.853   0.799
 7152SOL     OW22354   0.088   1.779   6.601
 7152SOL    HW122355   0.152   1.710   6.567
 7152SOL    HW222356   0.002   1.735   6.626
 7153SOL     OW22357   3.769   6.308   0.984
 7153SOL    HW122358   3.860   6.287   0.948
 7153SOL    HW222359   3.720   6.223   1.002
 7154SOL     OW22360   4.063   1.701   1.906
 7154SOL    HW122361   4.046   1.607   1.935
 7154SOL    HW222362   4.155   1.729   1.932
 7155SOL     OW22363   2.666   1.719   2.441
 7155SOL    HW122364   2.670   1.619   2.447
 7155SOL    HW222365   2.587   1.752   2.492
 7156SOL     OW22366   6.203   4.120   0.085
 7156SOL    HW122367   6.300   4.095   0.082
 7156SOL    HW222368   6.159   4.094   7.014
 7157SOL     OW22369   6.024   4.649   6.569
 7157SOL    HW122370   5.928   4.678   6.560
 7157SOL    HW222371   6.036   4.561   6.524
 7158SOL     OW22372   4.887   0.153   3.576
 7158SOL    HW122373   4.821   0.133   3.648
 7158SOL    HW222374   4.866   0.097   3.496
 7159SOL     OW22375   0.517   5.997   3.409
 7159SOL    HW122376   0.458   5.993   3.489
 7159SOL    HW222377   0.462   6.009   3.327
 7160SOL     OW22378   6.174   6.742   3.005
 7160SOL    HW122379   6.113   6.693   2.944
 7160SOL    HW222380   6.256   6.772   2.954
 7161SOL     OW22381   4.122   3.278   3.579
 7161SOL    HW122382   4.080   3.188   3.583
 7161SOL    HW222383   4.086   3.329   3.501
 7162SOL     OW22384   0.141   4.919   2.276
 7162SOL    HW122385   0.043   4.917   2.298
 7162SOL    HW222386   0.162   4.846   2.212
 7163SOL     OW22387   1.074   1.361   2.414
 7163SOL    HW122388   1.125   1.277   2.398
 7163SOL    HW222389   1.137   1.437   2.430
 7164SOL     OW22390   1.802   1.054   6.271
 7164SOL    HW122391   1.802   1.023   6.176
 7164SOL    HW222392   1.708   1.077   6.298
 7165SOL     OW22393   6.607   0.419   0.161
 7165SOL    HW122394   6.578   0.418   0.257
 7165SOL    HW222395   6.703   0.393   0.155
 7166SOL     OW22396   5.836   6.217   5.995
 7166SOL    HW122397   5.884   6.259   6.073
 7166SOL    HW222398   5.784   6.287   5.946
 7167SOL     OW22399   5.764   2.316   5.004
 7167SOL    HW122400   5.699   2.259   5.055
 7167SOL    HW222401   5.795   2.391   5.063
 7168SOL     OW22402   2.908   0.877   2.247
 7168SOL    HW122403   2.923   0.920   2.157
 7168SOL    HW222404   2.876   0.945   2.312
 7169SOL     OW22405   1.752   4.258   6.424
 7169SOL    HW122406   1.762   4.184   6.490
 7169SOL    HW222407   1.774   4.224   6.332
 7170SOL     OW22408   4.118   1.432   1.875
 7170SOL    HW122409   4.214   1.427   1.847
 7170SOL    HW222410   4.062   1.460   1.797
 7171SOL     OW22411   6.310   4.511   0.445
 7171SOL    HW122412   6.236   4.455   0.408
 7171SOL    HW222413   6.366   4.546   0.371
 7172SOL     OW22414   1.018   1.489   3.915
 7172SOL    HW122415   0.937   1.528   3.960
 7172SOL    HW222416   1.096   1.550   3.928
 7173SOL     OW22417   4.783   6.103   6.120
 7173SOL    HW122418   4.811   6.010   6.145
 7173SOL    HW222419   4.755   6.104   6.024
 7174SOL     OW22420   6.140   4.527   1.829
 7174SOL    HW122421   6.057   4.564   1.871
 7174SOL    HW222422   6.126   4.518   1.730
 7175SOL     OW22423   5.855   3.669   5.963
 7175SOL    HW122424   5.814   3.603   6.026
 7175SOL    HW222425   5.832   3.645   5.869
 7176SOL     OW22426   0.571   0.867   5.392
 7176SOL    HW122427   0.610   0.869   5.300
 7176SOL    HW222428   0.492   0.806   5.393
 7177SOL     OW22429   1.510   4.679   4.209
 7177SOL    HW122430   1.570   4.700   4.131
 7177SOL    HW222431   1.492   4.581   4.212
 7178SOL     OW22432   1.304   1.071   5.552
 7178SOL    HW122433   1.293   1.142   5.622
 7178SOL    HW222434   1.398   1.037   5.555
 7179SOL     OW22435   3.465   6.068   6.428
 7179SOL    HW122436   3.464   6.006   6.506
 7179SOL    HW222437   3.469   6.014   6.343
 7180SOL     OW22438   0.964   4.139   0.830
 7180SOL    HW122439   0.913   4.053   0.839
 7180SOL    HW222440   0.939   4.200   0.904
 7181SOL     OW22441   2.407   1.292   6.066
 7181SOL    HW122442   2.444   1.242   5.987
 7181SOL    HW222443   2.383   1.385   6.038
 7182SOL     OW22444   1.363   2.972   4.176
 7182SOL    HW122445   1.350   3.017   4.088
 7182SOL    HW222446   1.403   2.881   4.162
 7183SOL     OW22447   0.617   6.279   1.749
 7183SOL    HW122448   0.578   6.358   1.797
 7183SOL    HW222449   0.551   6.247   1.680
 7184SOL     OW22450   6.391   0.126   3.463
 7184SOL    HW122451   6.398   0.190   3.386
 7184SOL    HW222452   6.380   0.033   3.428
 7185SOL     OW22453   5.012   0.721   4.953
 7185SOL    HW122454   5.046   0.808   4.919
 7185SOL    HW222455   4.914   0.713   4.932
 7186SOL     OW22456   0.494   6.971   6.400
 7186SOL    HW122457   0.404   7.012   6.384
 7186SOL    HW222458   0.555   0.025   6.439
 7187SOL     OW22459   3.206   3.194   4.559
 7187SOL    HW122460   3.191   3.112   4.616
 7187SOL    HW222461   3.304   3.204   4.541
 7188SOL     OW22462   4.035   4.563   0.478
 7188SOL    HW122463   4.076   4.517   0.557
 7188SOL    HW222464   3.993   4.495   0.417
 7189SOL     OW22465   6.002   2.519   5.474
 7189SOL    HW122466   5.925   2.562   5.523
 7189SOL    HW222467   6.066   2.481   5.541
 7190SOL     OW22468   5.824   5.425   1.203
 7190SOL    HW122469   5.911   5.379   1.184
 7190SOL    HW222470   5.786   5.459   1.117
 7191SOL     OW22471   0.466   4.115   3.640
 7191SOL    HW122472   0.496   4.168   3.720
 7191SOL    HW222473   0.448   4.177   3.564
 7192SOL     OW22474   1.797   4.609   6.708
 7192SOL    HW122475   1.704   4.602   6.744
 7192SOL    HW222476   1.798   4.674   6.632
 7193SOL     OW22477   2.562   2.421   2.473
 7193SOL    HW122478   2.622   2.418   2.393
 7193SOL    HW222479   2.489   2.487   2.457
 7194SOL     OW22480   2.952   2.601   5.768
 7194SOL    HW122481   2.869   2.649   5.739
 7194SOL    HW222482   2.954   2.597   5.868
 7195SOL     OW22483   6.981   3.695   6.548
 7195SOL    HW122484   0.041   3.683   6.485
 7195SOL    HW222485   7.013   3.744   6.630
 7196SOL     OW22486   2.948   3.659   2.160
 7196SOL    HW122487   2.887   3.699   2.091
 7196SOL    HW222488   3.042   3.689   2.142
 7197SOL     OW22489   2.196   3.554   5.559
 7197SOL    HW122490   2.234   3.499   5.485
 7197SOL    HW222491   2.132   3.621   5.522
 7198SOL     OW22492   6.580   1.005   1.494
 7198SOL    HW122493   6.579   1.101   1.469
 7198SOL    HW222494   6.654   0.987   1.559
 7199SOL     OW22495   1.122   1.088   2.049
 7199SOL    HW122496   1.204   1.142   2.069
 7199SOL    HW222497   1.046   1.119   2.106
 7200SOL     OW22498   1.128   2.224   0.571
 7200SOL    HW122499   1.081   2.259   0.489
 7200SOL    HW222500   1.111   2.286   0.648
 7201SOL     OW22501   5.961   5.726   4.292
 7201SOL    HW122502   5.970   5.818   4.331
 7201SOL    HW222503   5.866   5.712   4.262
 7202SOL     OW22504   4.835   0.381   5.836
 7202SOL    HW122505   4.933   0.400   5.843
 7202SOL    HW222506   4.791   0.452   5.781
 7203SOL     OW22507   0.266   1.994   1.819
 7203SOL    HW122508   0.204   1.961   1.747
 7203SOL    HW222509   0.317   1.917   1.856
 7204SOL     OW22510   6.813   0.937   1.613
 7204SOL    HW122511   6.874   0.997   1.561
 7204SOL    HW222512   6.839   0.841   1.597
 7205SOL     OW22513   2.289   2.049   4.909
 7205SOL    HW122514   2.305   2.146   4.927
 7205SOL    HW222515   2.192   2.035   4.889
 7206SOL     OW22516   1.851   2.495   1.198
 7206SOL    HW122517   1.874   2.592   1.209
 7206SOL    HW222518   1.859   2.469   1.102
 7207SOL     OW22519   1.572   2.079   3.766
 7207SOL    HW122520   1.645   2.128   3.813
 7207SOL    HW222521   1.610   1.997   3.722
 7208SOL     OW22522   2.990   0.763   4.228
 7208SOL    HW122523   3.090   0.766   4.230
 7208SOL    HW222524   2.955   0.747   4.321
 7209SOL     OW22525   3.113   1.632   2.238
 7209SOL    HW122526   3.205   1.651   2.274
 7209SOL    HW222527   3.103   1.673   2.147
 7210SOL     OW22528   2.456   1.387   3.183
 7210SOL    HW122529   2.426   1.450   3.112
 7210SOL    HW222530   2.487   1.301   3.141
 7211SOL     OW22531   3.283   5.665   5.407
 7211SOL    HW122532   3.210   5.647   5.342
 7211SOL    HW222533   3.326   5.579   5.435
 7212SOL     OW22534   5.647   4.627   5.927
 7212SOL    HW122535   5.548   4.627   5.933
 7212SOL    HW222536   5.678   4.550   5.871
 7213SOL     OW22537   3.673   1.186   0.859
 7213SOL    HW122538   3.576   1.168   0.875
 7213SOL    HW222539   3.699   1.270   0.906
 7214SOL     OW22540   0.140   1.535   6.957
 7214SOL    HW122541   0.217   1.512   6.897
 7214SOL    HW222542   0.174   1.584   0.021
 7215SOL     OW22543   6.635   2.780   2.992
 7215SOL    HW122544   6.579   2.833   3.056
 7215SOL    HW222545   6.583   2.700   2.962
 7216SOL     OW22546   2.917   6.375   2.878
 7216SOL    HW122547   2.924   6.457   2.935
 7216SOL    HW222548   2.955   6.395   2.787
 7217SOL     OW22549   1.339   4.234   3.267
 7217SOL    HW122550   1.380   4.249   3.177
 7217SOL    HW222551   1.240   4.229   3.258
 7218SOL     OW22552   6.133   3.674   4.613
 7218SOL    HW122553   6.177   3.707   4.530
 7218SOL    HW222554   6.049   3.726   4.629
 7219SOL     OW22555   3.680   6.154   1.619
 7219SOL    HW122556   3.631   6.213   1.683
 7219SOL    HW222557   3.654   6.177   1.526
 7220SOL     OW22558   6.283   4.993   4.215
 7220SOL    HW122559   6.254   4.955   4.127
 7220SOL    HW222560   6.334   5.077   4.200
 7221SOL     OW22561   3.551   5.747   5.154
 7221SOL    HW122562   3.567   5.658   5.110
 7221SOL    HW222563   3.629   5.771   5.212
 7222SOL     OW22564   6.756   0.134   4.042
 7222SOL    HW122565   6.813   0.126   3.960
 7222SOL    HW222566   6.660   0.125   4.016
 7223SOL     OW22567   1.429   2.060   0.796
 7223SOL    HW122568   1.382   1.976   0.768
 7223SOL    HW222569   1.362   2.131   0.813
 7224SOL     OW22570   4.039   2.116   3.629
 7224SOL    HW122571   3.958   2.062   3.650
 7224SOL    HW222572   4.105   2.059   3.579
 7225SOL     OW22573   1.795   0.059   1.207
 7225SOL    HW122574   1.708   0.013   1.192
 7225SOL    HW222575   1.859   0.034   1.134
 7226SOL     OW22576   6.244   0.660   7.012
 7226SOL    HW122577   6.192   0.630   0.076
 7226SOL    HW222578   6.326   0.604   7.002
 7227SOL     OW22579   3.252   0.901   2.217
 7227SOL    HW122580   3.192   0.980   2.205
 7227SOL    HW222581   3.227   0.853   2.302
 7228SOL     OW22582   0.859   2.865   2.475
 7228SOL    HW122583   0.771   2.852   2.521
 7228SOL    HW222584   0.865   2.803   2.396
 7229SOL     OW22585   6.915   0.389   4.459
 7229SOL    HW122586   6.835   0.339   4.492
 7229SOL    HW222587   6.995   0.330   4.461
 7230SOL     OW22588   2.000   4.932   4.235
 7230SOL    HW122589   1.970   4.982   4.153
 7230SOL    HW222590   2.021   4.997   4.308
 7231SOL     OW22591   4.774   1.313   6.778
 7231SOL    HW122592   4.693   1.371   6.781
 7231SOL    HW222593   4.759   1.237   6.714
 7232SOL     OW22594   5.760   6.849   2.804
 7232SOL    HW122595   5.725   6.756   2.792
 7232SOL    HW222596   5.683   6.913   2.804
 7233SOL     OW22597   6.367   0.951   5.367
 7233SOL    HW122598   6.360   0.862   5.412
 7233SOL    HW222599   6.290   0.962   5.304
 7234SOL     OW22600   5.116   3.946   2.902
 7234SOL    HW122601   5.022   3.946   2.936
 7234SOL    HW222602   5.118   3.907   2.810
 7235SOL     OW22603   6.765   5.564   1.528
 7235SOL    HW122604   6.799   5.497   1.462
 7235SOL    HW222605   6.841   5.602   1.579
 7236SOL     OW22606   2.610   2.492   3.477
 7236SOL    HW122607   2.698   2.490   3.525
 7236SOL    HW222608   2.626   2.516   3.381
 7237SOL     OW22609   5.387   0.395   6.733
 7237SOL    HW122610   5.357   0.376   6.827
 7237SOL    HW222611   5.370   0.315   6.676
 7238SOL     OW22612   4.530   3.202   6.905
 7238SOL    HW122613   4.604   3.268   6.893
 7238SOL    HW222614   4.514   3.188   7.003
 7239SOL     OW22615   0.821   3.682   2.404
 7239SOL    HW122616   0.809   3.694   2.503
 7239SOL    HW222617   0.828   3.771   2.360
 7240SOL     OW22618   6.607   1.859   6.084
 7240SOL    HW122619   6.619   1.860   6.183
 7240SOL    HW222620   6.591   1.765   6.054
 7241SOL     OW22621   2.793   1.070   1.754
 7241SOL    HW122622   2.712   1.126   1.770
 7241SOL    HW222623   2.768   0.973   1.756
 7242SOL     OW22624   0.564   5.095   3.805
 7242SOL    HW122625   0.646   5.072   3.753
 7242SOL    HW222626   0.588   5.105   3.902
 7243SOL     OW22627   6.366   4.025   6.356
 7243SOL    HW122628   6.402   4.111   6.392
 7243SOL    HW222629   6.426   3.991   6.284
 7244SOL     OW22630   0.435   6.347   6.698
 7244SOL    HW122631   0.426   6.437   6.742
 7244SOL    HW222632   0.344   6.307   6.686
 7245SOL     OW22633   1.478   2.771   6.542
 7245SOL    HW122634   1.486   2.871   6.551
 7245SOL    HW222635   1.386   2.748   6.509
 7246SOL     OW22636   2.765   0.188   4.093
 7246SOL    HW122637   2.728   0.279   4.111
 7246SOL    HW222638   2.704   0.119   4.133
 7247SOL     OW22639   2.809   2.440   5.211
 7247SOL    HW122640   2.786   2.532   5.243
 7247SOL    HW222641   2.824   2.380   5.290
 7248SOL     OW22642   3.346   0.271   4.905
 7248SOL    HW122643   3.398   0.188   4.926
 7248SOL    HW222644   3.377   0.310   4.819
 7249SOL     OW22645   4.016   5.095   1.796
 7249SOL    HW122646   3.965   5.073   1.713
 7249SOL    HW222647   3.987   5.035   1.870
 7250SOL     OW22648   5.359   5.531   5.582
 7250SOL    HW122649   5.424   5.599   5.551
 7250SOL    HW222650   5.349   5.459   5.513
 7251SOL     OW22651   0.672   5.978   5.104
 7251SOL    HW122652   0.662   5.978   5.004
 7251SOL    HW222653   0.748   5.917   5.129
 7252SOL     OW22654   3.020   3.971   2.294
 7252SOL    HW122655   2.970   3.993   2.378
 7252SOL    HW222656   3.117   3.958   2.316
 7253SOL     OW22657   1.416   5.848   5.654
 7253SOL    HW122658   1.467   5.776   5.607
 7253SOL    HW222659   1.396   5.922   5.589
 7254SOL     OW22660   5.575   4.799   3.589
 7254SOL    HW122661   5.644   4.870   3.601
 7254SOL    HW222662   5.609   4.731   3.523
 7255SOL     OW22663   5.302   3.107   6.431
 7255SOL    HW122664   5.257   3.190   6.396
 7255SOL    HW222665   5.233   3.036   6.444
 7256SOL     OW22666   3.529   6.963   5.978
 7256SOL    HW122667   3.472   0.007   6.035
 7256SOL    HW222668   3.558   6.884   6.032
 7257SOL     OW22669   0.271   1.564   4.661
 7257SOL    HW122670   0.308   1.480   4.702
 7257SOL    HW222671   0.283   1.560   4.562
 7258SOL     OW22672   5.770   2.089   2.341
 7258SOL    HW122673   5.710   2.047   2.273
 7258SOL    HW222674   5.746   2.185   2.352
 7259SOL     OW22675   0.997   3.958   3.289
 7259SOL    HW122676   0.944   3.874   3.278
 7259SOL    HW222677   1.079   3.939   3.343
 7260SOL     OW22678   5.751   2.432   0.751
 7260SOL    HW122679   5.751   2.344   0.799
 7260SOL    HW222680   5.667   2.482   0.772
 7261SOL     OW22681   0.352   3.906   0.726
 7261SOL    HW122682   0.346   4.005   0.722
 7261SOL    HW222683   0.262   3.867   0.744
 7262SOL     OW22684   5.343   1.767   5.963
 7262SOL    HW122685   5.311   1.781   5.869
 7262SOL    HW222686   5.413   1.835   5.985
 7263SOL     OW22687   0.064   6.479   0.268
 7263SOL    HW122688   0.164   6.474   0.269
 7263SOL    HW222689   0.029   6.463   0.360
 7264SOL     OW22690   5.446   1.472   0.196
 7264SOL    HW122691   5.493   1.403   0.250
 7264SOL    HW222692   5.381   1.521   0.253
 7265SOL     OW22693   4.970   6.316   4.727
 7265SOL    HW122694   4.887   6.362   4.697
 7265SOL    HW222695   4.969   6.221   4.695
 7266SOL     OW22696   6.953   0.574   4.036
 7266SOL    HW122697   6.867   0.592   4.084
 7266SOL    HW222698   6.991   0.486   4.067
 7267SOL     OW22699   6.392   6.017   5.413
 7267SOL    HW122700   6.307   5.997   5.365
 7267SOL    HW222701   6.468   6.023   5.348
 7268SOL     OW22702   6.401   5.988   4.353
 7268SOL    HW122703   6.352   6.070   4.384
 7268SOL    HW222704   6.478   6.015   4.296
 7269SOL     OW22705   1.824   5.000   5.641
 7269SOL    HW122706   1.810   4.968   5.735
 7269SOL    HW222707   1.854   5.096   5.643
 7270SOL     OW22708   0.301   1.580   4.378
 7270SOL    HW122709   0.230   1.580   4.308
 7270SOL    HW222710   0.388   1.610   4.338
 7271SOL     OW22711   1.115   4.988   4.136
 7271SOL    HW122712   1.051   4.911   4.145
 7271SOL    HW222713   1.184   4.982   4.207
 7272SOL     OW22714   6.062   6.331   1.856
 7272SOL    HW122715   6.150   6.369   1.829
 7272SOL    HW222716   5.988   6.376   1.806
 7273SOL     OW22717   6.141   2.715   5.878
 7273SOL    HW122718   6.174   2.808   5.861
 7273SOL    HW222719   6.041   2.714   5.869
 7274SOL     OW22720   1.098   4.390   6.891
 7274SOL    HW122721   1.101   4.467   6.955
 7274SOL    HW222722   1.083   4.425   6.798
 7275SOL     OW22723   6.678   6.917   2.911
 7275SOL    HW122724   6.765   6.959   2.937
 7275SOL    HW222725   6.602   6.978   2.933
 7276SOL     OW22726   5.464   0.007   3.396
 7276SOL    HW122727   5.504   0.014   3.305
 7276SOL    HW222728   5.365   0.021   3.391
 7277SOL     OW22729   4.277   1.163   5.681
 7277SOL    HW122730   4.203   1.142   5.745
 7277SOL    HW222731   4.332   1.239   5.717
 7278SOL     OW22732   3.014   3.946   2.018
 7278SOL    HW122733   2.982   4.024   1.965
 7278SOL    HW222734   3.003   3.965   2.115
 7279SOL     OW22735   3.842   6.175   0.221
 7279SOL    HW122736   3.781   6.251   0.200
 7279SOL    HW222737   3.904   6.200   0.295
 7280SOL     OW22738   5.086   0.069   4.696
 7280SOL    HW122739   5.164   0.042   4.640
 7280SOL    HW222740   5.042   0.150   4.657
 7281SOL     OW22741   3.666   2.297   6.726
 7281SOL    HW122742   3.653   2.287   6.824
 7281SOL    HW222743   3.733   2.370   6.709
 7282SOL     OW22744   5.444   5.134   2.487
 7282SOL    HW122745   5.356   5.092   2.512
 7282SOL    HW222746   5.471   5.200   2.557
 7283SOL     OW22747   2.701   1.097   2.426
 7283SOL    HW122748   2.690   1.017   2.486
 7283SOL    HW222749   2.789   1.141   2.444
 7284SOL     OW22750   0.028   4.197   5.601
 7284SOL    HW122751   0.121   4.188   5.566
 7284SOL    HW222752   6.979   4.203   5.525
 7285SOL     OW22753   4.723   5.042   2.531
 7285SOL    HW122754   4.811   5.000   2.508
 7285SOL    HW222755   4.700   5.020   2.626
 7286SOL     OW22756   2.329   2.100   1.112
 7286SOL    HW122757   2.282   2.137   1.193
 7286SOL    HW222758   2.306   2.004   1.102
 7287SOL     OW22759   0.013   1.285   6.901
 7287SOL    HW122760   0.032   1.383   6.897
 7287SOL    HW222761   0.005   1.256   6.996
 7288SOL     OW22762   3.900   1.036   6.255
 7288SOL    HW122763   3.810   1.079   6.255
 7288SOL    HW222764   3.902   0.961   6.189
 7289SOL     OW22765   5.978   1.593   3.195
 7289SOL    HW122766   6.051   1.659   3.179
 7289SOL    HW222767   5.970   1.533   3.115
 7290SOL     OW22768   2.672   5.702   5.665
 7290SOL    HW122769   2.716   5.679   5.578
 7290SOL    HW222770   2.582   5.742   5.648
 7291SOL     OW22771   2.026   6.974   1.650
 7291SOL    HW122772   2.034   0.055   1.677
 7291SOL    HW222773   2.025   6.968   1.550
 7292SOL     OW22774   3.098   0.032   3.501
 7292SOL    HW122775   3.059   6.994   3.426
 7292SOL    HW222776   3.091   6.996   3.586
 7293SOL     OW22777   1.973   1.397   4.964
 7293SOL    HW122778   2.028   1.468   5.009
 7293SOL    HW222779   1.877   1.410   4.986
 7294SOL     OW22780   2.665   5.084   0.173
 7294SOL    HW122781   2.719   5.006   0.203
 7294SOL    HW222782   2.662   5.153   0.246
 7295SOL     OW22783   0.701   1.848   0.738
 7295SOL    HW122784   0.771   1.781   0.715
 7295SOL    HW222785   0.665   1.828   0.829
 7296SOL     OW22786   2.999   4.719   1.041
 7296SOL    HW122787   2.987   4.743   0.945
 7296SOL    HW222788   3.027   4.800   1.093
 7297SOL     OW22789   3.918   5.875   0.586
 7297SOL    HW122790   3.826   5.903   0.557
 7297SOL    HW222791   3.963   5.951   0.632
 7298SOL     OW22792   5.676   4.444   5.136
 7298SOL    HW122793   5.773   4.421   5.136
 7298SOL    HW222794   5.622   4.364   5.161
 7299SOL     OW22795   0.429   2.427   6.847
 7299SOL    HW122796   0.491   2.393   6.776
 7299SOL    HW222797   0.431   2.527   6.847
 7300SOL     OW22798   5.170   5.209   1.303
 7300SOL    HW122799   5.199   5.305   1.304
 7300SOL    HW222800   5.090   5.199   1.244
 7301SOL     OW22801   6.926   0.546   5.313
 7301SOL    HW122802   6.846   0.517   5.366
 7301SOL    HW222803   7.010   0.520   5.361
 7302SOL     OW22804   0.315   1.575   0.179
 7302SOL    HW122805   0.294   1.499   0.239
 7302SOL    HW222806   0.392   1.550   0.119
 7303SOL     OW22807   4.886   0.663   6.687
 7303SOL    HW122808   4.953   0.602   6.729
 7303SOL    HW222809   4.869   0.740   6.748
 7304SOL     OW22810   3.903   4.049   6.475
 7304SOL    HW122811   3.918   4.112   6.552
 7304SOL    HW222812   3.893   4.101   6.390
 7305SOL     OW22813   5.040   1.864   0.245
 7305SOL    HW122814   5.112   1.827   0.187
 7305SOL    HW222815   5.061   1.959   0.269
 7306SOL     OW22816   4.933   3.576   1.557
 7306SOL    HW122817   4.919   3.544   1.651
 7306SOL    HW222818   4.910   3.673   1.551
 7307SOL     OW22819   2.925   6.832   1.617
 7307SOL    HW122820   2.885   6.744   1.641
 7307SOL    HW222821   2.929   6.890   1.698
 7308SOL     OW22822   6.836   3.732   5.473
 7308SOL    HW122823   6.883   3.804   5.523
 7308SOL    HW222824   6.862   3.642   5.510
 7309SOL     OW22825   4.793   5.665   0.306
 7309SOL    HW122826   4.779   5.628   0.398
 7309SOL    HW222827   4.887   5.699   0.298
 7310SOL     OW22828   1.704   4.410   1.230
 7310SOL    HW122829   1.692   4.337   1.297
 7310SOL    HW222830   1.802   4.424   1.214
 7311SOL     OW22831   3.010   1.853   2.398
 7311SOL    HW122832   3.054   1.825   2.313
 7311SOL    HW222833   2.943   1.924   2.379
 7312SOL     OW22834   6.958   2.550   5.725
 7312SOL    HW122835   7.010   2.595   5.797
 7312SOL    HW222836   6.905   2.618   5.674
 7313SOL     OW22837   4.657   2.442   6.151
 7313SOL    HW122838   4.605   2.434   6.236
 7313SOL    HW222839   4.596   2.471   6.077
 7314SOL     OW22840   6.545   4.014   5.092
 7314SOL    HW122841   6.493   4.089   5.133
 7314SOL    HW222842   6.482   3.952   5.044
 7315SOL     OW22843   6.191   0.524   3.441
 7315SOL    HW122844   6.106   0.560   3.403
 7315SOL    HW222845   6.262   0.594   3.438
 7316SOL     OW22846   3.067   3.306   5.826
 7316SOL    HW122847   3.028   3.378   5.882
 7316SOL    HW222848   3.129   3.346   5.758
 7317SOL     OW22849   4.396   0.521   1.814
 7317SOL    HW122850   4.436   0.452   1.753
 7317SOL    HW222851   4.341   0.586   1.760
 7318SOL     OW22852   1.082   1.358   1.031
 7318SOL    HW122853   1.035   1.292   0.972
 7318SOL    HW222854   1.140   1.309   1.095
 7319SOL     OW22855   6.367   4.428   6.666
 7319SOL    HW122856   6.395   4.334   6.685
 7319SOL    HW222857   6.350   4.476   6.753
 7320SOL     OW22858   6.621   3.397   2.201
 7320SOL    HW122859   6.617   3.481   2.146
 7320SOL    HW222860   6.535   3.385   2.249
 7321SOL     OW22861   2.413   0.618   5.017
 7321SOL    HW122862   2.448   0.691   4.958
 7321SOL    HW222863   2.406   0.653   5.111
 7322SOL     OW22864   1.335   3.324   2.432
 7322SOL    HW122865   1.303   3.389   2.363
 7322SOL    HW222866   1.260   3.300   2.492
 7323SOL     OW22867   2.138   1.846   2.571
 7323SOL    HW122868   2.202   1.893   2.633
 7323SOL    HW222869   2.062   1.907   2.550
 7324SOL     OW22870   5.543   7.001   2.805
 7324SOL    HW122871   5.499   0.074   2.813
 7324SOL    HW222872   5.479   6.935   2.764
 7325SOL     OW22873   4.105   0.761   6.133
 7325SOL    HW122874   4.126   0.664   6.129
 7325SOL    HW222875   4.112   0.801   6.042
 7326SOL     OW22876   2.452   5.950   5.208
 7326SOL    HW122877   2.521   5.948   5.280
 7326SOL    HW222878   2.497   5.966   5.120
 7327SOL     OW22879   6.862   2.797   5.625
 7327SOL    HW122880   6.769   2.830   5.643
 7327SOL    HW222881   6.884   2.812   5.528
 7328SOL     OW22882   3.668   0.464   6.904
 7328SOL    HW122883   3.729   0.433   6.976
 7328SOL    HW222884   3.584   0.501   6.945
 7329SOL     OW22885   4.170   4.290   1.376
 7329SOL    HW122886   4.185   4.342   1.460
 7329SOL    HW222887   4.224   4.206   1.379
 7330SOL     OW22888   3.007   2.036   0.374
 7330SOL    HW122889   3.055   1.969   0.431
 7330SOL    HW222890   3.054   2.124   0.379
 7331SOL     OW22891   5.852   0.710   1.593
 7331SOL    HW122892   5.845   0.809   1.597
 7331SOL    HW222893   5.939   0.680   1.632
 7332SOL     OW22894   2.946   5.825   0.138
 7332SOL    HW122895   2.905   5.782   0.057
 7332SOL    HW222896   2.926   5.768   0.218
 7333SOL     OW22897   0.168   3.508   3.880
 7333SOL    HW122898   0.232   3.479   3.808
 7333SOL    HW222899   0.172   3.607   3.890
 7334SOL     OW22900   4.287   6.085   6.081
 7334SOL    HW122901   4.367   6.100   6.138
 7334SOL    HW222902   4.259   5.989   6.088
 7335SOL     OW22903   1.862   2.747   2.088
 7335SOL    HW122904   1.785   2.797   2.129
 7335SOL    HW222905   1.915   2.702   2.159
 7336SOL     OW22906   1.366   6.449   3.238
 7336SOL    HW122907   1.395   6.495   3.322
 7336SOL    HW222908   1.404   6.498   3.159
 7337SOL     OW22909   0.905   3.159   2.420
 7337SOL    HW122910   0.989   3.180   2.471
 7337SOL    HW222911   0.895   3.059   2.413
 7338SOL     OW22912   6.280   2.406   1.234
 7338SOL    HW122913   6.304   2.310   1.226
 7338SOL    HW222914   6.302   2.438   1.327
 7339SOL     OW22915   5.722   6.267   3.587
 7339SOL    HW122916   5.692   6.313   3.671
 7339SOL    HW222917   5.758   6.177   3.610
 7340SOL     OW22918   1.933   0.484   0.843
 7340SOL    HW122919   1.898   0.567   0.886
 7340SOL    HW222920   1.871   0.408   0.862
 7341SOL     OW22921   6.823   2.265   6.649
 7341SOL    HW122922   6.789   2.334   6.713
 7341SOL    HW222923   6.916   2.238   6.675
 7342SOL     OW22924   6.535   0.234   2.307
 7342SOL    HW122925   6.585   0.319   2.324
 7342SOL    HW222926   6.558   0.199   2.216
 7343SOL     OW22927   4.625   2.829   0.128
 7343SOL    HW122928   4.595   2.851   0.035
 7343SOL    HW222929   4.549   2.787   0.178
 7344SOL     OW22930   1.167   6.945   5.934
 7344SOL    HW122931   1.161   6.860   5.987
 7344SOL    HW222932   1.251   6.944   5.878
 7345SOL     OW22933   3.607   3.343   5.377
 7345SOL    HW122934   3.693   3.320   5.421
 7345SOL    HW222935   3.598   3.290   5.292
 7346SOL     OW22936   3.996   6.590   2.529
 7346SOL    HW122937   4.088   6.553   2.540
 7346SOL    HW222938   3.987   6.674   2.583
 7347SOL     OW22939   0.348   2.250   0.024
 7347SOL    HW122940   0.384   2.308   6.967
 7347SOL    HW222941   0.258   2.215   7.012
 7348SOL     OW22942   1.500   3.594   3.648
 7348SOL    HW122943   1.572   3.650   3.608
 7348SOL    HW222944   1.530   3.559   3.737
 7349SOL     OW22945   4.407   0.178   0.839
 7349SOL    HW122946   4.437   0.256   0.784
 7349SOL    HW222947   4.401   0.097   0.781
 7350SOL     OW22948   2.624   0.376   5.523
 7350SOL    HW122949   2.637   0.324   5.607
 7350SOL    HW222950   2.709   0.380   5.472
 7351SOL     OW22951   5.162   5.146   4.084
 7351SOL    HW122952   5.148   5.219   4.017
 7351SOL    HW222953   5.078   5.131   4.136
 7352SOL     OW22954   0.461   1.939   3.131
 7352SOL    HW122955   0.491   1.844   3.132
 7352SOL    HW222956   0.400   1.954   3.053
 7353SOL     OW22957   6.579   0.508   6.635
 7353SOL    HW122958   6.633   0.426   6.656
 7353SOL    HW222959   6.596   0.578   6.704
 7354SOL     OW22960   1.643   0.498   4.069
 7354SOL    HW122961   1.645   0.593   4.099
 7354SOL    HW222962   1.702   0.487   3.989
 7355SOL     OW22963   6.994   2.241   6.352
 7355SOL    HW122964   0.044   2.168   6.368
 7355SOL    HW222965   6.905   2.201   6.329
 7356SOL     OW22966   3.873   3.611   6.116
 7356SOL    HW122967   3.777   3.599   6.092
 7356SOL    HW222968   3.894   3.708   6.126
 7357SOL     OW22969   3.993   5.914   1.459
 7357SOL    HW122970   3.934   5.899   1.380
 7357SOL    HW222971   4.080   5.866   1.446
 7358SOL     OW22972   6.009   2.383   2.336
 7358SOL    HW122973   5.937   2.348   2.276
 7358SOL    HW222974   5.987   2.361   2.431
 7359SOL     OW22975   4.030   1.718   6.131
 7359SOL    HW122976   4.044   1.736   6.228
 7359SOL    HW222977   4.116   1.687   6.091
 7360SOL     OW22978   2.343   3.464   5.339
 7360SOL    HW122979   2.343   3.364   5.335
 7360SOL    HW222980   2.432   3.496   5.369
 7361SOL     OW22981   5.449   0.633   2.285
 7361SOL    HW122982   5.419   0.540   2.265
 7361SOL    HW222983   5.373   0.684   2.327
 7362SOL     OW22984   4.047   4.910   5.652
 7362SOL    HW122985   4.114   4.982   5.631
 7362SOL    HW222986   4.033   4.906   5.751
 7363SOL     OW22987   4.214   1.249   1.614
 7363SOL    HW122988   4.287   1.315   1.634
 7363SOL    HW222989   4.212   1.179   1.685
 7364SOL     OW22990   4.273   0.150   1.751
 7364SOL    HW122991   4.338   0.223   1.729
 7364SOL    HW222992   4.300   0.066   1.703
 7365SOL     OW22993   6.407   5.524   2.592
 7365SOL    HW122994   6.437   5.490   2.503
 7365SOL    HW222995   6.338   5.595   2.579
 7366SOL     OW22996   2.281   0.324   4.356
 7366SOL    HW122997   2.276   0.256   4.283
 7366SOL    HW222998   2.297   0.278   4.443
 7367SOL     OW22999   4.703   1.633   0.360
 7367SOL    HW123000   4.661   1.711   0.315
 7367SOL    HW223001   4.712   1.558   0.294
 7368SOL     OW23002   3.470   3.545   2.483
 7368SOL    HW123003   3.463   3.458   2.532
 7368SOL    HW223004   3.411   3.542   2.402
 7369SOL     OW23005   4.228   2.398   1.152
 7369SOL    HW123006   4.233   2.472   1.085
 7369SOL    HW223007   4.138   2.355   1.146
 7370SOL     OW23008   2.542   2.025   4.807
 7370SOL    HW123009   2.597   2.072   4.877
 7370SOL    HW223010   2.451   2.006   4.844
 7371SOL     OW23011   3.342   0.016   3.816
 7371SOL    HW123012   3.348   6.989   3.906
 7371SOL    HW223013   3.395   6.979   3.750
 7372SOL     OW23014   3.815   6.732   4.715
 7372SOL    HW123015   3.723   6.769   4.703
 7372SOL    HW223016   3.843   6.743   4.811
 7373SOL     OW23017   4.543   2.036   4.754
 7373SOL    HW123018   4.542   2.020   4.852
 7373SOL    HW223019   4.559   2.133   4.736
 7374SOL     OW23020   1.414   1.702   5.185
 7374SOL    HW123021   1.406   1.669   5.280
 7374SOL    HW223022   1.332   1.676   5.135
 7375SOL     OW23023   2.077   3.161   2.296
 7375SOL    HW123024   2.070   3.108   2.211
 7375SOL    HW223025   2.067   3.258   2.276
 7376SOL     OW23026   1.191   3.578   0.811
 7376SOL    HW123027   1.132   3.580   0.731
 7376SOL    HW223028   1.138   3.604   0.892
 7377SOL     OW23029   3.471   5.017   0.124
 7377SOL    HW123030   3.417   5.095   0.156
 7377SOL    HW223031   3.531   4.985   0.197
 7378SOL     OW23032   1.778   6.680   4.098
 7378SOL    HW123033   1.786   6.692   3.999
 7378SOL    HW223034   1.771   6.769   4.142
 7379SOL     OW23035   3.670   0.169   1.379
 7379SOL    HW123036   3.605   0.204   1.311
 7379SOL    HW223037   3.727   0.244   1.412
 7380SOL     OW23038   6.474   4.360   3.366
 7380SOL    HW123039   6.442   4.408   3.447
 7380SOL    HW223040   6.461   4.261   3.379
 7381SOL     OW23041   4.358   1.850   0.954
 7381SOL    HW123042   4.430   1.861   1.023
 7381SOL    HW223043   4.276   1.812   0.997
 7382SOL     OW23044   6.423   1.811   5.494
 7382SOL    HW123045   6.465   1.796   5.583
 7382SOL    HW223046   6.409   1.723   5.448
 7383SOL     OW23047   1.575   6.427   1.606
 7383SOL    HW123048   1.542   6.496   1.671
 7383SOL    HW223049   1.598   6.472   1.520
 7384SOL     OW23050   0.540   6.612   1.260
 7384SOL    HW123051   0.598   6.685   1.296
 7384SOL    HW223052   0.590   6.525   1.266
 7385SOL     OW23053   3.442   4.983   2.266
 7385SOL    HW123054   3.405   4.955   2.177
 7385SOL    HW223055   3.374   4.966   2.337
 7386SOL     OW23056   0.022   3.511   0.098
 7386SOL    HW123057   0.091   3.439   0.097
 7386SOL    HW223058   7.010   3.531   0.004
 7387SOL     OW23059   6.135   4.529   5.739
 7387SOL    HW123060   6.057   4.526   5.678
 7387SOL    HW223061   6.202   4.596   5.705
 7388SOL     OW23062   1.375   6.140   2.320
 7388SOL    HW123063   1.435   6.061   2.311
 7388SOL    HW223064   1.284   6.117   2.286
 7389SOL     OW23065   0.176   3.311   0.447
 7389SOL    HW123066   0.166   3.217   0.414
 7389SOL    HW223067   0.091   3.340   0.490
 7390SOL     OW23068   2.752   2.024   3.135
 7390SOL    HW123069   2.782   1.939   3.179
 7390SOL    HW223070   2.802   2.037   3.050
 7391SOL     OW23071   4.131   3.556   2.309
 7391SOL    HW123072   4.216   3.559   2.362
 7391SOL    HW223073   4.062   3.613   2.355
 7392SOL     OW23074   4.101   6.136   6.506
 7392SOL    HW123075   4.050   6.064   6.551
 7392SOL    HW223076   4.038   6.201   6.463
 7393SOL     OW23077   6.403   4.652   3.797
 7393SOL    HW123078   6.371   4.740   3.832
 7393SOL    HW223079   6.367   4.579   3.855
 7394SOL     OW23080   2.278   2.452   6.264
 7394SOL    HW123081   2.198   2.407   6.304
 7394SOL    HW223082   2.274   2.550   6.283
 7395SOL     OW23083   2.153   3.319   1.278
 7395SOL    HW123084   2.082   3.312   1.208
 7395SOL    HW223085   2.139   3.403   1.330
 7396SOL     OW23086   2.832   5.251   1.545
 7396SOL    HW123087   2.741   5.230   1.509
 7396SOL    HW223088   2.823   5.296   1.634
 7397SOL     OW23089   5.048   4.260   4.631
 7397SOL    HW123090   4.953   4.260   4.660
 7397SOL    HW223091   5.079   4.166   4.617
 7398SOL     OW23092   1.565   4.438   3.212
 7398SOL    HW123093   1.652   4.462   3.170
 7398SOL    HW223094   1.568   4.344   3.245
 7399SOL     OW23095   6.052   2.973   4.740
 7399SOL    HW123096   5.977   2.925   4.695
 7399SOL    HW223097   6.015   3.044   4.800
 7400SOL     OW23098   5.507   2.365   5.373
 7400SOL    HW123099   5.535   2.313   5.291
 7400SOL    HW223100   5.424   2.324   5.411
 7401SOL     OW23101   1.352   3.229   2.949
 7401SOL    HW123102   1.385   3.176   2.871
 7401SOL    HW223103   1.380   3.324   2.938
 7402SOL     OW23104   2.774   5.507   4.929
 7402SOL    HW123105   2.822   5.429   4.889
 7402SOL    HW223106   2.817   5.592   4.899
 7403SOL     OW23107   1.991   3.208   3.364
 7403SOL    HW123108   1.945   3.245   3.283
 7403SOL    HW223109   2.026   3.117   3.344
 7404SOL     OW23110   3.031   3.840   1.422
 7404SOL    HW123111   2.951   3.836   1.481
 7404SOL    HW223112   3.061   3.935   1.411
 7405SOL     OW23113   3.042   5.571   5.296
 7405SOL    HW123114   2.954   5.532   5.271
 7405SOL    HW223115   3.088   5.511   5.362
 7406SOL     OW23116   0.489   1.332   5.487
 7406SOL    HW123117   0.578   1.352   5.446
 7406SOL    HW223118   0.492   1.241   5.529
 7407SOL     OW23119   0.568   5.977   6.639
 7407SOL    HW123120   0.637   5.939   6.577
 7407SOL    HW223121   0.612   6.037   6.706
 7408SOL     OW23122   3.338   4.078   5.085
 7408SOL    HW123123   3.239   4.072   5.096
 7408SOL    HW223124   3.366   4.028   5.004
 7409SOL     OW23125   5.724   4.135   0.308
 7409SOL    HW123126   5.721   4.145   0.407
 7409SOL    HW223127   5.809   4.091   0.281
 7410SOL     OW23128   0.195   0.467   1.240
 7410SOL    HW123129   0.281   0.444   1.195
 7410SOL    HW223130   0.156   0.549   1.197
 7411SOL     OW23131   1.195   1.937   5.819
 7411SOL    HW123132   1.210   1.905   5.725
 7411SOL    HW223133   1.113   1.895   5.856
 7412SOL     OW23134   3.534   6.998   0.152
 7412SOL    HW123135   3.489   0.064   0.189
 7412SOL    HW223136   3.478   6.960   0.079
 7413SOL     OW23137   4.153   5.163   3.505
 7413SOL    HW123138   4.140   5.117   3.417
 7413SOL    HW223139   4.240   5.212   3.504
 7414SOL     OW23140   2.460   1.823   4.349
 7414SOL    HW123141   2.432   1.790   4.439
 7414SOL    HW223142   2.509   1.910   4.359
 7415SOL     OW23143   3.449   0.268   6.442
 7415SOL    HW123144   3.388   0.191   6.425
 7415SOL    HW223145   3.486   0.262   6.534
 7416SOL     OW23146   1.057   1.689   2.246
 7416SOL    HW123147   1.083   1.695   2.342
 7416SOL    HW223148   1.124   1.635   2.196
 7417SOL     OW23149   1.102   2.648   3.240
 7417SOL    HW123150   1.111   2.549   3.243
 7417SOL    HW223151   1.091   2.678   3.145
 7418SOL     OW23152   1.916   4.463   6.495
 7418SOL    HW123153   1.875   4.490   6.583
 7418SOL    HW223154   1.873   4.378   6.464
 7419SOL     OW23155   6.378   3.948   3.594
 7419SOL    HW123156   6.330   3.873   3.549
 7419SOL    HW223157   6.466   3.916   3.629
 7420SOL     OW23158   6.990   6.532   2.170
 7420SOL    HW123159   6.985   6.500   2.076
 7420SOL    HW223160   6.899   6.562   2.200
 7421SOL     OW23161   4.586   3.356   1.688
 7421SOL    HW123162   4.598   3.258   1.703
 7421SOL    HW223163   4.488   3.378   1.686
 7422SOL     OW23164   5.752   2.663   2.126
 7422SOL    HW123165   5.692   2.723   2.074
 7422SOL    HW223166   5.703   2.627   2.206
 7423SOL     OW23167   5.695   1.713   5.481
 7423SOL    HW123168   5.669   1.729   5.576
 7423SOL    HW223169   5.613   1.716   5.423
 7424SOL     OW23170   0.222   1.178   5.549
 7424SOL    HW123171   0.270   1.135   5.473
 7424SOL    HW223172   0.237   1.125   5.632
 7425SOL     OW23173   5.412   7.002   0.551
 7425SOL    HW123174   5.366   0.011   0.636
 7425SOL    HW223175   5.361   6.930   0.505
 7426SOL     OW23176   3.510   2.517   6.167
 7426SOL    HW123177   3.595   2.504   6.218
 7426SOL    HW223178   3.458   2.591   6.208
 7427SOL     OW23179   3.336   1.264   4.082
 7427SOL    HW123180   3.256   1.205   4.073
 7427SOL    HW223181   3.370   1.261   4.176
 7428SOL     OW23182   4.118   6.769   5.780
 7428SOL    HW123183   4.148   6.831   5.708
 7428SOL    HW223184   4.021   6.749   5.770
 7429SOL     OW23185   1.169   6.924   2.389
 7429SOL    HW123186   1.175   0.007   2.378
 7429SOL    HW223187   1.179   6.900   2.485
 7430SOL     OW23188   0.205   4.761   3.324
 7430SOL    HW123189   0.141   4.699   3.281
 7430SOL    HW223190   0.194   4.758   3.424
 7431SOL     OW23191   2.048   2.363   4.605
 7431SOL    HW123192   2.076   2.267   4.605
 7431SOL    HW223193   2.129   2.421   4.600
 7432SOL     OW23194   2.153   0.243   3.412
 7432SOL    HW123195   2.200   0.331   3.414
 7432SOL    HW223196   2.074   0.248   3.352
 7433SOL     OW23197   3.285   6.584   6.387
 7433SOL    HW123198   3.364   6.523   6.380
 7433SOL    HW223199   3.224   6.570   6.310
 7434SOL     OW23200   4.527   6.228   5.937
 7434SOL    HW123201   4.442   6.278   5.921
 7434SOL    HW223202   4.527   6.189   6.029
 7435SOL     OW23203   4.695   6.710   1.937
 7435SOL    HW123204   4.682   6.789   1.997
 7435SOL    HW223205   4.692   6.626   1.992
 7436SOL     OW23206   5.191   3.500   6.709
 7436SOL    HW123207   5.169   3.539   6.619
 7436SOL    HW223208   5.220   3.573   6.771
 7437SOL     OW23209   3.231   5.736   1.276
 7437SOL    HW123210   3.159   5.746   1.207
 7437SOL    HW223211   3.252   5.640   1.290
 7438SOL     OW23212   2.448   0.751   0.582
 7438SOL    HW123213   2.427   0.820   0.513
 7438SOL    HW223214   2.377   0.680   0.581
 7439SOL     OW23215   1.904   5.088   6.350
 7439SOL    HW123216   1.934   5.170   6.399
 7439SOL    HW223217   1.815   5.059   6.386
 7440SOL     OW23218   4.810   3.065   4.208
 7440SOL    HW123219   4.807   3.060   4.308
 7440SOL    HW223220   4.826   3.159   4.180
 7441SOL     OW23221   5.642   6.096   1.975
 7441SOL    HW123222   5.562   6.100   2.035
 7441SOL    HW223223   5.714   6.154   2.012
 7442SOL     OW23224   5.465   0.526   5.798
 7442SOL    HW123225   5.563   0.515   5.819
 7442SOL    HW223226   5.436   0.455   5.735
 7443SOL     OW23227   0.457   6.169   2.279
 7443SOL    HW123228   0.372   6.151   2.230
 7443SOL    HW223229   0.532   6.180   2.214
 7444SOL     OW23230   0.607   0.476   5.620
 7444SOL    HW123231   0.529   0.508   5.673
 7444SOL    HW223232   0.640   0.390   5.658
 7445SOL     OW23233   4.058   6.345   2.280
 7445SOL    HW123234   4.131   6.301   2.227
 7445SOL    HW223235   4.058   6.443   2.261
 7446SOL     OW23236   4.814   3.412   0.389
 7446SOL    HW123237   4.875   3.336   0.367
 7446SOL    HW223238   4.762   3.438   0.308
 7447SOL     OW23239   1.184   3.880   0.521
 7447SOL    HW123240   1.123   3.850   0.447
 7447SOL    HW223241   1.267   3.920   0.482
 7448SOL     OW23242   4.756   5.793   6.072
 7448SOL    HW123243   4.736   5.699   6.046
 7448SOL    HW223244   4.777   5.847   5.990
 7449SOL     OW23245   0.664   4.471   0.125
 7449SOL    HW123246   0.613   4.489   0.209
 7449SOL    HW223247   0.599   4.462   0.049
 7450SOL     OW23248   5.264   1.822   5.679
 7450SOL    HW123249   5.273   1.908   5.629
 7450SOL    HW223250   5.182   1.824   5.736
 7451SOL     OW23251   5.648   5.244   2.303
 7451SOL    HW123252   5.737   5.262   2.262
 7451SOL    HW223253   5.614   5.155   2.270
 7452SOL     OW23254   5.320   6.250   5.141
 7452SOL    HW123255   5.270   6.308   5.077
 7452SOL    HW223256   5.260   6.225   5.217
 7453SOL     OW23257   4.605   5.560   6.352
 7453SOL    HW123258   4.685   5.501   6.342
 7453SOL    HW223259   4.635   5.652   6.379
 7454SOL     OW23260   3.325   1.768   0.496
 7454SOL    HW123261   3.423   1.781   0.482
 7454SOL    HW223262   3.307   1.672   0.516
 7455SOL     OW23263   6.271   2.800   2.840
 7455SOL    HW123264   6.352   2.765   2.888
 7455SOL    HW223265   6.253   2.744   2.759
 7456SOL     OW23266   2.302   2.321   5.256
 7456SOL    HW123267   2.223   2.260   5.252
 7456SOL    HW223268   2.382   2.275   5.218
 7457SOL     OW23269   2.446   6.918   3.268
 7457SOL    HW123270   2.506   6.857   3.216
 7457SOL    HW223271   2.396   6.866   3.337
 7458SOL     OW23272   1.079   6.536   4.891
 7458SOL    HW123273   0.999   6.595   4.881
 7458SOL    HW223274   1.078   6.464   4.822
 7459SOL     OW23275   6.399   1.054   2.762
 7459SOL    HW123276   6.478   1.031   2.819
 7459SOL    HW223277   6.429   1.103   2.681
 7460SOL     OW23278   1.212   6.698   0.589
 7460SOL    HW123279   1.196   6.794   0.564
 7460SOL    HW223280   1.292   6.664   0.540
 7461SOL     OW23281   0.777   5.672   5.961
 7461SOL    HW123282   0.795   5.680   5.863
 7461SOL    HW223283   0.830   5.596   5.999
 7462SOL     OW23284   1.066   5.371   1.198
 7462SOL    HW123285   1.134   5.435   1.231
 7462SOL    HW223286   1.079   5.282   1.242
 7463SOL     OW23287   4.251   4.350   6.913
 7463SOL    HW123288   4.243   4.449   6.902
 7463SOL    HW223289   4.236   4.325   7.009
 7464SOL     OW23290   0.003   5.094   4.747
 7464SOL    HW123291   0.018   5.187   4.781
 7464SOL    HW223292   0.060   5.078   4.666
 7465SOL     OW23293   2.373   5.024   0.190
 7465SOL    HW123294   2.464   5.055   0.216
 7465SOL    HW223295   2.343   5.071   0.107
 7466SOL     OW23296   0.942   0.409   5.130
 7466SOL    HW123297   0.935   0.507   5.114
 7466SOL    HW223298   0.957   0.361   5.043
 7467SOL     OW23299   0.274   3.425   5.981
 7467SOL    HW123300   0.201   3.379   6.032
 7467SOL    HW223301   0.244   3.438   5.887
 7468SOL     OW23302   5.548   2.759   5.551
 7468SOL    HW123303   5.605   2.677   5.543
 7468SOL    HW223304   5.473   2.741   5.614
 7469SOL     OW23305   6.655   2.449   0.327
 7469SOL    HW123306   6.692   2.391   0.400
 7469SOL    HW223307   6.666   2.545   0.353
 7470SOL     OW23308   5.887   4.045   4.006
 7470SOL    HW123309   5.888   4.124   4.069
 7470SOL    HW223310   5.931   4.071   3.920
 7471SOL     OW23311   5.477   5.662   6.529
 7471SOL    HW123312   5.542   5.721   6.482
 7471SOL    HW223313   5.470   5.574   6.481
 7472SOL     OW23314   6.486   6.928   4.847
 7472SOL    HW123315   6.495   6.860   4.775
 7472SOL    HW223316   6.483   6.883   4.937
 7473SOL     OW23317   4.217   0.128   3.572
 7473SOL    HW123318   4.231   0.165   3.664
 7473SOL    HW223319   4.141   0.064   3.573
 7474SOL     OW23320   5.485   2.253   6.326
 7474SOL    HW123321   5.534   2.232   6.243
 7474SOL    HW223322   5.464   2.169   6.376
 7475SOL     OW23323   4.538   1.990   1.709
 7475SOL    HW123324   4.575   2.027   1.794
 7475SOL    HW223325   4.606   1.928   1.667
 7476SOL     OW23326   2.012   1.375   2.912
 7476SOL    HW123327   1.985   1.325   2.994
 7476SOL    HW223328   2.054   1.462   2.938
 7477SOL     OW23329   0.413   3.750   4.934
 7477SOL    HW123330   0.455   3.824   4.987
 7477SOL    HW223331   0.381   3.786   4.846
 7478SOL     OW23332   6.914   1.953   5.079
 7478SOL    HW123333   6.921   2.051   5.061
 7478SOL    HW223334   6.871   1.908   5.001
 7479SOL     OW23335   5.592   3.780   6.764
 7479SOL    HW123336   5.563   3.687   6.784
 7479SOL    HW223337   5.676   3.801   6.814
 7480SOL     OW23338   3.423   5.278   2.140
 7480SOL    HW123339   3.339   5.226   2.145
 7480SOL    HW223340   3.487   5.246   2.211
 7481SOL     OW23341   6.289   4.472   6.395
 7481SOL    HW123342   6.350   4.415   6.341
 7481SOL    HW223343   6.320   4.473   6.490
 7482SOL     OW23344   3.864   2.111   2.430
 7482SOL    HW123345   3.779   2.111   2.377
 7482SOL    HW223346   3.926   2.181   2.395
 7483SOL     OW23347   4.407   2.500   5.465
 7483SOL    HW123348   4.427   2.433   5.394
 7483SOL    HW223349   4.359   2.578   5.425
 7484SOL     OW23350   2.518   6.530   4.717
 7484SOL    HW123351   2.532   6.615   4.667
 7484SOL    HW223352   2.421   6.520   4.737
 7485SOL     OW23353   2.941   6.895   3.999
 7485SOL    HW123354   2.857   6.947   3.988
 7485SOL    HW223355   3.005   6.945   4.057
 7486SOL     OW23356   0.796   6.096   0.071
 7486SOL    HW123357   0.896   6.093   0.070
 7486SOL    HW223358   0.761   6.021   0.014
 7487SOL     OW23359   4.585   0.081   3.289
 7487SOL    HW123360   4.523   0.056   3.215
 7487SOL    HW223361   4.645   0.154   3.259
 7488SOL     OW23362   0.836   5.799   4.147
 7488SOL    HW123363   0.897   5.765   4.219
 7488SOL    HW223364   0.877   5.880   4.105
 7489SOL     OW23365   6.127   4.262   6.703
 7489SOL    HW123366   6.046   4.278   6.646
 7489SOL    HW223367   6.200   4.324   6.675
 7490SOL     OW23368   1.030   1.970   2.671
 7490SOL    HW123369   0.946   1.983   2.619
 7490SOL    HW223370   1.078   2.057   2.679
 7491SOL     OW23371   4.424   3.152   0.467
 7491SOL    HW123372   4.518   3.127   0.488
 7491SOL    HW223373   4.408   3.247   0.491
 7492SOL     OW23374   1.216   0.745   4.051
 7492SOL    HW123375   1.202   0.781   4.143
 7492SOL    HW223376   1.150   0.785   3.988
 7493SOL     OW23377   6.407   3.851   5.627
 7493SOL    HW123378   6.496   3.840   5.671
 7493SOL    HW223379   6.416   3.913   5.550
 7494SOL     OW23380   6.375   1.210   3.150
 7494SOL    HW123381   6.437   1.139   3.184
 7494SOL    HW223382   6.282   1.192   3.184
 7495SOL     OW23383   2.234   3.069   4.699
 7495SOL    HW123384   2.300   3.055   4.773
 7495SOL    HW223385   2.176   2.988   4.690
 7496SOL     OW23386   6.241   3.808   3.421
 7496SOL    HW123387   6.323   3.821   3.364
 7496SOL    HW223388   6.160   3.811   3.362
 7497SOL     OW23389   0.703   6.390   0.311
 7497SOL    HW123390   0.768   6.314   0.315
 7497SOL    HW223391   0.646   6.380   0.230
 7498SOL     OW23392   3.232   0.348   3.155
 7498SOL    HW123393   3.178   0.429   3.179
 7498SOL    HW223394   3.329   0.370   3.163
 7499SOL     OW23395   3.847   2.017   4.003
 7499SOL    HW123396   3.803   2.107   3.996
 7499SOL    HW223397   3.927   2.023   4.061
 7500SOL     OW23398   4.273   0.182   3.337
 7500SOL    HW123399   4.241   0.118   3.267
 7500SOL    HW223400   4.241   0.151   3.427
 7501SOL     OW23401   6.107   2.516   4.655
 7501SOL    HW123402   6.147   2.608   4.658
 7501SOL    HW223403   6.179   2.448   4.661
 7502SOL     OW23404   3.151   0.001   4.461
 7502SOL    HW123405   3.108   6.927   4.457
 7502SOL    HW223406   3.081   0.072   4.451
 7503SOL     OW23407   2.228   6.206   1.289
 7503SOL    HW123408   2.224   6.176   1.385
 7503SOL    HW223409   2.144   6.178   1.242
 7504SOL     OW23410   6.940   6.568   2.835
 7504SOL    HW123411   7.006   6.548   2.908
 7504SOL    HW223412   6.977   6.539   2.747
 7505SOL     OW23413   6.826   0.508   5.065
 7505SOL    HW123414   6.804   0.413   5.046
 7505SOL    HW223415   6.864   0.517   5.157
 7506SOL     OW23416   3.654   1.636   3.500
 7506SOL    HW123417   3.587   1.647   3.573
 7506SOL    HW223418   3.607   1.619   3.413
 7507SOL     OW23419   6.197   3.417   4.397
 7507SOL    HW123420   6.154   3.330   4.424
 7507SOL    HW223421   6.126   3.482   4.371
 7508SOL     OW23422   1.787   6.136   0.289
 7508SOL    HW123423   1.746   6.127   0.379
 7508SOL    HW223424   1.816   6.231   0.274
 7509SOL     OW23425   4.983   4.108   0.312
 7509SOL    HW123426   5.008   4.118   0.408
 7509SOL    HW223427   4.897   4.056   0.305
 7510SOL     OW23428   3.914   3.976   3.724
 7510SOL    HW123429   3.882   3.978   3.818
 7510SOL    HW223430   3.974   4.054   3.707
 7511SOL     OW23431   2.946   5.662   2.850
 7511SOL    HW123432   2.883   5.666   2.928
 7511SOL    HW223433   3.029   5.714   2.871
 7512SOL     OW23434   3.393   6.830   6.520
 7512SOL    HW123435   3.354   6.740   6.502
 7512SOL    HW223436   3.443   6.828   6.606
 7513SOL     OW23437   1.977   2.260   3.688
 7513SOL    HW123438   1.967   2.184   3.624
 7513SOL    HW223439   2.074   2.274   3.708
 7514SOL     OW23440   2.560   4.637   3.340
 7514SOL    HW123441   2.556   4.652   3.439
 7514SOL    HW223442   2.636   4.690   3.302
 7515SOL     OW23443   6.925   3.875   5.199
 7515SOL    HW123444   6.876   3.890   5.285
 7515SOL    HW223445   6.911   3.781   5.169
 7516SOL     OW23446   1.084   4.953   5.286
 7516SOL    HW123447   1.157   4.935   5.352
 7516SOL    HW223448   1.020   4.876   5.285
 7517SOL     OW23449   0.749   1.946   0.045
 7517SOL    HW123450   0.782   2.001   0.122
 7517SOL    HW223451   0.666   1.988   0.008
 7518SOL     OW23452   4.652   2.790   4.156
 7518SOL    HW123453   4.699   2.717   4.205
 7518SOL    HW223454   4.672   2.878   4.198
 7519SOL     OW23455   4.300   6.742   4.965
 7519SOL    HW123456   4.357   6.813   5.006
 7519SOL    HW223457   4.335   6.719   4.874
 7520SOL     OW23458   1.942   1.992   2.285
 7520SOL    HW123459   2.029   1.982   2.237
 7520SOL    HW223460   1.870   2.014   2.219
 7521SOL     OW23461   5.031   1.096   4.562
 7521SOL    HW123462   5.101   1.024   4.563
 7521SOL    HW223463   5.056   1.166   4.496
 7522SOL     OW23464   1.651   5.924   3.157
 7522SOL    HW123465   1.714   5.926   3.079
 7522SOL    HW223466   1.677   5.849   3.218
 7523SOL     OW23467   5.750   1.415   6.481
 7523SOL    HW123468   5.768   1.319   6.458
 7523SOL    HW223469   5.784   1.434   6.573
 7524SOL     OW23470   0.071   2.437   4.652
 7524SOL    HW123471   0.057   2.359   4.712
 7524SOL    HW223472   0.152   2.422   4.596
 7525SOL     OW23473   4.888   6.565   6.156
 7525SOL    HW123474   4.913   6.502   6.229
 7525SOL    HW223475   4.872   6.514   6.072
 7526SOL     OW23476   2.086   3.713   2.011
 7526SOL    HW123477   2.014   3.709   1.942
 7526SOL    HW223478   2.135   3.626   2.013
 7527SOL     OW23479   3.974   6.064   3.602
 7527SOL    HW123480   3.888   6.111   3.619
 7527SOL    HW223481   3.990   6.057   3.503
 7528SOL     OW23482   6.285   2.589   6.406
 7528SOL    HW123483   6.321   2.669   6.454
 7528SOL    HW223484   6.294   2.604   6.307
 7529SOL     OW23485   5.888   2.041   3.956
 7529SOL    HW123486   5.913   2.060   4.051
 7529SOL    HW223487   5.970   2.044   3.899
 7530SOL     OW23488   6.635   1.455   2.009
 7530SOL    HW123489   6.590   1.375   2.047
 7530SOL    HW223490   6.733   1.438   2.000
 7531SOL     OW23491   4.325   2.323   3.757
 7531SOL    HW123492   4.246   2.321   3.818
 7531SOL    HW223493   4.296   2.300   3.664
 7532SOL     OW23494   4.474   5.967   6.879
 7532SOL    HW123495   4.517   5.930   6.962
 7532SOL    HW223496   4.382   5.998   6.900
 7533SOL     OW23497   4.637   3.096   1.676
 7533SOL    HW123498   4.646   3.048   1.763
 7533SOL    HW223499   4.707   3.064   1.612
 7534SOL     OW23500   4.749   0.176   4.166
 7534SOL    HW123501   4.797   0.263   4.152
 7534SOL    HW223502   4.797   0.103   4.117
 7535SOL     OW23503   0.919   6.138   4.429
 7535SOL    HW123504   0.961   6.055   4.392
 7535SOL    HW223505   0.895   6.199   4.353
 7536SOL     OW23506   4.707   6.068   4.253
 7536SOL    HW123507   4.693   6.069   4.154
 7536SOL    HW223508   4.638   6.010   4.295
 7537SOL     OW23509   2.619   5.794   2.203
 7537SOL    HW123510   2.714   5.817   2.180
 7537SOL    HW223511   2.606   5.695   2.200
 7538SOL     OW23512   0.706   3.127   1.606
 7538SOL    HW123513   0.773   3.056   1.583
 7538SOL    HW223514   0.713   3.149   1.703
 7539SOL     OW23515   0.429   5.301   3.689
 7539SOL    HW123516   0.486   5.244   3.748
 7539SOL    HW223517   0.487   5.353   3.627
 7540SOL     OW23518   5.706   5.718   4.177
 7540SOL    HW123519   5.624   5.743   4.228
 7540SOL    HW223520   5.697   5.750   4.082
 7541SOL     OW23521   0.979   3.616   6.476
 7541SOL    HW123522   1.017   3.697   6.520
 7541SOL    HW223523   1.051   3.548   6.463
 7542SOL     OW23524   6.355   6.184   6.118
 7542SOL    HW123525   6.439   6.153   6.074
 7542SOL    HW223526   6.344   6.136   6.205
 7543SOL     OW23527   2.519   0.301   5.260
 7543SOL    HW123528   2.580   0.222   5.256
 7543SOL    HW223529   2.532   0.350   5.346
 7544SOL     OW23530   6.851   3.176   3.905
 7544SOL    HW123531   6.921   3.237   3.942
 7544SOL    HW223532   6.796   3.225   3.838
 7545SOL     OW23533   0.771   5.468   6.899
 7545SOL    HW123534   0.721   5.514   6.973
 7545SOL    HW223535   0.710   5.403   6.854
 7546SOL     OW23536   3.139   2.842   1.916
 7546SOL    HW123537   3.093   2.776   1.857
 7546SOL    HW223538   3.101   2.836   2.009
 7547SOL     OW23539   4.460   0.298   1.619
 7547SOL    HW123540   4.537   0.259   1.568
 7547SOL    HW223541   4.392   0.334   1.554
 7548SOL     OW23542   4.559   2.120   6.184
 7548SOL    HW123543   4.483   2.089   6.241
 7548SOL    HW223544   4.572   2.218   6.196
 7549SOL     OW23545   4.445   2.606   5.720
 7549SOL    HW123546   4.372   2.673   5.707
 7549SOL    HW223547   4.450   2.545   5.642
 7550SOL     OW23548   1.723   3.777   3.595
 7550SOL    HW123549   1.794   3.827   3.546
 7550SOL    HW223550   1.756   3.752   3.686
 7551SOL     OW23551   5.316   1.761   5.344
 7551SOL    HW123552   5.226   1.802   5.358
 7551SOL    HW223553   5.326   1.681   5.403
 7552SOL     OW23554   2.044   6.188   4.513
 7552SOL    HW123555   2.092   6.275   4.523
 7552SOL    HW223556   1.963   6.201   4.456
 7553SOL     OW23557   5.802   6.212   6.569
 7553SOL    HW123558   5.744   6.266   6.629
 7553SOL    HW223559   5.794   6.115   6.592
 7554SOL     OW23560   5.385   1.590   0.443
 7554SOL    HW123561   5.419   1.506   0.485
 7554SOL    HW223562   5.287   1.599   0.460
 7555SOL     OW23563   2.869   6.381   6.616
 7555SOL    HW123564   2.923   6.359   6.534
 7555SOL    HW223565   2.782   6.422   6.588
 7556SOL     OW23566   0.945   0.718   0.752
 7556SOL    HW123567   0.939   0.686   0.657
 7556SOL    HW223568   0.976   0.644   0.811
 7557SOL     OW23569   5.294   0.364   6.981
 7557SOL    HW123570   5.298   0.460   7.010
 7557SOL    HW223571   5.279   0.305   0.045
 7558SOL     OW23572   1.509   2.750   4.121
 7558SOL    HW123573   1.509   2.676   4.054
 7558SOL    HW223574   1.514   2.712   4.213
 7559SOL     OW23575   3.697   2.060   4.813
 7559SOL    HW123576   3.644   2.122   4.872
 7559SOL    HW223577   3.707   1.972   4.859
 7560SOL     OW23578   0.005   0.677   6.299
 7560SOL    HW123579   0.075   0.653   6.231
 7560SOL    HW223580   6.990   0.771   6.284
 7561SOL     OW23581   4.988   2.004   5.622
 7561SOL    HW123582   4.909   2.064   5.628
 7561SOL    HW223583   5.003   1.959   5.710
 7562SOL     OW23584   1.080   5.224   4.724
 7562SOL    HW123585   1.026   5.280   4.787
 7562SOL    HW223586   1.118   5.145   4.773
 7563SOL     OW23587   3.624   6.207   2.115
 7563SOL    HW123588   3.584   6.151   2.043
 7563SOL    HW223589   3.659   6.292   2.075
 7564SOL     OW23590   4.420   1.167   4.381
 7564SOL    HW123591   4.352   1.239   4.398
 7564SOL    HW223592   4.375   1.078   4.383
 7565SOL     OW23593   5.515   3.583   6.285
 7565SOL    HW123594   5.574   3.529   6.226
 7565SOL    HW223595   5.432   3.608   6.236
 7566SOL     OW23596   4.745   4.689   1.503
 7566SOL    HW123597   4.807   4.730   1.570
 7566SOL    HW223598   4.653   4.726   1.516
 7567SOL     OW23599   0.355   0.407   4.535
 7567SOL    HW123600   0.350   0.505   4.517
 7567SOL    HW223601   0.387   0.360   4.453
 7568SOL     OW23602   6.142   5.355   1.169
 7568SOL    HW123603   6.169   5.267   1.132
 7568SOL    HW223604   6.113   5.415   1.094
 7569SOL     OW23605   4.026   3.827   6.337
 7569SOL    HW123606   3.960   3.900   6.355
 7569SOL    HW223607   4.042   3.776   6.421
 7570SOL     OW23608   6.779   2.946   3.346
 7570SOL    HW123609   6.701   2.913   3.397
 7570SOL    HW223610   6.809   3.034   3.384
 7571SOL     OW23611   5.440   3.726   2.548
 7571SOL    HW123612   5.377   3.714   2.625
 7571SOL    HW223613   5.510   3.793   2.572
 7572SOL     OW23614   5.152   6.738   2.731
 7572SOL    HW123615   5.168   6.716   2.634
 7572SOL    HW223616   5.068   6.694   2.761
 7573SOL     OW23617   5.742   6.556   5.643
 7573SOL    HW123618   5.648   6.590   5.639
 7573SOL    HW223619   5.744   6.472   5.698
 7574SOL     OW23620   6.449   1.003   4.245
 7574SOL    HW123621   6.424   0.916   4.203
 7574SOL    HW223622   6.524   0.989   4.310
 7575SOL     OW23623   6.762   6.453   0.913
 7575SOL    HW123624   6.853   6.494   0.916
 7575SOL    HW223625   6.700   6.504   0.972
 7576SOL     OW23626   5.743   2.730   0.703
 7576SOL    HW123627   5.689   2.814   0.691
 7576SOL    HW223628   5.683   2.658   0.739
 7577SOL     OW23629   0.761   6.795   0.010
 7577SOL    HW123630   0.799   6.752   0.092
 7577SOL    HW223631   0.801   6.886   7.015
 7578SOL     OW23632   0.016   5.970   3.338
 7578SOL    HW123633   0.043   5.879   3.371
 7578SOL    HW223634   6.951   5.962   3.280
 7579SOL     OW23635   6.537   1.515   0.963
 7579SOL    HW123636   6.576   1.480   1.048
 7579SOL    HW223637   6.580   1.602   0.940
 7580SOL     OW23638   1.922   4.248   3.663
 7580SOL    HW123639   1.926   4.299   3.577
 7580SOL    HW223640   2.011   4.206   3.681
 7581SOL     OW23641   0.286   1.023   1.466
 7581SOL    HW123642   0.286   0.924   1.455
 7581SOL    HW223643   0.379   1.055   1.480
 7582SOL     OW23644   3.523   1.385   4.431
 7582SOL    HW123645   3.612   1.340   4.440
 7582SOL    HW223646   3.536   1.483   4.421
 7583SOL     OW23647   4.897   3.395   3.661
 7583SOL    HW123648   4.862   3.390   3.567
 7583SOL    HW223649   4.833   3.446   3.718
 7584SOL     OW23650   0.902   1.403   3.096
 7584SOL    HW123651   0.901   1.461   3.015
 7584SOL    HW223652   0.867   1.453   3.175
 7585SOL     OW23653   1.149   2.402   6.966
 7585SOL    HW123654   1.225   2.395   6.902
 7585SOL    HW223655   1.080   2.333   6.944
 7586SOL     OW23656   1.346   1.224   2.467
 7586SOL    HW123657   1.406   1.166   2.411
 7586SOL    HW223658   1.351   1.193   2.562
 7587SOL     OW23659   3.523   0.690   0.854
 7587SOL    HW123660   3.558   0.768   0.803
 7587SOL    HW223661   3.424   0.700   0.867
 7588SOL     OW23662   1.294   2.544   4.501
 7588SOL    HW123663   1.330   2.489   4.577
 7588SOL    HW223664   1.219   2.495   4.457
 7589SOL     OW23665   0.561   1.348   2.711
 7589SOL    HW123666   0.625   1.316   2.780
 7589SOL    HW223667   0.471   1.362   2.752
 7590SOL     OW23668   6.897   1.882   0.300
 7590SOL    HW123669   6.822   1.945   0.323
 7590SOL    HW223670   6.858   1.793   0.277
 7591SOL     OW23671   4.458   3.542   6.539
 7591SOL    HW123672   4.524   3.468   6.535
 7591SOL    HW223673   4.496   3.617   6.593
 7592SOL     OW23674   6.335   5.838   4.985
 7592SOL    HW123675   6.281   5.831   4.901
 7592SOL    HW223676   6.303   5.915   5.039
 7593SOL     OW23677   0.445   1.389   5.998
 7593SOL    HW123678   0.540   1.362   5.988
 7593SOL    HW223679   0.401   1.393   5.908
 7594SOL     OW23680   0.287   4.221   1.468
 7594SOL    HW123681   0.382   4.206   1.442
 7594SOL    HW223682   0.261   4.157   1.540
 7595SOL     OW23683   6.125   2.799   6.290
 7595SOL    HW123684   6.097   2.894   6.305
 7595SOL    HW223685   6.191   2.773   6.359
 7596SOL     OW23686   3.140   0.779   5.242
 7596SOL    HW123687   3.214   0.821   5.189
 7596SOL    HW223688   3.053   0.792   5.193
 7597SOL     OW23689   1.857   5.037   2.083
 7597SOL    HW123690   1.933   5.087   2.124
 7597SOL    HW223691   1.888   4.946   2.055
 7598SOL     OW23692   6.045   1.020   3.083
 7598SOL    HW123693   5.990   0.982   3.009
 7598SOL    HW223694   6.135   0.977   3.083
 7599SOL     OW23695   4.156   3.509   0.669
 7599SOL    HW123696   4.067   3.501   0.625
 7599SOL    HW223697   4.179   3.605   0.681
 7600SOL     OW23698   1.228   1.666   3.893
 7600SOL    HW123699   1.281   1.747   3.866
 7600SOL    HW223700   1.290   1.590   3.911
 7601SOL     OW23701   3.929   5.575   2.032
 7601SOL    HW123702   3.894   5.499   1.978
 7601SOL    HW223703   3.990   5.540   2.104
 7602SOL     OW23704   0.204   1.913   0.730
 7602SOL    HW123705   0.168   1.890   0.640
 7602SOL    HW223706   0.159   1.857   0.799
 7603SOL     OW23707   2.387   0.211   6.031
 7603SOL    HW123708   2.295   0.250   6.032
 7603SOL    HW223709   2.453   0.283   6.010
 7604SOL     OW23710   1.518   2.147   5.057
 7604SOL    HW123711   1.431   2.196   5.053
 7604SOL    HW223712   1.593   2.212   5.044
 7605SOL     OW23713   2.854   0.218   6.913
 7605SOL    HW123714   2.880   0.258   7.001
 7605SOL    HW223715   2.920   0.245   6.843
 7606SOL     OW23716   6.131   1.244   4.023
 7606SOL    HW123717   6.092   1.298   4.097
 7606SOL    HW223718   6.140   1.300   3.941
 7607SOL     OW23719   3.240   6.404   6.154
 7607SOL    HW123720   3.242   6.305   6.172
 7607SOL    HW223721   3.176   6.423   6.079
 7608SOL     OW23722   5.777   2.513   6.013
 7608SOL    HW123723   5.838   2.563   6.074
 7608SOL    HW223724   5.742   2.575   5.943
 7609SOL     OW23725   0.545   2.532   4.499
 7609SOL    HW123726   0.589   2.548   4.411
 7609SOL    HW223727   0.448   2.515   4.485
 7610SOL     OW23728   3.404   4.862   6.526
 7610SOL    HW123729   3.360   4.786   6.478
 7610SOL    HW223730   3.492   4.831   6.563
 7611SOL     OW23731   4.799   3.003   1.251
 7611SOL    HW123732   4.715   3.049   1.279
 7611SOL    HW223733   4.844   2.964   1.331
 7612SOL     OW23734   2.888   1.798   3.227
 7612SOL    HW123735   2.987   1.805   3.219
 7612SOL    HW223736   2.864   1.710   3.268
 7613SOL     OW23737   1.149   1.768   2.508
 7613SOL    HW123738   1.233   1.751   2.559
 7613SOL    HW223739   1.092   1.833   2.558
 7614SOL     OW23740   5.069   3.293   0.394
 7614SOL    HW123741   5.067   3.372   0.454
 7614SOL    HW223742   5.094   3.211   0.446
 7615SOL     OW23743   5.272   3.017   4.920
 7615SOL    HW123744   5.242   2.922   4.921
 7615SOL    HW223745   5.218   3.070   4.986
 7616SOL     OW23746   6.096   6.699   3.702
 7616SOL    HW123747   5.997   6.714   3.705
 7616SOL    HW223748   6.139   6.753   3.775
 7617SOL     OW23749   4.818   5.279   3.171
 7617SOL    HW123750   4.882   5.347   3.133
 7617SOL    HW223751   4.867   5.194   3.188
 7618SOL     OW23752   2.920   2.483   0.275
 7618SOL    HW123753   2.828   2.486   0.314
 7618SOL    HW223754   2.960   2.575   0.276
 7619SOL     OW23755   0.914   2.386   4.085
 7619SOL    HW123756   0.936   2.468   4.032
 7619SOL    HW223757   0.912   2.408   4.182
 7620SOL     OW23758   3.892   4.234   1.321
 7620SOL    HW123759   3.990   4.215   1.318
 7620SOL    HW223760   3.868   4.278   1.407
 7621SOL     OW23761   0.503   5.732   1.122
 7621SOL    HW123762   0.407   5.747   1.102
 7621SOL    HW223763   0.515   5.642   1.164
 7622SOL     OW23764   4.066   4.789   0.664
 7622SOL    HW123765   4.137   4.770   0.596
 7622SOL    HW223766   4.084   4.736   0.747
 7623SOL     OW23767   4.461   5.029   1.347
 7623SOL    HW123768   4.553   5.062   1.327
 7623SOL    HW223769   4.461   4.929   1.351
 7624SOL     OW23770   0.349   2.683   1.976
 7624SOL    HW123771   0.423   2.616   1.982
 7624SOL    HW223772   0.340   2.714   1.881
 7625SOL     OW23773   5.376   2.218   0.186
 7625SOL    HW123774   5.352   2.277   0.108
 7625SOL    HW223775   5.400   2.274   0.264
 7626SOL     OW23776   5.430   0.263   5.062
 7626SOL    HW123777   5.403   0.293   4.971
 7626SOL    HW223778   5.481   0.177   5.054
 7627SOL     OW23779   2.655   1.784   0.155
 7627SOL    HW123780   2.713   1.761   0.076
 7627SOL    HW223781   2.559   1.777   0.129
 7628SOL     OW23782   3.517   2.439   0.581
 7628SOL    HW123783   3.460   2.376   0.632
 7628SOL    HW223784   3.613   2.427   0.608
 7629SOL     OW23785   5.926   3.151   3.989
 7629SOL    HW123786   5.834   3.120   4.011
 7629SOL    HW223787   5.921   3.227   3.924
 7630SOL     OW23788   1.701   0.473   5.029
 7630SOL    HW123789   1.705   0.398   5.095
 7630SOL    HW223790   1.628   0.454   4.963
 7631SOL     OW23791   1.893   0.120   5.256
 7631SOL    HW123792   1.967   0.164   5.204
 7631SOL    HW223793   1.811   0.177   5.251
 7632SOL     OW23794   4.418   5.586   0.977
 7632SOL    HW123795   4.449   5.577   1.072
 7632SOL    HW223796   4.497   5.581   0.916
 7633SOL     OW23797   6.002   0.861   1.103
 7633SOL    HW123798   5.916   0.815   1.124
 7633SOL    HW223799   6.002   0.952   1.145
 7634SOL     OW23800   1.143   1.996   0.769
 7634SOL    HW123801   1.144   2.063   0.695
 7634SOL    HW223802   1.088   2.031   0.845
 7635SOL     OW23803   3.004   5.091   5.621
 7635SOL    HW123804   2.931   5.101   5.689
 7635SOL    HW223805   2.983   5.014   5.560
 7636SOL     OW23806   0.765   4.154   4.994
 7636SOL    HW123807   0.742   4.178   5.088
 7636SOL    HW223808   0.839   4.087   4.995
 7637SOL     OW23809   0.338   6.549   4.597
 7637SOL    HW123810   0.372   6.605   4.521
 7637SOL    HW223811   0.357   6.453   4.578
 7638SOL     OW23812   0.889   5.407   1.726
 7638SOL    HW123813   0.853   5.473   1.791
 7638SOL    HW223814   0.910   5.454   1.640
 7639SOL     OW23815   1.001   1.052   0.353
 7639SOL    HW123816   0.923   1.113   0.366
 7639SOL    HW223817   1.059   1.087   0.280
 7640SOL     OW23818   3.094   1.102   6.606
 7640SOL    HW123819   2.997   1.107   6.626
 7640SOL    HW223820   3.130   1.194   6.592
 7641SOL     OW23821   6.945   4.102   2.719
 7641SOL    HW123822   7.016   4.105   2.790
 7641SOL    HW223823   6.899   4.013   2.721
 7642SOL     OW23824   5.764   1.571   3.335
 7642SOL    HW123825   5.797   1.605   3.423
 7642SOL    HW223826   5.833   1.587   3.264
 7643SOL     OW23827   4.919   2.952   3.102
 7643SOL    HW123828   4.881   3.033   3.147
 7643SOL    HW223829   4.846   2.889   3.077
 7644SOL     OW23830   4.943   3.220   1.562
 7644SOL    HW123831   4.965   3.206   1.658
 7644SOL    HW223832   4.907   3.134   1.524
 7645SOL     OW23833   3.342   3.585   6.400
 7645SOL    HW123834   3.403   3.664   6.395
 7645SOL    HW223835   3.250   3.614   6.427
 7646SOL     OW23836   0.958   2.288   2.653
 7646SOL    HW123837   0.954   2.277   2.554
 7646SOL    HW223838   0.878   2.244   2.695
 7647SOL     OW23839   0.029   3.133   5.115
 7647SOL    HW123840   0.015   3.211   5.175
 7647SOL    HW223841   0.002   3.157   5.022
 7648SOL     OW23842   2.323   2.251   2.910
 7648SOL    HW123843   2.409   2.224   2.954
 7648SOL    HW223844   2.342   2.285   2.818
 7649SOL     OW23845   6.522   0.482   4.699
 7649SOL    HW123846   6.486   0.389   4.689
 7649SOL    HW223847   6.616   0.478   4.732
 7650SOL     OW23848   4.244   0.698   1.702
 7650SOL    HW123849   4.229   0.707   1.604
 7650SOL    HW223850   4.166   0.735   1.752
 7651SOL     OW23851   2.559   5.066   5.011
 7651SOL    HW123852   2.565   4.975   5.051
 7651SOL    HW223853   2.504   5.062   4.928
 7652SOL     OW23854   5.438   1.340   4.523
 7652SOL    HW123855   5.340   1.359   4.527
 7652SOL    HW223856   5.482   1.373   4.607
 7653SOL     OW23857   0.578   2.101   6.930
 7653SOL    HW123858   0.517   2.173   6.963
 7653SOL    HW223859   0.585   2.106   6.831
 7654SOL     OW23860   6.167   3.397   5.410
 7654SOL    HW123861   6.208   3.454   5.339
 7654SOL    HW223862   6.229   3.392   5.488
 7655SOL     OW23863   2.680   0.604   3.630
 7655SOL    HW123864   2.592   0.624   3.672
 7655SOL    HW223865   2.686   0.651   3.541
 7656SOL     OW23866   6.695   3.677   6.935
 7656SOL    HW123867   6.644   3.708   6.854
 7656SOL    HW223868   6.773   3.622   6.906
 7657SOL     OW23869   1.559   3.617   4.571
 7657SOL    HW123870   1.634   3.557   4.546
 7657SOL    HW223871   1.595   3.703   4.608
 7658SOL     OW23872   2.145   0.630   0.784
 7658SOL    HW123873   2.058   0.580   0.783
 7658SOL    HW223874   2.138   0.709   0.723
 7659SOL     OW23875   4.460   3.976   5.338
 7659SOL    HW123876   4.407   4.060   5.350
 7659SOL    HW223877   4.543   3.996   5.287
 7660SOL     OW23878   6.451   4.735   4.215
 7660SOL    HW123879   6.392   4.664   4.253
 7660SOL    HW223880   6.400   4.790   4.149
 7661SOL     OW23881   4.716   2.578   5.510
 7661SOL    HW123882   4.619   2.586   5.485
 7661SOL    HW223883   4.772   2.576   5.428
 7662SOL     OW23884   1.191   1.947   2.071
 7662SOL    HW123885   1.260   1.906   2.012
 7662SOL    HW223886   1.100   1.922   2.038
 7663SOL     OW23887   6.070   4.943   5.547
 7663SOL    HW123888   6.103   4.964   5.455
 7663SOL    HW223889   6.088   5.021   5.608
 7664SOL     OW23890   3.827   1.532   3.244
 7664SOL    HW123891   3.756   1.512   3.177
 7664SOL    HW223892   3.808   1.619   3.289
 7665SOL     OW23893   4.272   1.698   4.568
 7665SOL    HW123894   4.212   1.778   4.564
 7665SOL    HW223895   4.365   1.727   4.592
 7666SOL     OW23896   6.164   5.715   3.506
 7666SOL    HW123897   6.161   5.703   3.407
 7666SOL    HW223898   6.071   5.714   3.543
 7667SOL     OW23899   4.819   6.180   2.435
 7667SOL    HW123900   4.912   6.145   2.423
 7667SOL    HW223901   4.755   6.103   2.442
 7668SOL     OW23902   2.185   5.235   1.318
 7668SOL    HW123903   2.281   5.224   1.293
 7668SOL    HW223904   2.174   5.318   1.374
 7669SOL     OW23905   2.894   6.688   5.855
 7669SOL    HW123906   2.848   6.653   5.773
 7669SOL    HW223907   2.830   6.745   5.907
 7670SOL     OW23908   0.092   6.465   6.885
 7670SOL    HW123909   0.066   6.511   6.970
 7670SOL    HW223910   0.150   6.387   6.907
 7671SOL     OW23911   5.070   0.973   1.418
 7671SOL    HW123912   4.991   0.987   1.357
 7671SOL    HW223913   5.143   1.035   1.391
 7672SOL     OW23914   5.156   4.628   2.631
 7672SOL    HW123915   5.223   4.609   2.558
 7672SOL    HW223916   5.199   4.614   2.720
 7673SOL     OW23917   0.804   5.038   3.670
 7673SOL    HW123918   0.859   5.119   3.687
 7673SOL    HW223919   0.829   4.966   3.735
 7674SOL     OW23920   3.725   0.131   4.660
 7674SOL    HW123921   3.700   0.062   4.592
 7674SOL    HW223922   3.797   0.094   4.720
 7675SOL     OW23923   3.581   6.647   2.572
 7675SOL    HW123924   3.518   6.711   2.615
 7675SOL    HW223925   3.534   6.562   2.551
 7676SOL     OW23926   3.004   3.060   5.727
 7676SOL    HW123927   3.069   3.055   5.652
 7676SOL    HW223928   3.013   3.149   5.774
 7677SOL     OW23929   6.008   4.478   1.528
 7677SOL    HW123930   5.969   4.411   1.591
 7677SOL    HW223931   5.954   4.562   1.530
 7678SOL     OW23932   1.257   1.571   5.859
 7678SOL    HW123933   1.283   1.643   5.923
 7678SOL    HW223934   1.218   1.612   5.776
 7679SOL     OW23935   1.877   5.208   5.125
 7679SOL    HW123936   1.807   5.141   5.099
 7679SOL    HW223937   1.868   5.230   5.222
 7680SOL     OW23938   1.724   0.594   5.485
 7680SOL    HW123939   1.814   0.584   5.444
 7680SOL    HW223940   1.694   0.689   5.478
 7681SOL     OW23941   2.753   3.441   6.435
 7681SOL    HW123942   2.753   3.459   6.533
 7681SOL    HW223943   2.690   3.365   6.415
 7682SOL     OW23944   2.689   2.167   3.416
 7682SOL    HW123945   2.733   2.150   3.328
 7682SOL    HW223946   2.591   2.146   3.408
 7683SOL     OW23947   0.144   0.914   4.663
 7683SOL    HW123948   0.153   0.829   4.716
 7683SOL    HW223949   0.068   0.906   4.599
 7684SOL     OW23950   4.167   2.209   1.721
 7684SOL    HW123951   4.068   2.222   1.725
 7684SOL    HW223952   4.196   2.149   1.795
 7685SOL     OW23953   2.896   0.870   0.448
 7685SOL    HW123954   2.985   0.892   0.488
 7685SOL    HW223955   2.833   0.844   0.520
 7686SOL     OW23956   5.577   0.622   4.297
 7686SOL    HW123957   5.640   0.699   4.287
 7686SOL    HW223958   5.557   0.584   4.207
 7687SOL     OW23959   5.873   5.359   4.868
 7687SOL    HW123960   5.893   5.382   4.773
 7687SOL    HW223961   5.873   5.259   4.879
 7688SOL     OW23962   1.116   5.078   6.381
 7688SOL    HW123963   1.153   5.073   6.474
 7688SOL    HW223964   1.154   5.004   6.325
 7689SOL     OW23965   4.640   0.192   2.027
 7689SOL    HW123966   4.716   0.211   1.964
 7689SOL    HW223967   4.598   0.278   2.055
 7690SOL     OW23968   6.276   4.744   0.589
 7690SOL    HW123969   6.314   4.684   0.519
 7690SOL    HW223970   6.318   4.834   0.583
 7691SOL     OW23971   4.455   4.549   3.435
 7691SOL    HW123972   4.489   4.617   3.370
 7691SOL    HW223973   4.530   4.488   3.461
 7692SOL     OW23974   1.073   6.396   2.212
 7692SOL    HW123975   1.072   6.308   2.260
 7692SOL    HW223976   1.128   6.388   2.129
 7693SOL     OW23977   2.681   0.969   1.199
 7693SOL    HW123978   2.597   1.018   1.176
 7693SOL    HW223979   2.700   0.981   1.296
 7694SOL     OW23980   6.308   2.328   4.663
 7694SOL    HW123981   6.346   2.356   4.751
 7694SOL    HW223982   6.381   2.292   4.605
 7695SOL     OW23983   6.358   0.414   2.664
 7695SOL    HW123984   6.262   0.396   2.685
 7695SOL    HW223985   6.373   0.512   2.654
 7696SOL     OW23986   0.452   2.778   6.852
 7696SOL    HW123987   0.530   2.785   6.913
 7696SOL    HW223988   0.424   2.869   6.823
 7697SOL     OW23989   4.149   0.385   2.737
 7697SOL    HW123990   4.123   0.481   2.748
 7697SOL    HW223991   4.118   0.332   2.816
 7698SOL     OW23992   6.442   1.752   6.814
 7698SOL    HW123993   6.354   1.775   6.855
 7698SOL    HW223994   6.503   1.830   6.821
 7699SOL     OW23995   3.599   5.458   5.885
 7699SOL    HW123996   3.574   5.481   5.979
 7699SOL    HW223997   3.541   5.384   5.852
 7700SOL     OW23998   4.808   5.703   2.956
 7700SOL    HW123999   4.792   5.715   2.858
 7700SOL    HW224000   4.882   5.637   2.970
 7701SOL     OW24001   0.125   2.614   5.957
 7701SOL    HW124002   0.193   2.561   6.008
 7701SOL    HW224003   0.172   2.669   5.888
 7702SOL     OW24004   4.166   0.196   4.552
 7702SOL    HW124005   4.202   0.233   4.467
 7702SOL    HW224006   4.079   0.240   4.573
 7703SOL     OW24007   6.858   6.842   4.630
 7703SOL    HW124008   6.872   6.818   4.534
 7703SOL    HW224009   6.853   6.759   4.685
 7704SOL     OW24010   6.019   1.401   4.191
 7704SOL    HW124011   6.053   1.495   4.181
 7704SOL    HW224012   5.954   1.398   4.267
 7705SOL     OW24013   2.130   4.716   0.467
 7705SOL    HW124014   2.109   4.755   0.556
 7705SOL    HW224015   2.183   4.632   0.479
 7706SOL     OW24016   3.605   3.130   2.350
 7706SOL    HW124017   3.634   3.035   2.367
 7706SOL    HW224018   3.571   3.138   2.256
 7707SOL     OW24019   6.939   5.947   6.716
 7707SOL    HW124020   6.930   6.022   6.650
 7707SOL    HW224021   6.856   5.892   6.715
 7708SOL     OW24022   2.189   6.643   4.848
 7708SOL    HW124023   2.128   6.584   4.796
 7708SOL    HW224024   2.200   6.608   4.941
 7709SOL     OW24025   0.095   4.735   1.195
 7709SOL    HW124026   0.113   4.761   1.290
 7709SOL    HW224027   0.007   4.687   1.190
 7710SOL     OW24028   1.594   3.492   0.823
 7710SOL    HW124029   1.512   3.436   0.816
 7710SOL    HW224030   1.576   3.572   0.880
 7711SOL     OW24031   6.179   4.384   5.312
 7711SOL    HW124032   6.193   4.287   5.327
 7711SOL    HW224033   6.266   4.428   5.289
 7712SOL     OW24034   6.600   4.803   6.049
 7712SOL    HW124035   6.529   4.797   5.978
 7712SOL    HW224036   6.604   4.897   6.084
 7713SOL     OW24037   1.832   5.024   0.612
 7713SOL    HW124038   1.832   4.975   0.525
 7713SOL    HW224039   1.909   4.993   0.668
 7714SOL     OW24040   6.608   0.665   4.469
 7714SOL    HW124041   6.613   0.583   4.526
 7714SOL    HW224042   6.682   0.662   4.401
 7715SOL     OW24043   2.073   2.634   5.905
 7715SOL    HW124044   2.032   2.669   5.821
 7715SOL    HW224045   2.106   2.710   5.960
 7716SOL     OW24046   0.923   5.506   6.158
 7716SOL    HW124047   0.921   5.538   6.253
 7716SOL    HW224048   0.979   5.423   6.152
 7717SOL     OW24049   1.640   1.820   6.785
 7717SOL    HW124050   1.588   1.794   6.704
 7717SOL    HW224051   1.576   1.852   6.856
 7718SOL     OW24052   1.252   4.510   2.567
 7718SOL    HW124053   1.186   4.481   2.636
 7718SOL    HW224054   1.212   4.498   2.476
 7719SOL     OW24055   1.940   3.714   4.561
 7719SOL    HW124056   1.971   3.807   4.543
 7719SOL    HW224057   1.952   3.693   4.658
 7720SOL     OW24058   6.398   1.556   6.397
 7720SOL    HW124059   6.475   1.526   6.341
 7720SOL    HW224060   6.381   1.488   6.469
 7721SOL     OW24061   0.864   0.541   2.715
 7721SOL    HW124062   0.914   0.457   2.734
 7721SOL    HW224063   0.912   0.594   2.645
 7722SOL     OW24064   2.205   6.032   3.961
 7722SOL    HW124065   2.125   6.045   4.020
 7722SOL    HW224066   2.240   6.121   3.932
 7723SOL     OW24067   4.768   3.726   0.425
 7723SOL    HW124068   4.833   3.774   0.484
 7723SOL    HW224069   4.794   3.629   0.419
 7724SOL     OW24070   2.814   4.115   1.551
 7724SOL    HW124071   2.818   4.159   1.461
 7724SOL    HW224072   2.792   4.018   1.540
 7725SOL     OW24073   5.733   3.102   3.108
 7725SOL    HW124074   5.638   3.129   3.091
 7725SOL    HW224075   5.744   3.005   3.087
 7726SOL     OW24076   0.152   3.704   6.342
 7726SOL    HW124077   0.131   3.673   6.249
 7726SOL    HW224078   0.242   3.747   6.343
 7727SOL     OW24079   4.602   2.464   2.159
 7727SOL    HW124080   4.600   2.562   2.141
 7727SOL    HW224081   4.608   2.448   2.257
 7728SOL     OW24082   2.129   3.148   5.028
 7728SOL    HW124083   2.059   3.082   5.002
 7728SOL    HW224084   2.218   3.102   5.030
 7729SOL     OW24085   5.720   2.293   3.506
 7729SOL    HW124086   5.698   2.383   3.544
 7729SOL    HW224087   5.741   2.230   3.580
 7730SOL     OW24088   6.482   4.484   5.079
 7730SOL    HW124089   6.396   4.520   5.044
 7730SOL    HW224090   6.540   4.560   5.109
 7731SOL     OW24091   5.635   6.897   0.760
 7731SOL    HW124092   5.717   6.840   0.755
 7731SOL    HW224093   5.595   6.906   0.669
 7732SOL     OW24094   4.742   0.519   6.343
 7732SOL    HW124095   4.642   0.531   6.345
 7732SOL    HW224096   4.770   0.490   6.252
 7733SOL     OW24097   6.388   6.072   2.009
 7733SOL    HW124098   6.440   6.140   2.059
 7733SOL    HW224099   6.366   6.107   1.918
 7734SOL     OW24100   3.116   4.168   5.389
 7734SOL    HW124101   3.073   4.119   5.314
 7734SOL    HW224102   3.103   4.267   5.376
 7735SOL     OW24103   6.698   6.250   0.191
 7735SOL    HW124104   6.692   6.175   0.126
 7735SOL    HW224105   6.776   6.308   0.168
 7736SOL     OW24106   3.358   2.907   0.459
 7736SOL    HW124107   3.282   2.972   0.463
 7736SOL    HW224108   3.327   2.818   0.492
 7737SOL     OW24109   4.098   4.716   1.420
 7737SOL    HW124110   4.031   4.657   1.466
 7737SOL    HW224111   4.107   4.689   1.324
 7738SOL     OW24112   2.562   6.497   6.836
 7738SOL    HW124113   2.639   6.536   6.786
 7738SOL    HW224114   2.476   6.529   6.795
 7739SOL     OW24115   1.216   2.213   1.255
 7739SOL    HW124116   1.283   2.139   1.257
 7739SOL    HW224117   1.179   2.221   1.162
 7740SOL     OW24118   1.039   1.245   4.041
 7740SOL    HW124119   1.047   1.328   3.986
 7740SOL    HW224120   0.975   1.260   4.116
 7741SOL     OW24121   1.724   4.668   6.418
 7741SOL    HW124122   1.778   4.585   6.406
 7741SOL    HW224123   1.681   4.693   6.331
 7742SOL     OW24124   3.538   1.520   3.942
 7742SOL    HW124125   3.638   1.520   3.947
 7742SOL    HW224126   3.500   1.523   4.034
 7743SOL     OW24127   5.364   1.076   6.259
 7743SOL    HW124128   5.345   1.143   6.187
 7743SOL    HW224129   5.423   1.118   6.329
 7744SOL     OW24130   0.834   5.614   4.559
 7744SOL    HW124131   0.841   5.709   4.590
 7744SOL    HW224132   0.887   5.555   4.619
 7745SOL     OW24133   1.875   6.426   0.189
 7745SOL    HW124134   1.903   6.519   0.163
 7745SOL    HW224135   1.876   6.367   0.108
 7746SOL     OW24136   1.219   6.481   1.159
 7746SOL    HW124137   1.236   6.458   1.064
 7746SOL    HW224138   1.265   6.566   1.183
 7747SOL     OW24139   0.520   6.019   0.759
 7747SOL    HW124140   0.533   6.070   0.845
 7747SOL    HW224141   0.553   5.926   0.771
 7748SOL     OW24142   4.207   2.750   5.665
 7748SOL    HW124143   4.147   2.825   5.637
 7748SOL    HW224144   4.152   2.670   5.687
 7749SOL     OW24145   3.613   3.386   3.984
 7749SOL    HW124146   3.650   3.315   3.924
 7749SOL    HW224147   3.537   3.432   3.939
 7750SOL     OW24148   5.855   4.808   5.666
 7750SOL    HW124149   5.897   4.772   5.749
 7750SOL    HW224150   5.921   4.864   5.617
 7751SOL     OW24151   0.044   1.344   5.197
 7751SOL    HW124152   0.082   1.375   5.109
 7751SOL    HW224153   6.960   1.337   5.190
 7752SOL     OW24154   6.148   5.569   5.121
 7752SOL    HW124155   6.199   5.544   5.039
 7752SOL    HW224156   6.205   5.555   5.202
 7753SOL     OW24157   1.992   0.982   4.289
 7753SOL    HW124158   1.950   0.918   4.225
 7753SOL    HW224159   2.009   1.069   4.243
 7754SOL     OW24160   5.712   0.309   0.942
 7754SOL    HW124161   5.642   0.259   0.891
 7754SOL    HW224162   5.700   0.407   0.926
 7755SOL     OW24163   0.267   6.013   5.114
 7755SOL    HW124164   0.201   6.089   5.118
 7755SOL    HW224165   0.359   6.049   5.129
 7756SOL     OW24166   2.796   4.869   2.181
 7756SOL    HW124167   2.831   4.845   2.091
 7756SOL    HW224168   2.871   4.899   2.240
 7757SOL     OW24169   4.587   6.334   5.553
 7757SOL    HW124170   4.579   6.429   5.583
 7757SOL    HW224171   4.532   6.321   5.471
 7758SOL     OW24172   2.580   2.359   5.977
 7758SOL    HW124173   2.614   2.453   5.991
 7758SOL    HW224174   2.484   2.362   5.949
 7759SOL     OW24175   1.982   0.332   4.302
 7759SOL    HW124176   1.917   0.406   4.287
 7759SOL    HW224177   2.072   0.370   4.326
 7760SOL     OW24178   5.442   3.122   1.977
 7760SOL    HW124179   5.391   3.182   2.039
 7760SOL    HW224180   5.530   3.165   1.955
 7761SOL     OW24181   2.917   6.797   6.538
 7761SOL    HW124182   2.977   6.740   6.594
 7761SOL    HW224183   2.941   6.786   6.441
 7762SOL     OW24184   4.116   1.540   0.380
 7762SOL    HW124185   4.191   1.589   0.335
 7762SOL    HW224186   4.137   1.528   0.477
 7763SOL     OW24187   1.733   1.806   1.169
 7763SOL    HW124188   1.675   1.865   1.114
 7763SOL    HW224189   1.814   1.780   1.117
 7764SOL     OW24190   3.852   2.941   2.178
 7764SOL    HW124191   3.901   3.028   2.187
 7764SOL    HW224192   3.847   2.896   2.267
 7765SOL     OW24193   6.167   3.389   2.947
 7765SOL    HW124194   6.206   3.318   3.006
 7765SOL    HW224195   6.084   3.354   2.902
 7766SOL     OW24196   6.226   1.479   7.005
 7766SOL    HW124197   6.128   1.463   7.010
 7766SOL    HW224198   6.249   1.565   0.036
 7767SOL     OW24199   3.779   6.268   3.967
 7767SOL    HW124200   3.722   6.199   4.012
 7767SOL    HW224201   3.775   6.254   3.868
 7768SOL     OW24202   3.718   4.897   2.193
 7768SOL    HW124203   3.705   4.860   2.101
 7768SOL    HW224204   3.634   4.883   2.246
 7769SOL     OW24205   5.138   2.025   0.677
 7769SOL    HW124206   5.077   1.997   0.603
 7769SOL    HW224207   5.233   2.014   0.649
 7770SOL     OW24208   3.027   4.846   1.612
 7770SOL    HW124209   2.937   4.853   1.655
 7770SOL    HW224210   3.096   4.882   1.675
 7771SOL     OW24211   2.982   2.031   5.308
 7771SOL    HW124212   2.904   1.980   5.344
 7771SOL    HW224213   2.950   2.095   5.239
 7772SOL     OW24214   4.448   0.775   4.032
 7772SOL    HW124215   4.406   0.817   3.951
 7772SOL    HW224216   4.466   0.846   4.100
 7773SOL     OW24217   4.464   3.537   5.915
 7773SOL    HW124218   4.543   3.573   5.867
 7773SOL    HW224219   4.470   3.561   6.012
 7774SOL     OW24220   5.599   1.639   6.492
 7774SOL    HW124221   5.665   1.571   6.459
 7774SOL    HW224222   5.533   1.659   6.420
 7775SOL     OW24223   3.711   6.888   2.585
 7775SOL    HW124224   3.667   6.805   2.551
 7775SOL    HW224225   3.660   6.923   2.664
 7776SOL     OW24226   3.810   3.171   6.366
 7776SOL    HW124227   3.794   3.142   6.272
 7776SOL    HW224228   3.844   3.266   6.366
 7777SOL     OW24229   2.351   1.347   6.655
 7777SOL    HW124230   2.300   1.331   6.570
 7777SOL    HW224231   2.291   1.391   6.722
 7778SOL     OW24232   5.788   0.135   6.768
 7778SOL    HW124233   5.760   0.133   6.672
 7778SOL    HW224234   5.717   0.179   6.823
 7779SOL     OW24235   3.569   2.147   0.914
 7779SOL    HW124236   3.551   2.098   0.999
 7779SOL    HW224237   3.528   2.098   0.837
 7780SOL     OW24238   1.121   6.318   4.041
 7780SOL    HW124239   1.131   6.416   4.058
 7780SOL    HW224240   1.211   6.279   4.022
 7781SOL     OW24241   1.511   3.545   5.904
 7781SOL    HW124242   1.561   3.465   5.873
 7781SOL    HW224243   1.487   3.535   6.001
 7782SOL     OW24244   2.734   4.065   6.610
 7782SOL    HW124245   2.833   4.061   6.622
 7782SOL    HW224246   2.706   4.003   6.537
 7783SOL     OW24247   2.374   6.430   6.638
 7783SOL    HW124248   2.280   6.433   6.672
 7783SOL    HW224249   2.375   6.393   6.545
 7784SOL     OW24250   0.830   2.634   6.908
 7784SOL    HW124251   0.758   2.703   6.908
 7784SOL    HW224252   0.915   2.675   6.940
 7785SOL     OW24253   2.229   6.553   4.260
 7785SOL    HW124254   2.276   6.468   4.240
 7785SOL    HW224255   2.253   6.622   4.192
 7786SOL     OW24256   3.074   4.782   5.225
 7786SOL    HW124257   3.016   4.848   5.272
 7786SOL    HW224258   3.017   4.711   5.185
 7787SOL     OW24259   2.328   2.706   4.959
 7787SOL    HW124260   2.328   2.800   4.993
 7787SOL    HW224261   2.382   2.700   4.876
 7788SOL     OW24262   0.883   1.640   1.732
 7788SOL    HW124263   0.905   1.671   1.825
 7788SOL    HW224264   0.832   1.711   1.685
 7789SOL     OW24265   2.548   0.352   1.263
 7789SOL    HW124266   2.522   0.363   1.166
 7789SOL    HW224267   2.478   0.395   1.321
 7790SOL     OW24268   6.578   4.096   3.093
 7790SOL    HW124269   6.543   4.073   3.184
 7790SOL    HW224270   6.643   4.171   3.100
 7791SOL     OW24271   2.709   5.353   4.533
 7791SOL    HW124272   2.759   5.363   4.619
 7791SOL    HW224273   2.693   5.256   4.515
 7792SOL     OW24274   2.380   6.145   6.361
 7792SOL    HW124275   2.375   6.121   6.264
 7792SOL    HW224276   2.419   6.069   6.412
 7793SOL     OW24277   1.263   1.099   5.914
 7793SOL    HW124278   1.234   1.194   5.904
 7793SOL    HW224279   1.282   1.059   5.824
 7794SOL     OW24280   5.192   5.552   4.360
 7794SOL    HW124281   5.204   5.648   4.334
 7794SOL    HW224282   5.187   5.546   4.460
 7795SOL     OW24283   2.148   4.085   5.507
 7795SOL    HW124284   2.212   4.019   5.468
 7795SOL    HW224285   2.064   4.086   5.452
 7796SOL     OW24286   3.814   3.970   3.283
 7796SOL    HW124287   3.772   3.971   3.373
 7796SOL    HW224288   3.895   3.912   3.285
 7797SOL     OW24289   0.061   6.349   3.088
 7797SOL    HW124290   0.047   6.262   3.040
 7797SOL    HW224291   0.150   6.387   3.062
 7798SOL     OW24292   3.424   5.481   0.177
 7798SOL    HW124293   3.515   5.480   0.218
 7798SOL    HW224294   3.417   5.556   0.112
 7799SOL     OW24295   6.990   5.746   1.084
 7799SOL    HW124296   6.978   5.833   1.131
 7799SOL    HW224297   6.903   5.720   1.041
 7800SOL     OW24298   0.259   4.840   1.928
 7800SOL    HW124299   0.176   4.894   1.913
 7800SOL    HW224300   0.326   4.895   1.978
 7801SOL     OW24301   2.223   1.530   0.507
 7801SOL    HW124302   2.264   1.581   0.583
 7801SOL    HW224303   2.290   1.466   0.469
 7802SOL     OW24304   5.737   2.531   1.789
 7802SOL    HW124305   5.742   2.630   1.776
 7802SOL    HW224306   5.697   2.512   1.879
 7803SOL     OW24307   4.000   3.730   5.660
 7803SOL    HW124308   3.944   3.813   5.664
 7803SOL    HW224309   3.943   3.650   5.675
 7804SOL     OW24310   5.082   1.492   4.831
 7804SOL    HW124311   5.088   1.575   4.885
 7804SOL    HW224312   5.150   1.426   4.864
 7805SOL     OW24313   5.348   2.445   2.198
 7805SOL    HW124314   5.357   2.503   2.118
 7805SOL    HW224315   5.289   2.489   2.266
 7806SOL     OW24316   5.448   2.953   5.961
 7806SOL    HW124317   5.545   2.967   5.981
 7806SOL    HW224318   5.415   2.874   6.012
 7807SOL     OW24319   6.986   4.501   6.494
 7807SOL    HW124320   6.954   4.497   6.399
 7807SOL    HW224321   0.037   4.428   6.509
 7808SOL     OW24322   0.382   1.367   4.795
 7808SOL    HW124323   0.481   1.366   4.790
 7808SOL    HW224324   0.351   1.290   4.852
 7809SOL     OW24325   2.071   5.397   4.409
 7809SOL    HW124326   2.088   5.463   4.337
 7809SOL    HW224327   2.150   5.391   4.469
 7810SOL     OW24328   2.926   0.667   5.559
 7810SOL    HW124329   2.949   0.754   5.517
 7810SOL    HW224330   2.944   0.670   5.657
 7811SOL     OW24331   5.137   4.625   3.354
 7811SOL    HW124332   5.177   4.545   3.398
 7811SOL    HW224333   5.096   4.684   3.424
 7812SOL     OW24334   1.562   1.790   4.321
 7812SOL    HW124335   1.648   1.741   4.336
 7812SOL    HW224336   1.558   1.869   4.382
 7813SOL     OW24337   5.954   2.954   6.620
 7813SOL    HW124338   5.938   2.855   6.610
 7813SOL    HW224339   6.008   2.970   6.702
 7814SOL     OW24340   6.833   3.145   3.558
 7814SOL    HW124341   6.832   3.243   3.578
 7814SOL    HW224342   6.744   3.106   3.582
 7815SOL     OW24343   5.816   1.719   6.873
 7815SOL    HW124344   5.771   1.763   6.951
 7815SOL    HW224345   5.768   1.744   6.789
 7816SOL     OW24346   0.523   3.632   5.771
 7816SOL    HW124347   0.575   3.629   5.857
 7816SOL    HW224348   0.514   3.539   5.734
 7817SOL     OW24349   5.671   4.214   4.463
 7817SOL    HW124350   5.625   4.250   4.381
 7817SOL    HW224351   5.762   4.181   4.439
 7818SOL     OW24352   6.515   6.601   1.338
 7818SOL    HW124353   6.451   6.529   1.313
 7818SOL    HW224354   6.483   6.647   1.421
 7819SOL     OW24355   6.922   2.641   1.431
 7819SOL    HW124356   6.867   2.683   1.503
 7819SOL    HW224357   6.863   2.582   1.375
 7820SOL     OW24358   1.801   1.695   6.025
 7820SOL    HW124359   1.856   1.612   6.015
 7820SOL    HW224360   1.854   1.773   5.993
 7821SOL     OW24361   3.837   5.865   0.916
 7821SOL    HW124362   3.902   5.792   0.937
 7821SOL    HW224363   3.759   5.827   0.866
 7822SOL     OW24364   0.881   5.784   5.151
 7822SOL    HW124365   0.886   5.750   5.057
 7822SOL    HW224366   0.970   5.821   5.177
 7823SOL     OW24367   2.349   4.407   5.067
 7823SOL    HW124368   2.393   4.353   5.139
 7823SOL    HW224369   2.252   4.420   5.090
 7824SOL     OW24370   0.131   2.719   5.201
 7824SOL    HW124371   0.091   2.742   5.111
 7824SOL    HW224372   0.171   2.628   5.197
 7825SOL     OW24373   2.094   2.401   6.451
 7825SOL    HW124374   2.057   2.389   6.543
 7825SOL    HW224375   2.039   2.349   6.386
 7826SOL     OW24376   6.709   2.370   6.864
 7826SOL    HW124377   6.740   2.307   6.935
 7826SOL    HW224378   6.774   2.446   6.856
 7827SOL     OW24379   7.012   6.386   2.609
 7827SOL    HW124380   0.059   6.359   2.536
 7827SOL    HW224381   6.921   6.348   2.591
 7828SOL     OW24382   6.929   3.561   6.848
 7828SOL    HW124383   6.901   3.526   6.759
 7828SOL    HW224384   6.985   3.643   6.836
 7829SOL     OW24385   3.298   2.892   1.397
 7829SOL    HW124386   3.379   2.880   1.454
 7829SOL    HW224387   3.217   2.867   1.449
 7830SOL     OW24388   3.037   5.567   4.668
 7830SOL    HW124389   3.065   5.471   4.662
 7830SOL    HW224390   3.022   5.603   4.576
 7831SOL     OW24391   1.903   1.663   1.380
 7831SOL    HW124392   1.883   1.695   1.288
 7831SOL    HW224393   1.882   1.735   1.446
 7832SOL     OW24394   5.887   0.655   5.208
 7832SOL    HW124395   5.877   0.556   5.204
 7832SOL    HW224396   5.821   0.698   5.146
 7833SOL     OW24397   1.668   0.276   4.253
 7833SOL    HW124398   1.673   0.360   4.199
 7833SOL    HW224399   1.573   0.257   4.277
 7834SOL     OW24400   6.509   2.564   4.204
 7834SOL    HW124401   6.564   2.571   4.120
 7834SOL    HW224402   6.570   2.562   4.283
 7835SOL     OW24403   4.187   1.841   5.356
 7835SOL    HW124404   4.104   1.861   5.407
 7835SOL    HW224405   4.186   1.745   5.327
 7836SOL     OW24406   3.566   4.251   5.086
 7836SOL    HW124407   3.638   4.206   5.032
 7836SOL    HW224408   3.484   4.193   5.086
 7837SOL     OW24409   6.022   6.496   0.271
 7837SOL    HW124410   5.996   6.404   0.240
 7837SOL    HW224411   6.115   6.493   0.307
 7838SOL     OW24412   5.366   5.435   1.323
 7838SOL    HW124413   5.339   5.514   1.377
 7838SOL    HW224414   5.444   5.390   1.366
 7839SOL     OW24415   6.318   4.432   4.684
 7839SOL    HW124416   6.298   4.389   4.596
 7839SOL    HW224417   6.407   4.399   4.717
 7840SOL     OW24418   2.044   4.410   3.481
 7840SOL    HW124419   1.997   4.440   3.398
 7840SOL    HW224420   2.134   4.375   3.458
 7841SOL     OW24421   4.938   2.092   6.019
 7841SOL    HW124422   4.912   2.181   5.981
 7841SOL    HW224423   5.022   2.102   6.072
 7842SOL     OW24424   1.865   1.154   2.665
 7842SOL    HW124425   1.852   1.091   2.742
 7842SOL    HW224426   1.933   1.117   2.602
 7843SOL     OW24427   0.425   6.729   4.065
 7843SOL    HW124428   0.364   6.649   4.063
 7843SOL    HW224429   0.458   6.748   3.973
 7844SOL     OW24430   3.299   0.999   2.566
 7844SOL    HW124431   3.327   0.928   2.631
 7844SOL    HW224432   3.332   0.976   2.475
 7845SOL     OW24433   5.927   1.269   1.767
 7845SOL    HW124434   5.920   1.314   1.856
 7845SOL    HW224435   5.843   1.285   1.715
 7846SOL     OW24436   1.178   2.529   0.200
 7846SOL    HW124437   1.158   2.493   0.108
 7846SOL    HW224438   1.265   2.491   0.232
 7847SOL     OW24439   5.906   2.378   4.228
 7847SOL    HW124440   5.984   2.349   4.283
 7847SOL    HW224441   5.828   2.318   4.245
 7848SOL     OW24442   2.730   4.921   0.727
 7848SOL    HW124443   2.731   4.957   0.820
 7848SOL    HW224444   2.645   4.871   0.712
 7849SOL     OW24445   5.356   3.680   5.535
 7849SOL    HW124446   5.292   3.633   5.597
 7849SOL    HW224447   5.332   3.660   5.441
 7850SOL     OW24448   6.711   1.515   3.593
 7850SOL    HW124449   6.756   1.604   3.589
 7850SOL    HW224450   6.707   1.484   3.689
 7851SOL     OW24451   1.002   4.328   1.411
 7851SOL    HW124452   0.914   4.371   1.392
 7851SOL    HW224453   1.030   4.273   1.332
 7852SOL     OW24454   2.302   2.029   0.413
 7852SOL    HW124455   2.366   2.049   0.339
 7852SOL    HW224456   2.352   2.028   0.500
 7853SOL     OW24457   3.802   3.005   1.313
 7853SOL    HW124458   3.736   3.031   1.243
 7853SOL    HW224459   3.792   3.065   1.393
 7854SOL     OW24460   4.354   1.914   6.060
 7854SOL    HW124461   4.431   1.965   6.097
 7854SOL    HW224462   4.386   1.825   6.027
 7855SOL     OW24463   5.421   0.147   4.280
 7855SOL    HW124464   5.450   0.148   4.185
 7855SOL    HW224465   5.367   0.229   4.300
 7856SOL     OW24466   2.165   5.337   4.788
 7856SOL    HW124467   2.226   5.379   4.720
 7856SOL    HW224468   2.070   5.355   4.764
 7857SOL     OW24469   5.365   3.825   0.096
 7857SOL    HW124470   5.453   3.872   0.095
 7857SOL    HW224471   5.296   3.884   0.137
 7858SOL     OW24472   0.368   5.134   5.829
 7858SOL    HW124473   0.448   5.183   5.864
 7858SOL    HW224474   0.300   5.125   5.901
 7859SOL     OW24475   5.145   2.788   6.213
 7859SOL    HW124476   5.144   2.792   6.313
 7859SOL    HW224477   5.239   2.778   6.181
 7860SOL     OW24478   2.901   0.781   5.103
 7860SOL    HW124479   2.896   0.776   5.004
 7860SOL    HW224480   2.829   0.842   5.137
 7861SOL     OW24481   2.550   5.770   1.270
 7861SOL    HW124482   2.455   5.740   1.273
 7861SOL    HW224483   2.604   5.718   1.336
 7862SOL     OW24484   3.074   6.023   1.254
 7862SOL    HW124485   3.137   6.013   1.331
 7862SOL    HW224486   3.032   5.934   1.234
 7863SOL     OW24487   6.784   4.597   3.575
 7863SOL    HW124488   6.863   4.545   3.542
 7863SOL    HW224489   6.744   4.649   3.499
 7864SOL     OW24490   2.552   6.014   5.745
 7864SOL    HW124491   2.506   5.925   5.750
 7864SOL    HW224492   2.640   6.004   5.700
 7865SOL     OW24493   6.569   6.400   3.981
 7865SOL    HW124494   6.646   6.457   3.953
 7865SOL    HW224495   6.537   6.428   4.071
 7866SOL     OW24496   1.857   0.762   6.178
 7866SOL    HW124497   1.763   0.760   6.213
 7866SOL    HW224498   1.913   0.697   6.229
 7867SOL     OW24499   5.395   0.486   3.798
 7867SOL    HW124500   5.423   0.582   3.804
 7867SOL    HW224501   5.447   0.441   3.725
 7868SOL     OW24502   4.024   6.308   0.843
 7868SOL    HW124503   4.123   6.319   0.853
 7868SOL    HW224504   3.987   6.386   0.794
 7869SOL     OW24505   5.669   3.866   5.483
 7869SOL    HW124506   5.664   3.771   5.516
 7869SOL    HW224507   5.764   3.897   5.485
 7870SOL     OW24508   4.446   6.112   5.001
 7870SOL    HW124509   4.476   6.205   5.024
 7870SOL    HW224510   4.385   6.078   5.073
 7871SOL     OW24511   5.345   1.339   2.295
 7871SOL    HW124512   5.266   1.349   2.235
 7871SOL    HW224513   5.367   1.242   2.304
 7872SOL     OW24514   1.846   5.334   2.416
 7872SOL    HW124515   1.769   5.369   2.362
 7872SOL    HW224516   1.814   5.308   2.507
 7873SOL     OW24517   0.021   1.159   0.683
 7873SOL    HW124518   6.950   1.187   0.724
 7873SOL    HW224519   0.096   1.181   0.744
 7874SOL     OW24520   5.674   2.652   1.315
 7874SOL    HW124521   5.626   2.670   1.400
 7874SOL    HW224522   5.648   2.563   1.279
 7875SOL     OW24523   4.235   4.030   6.408
 7875SOL    HW124524   4.174   3.988   6.341
 7875SOL    HW224525   4.328   3.993   6.396
 7876SOL     OW24526   0.578   0.190   2.786
 7876SOL    HW124527   0.537   0.127   2.720
 7876SOL    HW224528   0.584   0.281   2.746
 7877SOL     OW24529   6.677   1.658   3.171
 7877SOL    HW124530   6.580   1.670   3.193
 7877SOL    HW224531   6.693   1.688   3.076
 7878SOL     OW24532   4.619   4.772   3.683
 7878SOL    HW124533   4.537   4.822   3.712
 7878SOL    HW224534   4.621   4.765   3.584
 7879SOL     OW24535   2.645   4.941   3.561
 7879SOL    HW124536   2.585   4.882   3.615
 7879SOL    HW224537   2.685   4.888   3.486
 7880SOL     OW24538   2.050   3.538   1.411
 7880SOL    HW124539   2.076   3.556   1.506
 7880SOL    HW224540   2.065   3.620   1.356
 7881SOL     OW24541   4.964   3.728   4.287
 7881SOL    HW124542   4.926   3.793   4.353
 7881SOL    HW224543   4.953   3.635   4.322
 7882SOL     OW24544   2.331   3.190   1.084
 7882SOL    HW124545   2.428   3.200   1.105
 7882SOL    HW224546   2.287   3.281   1.083
 7883SOL     OW24547   0.881   1.139   5.009
 7883SOL    HW124548   0.871   1.203   5.085
 7883SOL    HW224549   0.952   1.073   5.031
 7884SOL     OW24550   0.623   3.003   4.727
 7884SOL    HW124551   0.642   2.945   4.647
 7884SOL    HW224552   0.558   2.957   4.787
 7885SOL     OW24553   5.798   5.391   0.177
 7885SOL    HW124554   5.870   5.432   0.234
 7885SOL    HW224555   5.834   5.311   0.129
 7886SOL     OW24556   4.660   5.637   6.809
 7886SOL    HW124557   4.656   5.709   6.739
 7886SOL    HW224558   4.741   5.580   6.793
 7887SOL     OW24559   4.870   2.130   0.018
 7887SOL    HW124560   4.877   2.227   0.041
 7887SOL    HW224561   4.781   2.095   0.049
 7888SOL     OW24562   4.718   0.610   4.826
 7888SOL    HW124563   4.643   0.547   4.849
 7888SOL    HW224564   4.681   0.702   4.813
 7889SOL     OW24565   0.141   5.898   2.340
 7889SOL    HW124566   0.093   5.814   2.365
 7889SOL    HW224567   0.177   5.889   2.247
 7890SOL     OW24568   1.804   4.057   2.430
 7890SOL    HW124569   1.900   4.083   2.416
 7890SOL    HW224570   1.758   4.048   2.342
 7891SOL     OW24571   2.545   4.581   1.930
 7891SOL    HW124572   2.537   4.672   1.969
 7891SOL    HW224573   2.640   4.551   1.935
 7892SOL     OW24574   1.974   2.078   5.419
 7892SOL    HW124575   2.006   2.093   5.513
 7892SOL    HW224576   2.053   2.064   5.359
 7893SOL     OW24577   5.674   6.243   0.913
 7893SOL    HW124578   5.705   6.197   0.996
 7893SOL    HW224579   5.611   6.317   0.937
 7894SOL     OW24580   2.487   6.390   1.903
 7894SOL    HW124581   2.514   6.332   1.827
 7894SOL    HW224582   2.505   6.486   1.880
 7895SOL     OW24583   6.011   1.075   4.364
 7895SOL    HW124584   5.965   1.106   4.447
 7895SOL    HW224585   6.011   1.148   4.297
 7896SOL     OW24586   5.345   4.041   5.116
 7896SOL    HW124587   5.275   4.111   5.128
 7896SOL    HW224588   5.318   3.979   5.043
 7897SOL     OW24589   2.814   3.596   6.676
 7897SOL    HW124590   2.759   3.520   6.710
 7897SOL    HW224591   2.760   3.652   6.614
 7898SOL     OW24592   4.048   2.234   3.907
 7898SOL    HW124593   4.058   2.333   3.911
 7898SOL    HW224594   4.045   2.204   3.811
 7899SOL     OW24595   5.577   2.502   2.714
 7899SOL    HW124596   5.566   2.417   2.662
 7899SOL    HW224597   5.507   2.507   2.785
 7900SOL     OW24598   1.852   5.812   1.180
 7900SOL    HW124599   1.779   5.758   1.221
 7900SOL    HW224600   1.895   5.760   1.106
 7901SOL     OW24601   6.722   6.488   6.562
 7901SOL    HW124602   6.820   6.494   6.582
 7901SOL    HW224603   6.709   6.453   6.470
 7902SOL     OW24604   4.542   4.382   0.748
 7902SOL    HW124605   4.534   4.352   0.653
 7902SOL    HW224606   4.479   4.328   0.805
 7903SOL     OW24607   6.586   1.673   0.366
 7903SOL    HW124608   6.512   1.725   0.323
 7903SOL    HW224609   6.583   1.578   0.333
 7904SOL     OW24610   0.072   1.284   2.531
 7904SOL    HW124611   0.074   1.384   2.528
 7904SOL    HW224612   6.997   1.253   2.561
 7905SOL     OW24613   4.354   0.680   1.201
 7905SOL    HW124614   4.335   0.595   1.151
 7905SOL    HW224615   4.377   0.752   1.136
 7906SOL     OW24616   5.463   5.862   6.708
 7906SOL    HW124617   5.435   5.824   6.796
 7906SOL    HW224618   5.468   5.789   6.639
 7907SOL     OW24619   0.175   2.873   3.702
 7907SOL    HW124620   0.241   2.927   3.754
 7907SOL    HW224621   0.084   2.881   3.744
 7908SOL     OW24622   6.515   1.782   3.727
 7908SOL    HW124623   6.578   1.782   3.650
 7908SOL    HW224624   6.550   1.841   3.800
 7909SOL     OW24625   4.784   4.138   4.931
 7909SOL    HW124626   4.717   4.209   4.955
 7909SOL    HW224627   4.874   4.180   4.921
 7910SOL     OW24628   4.829   3.135   5.628
 7910SOL    HW124629   4.742   3.184   5.635
 7910SOL    HW224630   4.897   3.195   5.586
 7911SOL     OW24631   6.646   4.573   0.563
 7911SOL    HW124632   6.691   4.510   0.501
 7911SOL    HW224633   6.587   4.522   0.626
 7912SOL     OW24634   5.815   4.379   6.190
 7912SOL    HW124635   5.764   4.459   6.220
 7912SOL    HW224636   5.913   4.395   6.203
 7913SOL     OW24637   6.841   5.375   6.813
 7913SOL    HW124638   6.750   5.411   6.833
 7913SOL    HW224639   6.843   5.340   6.719
 7914SOL     OW24640   6.310   3.784   1.361
 7914SOL    HW124641   6.368   3.704   1.376
 7914SOL    HW224642   6.241   3.763   1.292
 7915SOL     OW24643   4.035   1.491   3.645
 7915SOL    HW124644   3.941   1.457   3.636
 7915SOL    HW224645   4.039   1.586   3.613
 7916SOL     OW24646   5.687   2.974   5.705
 7916SOL    HW124647   5.615   2.939   5.645
 7916SOL    HW224648   5.708   3.069   5.679
 7917SOL     OW24649   4.097   3.718   4.652
 7917SOL    HW124650   4.077   3.804   4.699
 7917SOL    HW224651   4.097   3.734   4.553
 7918SOL     OW24652   6.295   1.273   2.893
 7918SOL    HW124653   6.336   1.188   2.859
 7918SOL    HW224654   6.332   1.292   2.984
 7919SOL     OW24655   5.298   5.286   2.254
 7919SOL    HW124656   5.210   5.275   2.299
 7919SOL    HW224657   5.371   5.259   2.317
 7920SOL     OW24658   0.279   5.170   1.735
 7920SOL    HW124659   0.262   5.074   1.711
 7920SOL    HW224660   0.372   5.179   1.771
 7921SOL     OW24661   2.218   6.827   1.761
 7921SOL    HW124662   2.127   6.858   1.735
 7921SOL    HW224663   2.262   6.782   1.684
 7922SOL     OW24664   0.966   5.523   6.449
 7922SOL    HW124665   1.006   5.590   6.512
 7922SOL    HW224666   0.869   5.513   6.469
 7923SOL     OW24667   1.053   1.471   3.364
 7923SOL    HW124668   1.122   1.532   3.324
 7923SOL    HW224669   1.067   1.378   3.329
 7924SOL     OW24670   2.948   0.267   3.894
 7924SOL    HW124671   2.876   0.240   3.957
 7924SOL    HW224672   2.911   0.276   3.801
 7925SOL     OW24673   6.234   1.303   6.377
 7925SOL    HW124674   6.295   1.225   6.366
 7925SOL    HW224675   6.263   1.377   6.317
 7926SOL     OW24676   3.215   0.609   2.109
 7926SOL    HW124677   3.238   0.692   2.159
 7926SOL    HW224678   3.152   0.553   2.163
 7927SOL     OW24679   3.963   4.775   5.282
 7927SOL    HW124680   3.977   4.858   5.336
 7927SOL    HW224681   4.044   4.759   5.225
 7928SOL     OW24682   2.051   5.188   2.349
 7928SOL    HW124683   1.976   5.254   2.351
 7928SOL    HW224684   2.023   5.105   2.399
 7929SOL     OW24685   4.060   3.807   4.345
 7929SOL    HW124686   4.072   3.708   4.336
 7929SOL    HW224687   4.037   3.846   4.256
 7930SOL     OW24688   4.166   5.385   3.832
 7930SOL    HW124689   4.156   5.286   3.838
 7930SOL    HW224690   4.076   5.427   3.822
 7931SOL     OW24691   2.269   2.170   0.778
 7931SOL    HW124692   2.274   2.071   0.791
 7931SOL    HW224693   2.180   2.194   0.740
 7932SOL     OW24694   2.272   6.872   0.044
 7932SOL    HW124695   2.256   6.969   0.024
 7932SOL    HW224696   2.191   6.835   0.091
 7933SOL     OW24697   1.307   0.101   6.679
 7933SOL    HW124698   1.235   0.141   6.622
 7933SOL    HW224699   1.268   0.027   6.734
 7934SOL     OW24700   3.434   3.994   0.213
 7934SOL    HW124701   3.414   4.035   0.302
 7934SOL    HW224702   3.461   4.066   0.149
 7935SOL     OW24703   4.756   6.353   1.169
 7935SOL    HW124704   4.667   6.308   1.163
 7935SOL    HW224705   4.749   6.432   1.231
 7936SOL     OW24706   4.219   6.232   3.084
 7936SOL    HW124707   4.185   6.178   3.007
 7936SOL    HW224708   4.179   6.324   3.081
 7937SOL     OW24709   6.007   6.201   5.750
 7937SOL    HW124710   5.971   6.156   5.832
 7937SOL    HW224711   6.094   6.246   5.772
 7938SOL     OW24712   4.516   5.514   4.692
 7938SOL    HW124713   4.587   5.585   4.692
 7938SOL    HW224714   4.429   5.554   4.662
 7939SOL     OW24715   1.065   0.949   5.493
 7939SOL    HW124716   1.159   0.965   5.525
 7939SOL    HW224717   1.022   0.879   5.550
 7940SOL     OW24718   2.138   5.467   1.512
 7940SOL    HW124719   2.198   5.504   1.584
 7940SOL    HW224720   2.069   5.536   1.489
 7941SOL     OW24721   0.568   0.867   0.664
 7941SOL    HW124722   0.514   0.912   0.593
 7941SOL    HW224723   0.584   0.930   0.740
 7942SOL     OW24724   0.199   0.002   1.814
 7942SOL    HW124725   0.178   0.075   1.879
 7942SOL    HW224726   0.296   6.994   1.819
 7943SOL     OW24727   5.747   2.157   0.841
 7943SOL    HW124728   5.664   2.135   0.790
 7943SOL    HW224729   5.825   2.107   0.802
 7944SOL     OW24730   0.361   4.056   1.126
 7944SOL    HW124731   0.276   4.032   1.174
 7944SOL    HW224732   0.339   4.108   1.044
 7945SOL     OW24733   5.507   6.398   2.956
 7945SOL    HW124734   5.421   6.436   2.922
 7945SOL    HW224735   5.508   6.299   2.939
 7946SOL     OW24736   1.836   2.386   5.731
 7946SOL    HW124737   1.901   2.428   5.668
 7946SOL    HW224738   1.876   2.381   5.822
 7947SOL     OW24739   4.272   2.813   6.596
 7947SOL    HW124740   4.356   2.809   6.649
 7947SOL    HW224741   4.193   2.819   6.657
 7948SOL     OW24742   6.746   6.862   0.370
 7948SOL    HW124743   6.757   6.785   0.433
 7948SOL    HW224744   6.816   6.931   0.389
 7949SOL     OW24745   5.128   5.171   3.778
 7949SOL    HW124746   5.035   5.180   3.741
 7949SOL    HW224747   5.159   5.260   3.812
 7950SOL     OW24748   4.419   4.801   4.352
 7950SOL    HW124749   4.374   4.799   4.262
 7950SOL    HW224750   4.453   4.893   4.370
 7951SOL     OW24751   3.607   3.332   0.766
 7951SOL    HW124752   3.573   3.291   0.681
 7951SOL    HW224753   3.575   3.426   0.772
 7952SOL     OW24754   6.388   3.255   0.768
 7952SOL    HW124755   6.435   3.333   0.809
 7952SOL    HW224756   6.335   3.286   0.689
 7953SOL     OW24757   2.409   2.686   3.570
 7953SOL    HW124758   2.426   2.765   3.511
 7953SOL    HW224759   2.482   2.620   3.559
 7954SOL     OW24760   4.250   5.347   4.480
 7954SOL    HW124761   4.271   5.438   4.516
 7954SOL    HW224762   4.178   5.306   4.535
 7955SOL     OW24763   0.351   6.597   6.261
 7955SOL    HW124764   0.338   6.500   6.244
 7955SOL    HW224765   0.273   6.648   6.227
 7956SOL     OW24766   6.818   6.177   3.942
 7956SOL    HW124767   6.740   6.211   3.994
 7956SOL    HW224768   6.788   6.101   3.884
 7957SOL     OW24769   1.420   1.469   0.957
 7957SOL    HW124770   1.420   1.537   0.884
 7957SOL    HW224771   1.488   1.495   1.026
 7958SOL     OW24772   2.924   5.298   3.688
 7958SOL    HW124773   2.840   5.259   3.649
 7958SOL    HW224774   2.901   5.353   3.768
 7959SOL     OW24775   6.403   4.722   0.255
 7959SOL    HW124776   6.464   4.774   0.314
 7959SOL    HW224777   6.314   4.767   0.251
 7960SOL     OW24778   2.752   1.216   1.401
 7960SOL    HW124779   2.753   1.313   1.376
 7960SOL    HW224780   2.846   1.181   1.400
 7961SOL     OW24781   1.462   5.710   5.952
 7961SOL    HW124782   1.403   5.725   5.872
 7961SOL    HW224783   1.533   5.780   5.955
 7962SOL     OW24784   2.052   0.826   2.226
 7962SOL    HW124785   2.123   0.872   2.172
 7962SOL    HW224786   2.087   0.738   2.259
 7963SOL     OW24787   0.880   0.744   5.641
 7963SOL    HW124788   0.859   0.657   5.685
 7963SOL    HW224789   0.829   0.817   5.687
 7964SOL     OW24790   5.692   5.519   3.381
 7964SOL    HW124791   5.672   5.614   3.405
 7964SOL    HW224792   5.624   5.460   3.424
 7965SOL     OW24793   4.942   2.596   0.259
 7965SOL    HW124794   4.889   2.512   0.268
 7965SOL    HW224795   4.886   2.667   0.216
 7966SOL     OW24796   6.917   5.235   4.048
 7966SOL    HW124797   6.969   5.160   4.009
 7966SOL    HW224798   6.960   5.322   4.023
 7967SOL     OW24799   3.536   6.381   2.572
 7967SOL    HW124800   3.501   6.356   2.662
 7967SOL    HW224801   3.520   6.306   2.508
 7968SOL     OW24802   2.227   2.381   3.785
 7968SOL    HW124803   2.321   2.413   3.776
 7968SOL    HW224804   2.167   2.458   3.806
 7969SOL     OW24805   3.891   1.264   3.401
 7969SOL    HW124806   3.836   1.341   3.367
 7969SOL    HW224807   3.896   1.268   3.500
 7970SOL     OW24808   0.279   4.128   3.179
 7970SOL    HW124809   0.235   4.112   3.267
 7970SOL    HW224810   0.275   4.226   3.157
 7971SOL     OW24811   3.743   6.888   1.329
 7971SOL    HW124812   3.701   6.974   1.299
 7971SOL    HW224813   3.803   6.905   1.406
 7972SOL     OW24814   7.001   4.583   1.502
 7972SOL    HW124815   6.943   4.592   1.582
 7972SOL    HW224816   0.076   4.552   1.529
 7973SOL     OW24817   4.997   3.200   3.836
 7973SOL    HW124818   4.960   3.266   3.771
 7973SOL    HW224819   4.959   3.109   3.816
 7974SOL     OW24820   4.797   0.461   4.389
 7974SOL    HW124821   4.782   0.436   4.294
 7974SOL    HW224822   4.763   0.554   4.405
 7975SOL     OW24823   3.183   0.869   4.583
 7975SOL    HW124824   3.186   0.822   4.495
 7975SOL    HW224825   3.090   0.902   4.599
 7976SOL     OW24826   1.378   6.056   4.928
 7976SOL    HW124827   1.454   6.003   4.964
 7976SOL    HW224828   1.341   6.115   5.001
 7977SOL     OW24829   4.684   6.056   1.979
 7977SOL    HW124830   4.608   6.022   1.923
 7977SOL    HW224831   4.771   6.022   1.942
 7978SOL     OW24832   4.685   3.383   5.709
 7978SOL    HW124833   4.619   3.446   5.667
 7978SOL    HW224834   4.769   3.433   5.730
 7979SOL     OW24835   2.698   0.327   4.497
 7979SOL    HW124836   2.771   0.396   4.505
 7979SOL    HW224837   2.627   0.345   4.565
 7980SOL     OW24838   3.665   5.853   0.008
 7980SOL    HW124839   3.608   5.912   6.966
 7980SOL    HW224840   3.751   5.899   0.029
 7981SOL     OW24841   1.457   5.328   2.125
 7981SOL    HW124842   1.516   5.248   2.115
 7981SOL    HW224843   1.488   5.382   2.203
 7982SOL     OW24844   6.670   2.280   0.570
 7982SOL    HW124845   6.738   2.214   0.602
 7982SOL    HW224846   6.605   2.298   0.643
 7983SOL     OW24847   5.159   1.769   2.290
 7983SOL    HW124848   5.251   1.799   2.316
 7983SOL    HW224849   5.155   1.758   2.190
 7984SOL     OW24850   0.089   2.710   2.220
 7984SOL    HW124851   7.009   2.711   2.190
 7984SOL    HW224852   0.094   2.742   2.315
 7985SOL     OW24853   0.825   0.589   2.367
 7985SOL    HW124854   0.868   0.618   2.282
 7985SOL    HW224855   0.729   0.568   2.350
 7986SOL     OW24856   3.955   1.139   6.529
 7986SOL    HW124857   3.879   1.158   6.591
 7986SOL    HW224858   3.920   1.096   6.445
 7987SOL     OW24859   0.368   2.820   5.304
 7987SOL    HW124860   0.442   2.754   5.297
 7987SOL    HW224861   0.287   2.786   5.256
 7988SOL     OW24862   2.838   1.906   4.449
 7988SOL    HW124863   2.749   1.945   4.472
 7988SOL    HW224864   2.844   1.812   4.483
 7989SOL     OW24865   3.242   2.371   5.644
 7989SOL    HW124866   3.272   2.276   5.652
 7989SOL    HW224867   3.224   2.391   5.547
 7990SOL     OW24868   1.127   2.917   4.321
 7990SOL    HW124869   1.201   2.899   4.256
 7990SOL    HW224870   1.118   3.015   4.336
 7991SOL     OW24871   0.282   2.769   5.776
 7991SOL    HW124872   0.340   2.767   5.695
 7991SOL    HW224873   0.311   2.845   5.835
 7992SOL     OW24874   1.855   6.886   0.741
 7992SOL    HW124875   1.949   6.917   0.733
 7992SOL    HW224876   1.853   6.796   0.786
 7993SOL     OW24877   2.299   5.614   0.001
 7993SOL    HW124878   2.319   5.611   6.919
 7993SOL    HW224879   2.369   5.563   0.051
 7994SOL     OW24880   4.827   1.044   3.346
 7994SOL    HW124881   4.754   1.081   3.403
 7994SOL    HW224882   4.904   1.016   3.404
 7995SOL     OW24883   3.386   5.355   3.873
 7995SOL    HW124884   3.481   5.358   3.905
 7995SOL    HW224885   3.326   5.395   3.942
 7996SOL     OW24886   3.561   0.056   4.908
 7996SOL    HW124887   3.571   6.973   4.914
 7996SOL    HW224888   3.598   0.088   4.821
 7997SOL     OW24889   5.946   2.548   1.248
 7997SOL    HW124890   5.871   2.600   1.290
 7997SOL    HW224891   5.977   2.596   1.166
 7998SOL     OW24892   5.707   4.419   0.268
 7998SOL    HW124893   5.614   4.455   0.255
 7998SOL    HW224894   5.704   4.340   0.328
 7999SOL     OW24895   1.554   6.913   5.611
 7999SOL    HW124896   1.652   6.932   5.604
 7999SOL    HW224897   1.516   6.900   5.520
 8000SOL     OW24898   6.464   6.945   5.707
 8000SOL    HW124899   6.409   6.982   5.632
 8000SOL    HW224900   6.557   6.925   5.673
 8001SOL     OW24901   1.800   6.707   1.543
 8001SOL    HW124902   1.722   6.694   1.481
 8001SOL    HW224903   1.880   6.659   1.507
 8002SOL     OW24904   6.143   3.477   4.966
 8002SOL    HW124905   6.053   3.484   4.922
 8002SOL    HW224906   6.156   3.554   5.028
 8003SOL     OW24907   3.676   4.937   3.260
 8003SOL    HW124908   3.735   4.930   3.340
 8003SOL    HW224909   3.580   4.944   3.290
 8004SOL     OW24910   2.592   4.569   3.040
 8004SOL    HW124911   2.676   4.601   2.997
 8004SOL    HW224912   2.610   4.544   3.135
 8005SOL     OW24913   3.500   0.356   1.584
 8005SOL    HW124914   3.488   0.339   1.682
 8005SOL    HW224915   3.487   0.453   1.566
 8006SOL     OW24916   2.792   5.891   0.480
 8006SOL    HW124917   2.825   5.959   0.545
 8006SOL    HW224918   2.710   5.846   0.518
 8007SOL     OW24919   0.463   0.499   4.244
 8007SOL    HW124920   0.513   0.416   4.266
 8007SOL    HW224921   0.486   0.528   4.151
 8008SOL     OW24922   6.137   6.673   0.062
 8008SOL    HW124923   6.095   6.645   0.149
 8008SOL    HW224924   6.087   6.752   0.026
 8009SOL     OW24925   6.841   0.454   3.194
 8009SOL    HW124926   6.873   0.474   3.102
 8009SOL    HW224927   6.920   0.444   3.255
 8010SOL     OW24928   2.208   2.289   0.453
 8010SOL    HW124929   2.147   2.259   0.527
 8010SOL    HW224930   2.259   2.210   0.418
 8011SOL     OW24931   3.155   2.334   1.402
 8011SOL    HW124932   3.089   2.407   1.384
 8011SOL    HW224933   3.106   2.246   1.408
 8012SOL     OW24934   2.244   6.705   1.506
 8012SOL    HW124935   2.150   6.675   1.520
 8012SOL    HW224936   2.262   6.717   1.408
 8013SOL     OW24937   5.657   5.167   4.227
 8013SOL    HW124938   5.593   5.223   4.279
 8013SOL    HW224939   5.712   5.225   4.167
 8014SOL     OW24940   1.810   6.681   6.512
 8014SOL    HW124941   1.734   6.645   6.458
 8014SOL    HW224942   1.893   6.683   6.456
 8015SOL     OW24943   2.786   2.643   0.858
 8015SOL    HW124944   2.698   2.599   0.874
 8015SOL    HW224945   2.859   2.587   0.898
 8016SOL     OW24946   4.331   6.967   0.267
 8016SOL    HW124947   4.263   0.011   0.310
 8016SOL    HW224948   4.284   6.888   0.227
 8017SOL     OW24949   6.925   4.205   4.655
 8017SOL    HW124950   6.827   4.187   4.648
 8017SOL    HW224951   6.961   4.165   4.739
 8018SOL     OW24952   4.313   1.823   5.635
 8018SOL    HW124953   4.401   1.860   5.667
 8018SOL    HW224954   4.238   1.869   5.684
 8019SOL     OW24955   1.642   5.886   0.334
 8019SOL    HW124956   1.597   5.971   0.364
 8019SOL    HW224957   1.704   5.906   0.258
 8020SOL     OW24958   5.140   5.419   6.673
 8020SOL    HW124959   5.212   5.456   6.732
 8020SOL    HW224960   5.052   5.459   6.700
 8021SOL     OW24961   1.026   1.312   1.340
 8021SOL    HW124962   1.045   1.229   1.289
 8021SOL    HW224963   1.092   1.383   1.316
 8022SOL     OW24964   4.223   6.797   3.023
 8022SOL    HW124965   4.142   6.756   2.981
 8022SOL    HW224966   4.254   6.739   3.098
 8023SOL     OW24967   6.117   6.048   2.099
 8023SOL    HW124968   6.118   6.144   2.127
 8023SOL    HW224969   6.199   6.029   2.044
 8024SOL     OW24970   4.676   5.513   6.029
 8024SOL    HW124971   4.725   5.447   6.086
 8024SOL    HW224972   4.581   5.518   6.058
 8025SOL     OW24973   3.621   6.067   6.098
 8025SOL    HW124974   3.573   6.067   6.010
 8025SOL    HW224975   3.598   5.985   6.149
 8026SOL     OW24976   1.692   3.233   6.405
 8026SOL    HW124977   1.759   3.306   6.416
 8026SOL    HW224978   1.666   3.226   6.308
 8027SOL     OW24979   4.553   1.949   5.055
 8027SOL    HW124980   4.464   1.970   5.095
 8027SOL    HW224981   4.625   1.993   5.109
 8028SOL     OW24982   4.847   5.161   6.401
 8028SOL    HW124983   4.940   5.146   6.367
 8028SOL    HW224984   4.798   5.220   6.337
 8029SOL     OW24985   4.190   4.431   0.669
 8029SOL    HW124986   4.259   4.363   0.644
 8029SOL    HW224987   4.113   4.385   0.713
 8030SOL     OW24988   5.840   4.118   5.830
 8030SOL    HW124989   5.829   4.214   5.804
 8030SOL    HW224990   5.756   4.068   5.809
 8031SOL     OW24991   3.903   5.325   1.526
 8031SOL    HW124992   3.897   5.234   1.486
 8031SOL    HW224993   3.815   5.372   1.516
 8032SOL     OW24994   5.580   4.086   4.930
 8032SOL    HW124995   5.524   4.119   4.854
 8032SOL    HW224996   5.536   4.110   5.017
 8033SOL     OW24997   5.629   2.752   6.833
 8033SOL    HW124998   5.661   2.673   6.781
 8033SOL    HW224999   5.697   2.824   6.830
 8034SOL     OW25000   4.900   6.905   4.785
 8034SOL    HW125001   4.955   6.989   4.780
 8034SOL    HW225002   4.833   6.904   4.711
 8035SOL     OW25003   5.217   6.403   0.043
 8035SOL    HW125004   5.213   6.369   6.965
 8035SOL    HW225005   5.130   6.447   0.066
 8036SOL     OW25006   2.277   3.854   1.819
 8036SOL    HW125007   2.319   3.940   1.850
 8036SOL    HW225008   2.224   3.814   1.894
 8037SOL     OW25009   1.612   2.494   0.701
 8037SOL    HW125010   1.603   2.503   0.800
 8037SOL    HW225011   1.543   2.550   0.656
 8038SOL     OW25012   0.059   2.167   3.584
 8038SOL    HW125013   7.004   2.237   3.579
 8038SOL    HW225014   0.073   2.126   3.493
 8039SOL     OW25015   2.228   0.417   3.079
 8039SOL    HW125016   2.294   0.418   3.004
 8039SOL    HW225017   2.184   0.327   3.084
 8040SOL     OW25018   0.441   5.464   1.209
 8040SOL    HW125019   0.418   5.488   1.304
 8040SOL    HW225020   0.384   5.389   1.179
 8041SOL     OW25021   3.842   1.375   0.985
 8041SOL    HW125022   3.884   1.387   0.895
 8041SOL    HW225023   3.913   1.378   1.056
 8042SOL     OW25024   3.302   2.998   2.647
 8042SOL    HW125025   3.255   3.029   2.564
 8042SOL    HW225026   3.238   2.997   2.724
 8043SOL     OW25027   2.916   0.605   1.728
 8043SOL    HW125028   2.994   0.581   1.669
 8043SOL    HW225029   2.950   0.638   1.816
 8044SOL     OW25030   3.023   3.253   1.566
 8044SOL    HW125031   3.073   3.316   1.507
 8044SOL    HW225032   3.074   3.237   1.650
 8045SOL     OW25033   5.995   2.534   3.027
 8045SOL    HW125034   5.980   2.539   3.126
 8045SOL    HW225035   5.934   2.467   2.987
 8046SOL     OW25036   5.761   4.319   5.546
 8046SOL    HW125037   5.839   4.381   5.542
 8046SOL    HW225038   5.712   4.321   5.459
 8047SOL     OW25039   4.002   6.042   4.544
 8047SOL    HW125040   3.914   6.087   4.534
 8047SOL    HW225041   4.041   6.024   4.454
 8048SOL     OW25042   6.543   0.427   5.289
 8048SOL    HW125043   6.549   0.366   5.210
 8048SOL    HW225044   6.493   0.510   5.262
 8049SOL     OW25045   1.349   6.606   1.383
 8049SOL    HW125046   1.303   6.534   1.436
 8049SOL    HW225047   1.373   6.681   1.443
 8050SOL     OW25048   1.828   3.292   0.844
 8050SOL    HW125049   1.781   3.204   0.851
 8050SOL    HW225050   1.761   3.365   0.837
 8051SOL     OW25051   4.751   1.025   2.928
 8051SOL    HW125052   4.733   0.937   2.972
 8051SOL    HW225053   4.822   1.074   2.979
 8052SOL     OW25054   2.702   1.278   2.994
 8052SOL    HW125055   2.741   1.355   3.046
 8052SOL    HW225056   2.639   1.313   2.925
 8053SOL     OW25057   3.953   3.975   2.498
 8053SOL    HW125058   3.994   3.887   2.477
 8053SOL    HW225059   4.013   4.049   2.466
 8054SOL     OW25060   5.098   6.954   4.251
 8054SOL    HW125061   5.073   6.981   4.343
 8054SOL    HW225062   5.021   6.907   4.207
 8055SOL     OW25063   1.476   7.013   6.014
 8055SOL    HW125064   1.538   6.968   6.077
 8055SOL    HW225065   1.483   6.972   5.924
 8056SOL     OW25066   4.545   1.780   3.133
 8056SOL    HW125067   4.450   1.773   3.163
 8056SOL    HW225068   4.557   1.863   3.079
 8057SOL     OW25069   2.867   0.061   3.162
 8057SOL    HW125070   2.834   0.150   3.195
 8057SOL    HW225071   2.832   0.045   3.070
 8058SOL     OW25072   3.187   0.732   2.450
 8058SOL    HW125073   3.098   0.729   2.496
 8058SOL    HW225074   3.251   0.671   2.497
 8059SOL     OW25075   3.217   2.107   4.796
 8059SOL    HW125076   3.236   2.024   4.850
 8059SOL    HW225077   3.208   2.185   4.857
 8060SOL     OW25078   6.721   0.922   4.905
 8060SOL    HW125079   6.633   0.883   4.931
 8060SOL    HW225080   6.793   0.854   4.919
 8061SOL     OW25081   6.574   5.635   2.806
 8061SOL    HW125082   6.526   5.577   2.741
 8061SOL    HW225083   6.623   5.707   2.756
 8062SOL     OW25084   1.395   4.007   3.867
 8062SOL    HW125085   1.452   4.011   3.949
 8062SOL    HW225086   1.428   4.073   3.800
 8063SOL     OW25087   3.216   3.267   6.607
 8063SOL    HW125088   3.158   3.339   6.643
 8063SOL    HW225089   3.224   3.276   6.508
 8064SOL     OW25090   0.777   3.693   0.584
 8064SOL    HW125091   0.696   3.687   0.644
 8064SOL    HW225092   0.755   3.749   0.504
 8065SOL     OW25093   4.420   0.187   4.101
 8065SOL    HW125094   4.484   0.111   4.101
 8065SOL    HW225095   4.464   0.268   4.140
 8066SOL     OW25096   1.729   1.042   1.280
 8066SOL    HW125097   1.648   0.992   1.250
 8066SOL    HW225098   1.785   1.066   1.201
 8067SOL     OW25099   4.674   2.713   1.497
 8067SOL    HW125100   4.608   2.723   1.423
 8067SOL    HW225101   4.655   2.629   1.548
 8068SOL     OW25102   0.915   4.362   4.825
 8068SOL    HW125103   0.858   4.307   4.885
 8068SOL    HW225104   0.947   4.443   4.874
 8069SOL     OW25105   1.567   6.114   1.246
 8069SOL    HW125106   1.566   6.052   1.324
 8069SOL    HW225107   1.479   6.161   1.239
 8070SOL     OW25108   3.991   6.220   1.447
 8070SOL    HW125109   3.920   6.290   1.437
 8070SOL    HW225110   3.949   6.131   1.461
 8071SOL     OW25111   3.348   6.658   5.939
 8071SOL    HW125112   3.377   6.753   5.937
 8071SOL    HW225113   3.412   6.604   5.994
 8072SOL     OW25114   4.725   1.149   0.507
 8072SOL    HW125115   4.775   1.075   0.462
 8072SOL    HW225116   4.637   1.163   0.460
 8073SOL     OW25117   4.308   6.388   5.902
 8073SOL    HW125118   4.236   6.318   5.901
 8073SOL    HW225119   4.300   6.445   5.821
 8074SOL     OW25120   3.536   3.497   0.203
 8074SOL    HW125121   3.584   3.544   0.128
 8074SOL    HW225122   3.535   3.399   0.185
 8075SOL     OW25123   6.942   1.252   2.850
 8075SOL    HW125124   6.902   1.284   2.764
 8075SOL    HW225125   6.955   1.153   2.847
 8076SOL     OW25126   5.733   2.529   5.545
 8076SOL    HW125127   5.684   2.492   5.466
 8076SOL    HW225128   5.731   2.463   5.620
 8077SOL     OW25129   0.887   0.126   1.071
 8077SOL    HW125130   0.864   0.170   0.984
 8077SOL    HW225131   0.951   0.184   1.122
 8078SOL     OW25132   6.321   2.525   0.940
 8078SOL    HW125133   6.350   2.620   0.952
 8078SOL    HW225134   6.306   2.483   1.030
 8079SOL     OW25135   6.614   2.190   2.764
 8079SOL    HW125136   6.698   2.137   2.768
 8079SOL    HW225137   6.562   2.177   2.848
 8080SOL     OW25138   3.044   4.025   0.592
 8080SOL    HW125139   3.094   4.098   0.639
 8080SOL    HW225140   2.979   3.983   0.655
 8081SOL     OW25141   6.057   0.989   4.762
 8081SOL    HW125142   5.983   1.037   4.714
 8081SOL    HW225143   6.017   0.929   4.832
 8082SOL     OW25144   0.020   2.521   3.715
 8082SOL    HW125145   0.113   2.543   3.687
 8082SOL    HW225146   6.998   2.452   3.653
 8083SOL     OW25147   4.685   2.539   3.272
 8083SOL    HW125148   4.701   2.505   3.364
 8083SOL    HW225149   4.588   2.529   3.249
 8084SOL     OW25150   0.136   6.442   1.301
 8084SOL    HW125151   0.047   6.472   1.266
 8084SOL    HW225152   0.128   6.421   1.399
 8085SOL     OW25153   5.509   0.558   0.955
 8085SOL    HW125154   5.430   0.600   0.911
 8085SOL    HW225155   5.479   0.498   1.029
 8086SOL     OW25156   3.925   0.645   5.227
 8086SOL    HW125157   3.931   0.668   5.130
 8086SOL    HW225158   3.873   0.716   5.275
 8087SOL     OW25159   2.804   2.224   1.283
 8087SOL    HW125160   2.705   2.236   1.295
 8087SOL    HW225161   2.844   2.310   1.251
 8088SOL     OW25162   5.494   0.985   2.048
 8088SOL    HW125163   5.570   1.037   2.008
 8088SOL    HW225164   5.451   1.039   2.120
 8089SOL     OW25165   5.482   3.116   0.464
 8089SOL    HW125166   5.561   3.126   0.404
 8089SOL    HW225167   5.485   3.027   0.509
 8090SOL     OW25168   5.054   1.809   5.864
 8090SOL    HW125169   5.053   1.854   5.953
 8090SOL    HW225170   5.026   1.714   5.874
 8091SOL     OW25171   2.967   4.534   6.571
 8091SOL    HW125172   3.030   4.578   6.635
 8091SOL    HW225173   2.892   4.597   6.550
 8092SOL     OW25174   1.594   1.174   5.223
 8092SOL    HW125175   1.646   1.259   5.218
 8092SOL    HW225176   1.656   1.097   5.240
 8093SOL     OW25177   6.006   5.528   0.968
 8093SOL    HW125178   5.933   5.506   0.903
 8093SOL    HW225179   6.033   5.623   0.956
 8094SOL     OW25180   1.506   3.742   6.634
 8094SOL    HW125181   1.452   3.671   6.678
 8094SOL    HW225182   1.594   3.705   6.605
 8095SOL     OW25183   5.724   3.485   4.675
 8095SOL    HW125184   5.685   3.401   4.638
 8095SOL    HW225185   5.824   3.480   4.671
 8096SOL     OW25186   3.378   6.252   1.548
 8096SOL    HW125187   3.288   6.294   1.562
 8096SOL    HW225188   3.411   6.274   1.456
 8097SOL     OW25189   5.163   1.247   3.456
 8097SOL    HW125190   5.115   1.317   3.403
 8097SOL    HW225191   5.253   1.230   3.415
 8098SOL     OW25192   2.790   6.087   4.254
 8098SOL    HW125193   2.823   6.180   4.271
 8098SOL    HW225194   2.780   6.038   4.340
 8099SOL     OW25195   5.119   6.508   4.496
 8099SOL    HW125196   5.174   6.429   4.522
 8099SOL    HW225197   5.096   6.561   4.578
 8100SOL     OW25198   6.836   6.628   0.501
 8100SOL    HW125199   6.781   6.593   0.576
 8100SOL    HW225200   6.822   6.571   0.420
 8101SOL     OW25201   1.663   6.053   3.614
 8101SOL    HW125202   1.601   6.095   3.549
 8101SOL    HW225203   1.757   6.075   3.589
 8102SOL     OW25204   6.840   5.694   5.594
 8102SOL    HW125205   6.768   5.762   5.608
 8102SOL    HW225206   6.842   5.666   5.498
 8103SOL     OW25207   3.695   1.609   2.575
 8103SOL    HW125208   3.710   1.604   2.674
 8103SOL    HW225209   3.750   1.540   2.530
 8104SOL     OW25210   2.298   6.829   5.889
 8104SOL    HW125211   2.244   6.850   5.808
 8104SOL    HW225212   2.295   6.730   5.906
 8105SOL     OW25213   2.383   1.791   3.598
 8105SOL    HW125214   2.410   1.838   3.682
 8105SOL    HW225215   2.454   1.805   3.528
 8106SOL     OW25216   0.901   4.207   4.058
 8106SOL    HW125217   0.997   4.182   4.041
 8106SOL    HW225218   0.841   4.134   4.024
 8107SOL     OW25219   2.207   6.119   5.732
 8107SOL    HW125220   2.186   6.112   5.635
 8107SOL    HW225221   2.294   6.074   5.751
 8108SOL     OW25222   0.848   3.697   4.147
 8108SOL    HW125223   0.903   3.774   4.114
 8108SOL    HW225224   0.751   3.714   4.127
 8109SOL     OW25225   1.499   4.563   4.874
 8109SOL    HW125226   1.426   4.597   4.814
 8109SOL    HW225227   1.568   4.634   4.885
 8110SOL     OW25228   2.313   6.285   0.830
 8110SOL    HW125229   2.234   6.224   0.841
 8110SOL    HW225230   2.365   6.287   0.916
 8111SOL     OW25231   2.900   5.310   4.759
 8111SOL    HW125232   2.994   5.278   4.766
 8111SOL    HW225233   2.840   5.232   4.743
 8112SOL     OW25234   2.403   0.717   5.270
 8112SOL    HW125235   2.377   0.808   5.302
 8112SOL    HW225236   2.493   0.693   5.306
 8113SOL     OW25237   3.542   2.472   6.525
 8113SOL    HW125238   3.525   2.558   6.574
 8113SOL    HW225239   3.604   2.415   6.579
 8114SOL     OW25240   2.279   2.825   2.180
 8114SOL    HW125241   2.310   2.882   2.256
 8114SOL    HW225242   2.198   2.867   2.139
 8115SOL     OW25243   3.204   1.055   1.164
 8115SOL    HW125244   3.298   1.023   1.171
 8115SOL    HW225245   3.159   1.010   1.087
 8116SOL     OW25246   6.165   0.032   4.990
 8116SOL    HW125247   6.200   6.979   5.054
 8116SOL    HW225248   6.192   0.123   5.021
 8117SOL     OW25249   1.703   1.640   4.937
 8117SOL    HW125250   1.785   1.692   4.916
 8117SOL    HW225251   1.626   1.703   4.948
 8118SOL     OW25252   0.902   4.018   5.304
 8118SOL    HW125253   0.859   3.931   5.281
 8118SOL    HW225254   1.000   4.014   5.282
 8119SOL     OW25255   0.744   6.061   2.895
 8119SOL    HW125256   0.659   6.019   2.926
 8119SOL    HW225257   0.816   6.043   2.962
 8120SOL     OW25258   4.239   4.439   0.990
 8120SOL    HW125259   4.307   4.375   0.955
 8120SOL    HW225260   4.154   4.390   1.010
 8121SOL     OW25261   6.620   0.792   2.575
 8121SOL    HW125262   6.630   0.845   2.491
 8121SOL    HW225263   6.684   0.715   2.573
 8122SOL     OW25264   6.331   6.241   1.737
 8122SOL    HW125265   6.231   6.241   1.726
 8122SOL    HW225266   6.367   6.330   1.712
 8123SOL     OW25267   1.581   6.358   6.568
 8123SOL    HW125268   1.556   6.359   6.665
 8123SOL    HW225269   1.518   6.300   6.517
 8124SOL     OW25270   0.974   5.949   1.730
 8124SOL    HW125271   0.928   6.037   1.723
 8124SOL    HW225272   0.995   5.915   1.639
 8125SOL     OW25273   5.967   4.802   2.890
 8125SOL    HW125274   5.991   4.721   2.836
 8125SOL    HW225275   5.958   4.776   2.986
 8126SOL     OW25276   5.814   4.237   2.527
 8126SOL    HW125277   5.809   4.227   2.626
 8126SOL    HW225278   5.725   4.218   2.487
 8127SOL     OW25279   2.056   5.025   0.317
 8127SOL    HW125280   2.045   5.062   0.225
 8127SOL    HW225281   1.970   4.986   0.347
 8128SOL     OW25282   3.428   2.670   5.600
 8128SOL    HW125283   3.329   2.687   5.597
 8128SOL    HW225284   3.475   2.743   5.549
 8129SOL     OW25285   5.731   0.577   5.853
 8129SOL    HW125286   5.737   0.602   5.950
 8129SOL    HW225287   5.798   0.631   5.801
 8130SOL     OW25288   1.571   5.809   6.696
 8130SOL    HW125289   1.656   5.840   6.737
 8130SOL    HW225290   1.562   5.847   6.604
 8131SOL     OW25291   2.832   0.562   0.803
 8131SOL    HW125292   2.785   0.621   0.869
 8131SOL    HW225293   2.837   0.469   0.838
 8132SOL     OW25294   6.000   5.611   3.977
 8132SOL    HW125295   5.972   5.690   4.032
 8132SOL    HW225296   6.094   5.625   3.944
 8133SOL     OW25297   2.385   5.264   2.568
 8133SOL    HW125298   2.358   5.341   2.625
 8133SOL    HW225299   2.348   5.275   2.476
 8134SOL     OW25300   2.208   2.324   4.079
 8134SOL    HW125301   2.178   2.403   4.132
 8134SOL    HW225302   2.241   2.355   3.989
 8135SOL     OW25303   4.128   5.183   2.117
 8135SOL    HW125304   4.063   5.108   2.120
 8135SOL    HW225305   4.199   5.169   2.186
 8136SOL     OW25306   3.871   5.513   2.561
 8136SOL    HW125307   3.919   5.430   2.590
 8136SOL    HW225308   3.921   5.593   2.592
 8137SOL     OW25309   2.252   4.187   4.778
 8137SOL    HW125310   2.255   4.282   4.809
 8137SOL    HW225311   2.270   4.126   4.856
 8138SOL     OW25312   5.013   1.233   2.632
 8138SOL    HW125313   4.946   1.170   2.592
 8138SOL    HW225314   4.984   1.327   2.615
 8139SOL     OW25315   2.045   2.157   3.275
 8139SOL    HW125316   1.998   2.190   3.194
 8139SOL    HW225317   2.094   2.232   3.319
 8140SOL     OW25318   4.765   0.660   0.508
 8140SOL    HW125319   4.799   0.572   0.542
 8140SOL    HW225320   4.815   0.734   0.553
 8141SOL     OW25321   4.976   1.557   5.962
 8141SOL    HW125322   4.914   1.634   5.976
 8141SOL    HW225323   4.933   1.490   5.902
 8142SOL     OW25324   2.183   5.855   0.087
 8142SOL    HW125325   2.125   5.792   0.138
 8142SOL    HW225326   2.241   5.803   0.024
 8143SOL     OW25327   5.718   4.727   0.544
 8143SOL    HW125328   5.790   4.678   0.495
 8143SOL    HW225329   5.691   4.675   0.624
 8144SOL     OW25330   0.126   4.784   5.852
 8144SOL    HW125331   0.173   4.714   5.905
 8144SOL    HW225332   0.134   4.872   5.898
 8145SOL     OW25333   5.307   5.707   6.910
 8145SOL    HW125334   5.280   5.689   7.005
 8145SOL    HW225335   5.366   5.633   6.878
 8146SOL     OW25336   5.840   0.385   4.383
 8146SOL    HW125337   5.769   0.319   4.408
 8146SOL    HW225338   5.844   0.393   4.284
 8147SOL     OW25339   1.327   0.690   5.630
 8147SOL    HW125340   1.302   0.595   5.646
 8147SOL    HW225341   1.275   0.749   5.691
 8148SOL     OW25342   3.842   4.774   0.526
 8148SOL    HW125343   3.931   4.750   0.565
 8148SOL    HW225344   3.832   4.734   0.436
 8149SOL     OW25345   1.375   6.145   3.950
 8149SOL    HW125346   1.374   6.155   4.050
 8149SOL    HW225347   1.382   6.235   3.908
 8150SOL     OW25348   0.908   3.174   0.834
 8150SOL    HW125349   0.889   3.268   0.807
 8150SOL    HW225350   0.869   3.156   0.924
 8151SOL     OW25351   5.983   4.231   3.824
 8151SOL    HW125352   6.018   4.270   3.910
 8151SOL    HW225353   6.052   4.172   3.783
 8152SOL     OW25354   4.737   2.022   3.125
 8152SOL    HW125355   4.764   2.118   3.117
 8152SOL    HW225356   4.701   2.005   3.217
 8153SOL     OW25357   0.113   2.249   4.027
 8153SOL    HW125358   0.148   2.342   4.012
 8153SOL    HW225359   0.014   2.253   4.037
 8154SOL     OW25360   1.701   1.336   3.320
 8154SOL    HW125361   1.639   1.371   3.390
 8154SOL    HW225362   1.753   1.412   3.281
 8155SOL     OW25363   1.238   5.443   1.526
 8155SOL    HW125364   1.267   5.465   1.619
 8155SOL    HW225365   1.150   5.487   1.507
 8156SOL     OW25366   5.893   5.225   1.642
 8156SOL    HW125367   5.933   5.280   1.569
 8156SOL    HW225368   5.840   5.150   1.602
 8157SOL     OW25369   6.754   3.027   6.020
 8157SOL    HW125370   6.786   3.118   5.996
 8157SOL    HW225371   6.832   2.969   6.043
 8158SOL     OW25372   5.737   4.633   6.261
 8158SOL    HW125373   5.668   4.683   6.210
 8158SOL    HW225374   5.822   4.687   6.264
 8159SOL     OW25375   3.194   6.060   5.628
 8159SOL    HW125376   3.172   5.972   5.585
 8159SOL    HW225377   3.207   6.129   5.557
 8160SOL     OW25378   5.392   1.206   3.290
 8160SOL    HW125379   5.487   1.235   3.284
 8160SOL    HW225380   5.386   1.107   3.282
 8161SOL     OW25381   5.570   3.172   0.939
 8161SOL    HW125382   5.566   3.215   0.849
 8161SOL    HW225383   5.665   3.154   0.963
 8162SOL     OW25384   0.232   4.714   6.553
 8162SOL    HW125385   0.304   4.665   6.602
 8162SOL    HW225386   0.157   4.734   6.617
 8163SOL     OW25387   4.691   4.692   4.952
 8163SOL    HW125388   4.663   4.665   4.860
 8163SOL    HW225389   4.774   4.747   4.947
 8164SOL     OW25390   6.148   1.029   6.886
 8164SOL    HW125391   6.080   1.018   6.960
 8164SOL    HW225392   6.239   1.006   6.921
 8165SOL     OW25393   0.506   2.103   6.367
 8165SOL    HW125394   0.442   2.123   6.441
 8165SOL    HW225395   0.464   2.036   6.305
 8166SOL     OW25396   1.791   2.245   4.757
 8166SOL    HW125397   1.728   2.290   4.821
 8166SOL    HW225398   1.782   2.289   4.667
 8167SOL     OW25399   0.043   2.888   4.161
 8167SOL    HW125400   6.994   2.964   4.156
 8167SOL    HW225401   7.013   2.808   4.198
 8168SOL     OW25402   2.654   0.594   1.658
 8168SOL    HW125403   2.608   0.650   1.589
 8168SOL    HW225404   2.753   0.603   1.647
 8169SOL     OW25405   5.355   2.161   1.348
 8169SOL    HW125406   5.275   2.219   1.337
 8169SOL    HW225407   5.437   2.213   1.322
 8170SOL     OW25408   6.068   4.790   2.328
 8170SOL    HW125409   6.122   4.822   2.250
 8170SOL    HW225410   5.974   4.821   2.318
 8171SOL     OW25411   1.991   1.381   0.595
 8171SOL    HW125412   1.923   1.363   0.524
 8171SOL    HW225413   2.063   1.440   0.558
 8172SOL     OW25414   0.905   2.780   1.970
 8172SOL    HW125415   0.897   2.829   2.057
 8172SOL    HW225416   0.999   2.787   1.936
 8173SOL     OW25417   5.712   1.368   2.166
 8173SOL    HW125418   5.636   1.343   2.228
 8173SOL    HW225419   5.744   1.286   2.118
 8174SOL     OW25420   2.296   5.536   2.664
 8174SOL    HW125421   2.340   5.617   2.625
 8174SOL    HW225422   2.198   5.538   2.645
 8175SOL     OW25423   0.472   2.179   4.353
 8175SOL    HW125424   0.505   2.262   4.307
 8175SOL    HW225425   0.372   2.177   4.348
 8176SOL     OW25426   1.902   4.204   0.948
 8176SOL    HW125427   1.942   4.276   1.005
 8176SOL    HW225428   1.846   4.246   0.876
 8177SOL     OW25429   3.475   1.628   2.795
 8177SOL    HW125430   3.452   1.623   2.698
 8177SOL    HW225431   3.536   1.552   2.818
 8178SOL     OW25432   1.980   6.447   1.212
 8178SOL    HW125433   1.918   6.516   1.176
 8178SOL    HW225434   2.070   6.459   1.171
 8179SOL     OW25435   5.527   0.955   3.209
 8179SOL    HW125436   5.502   0.983   3.302
 8179SOL    HW225437   5.626   0.963   3.198
 8180SOL     OW25438   4.909   5.921   0.010
 8180SOL    HW125439   4.971   5.913   6.947
 8180SOL    HW225440   4.961   5.907   0.094
 8181SOL     OW25441   0.867   1.019   1.167
 8181SOL    HW125442   0.966   1.031   1.159
 8181SOL    HW225443   0.839   1.039   1.261
 8182SOL     OW25444   2.998   3.350   4.554
 8182SOL    HW125445   3.076   3.287   4.559
 8182SOL    HW225446   2.969   3.359   4.459
 8183SOL     OW25447   6.842   0.098   5.108
 8183SOL    HW125448   6.893   0.125   5.026
 8183SOL    HW225449   6.900   0.109   5.189
 8184SOL     OW25450   0.636   6.169   6.822
 8184SOL    HW125451   0.663   6.207   6.911
 8184SOL    HW225452   0.605   6.243   6.762
 8185SOL     OW25453   0.704   0.127   0.327
 8185SOL    HW125454   0.756   0.209   0.304
 8185SOL    HW225455   0.609   0.137   0.296
 8186SOL     OW25456   1.305   5.580   6.665
 8186SOL    HW125457   1.337   5.570   6.571
 8186SOL    HW225458   1.252   5.498   6.690
 8187SOL     OW25459   1.159   0.846   5.791
 8187SOL    HW125460   1.215   0.821   5.869
 8187SOL    HW225461   1.062   0.834   5.814
 8188SOL     OW25462   3.083   1.851   4.004
 8188SOL    HW125463   3.046   1.944   4.008
 8188SOL    HW225464   3.183   1.855   3.999
 8189SOL     OW25465   4.701   4.736   3.935
 8189SOL    HW125466   4.651   4.793   4.001
 8189SOL    HW225467   4.672   4.759   3.842
 8190SOL     OW25468   6.002   3.753   3.271
 8190SOL    HW125469   5.953   3.808   3.203
 8190SOL    HW225470   6.056   3.682   3.225
 8191SOL     OW25471   4.192   5.166   1.538
 8191SOL    HW125472   4.209   5.078   1.581
 8191SOL    HW225473   4.206   5.158   1.439
 8192SOL     OW25474   1.709   4.810   3.763
 8192SOL    HW125475   1.690   4.722   3.719
 8192SOL    HW225476   1.805   4.834   3.750
 8193SOL     OW25477   0.062   4.305   4.991
 8193SOL    HW125478   0.093   4.302   5.086
 8193SOL    HW225479   0.109   4.379   4.942
 8194SOL     OW25480   4.570   6.726   1.704
 8194SOL    HW125481   4.657   6.704   1.659
 8194SOL    HW225482   4.585   6.737   1.802
 8195SOL     OW25483   5.512   6.550   3.211
 8195SOL    HW125484   5.508   6.490   3.131
 8195SOL    HW225485   5.569   6.507   3.282
 8196SOL     OW25486   4.680   0.319   6.993
 8196SOL    HW125487   4.665   0.290   0.072
 8196SOL    HW225488   4.749   0.391   6.990
 8197SOL     OW25489   5.346   2.105   1.664
 8197SOL    HW125490   5.277   2.036   1.640
 8197SOL    HW225491   5.394   2.135   1.582
 8198SOL     OW25492   2.331   0.465   2.567
 8198SOL    HW125493   2.233   0.470   2.585
 8198SOL    HW225494   2.351   0.509   2.479
 8199SOL     OW25495   5.441   2.624   5.753
 8199SOL    HW125496   5.349   2.636   5.790
 8199SOL    HW225497   5.506   2.671   5.812
 8200SOL     OW25498   4.532   3.402   1.037
 8200SOL    HW125499   4.517   3.318   0.984
 8200SOL    HW225500   4.628   3.408   1.065
 8201SOL     OW25501   0.231   6.725   5.215
 8201SOL    HW125502   0.231   6.734   5.315
 8201SOL    HW225503   0.237   6.816   5.174
 8202SOL     OW25504   0.401   6.546   2.490
 8202SOL    HW125505   0.335   6.550   2.415
 8202SOL    HW225506   0.429   6.451   2.505
 8203SOL     OW25507   1.731   2.858   1.088
 8203SOL    HW125508   1.785   2.844   1.171
 8203SOL    HW225509   1.637   2.830   1.105
 8204SOL     OW25510   4.432   3.377   1.292
 8204SOL    HW125511   4.457   3.360   1.197
 8204SOL    HW225512   4.486   3.453   1.328
 8205SOL     OW25513   1.354   3.362   0.772
 8205SOL    HW125514   1.292   3.440   0.780
 8205SOL    HW225515   1.303   3.277   0.789
 8206SOL     OW25516   4.226   1.254   6.993
 8206SOL    HW125517   4.222   1.182   6.925
 8206SOL    HW225518   4.229   1.343   6.947
 8207SOL     OW25519   4.085   3.248   4.236
 8207SOL    HW125520   4.131   3.277   4.151
 8207SOL    HW225521   4.028   3.169   4.217
 8208SOL     OW25522   1.211   1.269   0.324
 8208SOL    HW125523   1.214   1.338   0.252
 8208SOL    HW225524   1.282   1.289   0.392
 8209SOL     OW25525   6.916   0.895   5.219
 8209SOL    HW125526   6.834   0.931   5.263
 8209SOL    HW225527   6.890   0.827   5.150
 8210SOL     OW25528   1.866   2.775   0.582
 8210SOL    HW125529   1.852   2.874   0.591
 8210SOL    HW225530   1.955   2.750   0.622
 8211SOL     OW25531   2.987   4.030   1.094
 8211SOL    HW125532   2.960   3.938   1.123
 8211SOL    HW225533   3.086   4.040   1.101
 8212SOL     OW25534   2.140   2.084   2.830
 8212SOL    HW125535   2.195   2.144   2.887
 8212SOL    HW225536   2.064   2.135   2.790
 8213SOL     OW25537   0.242   4.973   1.548
 8213SOL    HW125538   0.308   4.933   1.485
 8213SOL    HW225539   0.155   4.924   1.541
 8214SOL     OW25540   5.741   4.604   3.451
 8214SOL    HW125541   5.760   4.564   3.541
 8214SOL    HW225542   5.801   4.683   3.436
 8215SOL     OW25543   3.830   4.891   4.557
 8215SOL    HW125544   3.737   4.891   4.592
 8215SOL    HW225545   3.895   4.883   4.633
 8216SOL     OW25546   5.348   4.668   4.029
 8216SOL    HW125547   5.258   4.673   4.072
 8216SOL    HW225548   5.401   4.748   4.053
 8217SOL     OW25549   1.763   5.936   0.771
 8217SOL    HW125550   1.777   5.932   0.870
 8217SOL    HW225551   1.808   6.018   0.734
 8218SOL     OW25552   0.472   1.790   0.319
 8218SOL    HW125553   0.405   1.752   0.255
 8218SOL    HW225554   0.427   1.811   0.406
 8219SOL     OW25555   5.719   2.077   6.802
 8219SOL    HW125556   5.620   2.087   6.799
 8219SOL    HW225557   5.744   1.986   6.768
 8220SOL     OW25558   3.483   3.820   2.486
 8220SOL    HW125559   3.460   3.723   2.477
 8220SOL    HW225560   3.567   3.829   2.540
 8221SOL     OW25561   5.119   5.853   3.868
 8221SOL    HW125562   5.106   5.910   3.949
 8221SOL    HW225563   5.210   5.811   3.872
 8222SOL     OW25564   6.083   1.863   2.236
 8222SOL    HW125565   6.116   1.780   2.192
 8222SOL    HW225566   6.060   1.931   2.166
 8223SOL     OW25567   0.936   4.402   6.362
 8223SOL    HW125568   0.915   4.499   6.348
 8223SOL    HW225569   0.867   4.346   6.316
 8224SOL     OW25570   0.653   2.804   2.803
 8224SOL    HW125571   0.583   2.748   2.758
 8224SOL    HW225572   0.625   2.900   2.798
 8225SOL     OW25573   4.790   1.056   6.107
 8225SOL    HW125574   4.720   1.122   6.132
 8225SOL    HW225575   4.879   1.100   6.104
 8226SOL     OW25576   5.170   1.019   1.089
 8226SOL    HW125577   5.224   1.040   1.171
 8226SOL    HW225578   5.074   1.043   1.106
 8227SOL     OW25579   6.616   3.288   3.398
 8227SOL    HW125580   6.591   3.377   3.437
 8227SOL    HW225581   6.541   3.223   3.411
 8228SOL     OW25582   0.603   1.866   4.874
 8228SOL    HW125583   0.572   1.819   4.791
 8228SOL    HW225584   0.662   1.942   4.848
 8229SOL     OW25585   2.958   5.854   6.835
 8229SOL    HW125586   3.003   5.790   6.772
 8229SOL    HW225587   2.933   5.937   6.785
 8230SOL     OW25588   4.687   0.153   4.898
 8230SOL    HW125589   4.649   0.079   4.844
 8230SOL    HW225590   4.633   0.165   4.982
 8231SOL     OW25591   5.141   5.578   1.684
 8231SOL    HW125592   5.199   5.627   1.619
 8231SOL    HW225593   5.050   5.567   1.646
 8232SOL     OW25594   3.985   1.278   0.327
 8232SOL    HW125595   3.999   1.194   0.274
 8232SOL    HW225596   4.057   1.344   0.305
 8233SOL     OW25597   0.618   5.261   5.954
 8233SOL    HW125598   0.591   5.357   5.952
 8233SOL    HW225599   0.647   5.237   6.047
 8234SOL     OW25600   2.625   2.448   6.962
 8234SOL    HW125601   2.654   2.410   0.035
 8234SOL    HW225602   2.633   2.547   6.964
 8235SOL     OW25603   3.734   3.191   0.964
 8235SOL    HW125604   3.675   3.118   0.998
 8235SOL    HW225605   3.685   3.243   0.893
 8236SOL     OW25606   6.715   3.035   0.200
 8236SOL    HW125607   6.643   3.089   0.242
 8236SOL    HW225608   6.732   2.953   0.256
 8237SOL     OW25609   4.481   5.793   5.485
 8237SOL    HW125610   4.499   5.830   5.394
 8237SOL    HW225611   4.445   5.865   5.544
 8238SOL     OW25612   1.927   3.523   0.271
 8238SOL    HW125613   1.891   3.589   0.337
 8238SOL    HW225614   2.016   3.555   0.237
 8239SOL     OW25615   6.268   2.221   5.306
 8239SOL    HW125616   6.360   2.207   5.344
 8239SOL    HW225617   6.213   2.139   5.320
 8240SOL     OW25618   3.229   4.141   2.675
 8240SOL    HW125619   3.166   4.100   2.742
 8240SOL    HW225620   3.214   4.239   2.672
 8241SOL     OW25621   3.412   7.007   0.812
 8241SOL    HW125622   3.474   6.993   0.735
 8241SOL    HW225623   3.465   7.006   0.897
 8242SOL     OW25624   0.779   4.508   5.980
 8242SOL    HW125625   0.869   4.524   5.941
 8242SOL    HW225626   0.745   4.593   6.023
 8243SOL     OW25627   0.229   3.080   5.869
 8243SOL    HW125628   0.148   3.026   5.849
 8243SOL    HW225629   0.209   3.144   5.943
 8244SOL     OW25630   0.454   0.064   3.873
 8244SOL    HW125631   0.450   0.102   3.780
 8244SOL    HW225632   0.394   0.116   3.933
 8245SOL     OW25633   4.512   1.867   1.172
 8245SOL    HW125634   4.598   1.856   1.222
 8245SOL    HW225635   4.465   1.949   1.206
 8246SOL     OW25636   6.272   4.128   6.092
 8246SOL    HW125637   6.328   4.083   6.162
 8246SOL    HW225638   6.266   4.069   6.011
 8247SOL     OW25639   0.943   0.689   1.434
 8247SOL    HW125640   0.863   0.673   1.491
 8247SOL    HW225641   1.018   0.630   1.464
 8248SOL     OW25642   5.728   4.996   3.721
 8248SOL    HW125643   5.783   5.079   3.709
 8248SOL    HW225644   5.719   4.976   3.819
 8249SOL     OW25645   2.172   4.735   4.286
 8249SOL    HW125646   2.095   4.795   4.267
 8249SOL    HW225647   2.179   4.665   4.215
 8250SOL     OW25648   3.717   3.910   2.998
 8250SOL    HW125649   3.640   3.959   2.957
 8250SOL    HW225650   3.789   3.975   3.023
 8251SOL     OW25651   4.849   2.083   5.028
 8251SOL    HW125652   4.907   2.097   4.947
 8251SOL    HW225653   4.827   2.172   5.068
 8252SOL     OW25654   2.772   3.260   5.728
 8252SOL    HW125655   2.797   3.225   5.818
 8252SOL    HW225656   2.853   3.297   5.683
 8253SOL     OW25657   3.460   2.981   5.186
 8253SOL    HW125658   3.391   2.908   5.179
 8253SOL    HW225659   3.416   3.065   5.216
 8254SOL     OW25660   4.247   4.763   4.555
 8254SOL    HW125661   4.290   4.792   4.640
 8254SOL    HW225662   4.310   4.777   4.479
 8255SOL     OW25663   4.069   5.816   4.072
 8255SOL    HW125664   4.019   5.750   4.017
 8255SOL    HW225665   4.167   5.812   4.049
 8256SOL     OW25666   5.543   1.261   3.638
 8256SOL    HW125667   5.459   1.315   3.640
 8256SOL    HW225668   5.592   1.281   3.553
 8257SOL     OW25669   5.727   5.041   3.178
 8257SOL    HW125670   5.653   5.088   3.226
 8257SOL    HW225671   5.804   5.104   3.165
 8258SOL     OW25672   4.792   0.949   0.328
 8258SOL    HW125673   4.790   1.004   0.245
 8258SOL    HW225674   4.886   0.924   0.350
 8259SOL     OW25675   3.646   1.185   3.753
 8259SOL    HW125676   3.668   1.189   3.850
 8259SOL    HW225677   3.672   1.095   3.717
 8260SOL     OW25678   2.417   6.708   2.091
 8260SOL    HW125679   2.364   6.635   2.135
 8260SOL    HW225680   2.446   6.678   2.000
 8261SOL     OW25681   5.510   1.473   0.743
 8261SOL    HW125682   5.446   1.477   0.819
 8261SOL    HW225683   5.604   1.482   0.777
 8262SOL     OW25684   1.078   2.525   1.422
 8262SOL    HW125685   1.088   2.584   1.502
 8262SOL    HW225686   1.043   2.436   1.450
 8263SOL     OW25687   0.042   1.169   1.480
 8263SOL    HW125688   0.125   1.115   1.491
 8263SOL    HW225689   0.016   1.210   1.567
 8264SOL     OW25690   1.140   6.130   2.185
 8264SOL    HW125691   1.168   6.113   2.091
 8264SOL    HW225692   1.055   6.082   2.205
 8265SOL     OW25693   1.820   0.267   1.942
 8265SOL    HW125694   1.802   0.169   1.944
 8265SOL    HW225695   1.749   0.316   1.993
 8266SOL     OW25696   2.129   6.483   2.942
 8266SOL    HW125697   2.096   6.565   2.988
 8266SOL    HW225698   2.153   6.504   2.847
 8267SOL     OW25699   1.574   3.389   1.165
 8267SOL    HW125700   1.571   3.298   1.124
 8267SOL    HW225701   1.564   3.381   1.264
 8268SOL     OW25702   2.323   6.571   6.015
 8268SOL    HW125703   2.309   6.570   6.114
 8268SOL    HW225704   2.235   6.559   5.968
 8269SOL     OW25705   5.891   1.780   0.873
 8269SOL    HW125706   5.990   1.789   0.881
 8269SOL    HW225707   5.865   1.787   0.777
 8270SOL     OW25708   3.251   6.672   4.005
 8270SOL    HW125709   3.157   6.646   4.027
 8270SOL    HW225710   3.282   6.741   4.070
 8271SOL     OW25711   6.915   1.573   3.262
 8271SOL    HW125712   6.919   1.477   3.288
 8271SOL    HW225713   6.828   1.593   3.217
 8272SOL     OW25714   4.764   0.843   2.297
 8272SOL    HW125715   4.743   0.874   2.389
 8272SOL    HW225716   4.863   0.841   2.284
 8273SOL     OW25717   2.007   6.661   0.884
 8273SOL    HW125718   2.055   6.744   0.854
 8273SOL    HW225719   2.059   6.616   0.957
 8274SOL     OW25720   4.368   4.982   3.067
 8274SOL    HW125721   4.295   5.048   3.055
 8274SOL    HW225722   4.337   4.891   3.037
 8275SOL     OW25723   4.153   2.387   5.901
 8275SOL    HW125724   4.217   2.424   5.968
 8275SOL    HW225725   4.203   2.346   5.825
 8276SOL     OW25726   0.488   2.413   4.191
 8276SOL    HW125727   0.564   2.478   4.185
 8276SOL    HW225728   0.405   2.456   4.155
 8277SOL     OW25729   6.722   0.825   6.469
 8277SOL    HW125730   6.670   0.742   6.451
 8277SOL    HW225731   6.760   0.821   6.562
 8278SOL     OW25732   2.336   2.139   6.717
 8278SOL    HW125733   2.321   2.202   6.641
 8278SOL    HW225734   2.381   2.187   6.792
 8279SOL     OW25735   0.655   6.211   4.750
 8279SOL    HW125736   0.663   6.112   4.740
 8279SOL    HW225737   0.677   6.255   4.662
 8280SOL     OW25738   2.983   2.539   6.814
 8280SOL    HW125739   2.912   2.555   6.882
 8280SOL    HW225740   2.999   2.622   6.761
 8281SOL     OW25741   1.253   5.775   1.312
 8281SOL    HW125742   1.239   5.697   1.251
 8281SOL    HW225743   1.312   5.842   1.268
 8282SOL     OW25744   5.700   2.844   6.141
 8282SOL    HW125745   5.754   2.928   6.133
 8282SOL    HW225746   5.760   2.769   6.169
 8283SOL     OW25747   1.266   4.639   6.090
 8283SOL    HW125748   1.194   4.586   6.046
 8283SOL    HW225749   1.305   4.587   6.166
 8284SOL     OW25750   0.296   4.430   2.074
 8284SOL    HW125751   0.274   4.347   2.024
 8284SOL    HW225752   0.381   4.469   2.039
 8285SOL     OW25753   3.855   3.116   5.140
 8285SOL    HW125754   3.865   3.063   5.224
 8285SOL    HW225755   3.883   3.060   5.062
 8286SOL     OW25756   6.183   2.513   5.703
 8286SOL    HW125757   6.226   2.431   5.742
 8286SOL    HW225758   6.211   2.593   5.756
 8287SOL     OW25759   1.130   5.479   4.478
 8287SOL    HW125760   1.068   5.421   4.427
 8287SOL    HW225761   1.224   5.446   4.469
 8288SOL     OW25762   2.627   2.499   3.192
 8288SOL    HW125763   2.687   2.460   3.122
 8288SOL    HW225764   2.553   2.550   3.148
 8289SOL     OW25765   0.659   0.135   0.609
 8289SOL    HW125766   0.631   0.112   0.516
 8289SOL    HW225767   0.665   0.051   0.663
 8290SOL     OW25768   6.918   1.528   0.780
 8290SOL    HW125769   6.872   1.501   0.695
 8290SOL    HW225770   6.872   1.484   0.857
 8291SOL     OW25771   4.743   0.118   6.853
 8291SOL    HW125772   4.713   0.195   6.910
 8291SOL    HW225773   4.829   0.082   6.888
 8292SOL     OW25774   2.901   6.514   0.290
 8292SOL    HW125775   2.826   6.552   0.236
 8292SOL    HW225776   2.966   6.586   0.313
 8293SOL     OW25777   4.028   0.165   6.580
 8293SOL    HW125778   4.106   0.191   6.523
 8293SOL    HW225779   4.056   0.093   6.644
 8294SOL     OW25780   6.090   3.457   6.193
 8294SOL    HW125781   6.116   3.474   6.098
 8294SOL    HW225782   5.990   3.449   6.200
 8295SOL     OW25783   5.248   5.217   1.956
 8295SOL    HW125784   5.316   5.204   2.028
 8295SOL    HW225785   5.268   5.302   1.907
 8296SOL     OW25786   1.604   6.583   6.346
 8296SOL    HW125787   1.529   6.644   6.319
 8296SOL    HW225788   1.572   6.519   6.414
 8297SOL     OW25789   6.316   2.671   3.425
 8297SOL    HW125790   6.379   2.595   3.426
 8297SOL    HW225791   6.266   2.672   3.338
 8298SOL     OW25792   5.116   1.369   1.689
 8298SOL    HW125793   5.095   1.272   1.686
 8298SOL    HW225794   5.183   1.391   1.618
 8299SOL     OW25795   0.286   3.084   1.979
 8299SOL    HW125796   0.298   3.013   2.048
 8299SOL    HW225797   0.349   3.069   1.904
 8300SOL     OW25798   0.409   4.690   5.330
 8300SOL    HW125799   0.480   4.665   5.265
 8300SOL    HW225800   0.361   4.607   5.360
 8301SOL     OW25801   4.431   2.119   1.242
 8301SOL    HW125802   4.426   2.132   1.341
 8301SOL    HW225803   4.357   2.170   1.197
 8302SOL     OW25804   5.642   6.268   6.798
 8302SOL    HW125805   5.666   6.308   6.886
 8302SOL    HW225806   5.593   6.336   6.743
 8303SOL     OW25807   0.170   0.182   4.678
 8303SOL    HW125808   0.258   0.220   4.704
 8303SOL    HW225809   0.160   0.185   4.578
 8304SOL     OW25810   1.068   3.432   6.046
 8304SOL    HW125811   1.142   3.380   6.090
 8304SOL    HW225812   1.034   3.501   6.110
 8305SOL     OW25813   3.663   5.318   3.919
 8305SOL    HW125814   3.688   5.308   4.015
 8305SOL    HW225815   3.716   5.253   3.864
 8306SOL     OW25816   0.636   2.797   5.037
 8306SOL    HW125817   0.735   2.808   5.022
 8306SOL    HW225818   0.620   2.716   5.093
 8307SOL     OW25819   3.870   5.414   1.042
 8307SOL    HW125820   3.851   5.391   0.947
 8307SOL    HW225821   3.942   5.355   1.077
 8308SOL     OW25822   4.248   6.789   1.364
 8308SOL    HW125823   4.265   6.692   1.382
 8308SOL    HW225824   4.190   6.826   1.436
 8309SOL     OW25825   5.544   5.524   2.942
 8309SOL    HW125826   5.620   5.569   2.895
 8309SOL    HW225827   5.573   5.434   2.973
 8310SOL     OW25828   0.982   4.358   0.413
 8310SOL    HW125829   0.939   4.318   0.495
 8310SOL    HW225830   1.024   4.445   0.436
 8311SOL     OW25831   0.382   0.634   6.361
 8311SOL    HW125832   0.406   0.587   6.276
 8311SOL    HW225833   0.422   0.725   6.360
 8312SOL     OW25834   4.958   6.367   1.593
 8312SOL    HW125835   4.863   6.343   1.571
 8312SOL    HW225836   5.015   6.351   1.513
 8313SOL     OW25837   3.934   1.839   3.137
 8313SOL    HW125838   3.925   1.834   3.236
 8313SOL    HW225839   4.002   1.773   3.106
 8314SOL     OW25840   5.102   6.639   1.008
 8314SOL    HW125841   5.171   6.609   0.942
 8314SOL    HW225842   5.012   6.639   0.964
 8315SOL     OW25843   4.257   3.285   0.844
 8315SOL    HW125844   4.214   3.364   0.800
 8315SOL    HW225845   4.192   3.244   0.909
 8316SOL     OW25846   0.444   3.761   1.483
 8316SOL    HW125847   0.511   3.705   1.434
 8316SOL    HW225848   0.390   3.813   1.418
 8317SOL     OW25849   1.976   3.470   2.541
 8317SOL    HW125850   1.940   3.399   2.600
 8317SOL    HW225851   2.026   3.428   2.465
 8318SOL     OW25852   4.291   1.996   5.110
 8318SOL    HW125853   4.262   1.940   5.187
 8318SOL    HW225854   4.267   1.949   5.024
 8319SOL     OW25855   3.290   1.489   5.766
 8319SOL    HW125856   3.259   1.563   5.826
 8319SOL    HW225857   3.263   1.509   5.672
 8320SOL     OW25858   3.388   4.546   1.332
 8320SOL    HW125859   3.417   4.587   1.419
 8320SOL    HW225860   3.371   4.618   1.265
 8321SOL     OW25861   0.606   1.499   6.773
 8321SOL    HW125862   0.672   1.575   6.778
 8321SOL    HW225863   0.609   1.459   6.681
 8322SOL     OW25864   6.939   0.014   0.022
 8322SOL    HW125865   6.879   6.960   0.060
 8322SOL    HW225866   6.952   0.088   0.089
 8323SOL     OW25867   0.461   0.306   2.450
 8323SOL    HW125868   0.553   0.310   2.489
 8323SOL    HW225869   0.396   0.351   2.511
 8324SOL     OW25870   6.418   0.679   2.147
 8324SOL    HW125871   6.480   0.683   2.069
 8324SOL    HW225872   6.361   0.598   2.141
 8325SOL     OW25873   4.068   3.526   4.349
 8325SOL    HW125874   4.102   3.496   4.260
 8325SOL    HW225875   4.077   3.452   4.416
 8326SOL     OW25876   4.517   3.554   5.566
 8326SOL    HW125877   4.498   3.604   5.481
 8326SOL    HW225878   4.431   3.522   5.605
 8327SOL     OW25879   4.784   2.296   5.566
 8327SOL    HW125880   4.861   2.279   5.627
 8327SOL    HW225881   4.775   2.395   5.551
 8328SOL     OW25882   2.708   3.840   6.063
 8328SOL    HW125883   2.645   3.895   6.009
 8328SOL    HW225884   2.803   3.866   6.043
 8329SOL     OW25885   7.007   2.902   5.323
 8329SOL    HW125886   0.062   2.832   5.317
 8329SOL    HW225887   0.029   2.990   5.294
 8330SOL     OW25888   1.839   6.455   0.717
 8330SOL    HW125889   1.920   6.512   0.705
 8330SOL    HW225890   1.774   6.474   0.644
 8331SOL     OW25891   3.037   6.928   1.182
 8331SOL    HW125892   3.052   0.009   1.162
 8331SOL    HW225893   2.939   6.911   1.187
 8332SOL     OW25894   4.752   5.306   2.404
 8332SOL    HW125895   4.738   5.220   2.453
 8332SOL    HW225896   4.679   5.317   2.336
 8333SOL     OW25897   7.011   5.625   0.206
 8333SOL    HW125898   0.058   5.549   0.189
 8333SOL    HW225899   0.038   5.710   0.177
 8334SOL     OW25900   5.638   1.143   3.871
 8334SOL    HW125901   5.723   1.187   3.899
 8334SOL    HW225902   5.602   1.188   3.789
 8335SOL     OW25903   6.529   5.285   5.999
 8335SOL    HW125904   6.451   5.330   6.042
 8335SOL    HW225905   6.602   5.352   5.984
 8336SOL     OW25906   6.599   0.986   2.915
 8336SOL    HW125907   6.676   0.955   2.858
 8336SOL    HW225908   6.634   1.048   2.986
 8337SOL     OW25909   0.757   6.474   3.999
 8337SOL    HW125910   0.819   6.491   3.922
 8337SOL    HW225911   0.666   6.452   3.964
 8338SOL     OW25912   1.837   4.832   1.739
 8338SOL    HW125913   1.895   4.914   1.740
 8338SOL    HW225914   1.832   4.794   1.831
 8339SOL     OW25915   6.901   0.978   2.768
 8339SOL    HW125916   6.907   0.885   2.804
 8339SOL    HW225917   6.915   0.977   2.669
 8340SOL     OW25918   4.736   3.704   1.167
 8340SOL    HW125919   4.663   3.772   1.165
 8340SOL    HW225920   4.824   3.748   1.147
 8341SOL     OW25921   1.820   6.816   0.472
 8341SOL    HW125922   1.765   6.733   0.477
 8341SOL    HW225923   1.823   6.859   0.562
 8342SOL     OW25924   3.841   0.093   1.149
 8342SOL    HW125925   3.926   0.063   1.105
 8342SOL    HW225926   3.862   0.134   1.238
 8343SOL     OW25927   1.913   5.103   6.084
 8343SOL    HW125928   1.901   5.096   6.183
 8343SOL    HW225929   1.827   5.134   6.042
 8344SOL     OW25930   4.689   6.634   5.793
 8344SOL    HW125931   4.735   6.705   5.846
 8344SOL    HW225932   4.709   6.544   5.833
 8345SOL     OW25933   5.590   1.900   3.733
 8345SOL    HW125934   5.529   1.868   3.806
 8345SOL    HW225935   5.678   1.854   3.742
 8346SOL     OW25936   2.401   4.650   0.328
 8346SOL    HW125937   2.378   4.565   0.375
 8346SOL    HW225938   2.477   4.634   0.266
 8347SOL     OW25939   2.580   0.008   5.148
 8347SOL    HW125940   2.502   6.989   5.202
 8347SOL    HW225941   2.547   0.036   5.057
 8348SOL     OW25942   1.581   0.326   1.543
 8348SOL    HW125943   1.521   0.387   1.594
 8348SOL    HW225944   1.669   0.319   1.591
 8349SOL     OW25945   5.459   3.673   1.043
 8349SOL    HW125946   5.473   3.574   1.052
 8349SOL    HW225947   5.544   3.715   1.011
 8350SOL     OW25948   5.707   0.772   5.013
 8350SOL    HW125949   5.623   0.826   5.015
 8350SOL    HW225950   5.707   0.716   4.930
 8351SOL     OW25951   3.547   5.481   4.223
 8351SOL    HW125952   3.483   5.462   4.298
 8351SOL    HW225953   3.579   5.395   4.184
 8352SOL     OW25954   6.569   0.127   2.056
 8352SOL    HW125955   6.499   0.057   2.047
 8352SOL    HW225956   6.658   0.089   2.033
 8353SOL     OW25957   5.906   4.026   2.349
 8353SOL    HW125958   5.998   4.064   2.332
 8353SOL    HW225959   5.873   4.058   2.438
 8354SOL     OW25960   3.099   1.363   6.599
 8354SOL    HW125961   3.177   1.395   6.546
 8354SOL    HW225962   3.024   1.339   6.538
 8355SOL     OW25963   2.982   0.889   0.014
 8355SOL    HW125964   3.012   0.899   6.935
 8355SOL    HW225965   2.912   0.817   0.020
 8356SOL     OW25966   0.797   6.670   0.265
 8356SOL    HW125967   0.776   6.725   0.346
 8356SOL    HW225968   0.767   6.576   0.279
 8357SOL     OW25969   4.012   5.511   5.106
 8357SOL    HW125970   4.078   5.573   5.148
 8357SOL    HW225971   3.977   5.551   5.021
 8358SOL     OW25972   2.053   2.457   5.524
 8358SOL    HW125973   2.142   2.499   5.546
 8358SOL    HW225974   2.068   2.363   5.494
 8359SOL     OW25975   4.157   5.970   4.755
 8359SOL    HW125976   4.100   5.920   4.820
 8359SOL    HW225977   4.099   6.019   4.690
 8360SOL     OW25978   3.825   0.364   2.840
 8360SOL    HW125979   3.845   0.303   2.764
 8360SOL    HW225980   3.847   0.458   2.814
 8361SOL     OW25981   1.676   1.258   2.304
 8361SOL    HW125982   1.775   1.248   2.301
 8361SOL    HW225983   1.651   1.326   2.372
 8362SOL     OW25984   3.066   2.377   0.713
 8362SOL    HW125985   3.165   2.372   0.725
 8362SOL    HW225986   3.022   2.398   0.801
 8363SOL     OW25987   0.881   2.757   0.742
 8363SOL    HW125988   0.805   2.747   0.677
 8363SOL    HW225989   0.877   2.683   0.809
 8364SOL     OW25990   6.828   3.305   2.706
 8364SOL    HW125991   6.750   3.252   2.741
 8364SOL    HW225992   6.856   3.268   2.618
 8365SOL     OW25993   2.213   3.575   0.802
 8365SOL    HW125994   2.163   3.539   0.881
 8365SOL    HW225995   2.153   3.575   0.722
 8366SOL     OW25996   4.579   6.024   2.233
 8366SOL    HW125997   4.619   6.020   2.141
 8366SOL    HW225998   4.643   5.984   2.299
 8367SOL     OW25999   4.860   6.311   3.787
 8367SOL    HW126000   4.785   6.273   3.841
 8367SOL    HW226001   4.869   6.260   3.701
 8368SOL     OW26002   2.866   5.691   6.336
 8368SOL    HW126003   2.963   5.708   6.318
 8368SOL    HW226004   2.814   5.774   6.316
 8369SOL     OW26005   1.693   0.843   0.157
 8369SOL    HW126006   1.667   0.931   0.118
 8369SOL    HW226007   1.762   0.800   0.099
 8370SOL     OW26008   2.865   2.078   5.761
 8370SOL    HW126009   2.930   2.137   5.809
 8370SOL    HW226010   2.910   1.994   5.732
 8371SOL     OW26011   1.402   3.338   0.193
 8371SOL    HW126012   1.407   3.328   0.293
 8371SOL    HW226013   1.312   3.374   0.169
 8372SOL     OW26014   0.450   6.997   2.678
 8372SOL    HW126015   0.424   6.947   2.761
 8372SOL    HW226016   0.439   6.936   2.599
 8373SOL     OW26017   0.709   6.634   5.431
 8373SOL    HW126018   0.657   6.619   5.515
 8373SOL    HW226019   0.662   6.590   5.355
 8374SOL     OW26020   0.291   0.997   0.088
 8374SOL    HW126021   0.208   1.048   0.109
 8374SOL    HW226022   0.365   1.061   0.068
 8375SOL     OW26023   3.269   5.860   5.884
 8375SOL    HW126024   3.224   5.897   5.803
 8375SOL    HW226025   3.328   5.783   5.858
 8376SOL     OW26026   2.455   0.567   4.472
 8376SOL    HW126027   2.484   0.627   4.397
 8376SOL    HW226028   2.376   0.514   4.443
 8377SOL     OW26029   5.697   5.687   1.347
 8377SOL    HW126030   5.722   5.780   1.318
 8377SOL    HW226031   5.645   5.692   1.433
 8378SOL     OW26032   5.228   3.897   3.365
 8378SOL    HW126033   5.209   3.804   3.399
 8378SOL    HW226034   5.157   3.959   3.398
 8379SOL     OW26035   6.553   3.643   2.047
 8379SOL    HW126036   6.583   3.736   2.029
 8379SOL    HW226037   6.529   3.598   1.961
 8380SOL     OW26038   6.041   1.335   2.452
 8380SOL    HW126039   6.079   1.272   2.384
 8380SOL    HW226040   5.958   1.377   2.416
 8381SOL     OW26041   0.681   5.125   4.666
 8381SOL    HW126042   0.717   5.043   4.711
 8381SOL    HW226043   0.690   5.203   4.728
 8382SOL     OW26044   1.413   1.742   2.326
 8382SOL    HW126045   1.350   1.819   2.336
 8382SOL    HW226046   1.478   1.761   2.252
 8383SOL     OW26047   2.612   2.052   6.623
 8383SOL    HW126048   2.579   2.099   6.705
 8383SOL    HW226049   2.553   2.075   6.545
 8384SOL     OW26050   0.032   6.545   0.899
 8384SOL    HW126051   0.095   6.572   0.972
 8384SOL    HW226052   0.056   6.593   0.814
 8385SOL     OW26053   5.468   2.646   1.990
 8385SOL    HW126054   5.428   2.720   1.936
 8385SOL    HW226055   5.520   2.585   1.930
 8386SOL     OW26056   0.987   4.219   2.337
 8386SOL    HW126057   0.892   4.190   2.339
 8386SOL    HW226058   1.045   4.145   2.371
 8387SOL     OW26059   1.520   1.095   0.965
 8387SOL    HW126060   1.460   1.138   0.897
 8387SOL    HW226061   1.477   1.102   1.055
 8388SOL     OW26062   3.187   6.013   1.504
 8388SOL    HW126063   3.208   6.079   1.576
 8388SOL    HW226064   3.241   5.930   1.518
 8389SOL     OW26065   5.597   3.465   2.147
 8389SOL    HW126066   5.581   3.553   2.104
 8389SOL    HW226067   5.510   3.416   2.155
 8390SOL     OW26068   3.574   2.200   6.289
 8390SOL    HW126069   3.497   2.257   6.262
 8390SOL    HW226070   3.544   2.132   6.356
 8391SOL     OW26071   6.058   0.023   0.791
 8391SOL    HW126072   6.028   6.958   0.740
 8391SOL    HW226073   6.093   0.091   0.727
 8392SOL     OW26074   6.555   3.649   4.680
 8392SOL    HW126075   6.497   3.621   4.757
 8392SOL    HW226076   6.515   3.616   4.594
 8393SOL     OW26077   4.871   0.493   2.047
 8393SOL    HW126078   4.886   0.460   1.954
 8393SOL    HW226079   4.955   0.482   2.100
 8394SOL     OW26080   6.290   3.846   2.618
 8394SOL    HW126081   6.241   3.779   2.674
 8394SOL    HW226082   6.310   3.927   2.674
 8395SOL     OW26083   2.259   0.496   5.381
 8395SOL    HW126084   2.222   0.531   5.467
 8395SOL    HW226085   2.326   0.561   5.346
 8396SOL     OW26086   4.298   5.035   4.172
 8396SOL    HW126087   4.318   5.107   4.105
 8396SOL    HW226088   4.201   5.014   4.171
 8397SOL     OW26089   6.545   1.419   4.143
 8397SOL    HW126090   6.529   1.344   4.079
 8397SOL    HW226091   6.518   1.390   4.235
 8398SOL     OW26092   4.883   1.857   6.281
 8398SOL    HW126093   4.798   1.881   6.326
 8398SOL    HW226094   4.914   1.934   6.225
 8399SOL     OW26095   6.669   6.124   6.714
 8399SOL    HW126096   6.620   6.058   6.771
 8399SOL    HW226097   6.746   6.162   6.764
 8400SOL     OW26098   1.435   2.038   4.205
 8400SOL    HW126099   1.352   2.094   4.209
 8400SOL    HW226100   1.438   1.989   4.118
 8401SOL     OW26101   2.254   0.241   5.294
 8401SOL    HW126102   2.230   0.328   5.336
 8401SOL    HW226103   2.346   0.246   5.255
 8402SOL     OW26104   4.973   0.909   5.847
 8402SOL    HW126105   5.014   0.917   5.938
 8402SOL    HW226106   4.888   0.856   5.854
 8403SOL     OW26107   6.285   4.517   4.002
 8403SOL    HW126108   6.282   4.456   4.081
 8403SOL    HW226109   6.192   4.549   3.982
 8404SOL     OW26110   2.397   2.005   6.040
 8404SOL    HW126111   2.479   1.964   6.002
 8404SOL    HW226112   2.419   2.048   6.128
 8405SOL     OW26113   3.767   1.547   5.538
 8405SOL    HW126114   3.810   1.467   5.580
 8405SOL    HW226115   3.811   1.630   5.572
 8406SOL     OW26116   5.106   0.898   6.721
 8406SOL    HW126117   5.157   0.812   6.725
 8406SOL    HW226118   5.110   0.933   6.627
 8407SOL     OW26119   4.031   6.390   3.361
 8407SOL    HW126120   3.969   6.400   3.283
 8407SOL    HW226121   4.063   6.295   3.365
 8408SOL     OW26122   5.275   6.814   1.093
 8408SOL    HW126123   5.318   6.821   1.003
 8408SOL    HW226124   5.196   6.752   1.087
 8409SOL     OW26125   4.379   2.370   1.962
 8409SOL    HW126126   4.404   2.463   1.988
 8409SOL    HW226127   4.437   2.339   1.886
 8410SOL     OW26128   6.872   2.035   1.611
 8410SOL    HW126129   6.823   2.109   1.656
 8410SOL    HW226130   6.929   2.073   1.538
 8411SOL     OW26131   0.215   6.006   1.345
 8411SOL    HW126132   0.246   6.071   1.276
 8411SOL    HW226133   0.288   5.940   1.363
 8412SOL     OW26134   3.283   3.161   0.705
 8412SOL    HW126135   3.312   3.085   0.762
 8412SOL    HW226136   3.212   3.130   0.641
 8413SOL     OW26137   4.042   5.403   6.060
 8413SOL    HW126138   4.103   5.471   6.019
 8413SOL    HW226139   4.076   5.376   6.150
 8414SOL     OW26140   1.545   0.897   2.692
 8414SOL    HW126141   1.611   0.926   2.624
 8414SOL    HW226142   1.588   0.895   2.782
 8415SOL     OW26143   3.125   0.011   4.150
 8415SOL    HW126144   3.139   0.097   4.200
 8415SOL    HW226145   3.193   6.960   4.179
 8416SOL     OW26146   5.913   1.555   4.904
 8416SOL    HW126147   5.884   1.500   4.982
 8416SOL    HW226148   5.978   1.624   4.934
 8417SOL     OW26149   1.370   3.367   5.130
 8417SOL    HW126150   1.356   3.435   5.059
 8417SOL    HW226151   1.391   3.278   5.088
 8418SOL     OW26152   0.955   5.407   2.320
 8418SOL    HW126153   0.945   5.457   2.235
 8418SOL    HW226154   1.050   5.412   2.351
 8419SOL     OW26155   5.445   1.096   2.762
 8419SOL    HW126156   5.359   1.109   2.810
 8419SOL    HW226157   5.520   1.136   2.815
 8420SOL     OW26158   3.911   6.862   2.375
 8420SOL    HW126159   3.853   6.796   2.327
 8420SOL    HW226160   3.863   6.899   2.454
 8421SOL     OW26161   3.985   6.421   6.022
 8421SOL    HW126162   4.052   6.440   6.093
 8421SOL    HW226163   4.017   6.344   5.966
 8422SOL     OW26164   4.760   2.664   2.517
 8422SOL    HW126165   4.680   2.607   2.501
 8422SOL    HW226166   4.770   2.730   2.442
 8423SOL     OW26167   5.291   4.244   5.352
 8423SOL    HW126168   5.290   4.181   5.430
 8423SOL    HW226169   5.224   4.316   5.367
 8424SOL     OW26170   1.939   0.309   3.638
 8424SOL    HW126171   2.022   0.359   3.663
 8424SOL    HW226172   1.963   0.220   3.600
 8425SOL     OW26173   3.261   3.487   3.532
 8425SOL    HW126174   3.213   3.478   3.445
 8425SOL    HW226175   3.249   3.403   3.585
 8426SOL     OW26176   3.854   3.272   2.414
 8426SOL    HW126177   3.770   3.223   2.388
 8426SOL    HW226178   3.907   3.215   2.477
 8427SOL     OW26179   3.147   3.145   3.447
 8427SOL    HW126180   3.232   3.179   3.407
 8427SOL    HW226181   3.097   3.091   3.379
 8428SOL     OW26182   0.193   0.419   0.680
 8428SOL    HW126183   0.287   0.384   0.673
 8428SOL    HW226184   0.195   0.518   0.691
 8429SOL     OW26185   1.965   5.705   6.271
 8429SOL    HW126186   1.995   5.609   6.266
 8429SOL    HW226187   1.958   5.742   6.178
 8430SOL     OW26188   4.365   5.821   3.998
 8430SOL    HW126189   4.370   5.732   3.954
 8430SOL    HW226190   4.411   5.817   4.087
 8431SOL     OW26191   2.425   2.940   6.445
 8431SOL    HW126192   2.491   2.940   6.370
 8431SOL    HW226193   2.346   2.996   6.420
 8432SOL     OW26194   6.790   5.308   5.746
 8432SOL    HW126195   6.785   5.210   5.764
 8432SOL    HW226196   6.747   5.358   5.822
 8433SOL     OW26197   4.738   2.228   1.416
 8433SOL    HW126198   4.667   2.166   1.451
 8433SOL    HW226199   4.810   2.175   1.372
 8434SOL     OW26200   1.951   5.423   4.651
 8434SOL    HW126201   1.983   5.454   4.561
 8434SOL    HW226202   1.884   5.488   4.686
 8435SOL     OW26203   5.262   0.782   2.652
 8435SOL    HW126204   5.200   0.830   2.714
 8435SOL    HW226205   5.318   0.718   2.704
 8436SOL     OW26206   2.503   6.552   3.636
 8436SOL    HW126207   2.405   6.560   3.655
 8436SOL    HW226208   2.552   6.621   3.689
 8437SOL     OW26209   2.231   2.993   2.449
 8437SOL    HW126210   2.172   3.062   2.406
 8437SOL    HW226211   2.288   3.036   2.518
 8438SOL     OW26212   1.670   3.770   3.054
 8438SOL    HW126213   1.708   3.726   3.135
 8438SOL    HW226214   1.642   3.863   3.076
 8439SOL     OW26215   6.030   4.857   3.590
 8439SOL    HW126216   6.096   4.818   3.526
 8439SOL    HW226217   5.982   4.784   3.637
 8440SOL     OW26218   2.158   1.792   3.251
 8440SOL    HW126219   2.227   1.861   3.233
 8440SOL    HW226220   2.126   1.801   3.346
 8441SOL     OW26221   5.675   6.024   5.285
 8441SOL    HW126222   5.696   6.076   5.367
 8441SOL    HW226223   5.729   5.939   5.285
 8442SOL     OW26224   3.841   0.899   5.337
 8442SOL    HW126225   3.858   0.953   5.254
 8442SOL    HW226226   3.852   0.958   5.418
 8443SOL     OW26227   2.147   4.755   3.305
 8443SOL    HW126228   2.070   4.811   3.337
 8443SOL    HW226229   2.113   4.682   3.247
 8444SOL     OW26230   4.495   6.569   2.886
 8444SOL    HW126231   4.471   6.592   2.980
 8444SOL    HW226232   4.416   6.529   2.840
 8445SOL     OW26233   2.754   6.738   6.769
 8445SOL    HW126234   2.822   6.715   6.838
 8445SOL    HW226235   2.798   6.746   6.680
 8446SOL     OW26236   0.242   6.485   5.036
 8446SOL    HW126237   0.221   6.572   5.082
 8446SOL    HW226238   0.337   6.460   5.055
 8447SOL     OW26239   4.384   1.776   2.851
 8447SOL    HW126240   4.454   1.706   2.861
 8447SOL    HW226241   4.428   1.864   2.830
 8448SOL     OW26242   5.159   6.793   3.420
 8448SOL    HW126243   5.113   6.788   3.508
 8448SOL    HW226244   5.239   6.733   3.420
 8449SOL     OW26245   1.794   2.669   3.124
 8449SOL    HW126246   1.750   2.632   3.206
 8449SOL    HW226247   1.835   2.758   3.146
 8450SOL     OW26248   6.920   0.841   0.124
 8450SOL    HW126249   6.832   0.795   0.119
 8450SOL    HW226250   6.981   0.791   0.185
 8451SOL     OW26251   3.776   1.466   1.271
 8451SOL    HW126252   3.861   1.519   1.267
 8451SOL    HW226253   3.721   1.486   1.190
 8452SOL     OW26254   5.167   1.779   4.886
 8452SOL    HW126255   5.226   1.797   4.965
 8452SOL    HW226256   5.213   1.811   4.803
 8453SOL     OW26257   0.896   6.097   6.727
 8453SOL    HW126258   0.834   6.166   6.765
 8453SOL    HW226259   0.857   6.006   6.741
 8454SOL     OW26260   0.869   4.023   7.009
 8454SOL    HW126261   0.877   4.023   0.093
 8454SOL    HW226262   0.958   4.044   6.968
 8455SOL     OW26263   0.825   0.312   2.482
 8455SOL    HW126264   0.846   0.407   2.459
 8455SOL    HW226265   0.797   0.307   2.578
 8456SOL     OW26266   5.107   0.739   3.119
 8456SOL    HW126267   5.086   0.793   3.038
 8456SOL    HW226268   5.174   0.668   3.096
 8457SOL     OW26269   6.137   6.544   4.322
 8457SOL    HW126270   6.174   6.500   4.240
 8457SOL    HW226271   6.045   6.577   4.303
 8458SOL     OW26272   0.411   0.099   0.252
 8458SOL    HW126273   0.342   0.157   0.296
 8458SOL    HW226274   0.371   0.055   0.172
 8459SOL     OW26275   1.303   5.717   3.415
 8459SOL    HW126276   1.218   5.712   3.467
 8459SOL    HW226277   1.300   5.797   3.354
 8460SOL     OW26278   3.813   4.118   5.001
 8460SOL    HW126279   3.819   4.045   5.070
 8460SOL    HW226280   3.894   4.176   5.007
 8461SOL     OW26281   6.924   3.242   4.626
 8461SOL    HW126282   6.858   3.208   4.693
 8461SOL    HW226283   6.900   3.208   4.535
 8462SOL     OW26284   2.853   1.813   1.413
 8462SOL    HW126285   2.906   1.844   1.493
 8462SOL    HW226286   2.757   1.836   1.426
 8463SOL     OW26287   6.194   0.532   2.201
 8463SOL    HW126288   6.181   0.612   2.259
 8463SOL    HW226289   6.127   0.462   2.225
 8464SOL     OW26290   5.917   3.232   4.867
 8464SOL    HW126291   5.869   3.287   4.799
 8464SOL    HW226292   5.948   3.291   4.942
 8465SOL     OW26293   1.454   1.688   0.780
 8465SOL    HW126294   1.455   1.727   0.688
 8465SOL    HW226295   1.546   1.691   0.820
 8466SOL     OW26296   1.036   5.877   3.393
 8466SOL    HW126297   1.033   5.965   3.439
 8466SOL    HW226298   1.006   5.805   3.456
 8467SOL     OW26299   2.542   5.207   0.860
 8467SOL    HW126300   2.594   5.125   0.882
 8467SOL    HW226301   2.546   5.223   0.761
 8468SOL     OW26302   4.085   2.041   7.001
 8468SOL    HW126303   4.076   1.980   6.922
 8468SOL    HW226304   4.103   1.987   0.067
 8469SOL     OW26305   3.235   2.701   6.470
 8469SOL    HW126306   3.215   2.779   6.412
 8469SOL    HW226307   3.167   2.629   6.455
 8470SOL     OW26308   2.506   2.850   0.945
 8470SOL    HW126309   2.521   2.841   0.846
 8470SOL    HW226310   2.594   2.854   0.992
 8471SOL     OW26311   3.107   0.396   4.077
 8471SOL    HW126312   3.039   0.339   4.030
 8471SOL    HW226313   3.094   0.492   4.053
 8472SOL     OW26314   0.752   6.784   4.597
 8472SOL    HW126315   0.725   6.881   4.592
 8472SOL    HW226316   0.679   6.732   4.642
 8473SOL     OW26317   6.573   5.422   6.837
 8473SOL    HW126318   6.573   5.328   6.873
 8473SOL    HW226319   6.509   5.477   6.891
 8474SOL     OW26320   3.561   3.118   1.709
 8474SOL    HW126321   3.506   3.185   1.660
 8474SOL    HW226322   3.515   3.094   1.795
 8475SOL     OW26323   5.884   1.982   2.859
 8475SOL    HW126324   5.981   1.997   2.878
 8475SOL    HW226325   5.847   1.920   2.928
 8476SOL     OW26326   4.999   1.012   1.944
 8476SOL    HW126327   5.039   0.964   2.022
 8476SOL    HW226328   4.901   1.023   1.960
 8477SOL     OW26329   2.561   6.709   1.244
 8477SOL    HW126330   2.548   6.617   1.283
 8477SOL    HW226331   2.633   6.706   1.175
 8478SOL     OW26332   1.741   0.515   5.746
 8478SOL    HW126333   1.671   0.563   5.799
 8478SOL    HW226334   1.734   0.543   5.650
 8479SOL     OW26335   6.087   1.107   0.616
 8479SOL    HW126336   6.140   1.167   0.556
 8479SOL    HW226337   5.993   1.101   0.582
 8480SOL     OW26338   3.414   0.637   1.120
 8480SOL    HW126339   3.456   0.596   1.202
 8480SOL    HW226340   3.399   0.566   1.051
 8481SOL     OW26341   3.382   1.475   4.893
 8481SOL    HW126342   3.306   1.462   4.957
 8481SOL    HW226343   3.372   1.412   4.816
 8482SOL     OW26344   1.129   0.056   2.038
 8482SOL    HW126345   1.102   0.062   1.942
 8482SOL    HW226346   1.136   6.976   2.065
 8483SOL     OW26347   3.603   5.825   1.829
 8483SOL    HW126348   3.671   5.831   1.902
 8483SOL    HW226349   3.521   5.875   1.856
 8484SOL     OW26350   0.914   5.084   4.422
 8484SOL    HW126351   0.995   5.115   4.472
 8484SOL    HW226352   0.837   5.074   4.486
 8485SOL     OW26353   2.258   3.951   0.001
 8485SOL    HW126354   2.287   3.858   6.992
 8485SOL    HW226355   2.304   4.017   6.957
 8486SOL     OW26356   5.955   0.930   2.420
 8486SOL    HW126357   5.907   0.843   2.403
 8486SOL    HW226358   5.958   0.948   2.518
 8487SOL     OW26359   5.342   0.518   1.666
 8487SOL    HW126360   5.430   0.531   1.712
 8487SOL    HW226361   5.306   0.607   1.637
 8488SOL     OW26362   5.098   4.600   4.159
 8488SOL    HW126363   5.029   4.534   4.190
 8488SOL    HW226364   5.052   4.679   4.118
 8489SOL     OW26365   5.338   4.288   1.372
 8489SOL    HW126366   5.362   4.248   1.460
 8489SOL    HW226367   5.274   4.364   1.387
 8490SOL     OW26368   4.022   5.521   3.227
 8490SOL    HW126369   4.116   5.555   3.238
 8490SOL    HW226370   3.965   5.593   3.187
 8491SOL     OW26371   2.408   0.334   2.045
 8491SOL    HW126372   2.376   0.326   1.950
 8491SOL    HW226373   2.480   0.267   2.061
 8492SOL     OW26374   6.157   2.476   5.251
 8492SOL    HW126375   6.078   2.488   5.312
 8492SOL    HW226376   6.195   2.385   5.263
 8493SOL     OW26377   4.378   1.607   0.259
 8493SOL    HW126378   4.461   1.553   0.248
 8493SOL    HW226379   4.362   1.661   0.176
 8494SOL     OW26380   2.642   5.769   0.123
 8494SOL    HW126381   2.585   5.764   0.040
 8494SOL    HW226382   2.598   5.831   0.188
 8495SOL     OW26383   6.601   2.538   0.846
 8495SOL    HW126384   6.622   2.476   0.921
 8495SOL    HW226385   6.504   2.533   0.824
 8496SOL     OW26386   0.255   2.355   2.855
 8496SOL    HW126387   0.177   2.418   2.851
 8496SOL    HW226388   0.232   2.270   2.808
 8497SOL     OW26389   6.165   5.014   3.761
 8497SOL    HW126390   6.218   5.077   3.705
 8497SOL    HW226391   6.089   4.977   3.707
 8498SOL     OW26392   0.471   0.435   1.136
 8498SOL    HW126393   0.455   0.522   1.089
 8498SOL    HW226394   0.514   0.453   1.225
 8499SOL     OW26395   3.185   4.646   6.705
 8499SOL    HW126396   3.273   4.597   6.705
 8499SOL    HW226397   3.146   4.643   6.797
 8500SOL     OW26398   2.242   6.920   6.173
 8500SOL    HW126399   2.251   6.908   6.074
 8500SOL    HW226400   2.332   6.913   6.216
 8501SOL     OW26401   2.327   3.531   6.380
 8501SOL    HW126402   2.374   3.550   6.294
 8501SOL    HW226403   2.273   3.611   6.408
 8502SOL     OW26404   0.122   6.327   1.547
 8502SOL    HW126405   0.061   6.393   1.590
 8502SOL    HW226406   0.078   6.237   1.545
 8503SOL     OW26407   2.609   5.411   3.377
 8503SOL    HW126408   2.650   5.479   3.316
 8503SOL    HW226409   2.517   5.388   3.345
 8504SOL     OW26410   1.736   5.720   3.317
 8504SOL    HW126411   1.675   5.642   3.302
 8504SOL    HW226412   1.709   5.767   3.401
 8505SOL     OW26413   5.316   4.180   3.692
 8505SOL    HW126414   5.323   4.081   3.704
 8505SOL    HW226415   5.250   4.218   3.757
 8506SOL     OW26416   1.180   6.463   0.294
 8506SOL    HW126417   1.118   6.522   0.240
 8506SOL    HW226418   1.126   6.408   0.358
 8507SOL     OW26419   2.125   1.170   6.072
 8507SOL    HW126420   2.202   1.121   6.030
 8507SOL    HW226421   2.160   1.250   6.120
 8508SOL     OW26422   0.343   2.179   5.598
 8508SOL    HW126423   0.333   2.265   5.647
 8508SOL    HW226424   0.434   2.142   5.614
 8509SOL     OW26425   5.853   1.330   4.401
 8509SOL    HW126426   5.866   1.388   4.482
 8509SOL    HW226427   5.758   1.335   4.372
 8510SOL     OW26428   5.222   5.752   3.139
 8510SOL    HW126429   5.126   5.771   3.119
 8510SOL    HW226430   5.234   5.656   3.163
 8511SOL     OW26431   6.627   4.369   1.027
 8511SOL    HW126432   6.583   4.414   1.104
 8511SOL    HW226433   6.557   4.325   0.970
 8512SOL     OW26434   4.439   2.293   0.155
 8512SOL    HW126435   4.395   2.334   0.076
 8512SOL    HW226436   4.370   2.250   0.213
 8513SOL     OW26437   5.726   3.752   0.736
 8513SOL    HW126438   5.688   3.836   0.776
 8513SOL    HW226439   5.727   3.680   0.805
 8514SOL     OW26440   2.775   1.668   4.795
 8514SOL    HW126441   2.826   1.753   4.782
 8514SOL    HW226442   2.827   1.593   4.753
 8515SOL     OW26443   0.543   1.474   0.021
 8515SOL    HW126444   0.556   1.466   6.937
 8515SOL    HW226445   0.614   1.534   0.059
 8516SOL     OW26446   5.841   3.082   2.579
 8516SOL    HW126447   5.891   3.026   2.645
 8516SOL    HW226448   5.768   3.131   2.627
 8517SOL     OW26449   1.998   2.722   5.424
 8517SOL    HW126450   2.061   2.795   5.449
 8517SOL    HW226451   2.034   2.634   5.455
 8518SOL     OW26452   4.901   4.713   6.307
 8518SOL    HW126453   4.964   4.757   6.244
 8518SOL    HW226454   4.921   4.743   6.401
 8519SOL     OW26455   1.689   4.237   0.766
 8519SOL    HW126456   1.677   4.150   0.717
 8519SOL    HW226457   1.600   4.269   0.800
 8520SOL     OW26458   4.121   3.790   5.036
 8520SOL    HW126459   4.105   3.812   4.939
 8520SOL    HW226460   4.152   3.695   5.043
 8521SOL     OW26461   1.207   6.636   5.614
 8521SOL    HW126462   1.269   6.626   5.536
 8521SOL    HW226463   1.115   6.658   5.582
 8522SOL     OW26464   1.421   6.814   0.165
 8522SOL    HW126465   1.336   6.857   0.196
 8522SOL    HW226466   1.496   6.840   0.226
 8523SOL     OW26467   2.973   6.800   6.275
 8523SOL    HW126468   2.904   6.742   6.232
 8523SOL    HW226469   3.048   6.817   6.211
 8524SOL     OW26470   1.086   5.112   4.999
 8524SOL    HW126471   1.115   5.031   5.050
 8524SOL    HW226472   1.103   5.194   5.054
 8525SOL     OW26473   6.307   4.491   0.960
 8525SOL    HW126474   6.374   4.533   1.021
 8525SOL    HW226475   6.303   4.392   0.976
 8526SOL     OW26476   2.439   6.242   0.586
 8526SOL    HW126477   2.388   6.278   0.664
 8526SOL    HW226478   2.375   6.222   0.512
 8527SOL     OW26479   3.387   0.517   6.736
 8527SOL    HW126480   3.339   0.604   6.751
 8527SOL    HW226481   3.438   0.522   6.650
 8528SOL     OW26482   4.912   2.124   1.230
 8528SOL    HW126483   4.845   2.155   1.162
 8528SOL    HW226484   4.997   2.100   1.183
 8529SOL     OW26485   1.261   6.344   6.669
 8529SOL    HW126486   1.321   6.415   6.705
 8529SOL    HW226487   1.300   6.254   6.688
 8530SOL     OW26488   3.064   3.255   3.928
 8530SOL    HW126489   3.025   3.328   3.983
 8530SOL    HW226490   3.004   3.237   3.849
 8531SOL     OW26491   6.626   6.229   3.556
 8531SOL    HW126492   6.708   6.186   3.518
 8531SOL    HW226493   6.581   6.164   3.618
 8532SOL     OW26494   3.935   6.475   4.011
 8532SOL    HW126495   3.882   6.396   3.980
 8532SOL    HW226496   3.894   6.559   3.974
 8533SOL     OW26497   1.124   6.127   6.529
 8533SOL    HW126498   1.037   6.107   6.574
 8533SOL    HW226499   1.152   6.221   6.549
 8534SOL     OW26500   4.553   2.145   4.268
 8534SOL    HW126501   4.496   2.067   4.295
 8534SOL    HW226502   4.506   2.230   4.292
 8535SOL     OW26503   5.462   0.964   3.467
 8535SOL    HW126504   5.523   1.024   3.519
 8535SOL    HW226505   5.403   0.914   3.530
 8536SOL     OW26506   0.572   1.170   4.571
 8536SOL    HW126507   0.581   1.267   4.548
 8536SOL    HW226508   0.630   1.149   4.650
 8537SOL     OW26509   6.222   1.370   3.622
 8537SOL    HW126510   6.259   1.447   3.571
 8537SOL    HW226511   6.182   1.402   3.708
 8538SOL     OW26512   1.203   1.504   0.172
 8538SOL    HW126513   1.231   1.502   0.076
 8538SOL    HW226514   1.271   1.555   0.225
 8539SOL     OW26515   6.220   2.652   3.176
 8539SOL    HW126516   6.163   2.599   3.114
 8539SOL    HW226517   6.224   2.747   3.145
 8540SOL     OW26518   4.161   0.485   6.284
 8540SOL    HW126519   4.260   0.493   6.272
 8540SOL    HW226520   4.123   0.425   6.213
 8541SOL     OW26521   2.565   2.175   4.112
 8541SOL    HW126522   2.633   2.245   4.090
 8541SOL    HW226523   2.524   2.195   4.201
 8542SOL     OW26524   3.874   4.189   6.254
 8542SOL    HW126525   3.922   4.269   6.218
 8542SOL    HW226526   3.778   4.193   6.226
 8543SOL     OW26527   2.088   2.448   0.218
 8543SOL    HW126528   2.048   2.383   0.153
 8543SOL    HW226529   2.175   2.412   0.252
 8544SOL     OW26530   5.399   2.253   4.450
 8544SOL    HW126531   5.433   2.176   4.396
 8544SOL    HW226532   5.431   2.244   4.544
 8545SOL     OW26533   5.107   6.380   5.567
 8545SOL    HW126534   5.130   6.472   5.535
 8545SOL    HW226535   5.167   6.355   5.643
 8546SOL     OW26536   5.404   1.615   3.885
 8546SOL    HW126537   5.424   1.640   3.791
 8546SOL    HW226538   5.435   1.688   3.947
 8547SOL     OW26539   1.486   5.040   4.680
 8547SOL    HW126540   1.548   5.064   4.755
 8547SOL    HW226541   1.539   5.022   4.597
 8548SOL     OW26542   5.382   1.578   5.690
 8548SOL    HW126543   5.327   1.662   5.696
 8548SOL    HW226544   5.366   1.522   5.771
 8549SOL     OW26545   6.531   3.621   3.897
 8549SOL    HW126546   6.444   3.651   3.936
 8549SOL    HW226547   6.591   3.591   3.972
 8550SOL     OW26548   1.717   5.552   6.408
 8550SOL    HW126549   1.772   5.634   6.390
 8550SOL    HW226550   1.774   5.484   6.455
 8551SOL     OW26551   3.762   4.330   6.482
 8551SOL    HW126552   3.760   4.351   6.384
 8551SOL    HW226553   3.848   4.364   6.521
 8552SOL     OW26554   3.313   5.798   3.159
 8552SOL    HW126555   3.277   5.722   3.106
 8552SOL    HW226556   3.239   5.846   3.205
 8553SOL     OW26557   5.053   6.732   0.421
 8553SOL    HW126558   5.046   6.641   0.462
 8553SOL    HW226559   5.040   6.724   0.322
 8554SOL     OW26560   0.486   4.389   6.911
 8554SOL    HW126561   0.434   4.305   6.903
 8554SOL    HW226562   0.567   4.385   6.852
 8555SOL     OW26563   0.977   0.990   3.617
 8555SOL    HW126564   0.931   0.981   3.705
 8555SOL    HW226565   0.930   1.056   3.560
 8556SOL     OW26566   6.751   0.818   3.517
 8556SOL    HW126567   6.687   0.764   3.573
 8556SOL    HW226568   6.814   0.867   3.577
 8557SOL     OW26569   0.079   6.708   1.349
 8557SOL    HW126570   0.133   6.628   1.375
 8557SOL    HW226571   0.114   6.747   1.264
 8558SOL     OW26572   2.300   5.305   2.292
 8558SOL    HW126573   2.267   5.397   2.272
 8558SOL    HW226574   2.224   5.240   2.287
 8559SOL     OW26575   0.752   0.589   1.598
 8559SOL    HW126576   0.692   0.667   1.611
 8559SOL    HW226577   0.796   0.565   1.684
 8560SOL     OW26578   6.995   1.551   0.402
 8560SOL    HW126579   6.919   1.517   0.456
 8560SOL    HW226580   6.971   1.551   0.305
 8561SOL     OW26581   4.863   6.363   2.745
 8561SOL    HW126582   4.799   6.327   2.813
 8561SOL    HW226583   4.933   6.295   2.725
 8562SOL     OW26584   3.879   6.396   4.544
 8562SOL    HW126585   3.824   6.437   4.616
 8562SOL    HW226586   3.826   6.395   4.459
 8563SOL     OW26587   2.571   2.975   6.867
 8563SOL    HW126588   2.492   2.969   6.927
 8563SOL    HW226589   2.556   2.919   6.786
 8564SOL     OW26590   0.826   6.965   3.610
 8564SOL    HW126591   0.766   6.895   3.571
 8564SOL    HW226592   0.794   0.040   3.584
 8565SOL     OW26593   3.804   0.069   0.508
 8565SOL    HW126594   3.764   0.138   0.447
 8565SOL    HW226595   3.732   0.020   0.556
 8566SOL     OW26596   1.126   2.368   3.276
 8566SOL    HW126597   1.165   2.352   3.366
 8566SOL    HW226598   1.049   2.307   3.261
 8567SOL     OW26599   5.727   1.560   0.923
 8567SOL    HW126600   5.805   1.503   0.949
 8567SOL    HW226601   5.757   1.655   0.910
 8568SOL     OW26602   5.099   2.135   0.296
 8568SOL    HW126603   5.056   2.210   0.346
 8568SOL    HW226604   5.198   2.150   0.292
 8569SOL     OW26605   4.641   1.043   4.490
 8569SOL    HW126606   4.580   1.122   4.477
 8569SOL    HW226607   4.685   1.050   4.579
 8570SOL     OW26608   0.844   3.956   6.513
 8570SOL    HW126609   0.772   4.023   6.496
 8570SOL    HW226610   0.803   3.871   6.546
 8571SOL     OW26611   6.671   4.292   4.548
 8571SOL    HW126612   6.632   4.325   4.635
 8571SOL    HW226613   6.732   4.362   4.511
 8572SOL     OW26614   1.941   4.807   5.460
 8572SOL    HW126615   2.017   4.852   5.413
 8572SOL    HW226616   1.899   4.871   5.525
 8573SOL     OW26617   4.525   6.143   6.209
 8573SOL    HW126618   4.482   6.161   6.298
 8573SOL    HW226619   4.618   6.108   6.224
 8574SOL     OW26620   0.342   3.922   5.573
 8574SOL    HW126621   0.419   3.934   5.636
 8574SOL    HW226622   0.293   3.838   5.595
 8575SOL     OW26623   2.772   2.720   0.612
 8575SOL    HW126624   2.776   2.679   0.703
 8575SOL    HW226625   2.855   2.696   0.561
 8576SOL     OW26626   1.024   0.197   1.624
 8576SOL    HW126627   1.022   0.162   1.531
 8576SOL    HW226628   1.110   0.171   1.668
 8577SOL     OW26629   6.160   5.481   2.838
 8577SOL    HW126630   6.123   5.526   2.757
 8577SOL    HW226631   6.234   5.536   2.875
 8578SOL     OW26632   4.535   0.320   3.677
 8578SOL    HW126633   4.458   0.282   3.729
 8578SOL    HW226634   4.618   0.318   3.733
 8579SOL     OW26635   1.416   4.658   3.285
 8579SOL    HW126636   1.423   4.657   3.385
 8579SOL    HW226637   1.468   4.581   3.248
 8580SOL     OW26638   1.423   6.187   1.651
 8580SOL    HW126639   1.326   6.186   1.626
 8580SOL    HW226640   1.461   6.278   1.637
 8581SOL     OW26641   3.232   1.532   1.327
 8581SOL    HW126642   3.270   1.535   1.419
 8581SOL    HW226643   3.256   1.445   1.284
 8582SOL     OW26644   4.437   4.629   2.118
 8582SOL    HW126645   4.440   4.589   2.027
 8582SOL    HW226646   4.423   4.728   2.111
 8583SOL     OW26647   6.264   0.089   6.083
 8583SOL    HW126648   6.190   0.112   6.020
 8583SOL    HW226649   6.312   0.008   6.051
 8584SOL     OW26650   0.036   4.851   0.520
 8584SOL    HW126651   0.030   4.843   0.421
 8584SOL    HW226652   7.009   4.771   0.563
 8585SOL     OW26653   0.217   0.578   0.437
 8585SOL    HW126654   0.307   0.557   0.399
 8585SOL    HW226655   0.227   0.632   0.520
 8586SOL     OW26656   3.741   6.396   3.024
 8586SOL    HW126657   3.735   6.306   3.067
 8586SOL    HW226658   3.808   6.393   2.950
 8587SOL     OW26659   6.903   1.679   2.657
 8587SOL    HW126660   6.804   1.666   2.652
 8587SOL    HW226661   6.927   1.762   2.606
 8588SOL     OW26662   3.922   2.350   0.493
 8588SOL    HW126663   3.924   2.374   0.395
 8588SOL    HW226664   3.984   2.273   0.510
 8589SOL     OW26665   3.401   0.928   4.701
 8589SOL    HW126666   3.311   0.914   4.659
 8589SOL    HW226667   3.462   0.972   4.636
 8590SOL     OW26668   6.449   4.995   4.440
 8590SOL    HW126669   6.477   4.905   4.472
 8590SOL    HW226670   6.374   4.986   4.375
 8591SOL     OW26671   1.239   3.223   6.142
 8591SOL    HW126672   1.257   3.186   6.051
 8591SOL    HW226673   1.315   3.281   6.170
 8592SOL     OW26674   6.997   4.246   1.017
 8592SOL    HW126675   0.037   4.279   1.094
 8592SOL    HW226676   6.907   4.221   1.050
 8593SOL     OW26677   1.747   6.457   2.039
 8593SOL    HW126678   1.752   6.537   2.099
 8593SOL    HW226679   1.777   6.483   1.947
 8594SOL     OW26680   3.252   3.592   4.029
 8594SOL    HW126681   3.162   3.634   4.025
 8594SOL    HW226682   3.257   3.531   4.109
 8595SOL     OW26683   1.650   2.309   2.360
 8595SOL    HW126684   1.654   2.212   2.383
 8595SOL    HW226685   1.620   2.362   2.439
 8596SOL     OW26686   5.313   4.836   1.557
 8596SOL    HW126687   5.362   4.753   1.582
 8596SOL    HW226688   5.276   4.880   1.639
 8597SOL     OW26689   2.886   1.239   0.851
 8597SOL    HW126690   2.805   1.297   0.853
 8597SOL    HW226691   2.886   1.185   0.768
 8598SOL     OW26692   6.418   3.613   1.054
 8598SOL    HW126693   6.500   3.654   1.094
 8598SOL    HW226694   6.342   3.678   1.060
 8599SOL     OW26695   0.862   2.675   2.950
 8599SOL    HW126696   0.787   2.706   2.892
 8599SOL    HW226697   0.840   2.586   2.989
 8600SOL     OW26698   6.570   5.137   6.512
 8600SOL    HW126699   6.521   5.085   6.443
 8600SOL    HW226700   6.511   5.211   6.546
 8601SOL     OW26701   6.832   0.467   3.825
 8601SOL    HW126702   6.875   0.507   3.906
 8601SOL    HW226703   6.824   0.368   3.838
 8602SOL     OW26704   2.857   5.619   2.222
 8602SOL    HW126705   2.956   5.605   2.218
 8602SOL    HW226706   2.812   5.531   2.239
 8603SOL     OW26707   3.857   3.027   0.062
 8603SOL    HW126708   3.950   3.026   0.027
 8603SOL    HW226709   3.793   3.041   7.002
 8604SOL     OW26710   5.484   3.111   3.717
 8604SOL    HW126711   5.404   3.117   3.658
 8604SOL    HW226712   5.457   3.076   3.806
 8605SOL     OW26713   2.721   6.036   3.847
 8605SOL    HW126714   2.717   5.988   3.934
 8605SOL    HW226715   2.718   5.969   3.772
 8606SOL     OW26716   3.128   4.941   6.339
 8606SOL    HW126717   3.192   4.993   6.283
 8606SOL    HW226718   3.161   4.847   6.350
 8607SOL     OW26719   4.116   5.823   2.165
 8607SOL    HW126720   4.100   5.823   2.066
 8607SOL    HW226721   4.192   5.884   2.186
 8608SOL     OW26722   3.888   5.140   2.939
 8608SOL    HW126723   3.833   5.152   3.022
 8608SOL    HW226724   3.985   5.151   2.962
 8609SOL     OW26725   3.472   0.298   5.225
 8609SOL    HW126726   3.406   0.224   5.215
 8609SOL    HW226727   3.454   0.368   5.155
 8610SOL     OW26728   1.112   6.317   3.221
 8610SOL    HW126729   1.018   6.351   3.211
 8610SOL    HW226730   1.175   6.395   3.223
 8611SOL     OW26731   1.932   2.019   4.726
 8611SOL    HW126732   1.989   2.046   4.649
 8611SOL    HW226733   1.870   2.094   4.750
 8612SOL     OW26734   3.585   2.840   6.925
 8612SOL    HW126735   3.534   2.802   6.848
 8612SOL    HW226736   3.532   2.827   7.009
 8613SOL     OW26737   1.932   1.413   1.261
 8613SOL    HW126738   1.987   1.354   1.320
 8613SOL    HW226739   1.929   1.505   1.298
 8614SOL     OW26740   1.014   3.403   2.832
 8614SOL    HW126741   0.921   3.437   2.820
 8614SOL    HW226742   1.078   3.478   2.820
 8615SOL     OW26743   3.905   2.223   5.791
 8615SOL    HW126744   3.842   2.300   5.807
 8615SOL    HW226745   3.904   2.162   5.870
 8616SOL     OW26746   1.218   4.813   0.360
 8616SOL    HW126747   1.274   4.738   0.324
 8616SOL    HW226748   1.232   4.822   0.458
 8617SOL     OW26749   6.051   2.491   0.749
 8617SOL    HW126750   6.082   2.471   0.842
 8617SOL    HW226751   5.951   2.496   0.748
 8618SOL     OW26752   4.410   0.302   2.770
 8618SOL    HW126753   4.315   0.330   2.756
 8618SOL    HW226754   4.465   0.380   2.798
 8619SOL     OW26755   4.179   4.996   0.229
 8619SOL    HW126756   4.184   5.082   0.179
 8619SOL    HW226757   4.086   4.959   0.221
 8620SOL     OW26758   5.449   6.585   2.162
 8620SOL    HW126759   5.356   6.550   2.155
 8620SOL    HW226760   5.449   6.684   2.150
 8621SOL     OW26761   5.833   1.348   3.876
 8621SOL    HW126762   5.814   1.404   3.796
 8621SOL    HW226763   5.816   1.401   3.959
 8622SOL     OW26764   4.888   5.298   0.221
 8622SOL    HW126765   4.938   5.333   0.300
 8622SOL    HW226766   4.824   5.367   0.188
 8623SOL     OW26767   1.138   4.029   3.042
 8623SOL    HW126768   1.104   4.017   3.135
 8623SOL    HW226769   1.068   4.073   2.986
 8624SOL     OW26770   0.890   4.208   3.339
 8624SOL    HW126771   0.916   4.113   3.318
 8624SOL    HW226772   0.791   4.213   3.353
 8625SOL     OW26773   4.601   0.819   4.685
 8625SOL    HW126774   4.648   0.787   4.603
 8625SOL    HW226775   4.510   0.853   4.659
 8626SOL     OW26776   3.422   3.202   4.148
 8626SOL    HW126777   3.339   3.186   4.200
 8626SOL    HW226778   3.432   3.300   4.129
 8627SOL     OW26779   1.253   0.799   1.259
 8627SOL    HW126780   1.217   0.771   1.170
 8627SOL    HW226781   1.246   0.723   1.324
 8628SOL     OW26782   6.477   1.048   6.934
 8628SOL    HW126783   6.454   1.002   6.849
 8628SOL    HW226784   6.547   1.118   6.917
 8629SOL     OW26785   0.985   4.671   4.012
 8629SOL    HW126786   1.002   4.599   4.079
 8629SOL    HW226787   0.936   4.746   4.056
 8630SOL     OW26788   5.656   4.332   3.998
 8630SOL    HW126789   5.638   4.319   3.901
 8630SOL    HW226790   5.748   4.298   4.019
 8631SOL     OW26791   3.812   5.826   4.971
 8631SOL    HW126792   3.776   5.733   4.983
 8631SOL    HW226793   3.905   5.831   5.008
 8632SOL     OW26794   3.316   0.586   3.840
 8632SOL    HW126795   3.236   0.623   3.886
 8632SOL    HW226796   3.320   0.487   3.854
 8633SOL     OW26797   5.362   1.031   3.870
 8633SOL    HW126798   5.455   1.062   3.849
 8633SOL    HW226799   5.365   0.969   3.948
 8634SOL     OW26800   6.726   4.219   2.031
 8634SOL    HW126801   6.632   4.186   2.041
 8634SOL    HW226802   6.725   4.319   2.023
 8635SOL     OW26803   6.287   3.949   5.871
 8635SOL    HW126804   6.193   3.919   5.852
 8635SOL    HW226805   6.340   3.948   5.787
 8636SOL     OW26806   6.446   5.966   0.505
 8636SOL    HW126807   6.427   5.968   0.603
 8636SOL    HW226808   6.542   5.990   0.489
 8637SOL     OW26809   1.898   0.780   0.407
 8637SOL    HW126810   1.862   0.690   0.385
 8637SOL    HW226811   1.870   0.845   0.337
 8638SOL     OW26812   2.671   4.447   6.952
 8638SOL    HW126813   2.660   4.430   6.855
 8638SOL    HW226814   2.655   4.363   7.003
 8639SOL     OW26815   5.358   3.470   1.826
 8639SOL    HW126816   5.350   3.562   1.791
 8639SOL    HW226817   5.394   3.409   1.755
 8640SOL     OW26818   4.775   4.231   0.828
 8640SOL    HW126819   4.682   4.265   0.813
 8640SOL    HW226820   4.831   4.304   0.867
 8641SOL     OW26821   0.231   4.321   3.550
 8641SOL    HW126822   0.247   4.385   3.626
 8641SOL    HW226823   0.315   4.313   3.495
 8642SOL     OW26824   4.744   0.997   2.015
 8642SOL    HW126825   4.764   0.900   2.002
 8642SOL    HW226826   4.652   1.007   2.053
 8643SOL     OW26827   4.436   0.578   6.350
 8643SOL    HW126828   4.470   0.564   6.443
 8643SOL    HW226829   4.384   0.664   6.346
 8644SOL     OW26830   5.404   2.647   4.765
 8644SOL    HW126831   5.490   2.596   4.772
 8644SOL    HW226832   5.354   2.639   4.851
 8645SOL     OW26833   6.592   3.787   1.182
 8645SOL    HW126834   6.533   3.805   1.261
 8645SOL    HW226835   6.688   3.793   1.209
 8646SOL     OW26836   5.251   1.171   6.914
 8646SOL    HW126837   5.265   1.231   6.993
 8646SOL    HW226838   5.211   1.223   6.839
 8647SOL     OW26839   3.907   4.902   0.206
 8647SOL    HW126840   3.809   4.895   0.226
 8647SOL    HW226841   3.925   4.865   0.114
 8648SOL     OW26842   5.538   0.373   4.709
 8648SOL    HW126843   5.584   0.462   4.712
 8648SOL    HW226844   5.602   0.302   4.739
 8649SOL     OW26845   6.132   4.102   5.321
 8649SOL    HW126846   6.065   4.131   5.252
 8649SOL    HW226847   6.088   4.040   5.386
 8650SOL     OW26848   1.965   4.873   3.754
 8650SOL    HW126849   1.939   4.963   3.720
 8650SOL    HW226850   2.040   4.837   3.698
 8651SOL     OW26851   3.535   1.808   0.248
 8651SOL    HW126852   3.535   1.722   0.300
 8651SOL    HW226853   3.443   1.827   0.214
 8652SOL     OW26854   2.196   3.896   3.295
 8652SOL    HW126855   2.224   3.989   3.318
 8652SOL    HW226856   2.189   3.888   3.195
 8653SOL     OW26857   0.446   2.508   6.365
 8653SOL    HW126858   0.390   2.565   6.305
 8653SOL    HW226859   0.409   2.511   6.458
 8654SOL     OW26860   0.440   6.639   3.328
 8654SOL    HW126861   0.343   6.645   3.352
 8654SOL    HW226862   0.456   6.555   3.276
 8655SOL     OW26863   5.903   6.589   4.113
 8655SOL    HW126864   5.916   6.682   4.079
 8655SOL    HW226865   5.807   6.574   4.135
 8656SOL     OW26866   5.893   1.134   1.146
 8656SOL    HW126867   5.923   1.223   1.112
 8656SOL    HW226868   5.905   1.130   1.245
 8657SOL     OW26869   5.124   5.179   6.247
 8657SOL    HW126870   5.184   5.181   6.167
 8657SOL    HW226871   5.155   5.107   6.309
 8658SOL     OW26872   5.427   4.789   0.149
 8658SOL    HW126873   5.468   4.801   0.239
 8658SOL    HW226874   5.339   4.837   0.145
 8659SOL     OW26875   4.516   0.793   2.846
 8659SOL    HW126876   4.585   0.864   2.859
 8659SOL    HW226877   4.436   0.833   2.800
 8660SOL     OW26878   6.157   3.943   0.474
 8660SOL    HW126879   6.192   4.016   0.533
 8660SOL    HW226880   6.059   3.934   0.488
 8661SOL     OW26881   6.457   4.197   1.951
 8661SOL    HW126882   6.429   4.202   1.855
 8661SOL    HW226883   6.404   4.126   1.998
 8662SOL     OW26884   6.319   6.555   1.107
 8662SOL    HW126885   6.253   6.531   1.035
 8662SOL    HW226886   6.277   6.619   1.171
 8663SOL     OW26887   2.143   5.375   0.921
 8663SOL    HW126888   2.200   5.293   0.920
 8663SOL    HW226889   2.057   5.355   0.968
 8664SOL     OW26890   3.858   5.678   6.780
 8664SOL    HW126891   3.769   5.689   6.736
 8664SOL    HW226892   3.861   5.591   6.829
 8665SOL     OW26893   4.387   5.499   5.108
 8665SOL    HW126894   4.479   5.534   5.091
 8665SOL    HW226895   4.387   5.445   5.192
 8666SOL     OW26896   4.834   2.173   5.348
 8666SOL    HW126897   4.825   2.246   5.280
 8666SOL    HW226898   4.802   2.206   5.437
 8667SOL     OW26899   5.378   1.793   3.094
 8667SOL    HW126900   5.416   1.725   3.157
 8667SOL    HW226901   5.415   1.777   3.002
 8668SOL     OW26902   5.242   2.544   4.552
 8668SOL    HW126903   5.282   2.596   4.628
 8668SOL    HW226904   5.308   2.538   4.478
 8669SOL     OW26905   4.130   1.221   6.209
 8669SOL    HW126906   4.070   1.145   6.233
 8669SOL    HW226907   4.146   1.221   6.110
 8670SOL     OW26908   3.918   5.765   4.466
 8670SOL    HW126909   3.966   5.835   4.412
 8670SOL    HW226910   3.850   5.810   4.524
 8671SOL     OW26911   5.823   6.764   3.724
 8671SOL    HW126912   5.828   6.854   3.681
 8671SOL    HW226913   5.739   6.758   3.778
 8672SOL     OW26914   2.826   5.284   4.203
 8672SOL    HW126915   2.833   5.376   4.242
 8672SOL    HW226916   2.886   5.222   4.254
 8673SOL     OW26917   0.099   2.117   0.437
 8673SOL    HW126918   0.079   2.020   0.451
 8673SOL    HW226919   0.040   2.172   0.497
 8674SOL     OW26920   0.061   6.885   2.774
 8674SOL    HW126921   0.029   6.824   2.701
 8674SOL    HW226922   0.000   6.877   2.853
 8675SOL     OW26923   2.799   1.807   3.862
 8675SOL    HW126924   2.881   1.861   3.882
 8675SOL    HW226925   2.811   1.757   3.777
 8676SOL     OW26926   3.484   0.492   2.571
 8676SOL    HW126927   3.476   0.454   2.664
 8676SOL    HW226928   3.560   0.448   2.524
 8677SOL     OW26929   2.706   4.851   6.131
 8677SOL    HW126930   2.661   4.941   6.131
 8677SOL    HW226931   2.747   4.835   6.221
 8678SOL     OW26932   1.538   0.075   6.485
 8678SOL    HW126933   1.466   0.095   6.551
 8678SOL    HW226934   1.500   0.079   6.392
 8679SOL     OW26935   6.052   1.790   4.996
 8679SOL    HW126936   6.061   1.889   4.982
 8679SOL    HW226937   6.068   1.768   5.092
 8680SOL     OW26938   2.089   2.876   0.727
 8680SOL    HW126939   2.020   2.914   0.788
 8680SOL    HW226940   2.180   2.900   0.760
 8681SOL     OW26941   4.287   4.745   0.523
 8681SOL    HW126942   4.279   4.693   0.438
 8681SOL    HW226943   4.354   4.701   0.582
 8682SOL     OW26944   2.731   6.622   2.903
 8682SOL    HW126945   2.755   6.624   2.806
 8682SOL    HW226946   2.677   6.540   2.922
 8683SOL     OW26947   1.132   2.903   0.862
 8683SOL    HW126948   1.178   2.814   0.869
 8683SOL    HW226949   1.047   2.892   0.811
 8684SOL     OW26950   5.856   3.086   5.468
 8684SOL    HW126951   5.927   3.056   5.403
 8684SOL    HW226952   5.770   3.042   5.445
 8685SOL     OW26953   0.928   2.018   6.403
 8685SOL    HW126954   0.900   2.093   6.463
 8685SOL    HW226955   1.028   2.015   6.399
 8686SOL     OW26956   6.973   1.883   2.504
 8686SOL    HW126957   0.051   1.868   2.473
 8686SOL    HW226958   6.941   1.973   2.473
 8687SOL     OW26959   3.675   6.758   2.303
 8687SOL    HW126960   3.673   6.800   2.212
 8687SOL    HW226961   3.638   6.665   2.297
 8688SOL     OW26962   2.784   6.708   1.089
 8688SOL    HW126963   2.836   6.631   1.127
 8688SOL    HW226964   2.837   6.750   1.015
 8689SOL     OW26965   3.946   5.914   0.113
 8689SOL    HW126966   3.914   6.008   0.126
 8689SOL    HW226967   4.020   5.894   0.177
 8690SOL     OW26968   1.278   2.238   3.488
 8690SOL    HW126969   1.208   2.276   3.548
 8690SOL    HW226970   1.302   2.146   3.519
 8691SOL     OW26971   4.981   3.165   6.531
 8691SOL    HW126972   4.963   3.073   6.565
 8691SOL    HW226973   4.901   3.199   6.481
 8692SOL     OW26974   3.289   2.095   3.574
 8692SOL    HW126975   3.198   2.134   3.559
 8692SOL    HW226976   3.281   2.008   3.622
 8693SOL     OW26977   5.831   2.452   0.478
 8693SOL    HW126978   5.918   2.404   0.482
 8693SOL    HW226979   5.801   2.474   0.571
 8694SOL     OW26980   5.077   0.050   6.583
 8694SOL    HW126981   5.028   0.120   6.636
 8694SOL    HW226982   5.026   0.030   6.499
 8695SOL     OW26983   5.119   2.899   5.593
 8695SOL    HW126984   5.055   2.886   5.669
 8695SOL    HW226985   5.208   2.927   5.629
 8696SOL     OW26986   3.208   5.509   0.808
 8696SOL    HW126987   3.201   5.520   0.709
 8696SOL    HW226988   3.305   5.506   0.834
 8697SOL     OW26989   6.529   3.248   1.335
 8697SOL    HW126990   6.525   3.154   1.301
 8697SOL    HW226991   6.474   3.308   1.275
 8698SOL     OW26992   5.516   5.725   4.745
 8698SOL    HW126993   5.434   5.743   4.691
 8698SOL    HW226994   5.580   5.671   4.690
 8699SOL     OW26995   0.972   2.168   5.517
 8699SOL    HW126996   0.932   2.086   5.557
 8699SOL    HW226997   1.034   2.143   5.443
 8700SOL     OW26998   1.833   0.825   4.493
 8700SOL    HW126999   1.897   0.849   4.420
 8700SOL    HW227000   1.806   0.908   4.541
 8701SOL     OW27001   0.959   1.247   5.691
 8701SOL    HW127002   0.860   1.234   5.702
 8701SOL    HW227003   0.983   1.232   5.595
 8702SOL     OW27004   5.579   4.896   0.382
 8702SOL    HW127005   5.627   4.826   0.435
 8702SOL    HW227006   5.645   4.945   0.326
 8703SOL     OW27007   3.040   5.598   1.006
 8703SOL    HW127008   3.026   5.697   1.017
 8703SOL    HW227009   3.106   5.581   0.933
 8704SOL     OW27010   6.417   4.578   2.693
 8704SOL    HW127011   6.348   4.578   2.765
 8704SOL    HW227012   6.385   4.632   2.615
 8705SOL     OW27013   5.466   0.814   6.414
 8705SOL    HW127014   5.504   0.729   6.376
 8705SOL    HW227015   5.442   0.876   6.339
 8706SOL     OW27016   4.786   2.338   6.741
 8706SOL    HW127017   4.782   2.255   6.685
 8706SOL    HW227018   4.700   2.388   6.734
 8707SOL     OW27019   4.682   2.882   6.826
 8707SOL    HW127020   4.587   2.850   6.828
 8707SOL    HW227021   4.686   2.972   6.784
 8708SOL     OW27022   3.565   0.795   1.842
 8708SOL    HW127023   3.518   0.743   1.771
 8708SOL    HW227024   3.502   0.864   1.879
 8709SOL     OW27025   0.178   4.343   0.016
 8709SOL    HW127026   0.205   4.260   0.065
 8709SOL    HW227027   0.159   4.416   0.081
 8710SOL     OW27028   1.337   3.439   2.699
 8710SOL    HW127029   1.320   3.534   2.727
 8710SOL    HW227030   1.347   3.435   2.600
 8711SOL     OW27031   0.228   0.453   2.870
 8711SOL    HW127032   0.207   0.542   2.910
 8711SOL    HW227033   0.328   0.443   2.863
 8712SOL     OW27034   3.620   1.748   4.322
 8712SOL    HW127035   3.530   1.741   4.280
 8712SOL    HW227036   3.656   1.840   4.309
 8713SOL     OW27037   6.701   4.422   3.790
 8713SOL    HW127038   6.733   4.480   3.715
 8713SOL    HW227039   6.601   4.422   3.791
 8714SOL     OW27040   1.460   1.023   6.100
 8714SOL    HW127041   1.549   1.020   6.055
 8714SOL    HW227042   1.389   1.039   6.031
 8715SOL     OW27043   5.554   0.936   0.986
 8715SOL    HW127044   5.582   0.930   0.890
 8715SOL    HW227045   5.619   0.886   1.043
 8716SOL     OW27046   0.604   1.508   1.614
 8716SOL    HW127047   0.633   1.530   1.707
 8716SOL    HW227048   0.663   1.557   1.549
 8717SOL     OW27049   4.121   3.655   2.051
 8717SOL    HW127050   4.124   3.604   2.137
 8717SOL    HW227051   4.133   3.753   2.070
 8718SOL     OW27052   6.718   2.559   4.799
 8718SOL    HW127053   6.739   2.631   4.864
 8718SOL    HW227054   6.654   2.593   4.730
 8719SOL     OW27055   1.479   0.510   5.395
 8719SOL    HW127056   1.571   0.535   5.422
 8719SOL    HW227057   1.413   0.567   5.444
 8720SOL     OW27058   6.458   5.232   4.772
 8720SOL    HW127059   6.551   5.262   4.792
 8720SOL    HW227060   6.437   5.249   4.676
 8721SOL     OW27061   6.369   1.932   4.466
 8721SOL    HW127062   6.346   1.958   4.560
 8721SOL    HW227063   6.331   1.998   4.402
 8722SOL     OW27064   3.560   1.545   0.429
 8722SOL    HW127065   3.606   1.466   0.390
 8722SOL    HW227066   3.490   1.515   0.494
 8723SOL     OW27067   6.297   5.473   0.598
 8723SOL    HW127068   6.255   5.558   0.567
 8723SOL    HW227069   6.377   5.495   0.655
 8724SOL     OW27070   5.648   0.190   5.659
 8724SOL    HW127071   5.660   0.177   5.757
 8724SOL    HW227072   5.603   0.278   5.642
 8725SOL     OW27073   2.073   0.472   0.374
 8725SOL    HW127074   2.110   0.510   0.459
 8725SOL    HW227075   2.136   0.403   0.339
 8726SOL     OW27076   5.802   0.008   1.418
 8726SOL    HW127077   5.872   0.005   1.346
 8726SOL    HW227078   5.713   7.000   1.379
 8727SOL     OW27079   6.710   6.451   1.451
 8727SOL    HW127080   6.635   6.501   1.406
 8727SOL    HW227081   6.693   6.353   1.445
 8728SOL     OW27082   3.167   6.793   5.310
 8728SOL    HW127083   3.109   6.721   5.347
 8728SOL    HW227084   3.258   6.789   5.353
 8729SOL     OW27085   4.292   5.584   3.242
 8729SOL    HW127086   4.334   5.647   3.307
 8729SOL    HW227087   4.359   5.558   3.172
 8730SOL     OW27088   6.935   5.762   2.703
 8730SOL    HW127089   6.898   5.673   2.676
 8730SOL    HW227090   6.942   5.821   2.623
 8731SOL     OW27091   1.522   2.306   3.411
 8731SOL    HW127092   1.564   2.220   3.381
 8731SOL    HW227093   1.424   2.294   3.422
 8732SOL     OW27094   5.260   4.098   1.884
 8732SOL    HW127095   5.252   4.024   1.952
 8732SOL    HW227096   5.317   4.171   1.922
 8733SOL     OW27097   0.713   6.526   2.415
 8733SOL    HW127098   0.756   6.443   2.380
 8733SOL    HW227099   0.631   6.503   2.467
 8734SOL     OW27100   0.543   4.984   1.165
 8734SOL    HW127101   0.550   4.971   1.264
 8734SOL    HW227102   0.620   5.039   1.133
 8735SOL     OW27103   0.457   2.089   0.261
 8735SOL    HW127104   0.371   2.073   0.213
 8735SOL    HW227105   0.515   2.008   0.254
 8736SOL     OW27106   1.298   6.298   0.117
 8736SOL    HW127107   1.258   6.369   0.174
 8736SOL    HW227108   1.380   6.333   0.072
 8737SOL     OW27109   3.610   6.249   5.774
 8737SOL    HW127110   3.617   6.151   5.757
 8737SOL    HW227111   3.557   6.265   5.857
 8738SOL     OW27112   1.461   3.972   4.140
 8738SOL    HW127113   1.376   4.025   4.133
 8738SOL    HW227114   1.506   3.993   4.226
 8739SOL     OW27115   6.755   3.945   5.969
 8739SOL    HW127116   6.830   4.011   5.964
 8739SOL    HW227117   6.788   3.860   6.011
 8740SOL     OW27118   3.346   0.848   6.044
 8740SOL    HW127119   3.442   0.870   6.062
 8740SOL    HW227120   3.316   0.774   6.104
 8741SOL     OW27121   1.545   2.542   2.153
 8741SOL    HW127122   1.527   2.460   2.207
 8741SOL    HW227123   1.643   2.552   2.139
 8742SOL     OW27124   4.781   6.568   1.344
 8742SOL    HW127125   4.717   6.639   1.312
 8742SOL    HW227126   4.796   6.578   1.442
 8743SOL     OW27127   2.358   5.601   1.954
 8743SOL    HW127128   2.297   5.541   1.903
 8743SOL    HW227129   2.437   5.625   1.897
 8744SOL     OW27130   4.503   2.630   6.487
 8744SOL    HW127131   4.516   2.720   6.445
 8744SOL    HW227132   4.466   2.566   6.420
 8745SOL     OW27133   6.027   2.107   4.956
 8745SOL    HW127134   5.991   2.115   4.864
 8745SOL    HW227135   5.954   2.124   5.023
 8746SOL     OW27136   4.924   4.417   5.776
 8746SOL    HW127137   5.013   4.380   5.747
 8746SOL    HW227138   4.938   4.498   5.832
 8747SOL     OW27139   0.859   2.706   3.562
 8747SOL    HW127140   0.777   2.740   3.517
 8747SOL    HW227141   0.840   2.692   3.660
 8748SOL     OW27142   1.088   0.579   6.791
 8748SOL    HW127143   1.188   0.586   6.779
 8748SOL    HW227144   1.043   0.618   6.711
 8749SOL     OW27145   3.157   0.996   4.006
 8749SOL    HW127146   3.190   1.004   3.912
 8749SOL    HW227147   3.205   0.920   4.051
 8750SOL     OW27148   2.073   2.183   5.130
 8750SOL    HW127149   2.062   2.225   5.040
 8750SOL    HW227150   1.984   2.162   5.169
 8751SOL     OW27151   0.279   6.875   2.282
 8751SOL    HW127152   0.250   6.971   2.284
 8751SOL    HW227153   0.280   6.842   2.188
 8752SOL     OW27154   2.632   3.717   6.507
 8752SOL    HW127155   2.624   3.802   6.455
 8752SOL    HW227156   2.558   3.713   6.575
 8753SOL     OW27157   5.187   1.472   5.116
 8753SOL    HW127158   5.197   1.376   5.143
 8753SOL    HW227159   5.277   1.511   5.095
 8754SOL     OW27160   0.712   1.943   5.875
 8754SOL    HW127161   0.631   1.999   5.892
 8754SOL    HW227162   0.793   1.994   5.903
 8755SOL     OW27163   2.335   0.672   0.238
 8755SOL    HW127164   2.237   0.655   0.229
 8755SOL    HW227165   2.369   0.623   0.319
 8756SOL     OW27166   2.208   3.079   3.746
 8756SOL    HW127167   2.116   3.075   3.708
 8756SOL    HW227168   2.254   2.991   3.732
 8757SOL     OW27169   4.526   6.368   5.009
 8757SOL    HW127170   4.494   6.409   4.923
 8757SOL    HW227171   4.621   6.396   5.026
 8758SOL     OW27172   5.327   6.649   1.858
 8758SOL    HW127173   5.354   6.622   1.950
 8758SOL    HW227174   5.258   6.586   1.823
 8759SOL     OW27175   5.092   0.701   6.012
 8759SOL    HW127176   5.101   0.708   6.112
 8759SOL    HW227177   5.178   0.727   5.969
 8760SOL     OW27178   1.950   1.625   4.648
 8760SOL    HW127179   1.943   1.685   4.729
 8760SOL    HW227180   1.974   1.680   4.568
 8761SOL     OW27181   5.408   0.925   6.960
 8761SOL    HW127182   5.343   1.000   6.959
 8761SOL    HW227183   5.441   0.909   6.867
 8762SOL     OW27184   0.932   3.271   1.486
 8762SOL    HW127185   0.990   3.209   1.539
 8762SOL    HW227186   0.836   3.252   1.505
 8763SOL     OW27187   6.356   6.162   5.637
 8763SOL    HW127188   6.450   6.160   5.672
 8763SOL    HW227189   6.350   6.104   5.556
 8764SOL     OW27190   4.935   1.641   4.043
 8764SOL    HW127191   4.937   1.553   4.091
 8764SOL    HW227192   4.842   1.677   4.043
 8765SOL     OW27193   5.521   6.795   4.817
 8765SOL    HW127194   5.524   6.875   4.877
 8765SOL    HW227195   5.436   6.745   4.832
 8766SOL     OW27196   3.016   5.041   3.642
 8766SOL    HW127197   3.011   5.131   3.684
 8766SOL    HW227198   3.036   4.973   3.713
 8767SOL     OW27199   4.440   1.223   3.157
 8767SOL    HW127200   4.436   1.262   3.249
 8767SOL    HW227201   4.416   1.293   3.090
 8768SOL     OW27202   1.536   2.978   0.588
 8768SOL    HW127203   1.589   2.898   0.559
 8768SOL    HW227204   1.452   2.985   0.534
 8769SOL     OW27205   0.752   0.269   5.729
 8769SOL    HW127206   0.736   0.176   5.764
 8769SOL    HW227207   0.838   0.270   5.678
 8770SOL     OW27208   5.036   4.556   1.603
 8770SOL    HW127209   5.043   4.481   1.669
 8770SOL    HW227210   4.997   4.636   1.648
 8771SOL     OW27211   1.673   1.307   6.813
 8771SOL    HW127212   1.771   1.289   6.815
 8771SOL    HW227213   1.625   1.227   6.777
 8772SOL     OW27214   6.219   1.032   6.607
 8772SOL    HW127215   6.168   1.046   6.692
 8772SOL    HW227216   6.271   0.947   6.613
 8773SOL     OW27217   3.722   2.115   3.211
 8773SOL    HW127218   3.642   2.111   3.272
 8773SOL    HW227219   3.707   2.055   3.133
 8774SOL     OW27220   1.105   1.608   0.971
 8774SOL    HW127221   1.107   1.514   1.005
 8774SOL    HW227222   1.145   1.611   0.880
 8775SOL     OW27223   5.830   6.665   3.350
 8775SOL    HW127224   5.783   6.742   3.392
 8775SOL    HW227225   5.903   6.698   3.290
 8776SOL     OW27226   3.447   3.367   4.912
 8776SOL    HW127227   3.388   3.393   4.989
 8776SOL    HW227228   3.534   3.333   4.946
 8777SOL     OW27229   6.587   4.981   1.553
 8777SOL    HW127230   6.571   5.080   1.555
 8777SOL    HW227231   6.501   4.933   1.569
 8778SOL     OW27232   0.120   2.048   3.348
 8778SOL    HW127233   0.211   2.089   3.339
 8778SOL    HW227234   0.128   1.949   3.348
 8779SOL     OW27235   1.648   4.102   1.629
 8779SOL    HW127236   1.596   4.021   1.657
 8779SOL    HW227237   1.605   4.183   1.667
 8780SOL     OW27238   1.176   5.640   4.122
 8780SOL    HW127239   1.233   5.565   4.156
 8780SOL    HW227240   1.228   5.692   4.054
 8781SOL     OW27241   0.360   1.702   2.965
 8781SOL    HW127242   0.456   1.677   2.961
 8781SOL    HW227243   0.313   1.642   3.031
 8782SOL     OW27244   4.431   1.555   2.363
 8782SOL    HW127245   4.417   1.624   2.435
 8782SOL    HW227246   4.350   1.553   2.304
 8783SOL     OW27247   5.980   3.812   4.137
 8783SOL    HW127248   5.964   3.774   4.046
 8783SOL    HW227249   5.965   3.911   4.135
 8784SOL     OW27250   5.747   5.123   5.669
 8784SOL    HW127251   5.682   5.199   5.674
 8784SOL    HW227252   5.697   5.038   5.650
 8785SOL     OW27253   5.522   4.192   6.423
 8785SOL    HW127254   5.559   4.168   6.333
 8785SOL    HW227255   5.553   4.125   6.491
 8786SOL     OW27256   1.406   6.471   6.863
 8786SOL    HW127257   1.455   6.402   6.917
 8786SOL    HW227258   1.455   6.558   6.867
 8787SOL     OW27259   2.074   3.269   1.916
 8787SOL    HW127260   2.134   3.349   1.910
 8787SOL    HW227261   1.997   3.281   1.853
 8788SOL     OW27262   6.771   1.873   5.349
 8788SOL    HW127263   6.735   1.795   5.297
 8788SOL    HW227264   6.821   1.933   5.287
 8789SOL     OW27265   6.704   0.273   6.111
 8789SOL    HW127266   6.689   0.224   6.197
 8789SOL    HW227267   6.621   0.323   6.085
 8790SOL     OW27268   0.257   2.013   6.708
 8790SOL    HW127269   0.291   1.990   6.799
 8790SOL    HW227270   0.217   1.931   6.666
 8791SOL     OW27271   4.844   6.926   5.271
 8791SOL    HW127272   4.791   6.864   5.214
 8791SOL    HW227273   4.801   0.001   5.270
 8792SOL     OW27274   4.199   0.014   3.160
 8792SOL    HW127275   4.115   7.011   3.211
 8792SOL    HW227276   4.220   6.952   3.100
 8793SOL     OW27277   2.524   6.269   3.639
 8793SOL    HW127278   2.479   6.231   3.720
 8793SOL    HW227279   2.501   6.366   3.630
 8794SOL     OW27280   2.162   6.762   2.771
 8794SOL    HW127281   2.208   6.845   2.803
 8794SOL    HW227282   2.067   6.762   2.801
 8795SOL     OW27283   1.666   6.346   5.535
 8795SOL    HW127284   1.743   6.323   5.595
 8795SOL    HW227285   1.586   6.370   5.590
 8796SOL     OW27286   4.489   1.972   5.371
 8796SOL    HW127287   4.562   1.958   5.303
 8796SOL    HW227288   4.456   1.883   5.401
 8797SOL     OW27289   0.792   6.826   6.250
 8797SOL    HW127290   0.799   6.795   6.155
 8797SOL    HW227291   0.754   6.753   6.306
 8798SOL     OW27292   5.587   3.565   5.179
 8798SOL    HW127293   5.531   3.528   5.105
 8798SOL    HW227294   5.556   3.657   5.202
 8799SOL     OW27295   2.829   4.682   2.982
 8799SOL    HW127296   2.911   4.730   3.014
 8799SOL    HW227297   2.803   4.717   2.892
 8800SOL     OW27298   4.533   4.598   5.980
 8800SOL    HW127299   4.486   4.683   5.958
 8800SOL    HW227300   4.510   4.528   5.911
 8801SOL     OW27301   2.271   1.259   4.231
 8801SOL    HW127302   2.304   1.178   4.280
 8801SOL    HW227303   2.213   1.313   4.291
 8802SOL     OW27304   1.738   6.347   2.417
 8802SOL    HW127305   1.690   6.341   2.504
 8802SOL    HW227306   1.673   6.365   2.344
 8803SOL     OW27307   2.510   6.029   6.896
 8803SOL    HW127308   2.529   5.937   6.861
 8803SOL    HW227309   2.593   6.066   6.937
 8804SOL     OW27310   4.147   0.237   0.934
 8804SOL    HW127311   4.237   0.238   0.889
 8804SOL    HW227312   4.101   0.324   0.917
 8805SOL     OW27313   0.997   0.111   3.339
 8805SOL    HW127314   1.081   0.154   3.305
 8805SOL    HW227315   0.934   0.182   3.371
 8806SOL     OW27316   1.600   5.604   0.305
 8806SOL    HW127317   1.683   5.552   0.325
 8806SOL    HW227318   1.610   5.698   0.336
 8807SOL     OW27319   6.752   6.202   6.096
 8807SOL    HW127320   6.716   6.253   6.175
 8807SOL    HW227321   6.830   6.147   6.125
 8808SOL     OW27322   5.817   1.056   0.490
 8808SOL    HW127323   5.840   0.959   0.482
 8808SOL    HW227324   5.719   1.065   0.509
 8809SOL     OW27325   5.560   3.790   1.788
 8809SOL    HW127326   5.546   3.786   1.887
 8809SOL    HW227327   5.480   3.753   1.741
 8810SOL     OW27328   4.831   1.826   3.726
 8810SOL    HW127329   4.791   1.739   3.754
 8810SOL    HW227330   4.900   1.854   3.793
 8811SOL     OW27331   2.538   1.570   3.392
 8811SOL    HW127332   2.521   1.508   3.316
 8811SOL    HW227333   2.455   1.580   3.447
 8812SOL     OW27334   1.089   1.160   0.820
 8812SOL    HW127335   1.121   1.066   0.805
 8812SOL    HW227336   1.006   1.175   0.766
 8813SOL     OW27337   0.998   6.382   1.880
 8813SOL    HW127338   0.925   6.382   1.948
 8813SOL    HW227339   0.977   6.316   1.808
 8814SOL     OW27340   6.680   0.701   6.839
 8814SOL    HW127341   6.732   0.619   6.864
 8814SOL    HW227342   6.742   0.769   6.799
 8815SOL     OW27343   0.204   5.887   2.049
 8815SOL    HW127344   0.287   5.859   2.000
 8815SOL    HW227345   0.125   5.867   1.992
 8816SOL     OW27346   1.202   6.011   1.144
 8816SOL    HW127347   1.258   6.069   1.204
 8816SOL    HW227348   1.247   6.002   1.055
 8817SOL     OW27349   1.522   5.682   5.156
 8817SOL    HW127350   1.483   5.643   5.239
 8817SOL    HW227351   1.541   5.609   5.090
 8818SOL     OW27352   6.873   4.353   4.243
 8818SOL    HW127353   6.839   4.396   4.159
 8818SOL    HW227354   6.887   4.424   4.312
 8819SOL     OW27355   4.678   6.533   4.180
 8819SOL    HW127356   4.651   6.452   4.231
 8819SOL    HW227357   4.771   6.522   4.146
 8820SOL     OW27358   1.943   2.796   4.009
 8820SOL    HW127359   1.890   2.867   4.055
 8820SOL    HW227360   1.885   2.716   3.991
 8821SOL     OW27361   2.472   0.795   6.450
 8821SOL    HW127362   2.402   0.864   6.428
 8821SOL    HW227363   2.515   0.817   6.537
 8822SOL     OW27364   0.838   1.854   3.480
 8822SOL    HW127365   0.779   1.866   3.401
 8822SOL    HW227366   0.819   1.765   3.522
 8823SOL     OW27367   2.120   6.877   0.708
 8823SOL    HW127368   2.129   6.835   0.618
 8823SOL    HW227369   2.211   6.903   0.742
 8824SOL     OW27370   3.203   3.776   0.806
 8824SOL    HW127371   3.248   3.804   0.721
 8824SOL    HW227372   3.104   3.788   0.797
 8825SOL     OW27373   1.471   1.057   2.293
 8825SOL    HW127374   1.565   1.085   2.273
 8825SOL    HW227375   1.462   0.958   2.281
 8826SOL     OW27376   5.705   0.712   6.770
 8826SOL    HW127377   5.799   0.747   6.766
 8826SOL    HW227378   5.641   0.784   6.744
 8827SOL     OW27379   2.479   1.387   2.882
 8827SOL    HW127380   2.407   1.331   2.841
 8827SOL    HW227381   2.443   1.478   2.903
 8828SOL     OW27382   2.965   6.182   3.418
 8828SOL    HW127383   2.974   6.277   3.386
 8828SOL    HW227384   3.027   6.124   3.366
 8829SOL     OW27385   0.395   2.853   6.521
 8829SOL    HW127386   0.456   2.784   6.560
 8829SOL    HW227387   0.351   2.904   6.594
 8830SOL     OW27388   0.739   1.098   0.182
 8830SOL    HW127389   0.693   1.010   0.170
 8830SOL    HW227390   0.824   1.099   0.130
 8831SOL     OW27391   5.952   0.625   2.759
 8831SOL    HW127392   5.966   0.612   2.661
 8831SOL    HW227393   6.036   0.604   2.808
 8832SOL     OW27394   7.007   0.366   2.107
 8832SOL    HW127395   6.945   0.445   2.110
 8832SOL    HW227396   0.013   0.345   2.011
 8833SOL     OW27397   2.760   5.515   4.313
 8833SOL    HW127398   2.674   5.543   4.271
 8833SOL    HW227399   2.744   5.486   4.407
 8834SOL     OW27400   6.218   2.759   4.721
 8834SOL    HW127401   6.132   2.806   4.738
 8834SOL    HW227402   6.279   2.774   4.799
 8835SOL     OW27403   6.700   6.770   5.573
 8835SOL    HW127404   6.692   6.676   5.541
 8835SOL    HW227405   6.749   6.825   5.504
 8836SOL     OW27406   4.456   1.182   0.385
 8836SOL    HW127407   4.446   1.272   0.427
 8836SOL    HW227408   4.475   1.193   0.287
 8837SOL     OW27409   0.576   0.718   1.915
 8837SOL    HW127410   0.638   0.640   1.926
 8837SOL    HW227411   0.594   0.763   1.828
 8838SOL     OW27412   2.891   5.292   3.355
 8838SOL    HW127413   2.914   5.197   3.375
 8838SOL    HW227414   2.796   5.309   3.380
 8839SOL     OW27415   6.218   6.316   3.379
 8839SOL    HW127416   6.315   6.295   3.393
 8839SOL    HW227417   6.194   6.401   3.426
 8840SOL     OW27418   5.212   2.628   2.617
 8840SOL    HW127419   5.130   2.605   2.671
 8840SOL    HW227420   5.293   2.617   2.674
 8841SOL     OW27421   0.990   1.792   5.326
 8841SOL    HW127422   1.068   1.754   5.374
 8841SOL    HW227423   0.940   1.854   5.387
 8842SOL     OW27424   2.587   2.630   1.655
 8842SOL    HW127425   2.604   2.578   1.738
 8842SOL    HW227426   2.538   2.714   1.677
 8843SOL     OW27427   1.205   3.032   5.190
 8843SOL    HW127428   1.284   3.050   5.132
 8843SOL    HW227429   1.217   2.944   5.236
 8844SOL     OW27430   6.186   1.187   5.892
 8844SOL    HW127431   6.121   1.112   5.898
 8844SOL    HW227432   6.236   1.182   5.806
 8845SOL     OW27433   4.599   3.889   0.142
 8845SOL    HW127434   4.643   3.812   0.187
 8845SOL    HW227435   4.608   3.881   0.043
 8846SOL     OW27436   1.803   4.537   4.462
 8846SOL    HW127437   1.855   4.465   4.415
 8846SOL    HW227438   1.821   4.625   4.419
 8847SOL     OW27439   2.651   0.018   2.568
 8847SOL    HW127440   2.701   0.031   2.483
 8847SOL    HW227441   2.570   6.977   2.552
 8848SOL     OW27442   1.898   0.572   2.166
 8848SOL    HW127443   1.914   0.658   2.215
 8848SOL    HW227444   1.945   0.576   2.078
 8849SOL     OW27445   2.148   6.319   2.209
 8849SOL    HW127446   2.057   6.287   2.234
 8849SOL    HW227447   2.217   6.252   2.237
 8850SOL     OW27448   3.213   2.390   6.797
 8850SOL    HW127449   3.253   2.364   6.710
 8850SOL    HW227450   3.117   2.412   6.785
 8851SOL     OW27451   1.548   4.584   2.319
 8851SOL    HW127452   1.634   4.574   2.268
 8851SOL    HW227453   1.498   4.664   2.284
 8852SOL     OW27454   1.425   1.410   6.325
 8852SOL    HW127455   1.331   1.445   6.320
 8852SOL    HW227456   1.437   1.359   6.410
 8853SOL     OW27457   3.456   0.931   1.113
 8853SOL    HW127458   3.434   0.844   1.070
 8853SOL    HW227459   3.546   0.924   1.156
 8854SOL     OW27460   1.526   2.907   4.769
 8854SOL    HW127461   1.452   2.847   4.798
 8854SOL    HW227462   1.551   2.968   4.844
 8855SOL     OW27463   5.617   5.066   1.312
 8855SOL    HW127464   5.648   4.971   1.308
 8855SOL    HW227465   5.517   5.068   1.314
 8856SOL     OW27466   0.216   5.123   6.587
 8856SOL    HW127467   0.311   5.093   6.585
 8856SOL    HW227468   0.189   5.157   6.497
 8857SOL     OW27469   6.396   1.184   5.101
 8857SOL    HW127470   6.358   1.263   5.148
 8857SOL    HW227471   6.363   1.100   5.144
 8858SOL     OW27472   6.276   4.781   4.615
 8858SOL    HW127473   6.231   4.708   4.666
 8858SOL    HW227474   6.374   4.782   4.637
 8859SOL     OW27475   0.327   1.053   3.649
 8859SOL    HW127476   0.320   0.967   3.598
 8859SOL    HW227477   0.236   1.079   3.683
 8860SOL     OW27478   6.397   2.560   1.656
 8860SOL    HW127479   6.345   2.491   1.707
 8860SOL    HW227480   6.389   2.648   1.701
 8861SOL     OW27481   4.364   1.801   1.537
 8861SOL    HW127482   4.447   1.855   1.550
 8861SOL    HW227483   4.377   1.739   1.459
 8862SOL     OW27484   4.702   4.884   5.173
 8862SOL    HW127485   4.756   4.938   5.109
 8862SOL    HW227486   4.708   4.925   5.264
 8863SOL     OW27487   1.703   4.199   3.811
 8863SOL    HW127488   1.726   4.118   3.865
 8863SOL    HW227489   1.777   4.217   3.745
 8864SOL     OW27490   5.913   1.967   5.893
 8864SOL    HW127491   5.897   1.994   5.988
 8864SOL    HW227492   5.934   1.869   5.889
 8865SOL     OW27493   2.158   1.636   6.564
 8865SOL    HW127494   2.084   1.663   6.503
 8865SOL    HW227495   2.246   1.649   6.519
 8866SOL     OW27496   5.871   6.101   1.734
 8866SOL    HW127497   5.966   6.083   1.758
 8866SOL    HW227498   5.815   6.107   1.817
 8867SOL     OW27499   6.525   3.678   2.830
 8867SOL    HW127500   6.612   3.645   2.868
 8867SOL    HW227501   6.489   3.749   2.890
 8868SOL     OW27502   0.002   3.763   2.871
 8868SOL    HW127503   6.971   3.691   2.820
 8868SOL    HW227504   6.951   3.832   2.900
 8869SOL     OW27505   3.210   6.277   3.629
 8869SOL    HW127506   3.212   6.317   3.537
 8869SOL    HW227507   3.115   6.270   3.660
 8870SOL     OW27508   1.616   0.034   2.106
 8870SOL    HW127509   1.660   6.964   2.081
 8870SOL    HW227510   1.683   0.094   2.151
 8871SOL     OW27511   0.660   0.828   2.995
 8871SOL    HW127512   0.614   0.790   2.915
 8871SOL    HW227513   0.752   0.791   3.002
 8872SOL     OW27514   0.395   4.359   4.975
 8872SOL    HW127515   0.323   4.386   4.911
 8872SOL    HW227516   0.373   4.270   5.013
 8873SOL     OW27517   1.336   0.657   2.161
 8873SOL    HW127518   1.430   0.689   2.166
 8873SOL    HW227519   1.328   0.567   2.204
 8874SOL     OW27520   2.403   5.413   0.361
 8874SOL    HW127521   2.458   5.417   0.278
 8874SOL    HW227522   2.313   5.374   0.340
 8875SOL     OW27523   0.114   3.381   3.360
 8875SOL    HW127524   0.121   3.296   3.412
 8875SOL    HW227525   0.022   3.388   3.321
 8876SOL     OW27526   3.647   0.796   6.460
 8876SOL    HW127527   3.639   0.730   6.386
 8876SOL    HW227528   3.686   0.752   6.540
 8877SOL     OW27529   1.824   3.516   1.062
 8877SOL    HW127530   1.725   3.514   1.058
 8877SOL    HW227531   1.856   3.610   1.076
 8878SOL     OW27532   3.799   4.785   1.010
 8878SOL    HW127533   3.756   4.747   0.929
 8878SOL    HW227534   3.744   4.764   1.091
 8879SOL     OW27535   6.257   4.628   2.906
 8879SOL    HW127536   6.294   4.709   2.953
 8879SOL    HW227537   6.193   4.580   2.967
 8880SOL     OW27538   4.589   6.690   3.669
 8880SOL    HW127539   4.586   6.763   3.738
 8880SOL    HW227540   4.567   6.603   3.711
 8881SOL     OW27541   4.007   4.976   4.129
 8881SOL    HW127542   4.003   5.073   4.151
 8881SOL    HW227543   4.020   4.923   4.213
 8882SOL     OW27544   4.358   0.499   1.000
 8882SOL    HW127545   4.320   0.490   0.908
 8882SOL    HW227546   4.457   0.506   0.995
 8883SOL     OW27547   0.205   5.845   4.898
 8883SOL    HW127548   0.272   5.780   4.860
 8883SOL    HW227549   0.249   5.899   4.970
 8884SOL     OW27550   5.385   3.814   4.869
 8884SOL    HW127551   5.460   3.758   4.835
 8884SOL    HW227552   5.404   3.911   4.850
 8885SOL     OW27553   5.851   5.675   0.590
 8885SOL    HW127554   5.786   5.651   0.662
 8885SOL    HW227555   5.803   5.721   0.516
 8886SOL     OW27556   3.157   5.970   6.955
 8886SOL    HW127557   3.125   6.056   6.994
 8886SOL    HW227558   3.082   5.925   6.907
 8887SOL     OW27559   4.755   1.889   1.315
 8887SOL    HW127560   4.736   1.877   1.413
 8887SOL    HW227561   4.838   1.944   1.304
 8888SOL     OW27562   2.566   1.842   3.401
 8888SOL    HW127563   2.586   1.745   3.412
 8888SOL    HW227564   2.569   1.866   3.304
 8889SOL     OW27565   0.211   6.729   5.900
 8889SOL    HW127566   0.212   6.828   5.891
 8889SOL    HW227567   0.288   6.699   5.955
 8890SOL     OW27568   0.385   6.982   6.711
 8890SOL    HW127569   0.416   0.009   6.796
 8890SOL    HW227570   0.453   6.915   6.680
 8891SOL     OW27571   5.930   4.896   6.823
 8891SOL    HW127572   5.932   4.880   6.922
 8891SOL    HW227573   6.014   4.861   6.781
 8892SOL     OW27574   3.121   5.384   3.506
 8892SOL    HW127575   3.050   5.384   3.436
 8892SOL    HW227576   3.080   5.366   3.595
 8893SOL     OW27577   1.387   4.878   5.175
 8893SOL    HW127578   1.433   4.812   5.235
 8893SOL    HW227579   1.433   4.966   5.180
 8894SOL     OW27580   4.429   2.044   0.445
 8894SOL    HW127581   4.392   2.043   0.538
 8894SOL    HW227582   4.365   2.091   0.384
 8895SOL     OW27583   0.743   3.950   0.881
 8895SOL    HW127584   0.749   3.902   0.794
 8895SOL    HW227585   0.671   4.020   0.876
 8896SOL     OW27586   0.217   2.221   4.295
 8896SOL    HW127587   0.195   2.233   4.198
 8896SOL    HW227588   0.158   2.150   4.333
 8897SOL     OW27589   2.262   4.118   3.893
 8897SOL    HW127590   2.313   4.152   3.972
 8897SOL    HW227591   2.226   4.027   3.913
 8898SOL     OW27592   4.829   3.821   3.108
 8898SOL    HW127593   4.840   3.734   3.155
 8898SOL    HW227594   4.827   3.806   3.009
 8899SOL     OW27595   6.784   3.680   6.188
 8899SOL    HW127596   6.758   3.584   6.185
 8899SOL    HW227597   6.872   3.693   6.141
 8900SOL     OW27598   5.385   2.764   4.255
 8900SOL    HW127599   5.456   2.693   4.259
 8900SOL    HW227600   5.362   2.794   4.347
 8901SOL     OW27601   0.988   2.650   4.022
 8901SOL    HW127602   1.083   2.678   4.007
 8901SOL    HW227603   0.961   2.673   4.116
 8902SOL     OW27604   1.190   4.662   0.015
 8902SOL    HW127605   1.256   4.655   0.090
 8902SOL    HW227606   1.101   4.689   0.051
 8903SOL     OW27607   1.271   0.653   4.648
 8903SOL    HW127608   1.301   0.669   4.554
 8903SOL    HW227609   1.328   0.707   4.711
 8904SOL     OW27610   0.698   1.260   2.921
 8904SOL    HW127611   0.691   1.163   2.899
 8904SOL    HW227612   0.795   1.284   2.934
 8905SOL     OW27613   1.650   3.547   2.004
 8905SOL    HW127614   1.640   3.457   2.047
 8905SOL    HW227615   1.697   3.537   1.917
 8906SOL     OW27616   0.122   0.136   0.715
 8906SOL    HW127617   0.180   0.185   0.650
 8906SOL    HW227618   0.106   0.192   0.795
 8907SOL     OW27619   3.781   2.895   4.966
 8907SOL    HW127620   3.722   2.956   4.913
 8907SOL    HW227621   3.819   2.825   4.906
 8908SOL     OW27622   1.617   6.114   0.505
 8908SOL    HW127623   1.665   6.086   0.588
 8908SOL    HW227624   1.537   6.168   0.529
 8909SOL     OW27625   2.881   1.116   6.790
 8909SOL    HW127626   2.974   1.111   6.826
 8909SOL    HW227627   2.818   1.143   6.864
 8910SOL     OW27628   1.705   2.283   4.125
 8910SOL    HW127629   1.751   2.259   4.039
 8910SOL    HW227630   1.643   2.359   4.109
 8911SOL     OW27631   4.693   1.767   4.065
 8911SOL    HW127632   4.674   1.784   4.161
 8911SOL    HW227633   4.642   1.833   4.009
 8912SOL     OW27634   3.659   3.952   4.643
 8912SOL    HW127635   3.638   4.032   4.700
 8912SOL    HW227636   3.735   3.973   4.582
 8913SOL     OW27637   4.873   6.179   6.689
 8913SOL    HW127638   4.808   6.168   6.763
 8913SOL    HW227639   4.830   6.228   6.613
 8914SOL     OW27640   5.119   6.755   5.912
 8914SOL    HW127641   5.166   6.795   5.990
 8914SOL    HW227642   5.147   6.802   5.828
 8915SOL     OW27643   0.607   1.329   3.356
 8915SOL    HW127644   0.646   1.245   3.319
 8915SOL    HW227645   0.661   1.408   3.326
 8916SOL     OW27646   5.381   1.748   6.614
 8916SOL    HW127647   5.464   1.711   6.572
 8916SOL    HW227648   5.380   1.727   6.712
 8917SOL     OW27649   5.903   1.677   0.263
 8917SOL    HW127650   5.994   1.709   0.237
 8917SOL    HW227651   5.871   1.609   0.197
 8918SOL     OW27652   1.244   4.876   1.686
 8918SOL    HW127653   1.171   4.842   1.627
 8918SOL    HW227654   1.301   4.799   1.717
 8919SOL     OW27655   5.816   4.159   6.732
 8919SOL    HW127656   5.746   4.222   6.700
 8919SOL    HW227657   5.837   4.092   6.660
 8920SOL     OW27658   0.022   1.107   0.136
 8920SOL    HW127659   6.993   1.018   0.132
 8920SOL    HW227660   0.015   1.145   0.228
 8921SOL     OW27661   1.268   2.678   0.907
 8921SOL    HW127662   1.364   2.705   0.913
 8921SOL    HW227663   1.259   2.581   0.930
 8922SOL     OW27664   3.467   0.536   4.299
 8922SOL    HW127665   3.520   0.568   4.220
 8922SOL    HW227666   3.415   0.455   4.273
 8923SOL     OW27667   1.794   2.086   5.152
 8923SOL    HW127668   1.757   1.996   5.128
 8923SOL    HW227669   1.741   2.157   5.106
 8924SOL     OW27670   5.071   5.270   4.617
 8924SOL    HW127671   5.004   5.299   4.549
 8924SOL    HW227672   5.133   5.203   4.576
 8925SOL     OW27673   1.053   0.584   3.443
 8925SOL    HW127674   1.065   0.506   3.381
 8925SOL    HW227675   1.106   0.662   3.410
 8926SOL     OW27676   6.679   3.121   5.429
 8926SOL    HW127677   6.599   3.137   5.488
 8926SOL    HW227678   6.677   3.027   5.396
 8927SOL     OW27679   6.943   2.001   6.139
 8927SOL    HW127680   6.995   1.978   6.222
 8927SOL    HW227681   6.851   2.030   6.165
 8928SOL     OW27682   2.006   6.769   5.220
 8928SOL    HW127683   2.069   6.785   5.295
 8928SOL    HW227684   2.035   6.822   5.140
 8929SOL     OW27685   0.196   2.421   5.167
 8929SOL    HW127686   0.225   2.374   5.251
 8929SOL    HW227687   0.107   2.385   5.138
 8930SOL     OW27688   1.438   4.452   3.725
 8930SOL    HW127689   1.359   4.453   3.786
 8930SOL    HW227690   1.408   4.446   3.630
 8931SOL     OW27691   3.730   3.205   1.498
 8931SOL    HW127692   3.665   3.254   1.440
 8931SOL    HW227693   3.682   3.170   1.579
 8932SOL     OW27694   0.005   2.190   2.912
 8932SOL    HW127695   6.981   2.233   2.831
 8932SOL    HW227696   6.979   2.100   2.926
 8933SOL     OW27697   3.697   1.871   6.388
 8933SOL    HW127698   3.781   1.893   6.339
 8933SOL    HW227699   3.683   1.772   6.390
 8934SOL     OW27700   3.027   5.680   4.433
 8934SOL    HW127701   3.123   5.707   4.432
 8934SOL    HW227702   3.003   5.639   4.344
 8935SOL     OW27703   6.774   4.980   1.100
 8935SOL    HW127704   6.777   4.880   1.105
 8935SOL    HW227705   6.862   5.015   1.068
 8936SOL     OW27706   2.279   2.956   0.911
 8936SOL    HW127707   2.293   3.041   0.963
 8936SOL    HW227708   2.357   2.895   0.926
 8937SOL     OW27709   0.158   6.270   5.167
 8937SOL    HW127710   0.081   6.305   5.220
 8937SOL    HW227711   0.185   6.338   5.099
 8938SOL     OW27712   6.069   5.063   1.457
 8938SOL    HW127713   6.072   5.050   1.556
 8938SOL    HW227714   6.162   5.065   1.420
 8939SOL     OW27715   4.976   2.171   4.776
 8939SOL    HW127716   4.906   2.123   4.723
 8939SOL    HW227717   5.043   2.212   4.715
 8940SOL     OW27718   6.356   0.616   3.722
 8940SOL    HW127719   6.350   0.676   3.802
 8940SOL    HW227720   6.379   0.671   3.641
 8941SOL     OW27721   5.483   1.933   6.294
 8941SOL    HW127722   5.525   1.953   6.206
 8941SOL    HW227723   5.414   1.861   6.282
 8942SOL     OW27724   0.545   2.344   5.241
 8942SOL    HW127725   0.619   2.329   5.306
 8942SOL    HW227726   0.462   2.297   5.274
 8943SOL     OW27727   5.030   3.130   1.160
 8943SOL    HW127728   4.942   3.104   1.201
 8943SOL    HW227729   5.019   3.140   1.062
 8944SOL     OW27730   4.603   5.887   0.441
 8944SOL    HW127731   4.567   5.832   0.365
 8944SOL    HW227732   4.542   5.879   0.520
 8945SOL     OW27733   2.090   0.634   4.515
 8945SOL    HW127734   2.132   0.602   4.600
 8945SOL    HW227735   2.004   0.585   4.500
 8946SOL     OW27736   3.633   1.823   5.280
 8946SOL    HW127737   3.573   1.748   5.306
 8946SOL    HW227738   3.597   1.868   5.198
 8947SOL     OW27739   3.597   3.421   5.655
 8947SOL    HW127740   3.568   3.353   5.588
 8947SOL    HW227741   3.649   3.493   5.609
 8948SOL     OW27742   5.469   4.737   3.054
 8948SOL    HW127743   5.478   4.707   3.149
 8948SOL    HW227744   5.444   4.833   3.052
 8949SOL     OW27745   1.902   6.696   0.045
 8949SOL    HW127746   1.891   6.656   6.969
 8949SOL    HW227747   1.843   6.775   0.054
 8950SOL     OW27748   5.001   3.059   5.345
 8950SOL    HW127749   4.920   3.012   5.311
 8950SOL    HW227750   5.037   3.009   5.424
 8951SOL     OW27751   1.764   3.061   5.416
 8951SOL    HW127752   1.716   2.977   5.443
 8951SOL    HW227753   1.802   3.050   5.324
 8952SOL     OW27754   1.288   1.427   3.203
 8952SOL    HW127755   1.322   1.404   3.294
 8952SOL    HW227756   1.363   1.462   3.147
 8953SOL     OW27757   1.626   3.249   0.479
 8953SOL    HW127758   1.619   3.288   0.387
 8953SOL    HW227759   1.589   3.157   0.479
 8954SOL     OW27760   0.977   5.955   6.105
 8954SOL    HW127761   1.017   5.888   6.043
 8954SOL    HW227762   1.019   6.044   6.089
 8955SOL     OW27763   0.001   4.486   3.488
 8955SOL    HW127764   0.056   4.404   3.502
 8955SOL    HW227765   0.028   4.530   3.402
 8956SOL     OW27766   0.674   1.100   6.357
 8956SOL    HW127767   0.672   1.194   6.321
 8956SOL    HW227768   0.743   1.047   6.307
 8957SOL     OW27769   2.756   4.650   1.639
 8957SOL    HW127770   2.787   4.628   1.731
 8957SOL    HW227771   2.759   4.568   1.581
 8958SOL     OW27772   1.337   0.222   3.971
 8958SOL    HW127773   1.353   0.292   3.901
 8958SOL    HW227774   1.325   0.133   3.928
 8959SOL     OW27775   1.030   4.823   0.693
 8959SOL    HW127776   1.129   4.827   0.682
 8959SOL    HW227777   1.000   4.901   0.748
 8960SOL     OW27778   4.031   5.408   2.241
 8960SOL    HW127779   3.961   5.387   2.309
 8960SOL    HW227780   4.071   5.323   2.207
 8961SOL     OW27781   1.188   1.845   4.123
 8961SOL    HW127782   1.254   1.885   4.059
 8961SOL    HW227783   1.196   1.745   4.121
 8962SOL     OW27784   5.956   0.737   3.444
 8962SOL    HW127785   5.864   0.734   3.406
 8962SOL    HW227786   5.951   0.752   3.543
 8963SOL     OW27787   5.194   0.332   4.251
 8963SOL    HW127788   5.141   0.285   4.322
 8963SOL    HW227789   5.202   0.429   4.274
 8964SOL     OW27790   4.997   4.763   2.073
 8964SOL    HW127791   4.974   4.720   2.161
 8964SOL    HW227792   4.912   4.784   2.024
 8965SOL     OW27793   1.219   4.994   1.218
 8965SOL    HW127794   1.201   5.060   1.291
 8965SOL    HW227795   1.287   4.927   1.249
 8966SOL     OW27796   1.921   2.449   6.038
 8966SOL    HW127797   1.975   2.404   6.109
 8966SOL    HW227798   1.976   2.520   5.995
 8967SOL     OW27799   3.692   0.277   0.903
 8967SOL    HW127800   3.685   0.182   0.874
 8967SOL    HW227801   3.724   0.282   0.997
 8968SOL     OW27802   5.071   5.934   1.779
 8968SOL    HW127803   5.007   5.919   1.704
 8968SOL    HW227804   5.140   5.862   1.780
 8969SOL     OW27805   5.805   0.925   3.642
 8969SOL    HW127806   5.840   1.013   3.675
 8969SOL    HW227807   5.798   0.861   3.718
 8970SOL     OW27808   3.629   2.428   1.442
 8970SOL    HW127809   3.642   2.509   1.500
 8970SOL    HW227810   3.662   2.447   1.350
 8971SOL     OW27811   3.522   5.806   2.562
 8971SOL    HW127812   3.590   5.871   2.527
 8971SOL    HW227813   3.509   5.733   2.495
 8972SOL     OW27814   5.420   6.150   5.959
 8972SOL    HW127815   5.464   6.060   5.964
 8972SOL    HW227816   5.439   6.202   6.042
 8973SOL     OW27817   1.356   4.532   0.565
 8973SOL    HW127818   1.442   4.574   0.537
 8973SOL    HW227819   1.345   4.541   0.664
 8974SOL     OW27820   1.088   3.945   6.360
 8974SOL    HW127821   1.001   3.932   6.408
 8974SOL    HW227822   1.162   3.910   6.417
 8975SOL     OW27823   2.538   0.359   0.693
 8975SOL    HW127824   2.615   0.303   0.661
 8975SOL    HW227825   2.455   0.334   0.643
 8976SOL     OW27826   1.731   5.168   4.667
 8976SOL    HW127827   1.804   5.104   4.693
 8976SOL    HW227828   1.768   5.238   4.606
 8977SOL     OW27829   5.854   1.180   5.836
 8977SOL    HW127830   5.879   1.162   5.741
 8977SOL    HW227831   5.916   1.248   5.875
 8978SOL     OW27832   5.686   5.924   0.703
 8978SOL    HW127833   5.681   5.933   0.604
 8978SOL    HW227834   5.598   5.950   0.744
 8979SOL     OW27835   2.000   3.668   4.844
 8979SOL    HW127836   1.969   3.573   4.844
 8979SOL    HW227837   1.924   3.728   4.869
 8980SOL     OW27838   3.299   3.462   5.171
 8980SOL    HW127839   3.364   3.503   5.235
 8980SOL    HW227840   3.231   3.530   5.144
 8981SOL     OW27841   3.636   1.428   5.163
 8981SOL    HW127842   3.544   1.417   5.201
 8981SOL    HW227843   3.702   1.379   5.220
 8982SOL     OW27844   2.470   3.343   0.401
 8982SOL    HW127845   2.405   3.269   0.386
 8982SOL    HW227846   2.464   3.408   0.326
 8983SOL     OW27847   3.636   5.590   6.934
 8983SOL    HW127848   3.648   5.684   6.965
 8983SOL    HW227849   3.599   5.589   6.841
 8984SOL     OW27850   2.202   6.030   3.259
 8984SOL    HW127851   2.191   5.941   3.213
 8984SOL    HW227852   2.275   6.024   3.327
 8985SOL     OW27853   3.273   2.636   0.504
 8985SOL    HW127854   3.319   2.631   0.593
 8985SOL    HW227855   3.320   2.576   0.439
 8986SOL     OW27856   3.355   5.014   3.017
 8986SOL    HW127857   3.303   4.990   2.935
 8986SOL    HW227858   3.442   4.964   3.017
 8987SOL     OW27859   5.213   5.972   2.587
 8987SOL    HW127860   5.289   5.913   2.559
 8987SOL    HW227861   5.162   5.927   2.660
 8988SOL     OW27862   0.638   5.518   3.800
 8988SOL    HW127863   0.621   5.585   3.872
 8988SOL    HW227864   0.607   5.553   3.712
 8989SOL     OW27865   4.974   2.922   6.076
 8989SOL    HW127866   5.048   2.868   6.117
 8989SOL    HW227867   4.972   3.012   6.120
 8990SOL     OW27868   1.035   4.939   3.811
 8990SOL    HW127869   1.040   4.840   3.801
 8990SOL    HW227870   1.062   4.965   3.903
 8991SOL     OW27871   1.544   2.656   4.397
 8991SOL    HW127872   1.463   2.635   4.453
 8991SOL    HW227873   1.612   2.702   4.454
 8992SOL     OW27874   5.430   1.808   0.264
 8992SOL    HW127875   5.443   1.752   0.346
 8992SOL    HW227876   5.515   1.858   0.244
 8993SOL     OW27877   4.062   3.331   6.601
 8993SOL    HW127878   4.160   3.310   6.609
 8993SOL    HW227879   4.050   3.404   6.533
 8994SOL     OW27880   1.971   4.656   4.677
 8994SOL    HW127881   2.015   4.567   4.689
 8994SOL    HW227882   1.901   4.649   4.606
 8995SOL     OW27883   6.783   1.915   1.850
 8995SOL    HW127884   6.767   1.969   1.932
 8995SOL    HW227885   6.815   1.975   1.776
 8996SOL     OW27886   5.272   4.082   6.453
 8996SOL    HW127887   5.371   4.094   6.457
 8996SOL    HW227888   5.239   4.047   6.541
 8997SOL     OW27889   4.633   0.903   5.429
 8997SOL    HW127890   4.575   0.948   5.497
 8997SOL    HW227891   4.705   0.852   5.475
 8998SOL     OW27892   6.244   3.928   4.162
 8998SOL    HW127893   6.153   3.887   4.169
 8998SOL    HW227894   6.289   3.896   4.079
 8999SOL     OW27895   4.454   6.903   5.880
 8999SOL    HW127896   4.419   6.915   5.787
 8999SOL    HW227897   4.464   6.805   5.899
 9000SOL     OW27898   1.359   3.785   1.298
 9000SOL    HW127899   1.396   3.870   1.335
 9000SOL    HW227900   1.325   3.801   1.206
 9001SOL     OW27901   0.154   4.674   2.137
 9001SOL    HW127902   0.180   4.721   2.053
 9001SOL    HW227903   0.193   4.582   2.138
 9002SOL     OW27904   0.959   4.856   5.609
 9002SOL    HW127905   0.903   4.774   5.623
 9002SOL    HW227906   0.901   4.937   5.618
 9003SOL     OW27907   5.447   3.282   1.342
 9003SOL    HW127908   5.367   3.222   1.347
 9003SOL    HW227909   5.446   3.332   1.255
 9004SOL     OW27910   4.362   5.080   0.940
 9004SOL    HW127911   4.302   5.035   0.874
 9004SOL    HW227912   4.423   5.144   0.892
 9005SOL     OW27913   5.770   1.056   6.147
 9005SOL    HW127914   5.720   1.081   6.064
 9005SOL    HW227915   5.857   1.106   6.150
 9006SOL     OW27916   3.268   6.787   0.940
 9006SOL    HW127917   3.228   6.878   0.928
 9006SOL    HW227918   3.307   6.757   0.853
 9007SOL     OW27919   2.432   1.134   2.369
 9007SOL    HW127920   2.417   1.212   2.430
 9007SOL    HW227921   2.524   1.099   2.381
 9008SOL     OW27922   0.590   5.021   3.073
 9008SOL    HW127923   0.531   5.098   3.098
 9008SOL    HW227924   0.684   5.054   3.060
 9009SOL     OW27925   3.328   5.269   1.112
 9009SOL    HW127926   3.426   5.279   1.095
 9009SOL    HW227927   3.276   5.309   1.037
 9010SOL     OW27928   1.986   6.874   4.447
 9010SOL    HW127929   1.969   6.971   4.461
 9010SOL    HW227930   1.914   6.820   4.492
 9011SOL     OW27931   4.047   1.072   1.805
 9011SOL    HW127932   3.978   1.142   1.787
 9011SOL    HW227933   4.007   0.999   1.861
 9012SOL     OW27934   2.203   5.623   0.394
 9012SOL    HW127935   2.282   5.562   0.385
 9012SOL    HW227936   2.164   5.613   0.486
 9013SOL     OW27937   0.930   0.112   4.535
 9013SOL    HW127938   0.964   0.045   4.601
 9013SOL    HW227939   1.006   0.166   4.500
 9014SOL     OW27940   5.922   3.156   1.891
 9014SOL    HW127941   5.957   3.231   1.834
 9014SOL    HW227942   5.913   3.188   1.986
 9015SOL     OW27943   4.901   2.579   1.392
 9015SOL    HW127944   4.928   2.531   1.309
 9015SOL    HW227945   4.808   2.614   1.382
 9016SOL     OW27946   5.517   5.033   6.393
 9016SOL    HW127947   5.554   5.113   6.345
 9016SOL    HW227948   5.525   4.952   6.335
 9017SOL     OW27949   3.869   1.246   5.214
 9017SOL    HW127950   3.818   1.174   5.167
 9017SOL    HW227951   3.841   1.249   5.310
 9018SOL     OW27952   3.756   3.504   6.587
 9018SOL    HW127953   3.683   3.436   6.580
 9018SOL    HW227954   3.783   3.514   6.683
 9019SOL     OW27955   1.031   4.101   2.810
 9019SOL    HW127956   1.045   4.004   2.788
 9019SOL    HW227957   1.100   4.156   2.762
 9020SOL     OW27958   6.444   4.459   1.213
 9020SOL    HW127959   6.496   4.537   1.246
 9020SOL    HW227960   6.351   4.462   1.250
 9021SOL     OW27961   0.288   0.230   4.050
 9021SOL    HW127962   0.211   0.274   4.096
 9021SOL    HW227963   0.291   0.133   4.075
 9022SOL     OW27964   3.579   2.259   6.994
 9022SOL    HW127965   3.507   2.278   0.044
 9022SOL    HW227966   3.573   2.163   6.965
 9023SOL     OW27967   4.260   3.149   1.393
 9023SOL    HW127968   4.170   3.149   1.348
 9023SOL    HW227969   4.305   3.236   1.375
 9024SOL     OW27970   0.793   4.636   5.628
 9024SOL    HW127971   0.694   4.630   5.636
 9024SOL    HW227972   0.825   4.569   5.561
 9025SOL     OW27973   0.245   5.278   1.162
 9025SOL    HW127974   0.264   5.185   1.129
 9025SOL    HW227975   0.197   5.273   1.250
 9026SOL     OW27976   3.560   1.169   0.589
 9026SOL    HW127977   3.610   1.196   0.671
 9026SOL    HW227978   3.599   1.214   0.509
 9027SOL     OW27979   1.034   3.716   3.615
 9027SOL    HW127980   1.025   3.641   3.681
 9027SOL    HW227981   1.120   3.764   3.632
 9028SOL     OW27982   3.593   3.215   5.131
 9028SOL    HW127983   3.531   3.137   5.135
 9028SOL    HW227984   3.687   3.182   5.122
 9029SOL     OW27985   4.221   0.709   4.815
 9029SOL    HW127986   4.256   0.640   4.753
 9029SOL    HW227987   4.279   0.715   4.896
 9030SOL     OW27988   2.068   2.572   3.852
 9030SOL    HW127989   2.089   2.642   3.920
 9030SOL    HW227990   1.973   2.542   3.863
 9031SOL     OW27991   4.307   0.519   4.612
 9031SOL    HW127992   4.350   0.471   4.689
 9031SOL    HW227993   4.212   0.489   4.603
 9032SOL     OW27994   4.619   4.219   1.142
 9032SOL    HW127995   4.596   4.170   1.226
 9032SOL    HW227996   4.597   4.316   1.153
 9033SOL     OW27997   0.640   4.920   2.412
 9033SOL    HW127998   0.550   4.882   2.390
 9033SOL    HW227999   0.698   4.916   2.331
 9034SOL     OW28000   3.582   6.044   5.103
 9034SOL    HW128001   3.519   5.988   5.158
 9034SOL    HW228002   3.658   5.987   5.071
 9035SOL     OW28003   2.017   6.085   0.113
 9035SOL    HW128004   1.959   6.045   0.184
 9035SOL    HW228005   2.097   6.028   0.098
 9036SOL     OW28006   1.449   3.886   5.417
 9036SOL    HW128007   1.457   3.805   5.359
 9036SOL    HW228008   1.372   3.874   5.480
 9037SOL     OW28009   1.132   2.766   4.528
 9037SOL    HW128010   1.198   2.691   4.524
 9037SOL    HW228011   1.142   2.824   4.447
 9038SOL     OW28012   4.661   3.025   6.469
 9038SOL    HW128013   4.624   3.030   6.562
 9038SOL    HW228014   4.661   2.929   6.438
 9039SOL     OW28015   3.479   4.495   0.057
 9039SOL    HW128016   3.567   4.482   0.101
 9039SOL    HW228017   3.476   4.444   6.987
 9040SOL     OW28018   2.520   1.997   1.977
 9040SOL    HW128019   2.615   2.018   1.953
 9040SOL    HW228020   2.492   1.913   1.931
 9041SOL     OW28021   0.846   2.261   1.170
 9041SOL    HW128022   0.818   2.223   1.082
 9041SOL    HW228023   0.887   2.188   1.226
 9042SOL     OW28024   4.000   5.937   5.276
 9042SOL    HW128025   4.059   5.986   5.340
 9042SOL    HW228026   4.048   5.922   5.190
 9043SOL     OW28027   2.184   1.500   6.817
 9043SOL    HW128028   2.145   1.512   6.726
 9043SOL    HW228029   2.252   1.571   6.835
 9044SOL     OW28030   0.547   0.806   0.141
 9044SOL    HW128031   0.492   0.839   0.218
 9044SOL    HW228032   0.515   0.715   0.114
 9045SOL     OW28033   4.178   0.411   3.568
 9045SOL    HW128034   4.194   0.318   3.536
 9045SOL    HW228035   4.159   0.471   3.491
 9046SOL     OW28036   4.166   3.458   2.669
 9046SOL    HW128037   4.135   3.417   2.755
 9046SOL    HW228038   4.189   3.385   2.605
 9047SOL     OW28039   1.164   4.042   5.231
 9047SOL    HW128040   1.255   4.014   5.199
 9047SOL    HW228041   1.174   4.109   5.305
 9048SOL     OW28042   5.972   2.261   6.328
 9048SOL    HW128043   6.033   2.327   6.285
 9048SOL    HW228044   5.928   2.303   6.408
 9049SOL     OW28045   3.472   6.272   5.991
 9049SOL    HW128046   3.540   6.241   6.058
 9049SOL    HW228047   3.446   6.366   6.011
 9050SOL     OW28048   0.757   4.294   1.799
 9050SOL    HW128049   0.840   4.243   1.773
 9050SOL    HW228050   0.691   4.232   1.840
 9051SOL     OW28051   2.793   0.918   1.476
 9051SOL    HW128052   2.853   0.840   1.493
 9051SOL    HW228053   2.842   1.003   1.496
 9052SOL     OW28054   1.750   3.109   3.801
 9052SOL    HW128055   1.837   3.140   3.762
 9052SOL    HW228056   1.699   3.189   3.835
 9053SOL     OW28057   2.389   1.150   0.911
 9053SOL    HW128058   2.489   1.148   0.917
 9053SOL    HW228059   2.358   1.077   0.849
 9054SOL     OW28060   2.432   5.712   3.904
 9054SOL    HW128061   2.410   5.654   3.825
 9054SOL    HW228062   2.444   5.807   3.873
 9055SOL     OW28063   6.809   4.342   5.090
 9055SOL    HW128064   6.893   4.347   5.035
 9055SOL    HW228065   6.737   4.298   5.038
 9056SOL     OW28066   6.300   2.425   2.602
 9056SOL    HW128067   6.202   2.417   2.617
 9056SOL    HW228068   6.319   2.503   2.542
 9057SOL     OW28069   4.920   1.754   4.718
 9057SOL    HW128070   4.867   1.677   4.754
 9057SOL    HW228071   5.014   1.749   4.753
 9058SOL     OW28072   1.438   0.593   6.398
 9058SOL    HW128073   1.389   0.548   6.323
 9058SOL    HW228074   1.477   0.524   6.458
 9059SOL     OW28075   1.296   2.670   2.173
 9059SOL    HW128076   1.293   2.668   2.273
 9059SOL    HW228077   1.391   2.660   2.142
 9060SOL     OW28078   5.345   3.131   4.660
 9060SOL    HW128079   5.323   3.101   4.752
 9060SOL    HW228080   5.438   3.167   4.658
 9061SOL     OW28081   4.371   5.565   2.506
 9061SOL    HW128082   4.305   5.590   2.436
 9061SOL    HW228083   4.453   5.623   2.499
 9062SOL     OW28084   0.995   5.553   1.476
 9062SOL    HW128085   0.912   5.537   1.422
 9062SOL    HW228086   1.018   5.650   1.472
 9063SOL     OW28087   2.808   1.428   3.866
 9063SOL    HW128088   2.860   1.425   3.951
 9063SOL    HW228089   2.718   1.469   3.883
 9064SOL     OW28090   6.696   3.387   0.167
 9064SOL    HW128091   6.777   3.360   0.115
 9064SOL    HW228092   6.614   3.368   0.114
 9065SOL     OW28093   3.296   0.719   0.554
 9065SOL    HW128094   3.251   0.630   0.551
 9065SOL    HW228095   3.230   0.791   0.533
 9066SOL     OW28096   5.580   6.982   0.052
 9066SOL    HW128097   5.606   6.886   0.038
 9066SOL    HW228098   5.539   6.991   0.143
 9067SOL     OW28099   1.877   6.620   3.245
 9067SOL    HW128100   1.822   6.538   3.227
 9067SOL    HW228101   1.845   6.663   3.329
 9068SOL     OW28102   1.386   6.145   5.724
 9068SOL    HW128103   1.326   6.065   5.726
 9068SOL    HW228104   1.331   6.227   5.741
 9069SOL     OW28105   1.686   2.587   6.267
 9069SOL    HW128106   1.754   2.629   6.207
 9069SOL    HW228107   1.596   2.590   6.224
 9070SOL     OW28108   1.614   3.874   4.649
 9070SOL    HW128109   1.543   3.942   4.667
 9070SOL    HW228110   1.689   3.886   4.714
 9071SOL     OW28111   6.263   6.470   0.373
 9071SOL    HW128112   6.215   6.426   0.449
 9071SOL    HW228113   6.332   6.407   0.336
 9072SOL     OW28114   6.759   3.602   0.559
 9072SOL    HW128115   6.780   3.692   0.596
 9072SOL    HW228116   6.701   3.612   0.478
 9073SOL     OW28117   2.219   1.018   2.076
 9073SOL    HW128118   2.200   1.105   2.122
 9073SOL    HW228119   2.313   1.018   2.042
 9074SOL     OW28120   1.436   6.759   2.819
 9074SOL    HW128121   1.426   6.849   2.778
 9074SOL    HW228122   1.414   6.688   2.752
 9075SOL     OW28123   6.667   0.677   1.959
 9075SOL    HW128124   6.654   0.623   1.875
 9075SOL    HW228125   6.671   0.774   1.935
 9076SOL     OW28126   6.915   1.414   5.672
 9076SOL    HW128127   7.002   1.445   5.709
 9076SOL    HW228128   6.928   1.329   5.622
 9077SOL     OW28129   4.948   6.643   2.145
 9077SOL    HW128130   4.871   6.611   2.090
 9077SOL    HW228131   4.917   6.715   2.207
 9078SOL     OW28132   3.934   3.398   5.049
 9078SOL    HW128133   3.945   3.307   5.088
 9078SOL    HW228134   3.902   3.461   5.120
 9079SOL     OW28135   3.705   6.633   4.218
 9079SOL    HW128136   3.612   6.664   4.238
 9079SOL    HW228137   3.734   6.671   4.130
 9080SOL     OW28138   5.427   2.588   6.911
 9080SOL    HW128139   5.369   2.643   6.970
 9080SOL    HW228140   5.502   2.644   6.875
 9081SOL     OW28141   5.633   6.400   2.263
 9081SOL    HW128142   5.553   6.453   2.235
 9081SOL    HW228143   5.698   6.393   2.187
 9082SOL     OW28144   2.469   0.704   3.832
 9082SOL    HW128145   2.445   0.633   3.899
 9082SOL    HW228146   2.541   0.763   3.869
 9083SOL     OW28147   4.955   4.567   5.014
 9083SOL    HW128148   5.016   4.646   5.018
 9083SOL    HW228149   4.940   4.532   5.107
 9084SOL     OW28150   3.148   3.686   3.138
 9084SOL    HW128151   3.148   3.785   3.156
 9084SOL    HW228152   3.219   3.665   3.071
 9085SOL     OW28153   2.176   1.802   1.628
 9085SOL    HW128154   2.168   1.865   1.551
 9085SOL    HW228155   2.201   1.711   1.594
 9086SOL     OW28156   0.652   4.048   1.153
 9086SOL    HW128157   0.682   3.953   1.146
 9086SOL    HW228158   0.561   4.057   1.112
 9087SOL     OW28159   4.837   3.775   2.170
 9087SOL    HW128160   4.760   3.769   2.106
 9087SOL    HW228161   4.916   3.728   2.132
 9088SOL     OW28162   6.677   0.568   6.351
 9088SOL    HW128163   6.771   0.542   6.328
 9088SOL    HW228164   6.654   0.536   6.443
 9089SOL     OW28165   4.515   0.119   6.018
 9089SOL    HW128166   4.418   0.128   6.039
 9089SOL    HW228167   4.534   0.027   5.984
 9090SOL     OW28168   5.304   0.259   4.629
 9090SOL    HW128169   5.237   0.316   4.676
 9090SOL    HW228170   5.394   0.301   4.636
 9091SOL     OW28171   3.069   3.592   0.126
 9091SOL    HW128172   3.152   3.583   0.072
 9091SOL    HW228173   3.091   3.580   0.223
 9092SOL     OW28174   6.945   2.095   0.133
 9092SOL    HW128175   6.862   2.147   0.156
 9092SOL    HW228176   6.937   2.002   0.169
 9093SOL     OW28177   1.493   6.898   5.351
 9093SOL    HW128178   1.576   6.898   5.295
 9093SOL    HW228179   1.419   6.944   5.302
 9094SOL     OW28180   0.605   3.252   1.886
 9094SOL    HW128181   0.679   3.315   1.910
 9094SOL    HW228182   0.521   3.304   1.870
 9095SOL     OW28183   5.420   5.990   5.371
 9095SOL    HW128184   5.384   5.900   5.345
 9095SOL    HW228185   5.516   5.997   5.345
 9096SOL     OW28186   6.403   5.193   2.797
 9096SOL    HW128187   6.334   5.201   2.870
 9096SOL    HW228188   6.360   5.210   2.708
 9097SOL     OW28189   0.755   3.419   5.749
 9097SOL    HW128190   0.737   3.324   5.773
 9097SOL    HW228191   0.747   3.476   5.830
 9098SOL     OW28192   2.073   3.188   4.434
 9098SOL    HW128193   2.128   3.169   4.515
 9098SOL    HW228194   2.047   3.285   4.433
 9099SOL     OW28195   2.195   3.382   6.926
 9099SOL    HW128196   2.113   3.384   6.869
 9099SOL    HW228197   2.170   3.363   0.005
 9100SOL     OW28198   0.994   4.717   2.689
 9100SOL    HW128199   0.990   4.816   2.676
 9100SOL    HW228200   0.915   4.674   2.644
 9101SOL     OW28201   2.093   1.462   1.716
 9101SOL    HW128202   2.002   1.494   1.742
 9101SOL    HW228203   2.124   1.511   1.635
 9102SOL     OW28204   4.126   5.654   2.635
 9102SOL    HW128205   4.208   5.598   2.623
 9102SOL    HW228206   4.122   5.722   2.562
 9103SOL     OW28207   6.625   1.891   0.538
 9103SOL    HW128208   6.607   1.859   0.631
 9103SOL    HW228209   6.615   1.814   0.475
 9104SOL     OW28210   6.664   0.703   0.086
 9104SOL    HW128211   6.668   0.695   7.002
 9104SOL    HW228212   6.667   0.612   0.127
 9105SOL     OW28213   1.894   0.178   6.230
 9105SOL    HW128214   1.836   0.210   6.306
 9105SOL    HW228215   1.903   0.251   6.162
 9106SOL     OW28216   1.216   5.172   6.623
 9106SOL    HW128217   1.301   5.203   6.580
 9106SOL    HW228218   1.183   5.242   6.686
 9107SOL     OW28219   2.376   1.188   0.121
 9107SOL    HW128220   2.442   1.113   0.124
 9107SOL    HW228221   2.362   1.225   0.212
 9108SOL     OW28222   5.545   5.324   5.772
 9108SOL    HW128223   5.572   5.414   5.804
 9108SOL    HW228224   5.543   5.260   5.849
 9109SOL     OW28225   5.172   2.904   2.759
 9109SOL    HW128226   5.076   2.879   2.771
 9109SOL    HW228227   5.196   2.901   2.662
 9110SOL     OW28228   1.516   5.403   4.724
 9110SOL    HW128229   1.499   5.308   4.751
 9110SOL    HW228230   1.573   5.403   4.641
 9111SOL     OW28231   4.411   2.945   5.452
 9111SOL    HW128232   4.507   2.937   5.480
 9111SOL    HW228233   4.353   2.900   5.519
 9112SOL     OW28234   1.991   5.422   2.160
 9112SOL    HW128235   1.999   5.332   2.204
 9112SOL    HW228236   2.060   5.483   2.197
 9113SOL     OW28237   4.744   1.982   3.413
 9113SOL    HW128238   4.761   1.884   3.409
 9113SOL    HW228239   4.809   2.025   3.477
 9114SOL     OW28240   1.416   5.990   4.389
 9114SOL    HW128241   1.336   5.930   4.382
 9114SOL    HW228242   1.461   5.975   4.477
 9115SOL     OW28243   5.499   4.612   3.803
 9115SOL    HW128244   5.448   4.620   3.889
 9115SOL    HW228245   5.537   4.701   3.778
 9116SOL     OW28246   0.671   6.500   3.473
 9116SOL    HW128247   0.609   6.447   3.416
 9116SOL    HW228248   0.679   6.593   3.437
 9117SOL     OW28249   3.893   0.704   6.932
 9117SOL    HW128250   3.821   0.637   6.914
 9117SOL    HW228251   3.971   0.658   6.975
 9118SOL     OW28252   6.007   3.783   0.925
 9118SOL    HW128253   6.081   3.740   0.874
 9118SOL    HW228254   5.973   3.862   0.874
 9119SOL     OW28255   3.582   0.448   0.739
 9119SOL    HW128256   3.564   0.538   0.778
 9119SOL    HW228257   3.625   0.390   0.808
 9120SOL     OW28258   5.588   2.990   5.415
 9120SOL    HW128259   5.504   3.036   5.384
 9120SOL    HW228260   5.563   2.903   5.458
 9121SOL     OW28261   3.258   0.154   5.175
 9121SOL    HW128262   3.220   0.209   5.100
 9121SOL    HW228263   3.185   0.102   5.219
 9122SOL     OW28264   2.325   4.239   2.404
 9122SOL    HW128265   2.353   4.329   2.372
 9122SOL    HW228266   2.379   4.214   2.484
 9123SOL     OW28267   0.865   1.124   3.852
 9123SOL    HW128268   0.826   1.192   3.790
 9123SOL    HW228269   0.939   1.165   3.905
 9124SOL     OW28270   2.717   5.686   1.479
 9124SOL    HW128271   2.778   5.738   1.539
 9124SOL    HW228272   2.760   5.599   1.455
 9125SOL     OW28273   4.858   6.661   0.876
 9125SOL    HW128274   4.776   6.640   0.929
 9125SOL    HW228275   4.844   6.745   0.825
 9126SOL     OW28276   3.984   4.360   0.266
 9126SOL    HW128277   3.929   4.284   0.301
 9126SOL    HW228278   4.081   4.335   0.267
 9127SOL     OW28279   6.962   4.122   5.909
 9127SOL    HW128280   0.016   4.051   5.909
 9127SOL    HW228281   6.939   4.145   5.814
 9128SOL     OW28282   5.789   3.562   5.707
 9128SOL    HW128283   5.729   3.574   5.628
 9128SOL    HW228284   5.831   3.471   5.703
 9129SOL     OW28285   1.533   1.771   0.517
 9129SOL    HW128286   1.591   1.853   0.513
 9129SOL    HW228287   1.590   1.691   0.535
 9130SOL     OW28288   2.608   3.879   5.337
 9130SOL    HW128289   2.544   3.885   5.261
 9130SOL    HW228290   2.569   3.822   5.409
 9131SOL     OW28291   5.762   2.838   1.137
 9131SOL    HW128292   5.737   2.800   1.225
 9131SOL    HW228293   5.682   2.840   1.077
 9132SOL     OW28294   0.280   4.429   3.800
 9132SOL    HW128295   0.318   4.521   3.793
 9132SOL    HW228296   0.339   4.373   3.859
 9133SOL     OW28297   4.902   0.890   0.731
 9133SOL    HW128298   4.842   0.877   0.810
 9133SOL    HW228299   4.969   0.961   0.752
 9134SOL     OW28300   4.445   5.328   0.794
 9134SOL    HW128301   4.460   5.322   0.893
 9134SOL    HW228302   4.351   5.357   0.777
 9135SOL     OW28303   0.318   6.820   2.848
 9135SOL    HW128304   0.223   6.830   2.818
 9135SOL    HW228305   0.327   6.851   2.943
 9136SOL     OW28306   6.179   4.753   6.771
 9136SOL    HW128307   6.132   4.716   6.691
 9136SOL    HW228308   6.248   4.688   6.803
 9137SOL     OW28309   5.242   6.426   6.280
 9137SOL    HW128310   5.181   6.351   6.253
 9137SOL    HW228311   5.333   6.410   6.243
 9138SOL     OW28312   3.332   3.556   1.086
 9138SOL    HW128313   3.286   3.485   1.033
 9138SOL    HW228314   3.427   3.529   1.103
 9139SOL     OW28315   6.806   0.281   1.252
 9139SOL    HW128316   6.736   0.241   1.192
 9139SOL    HW228317   6.881   0.216   1.264
 9140SOL     OW28318   1.013   4.569   2.917
 9140SOL    HW128319   1.078   4.611   2.980
 9140SOL    HW228320   1.017   4.615   2.828
 9141SOL     OW28321   6.576   5.966   5.206
 9141SOL    HW128322   6.628   5.881   5.216
 9141SOL    HW228323   6.500   5.950   5.143
 9142SOL     OW28324   1.201   4.144   3.617
 9142SOL    HW128325   1.264   4.194   3.557
 9142SOL    HW228326   1.253   4.088   3.681
 9143SOL     OW28327   6.346   3.535   2.466
 9143SOL    HW128328   6.287   3.614   2.479
 9143SOL    HW228329   6.393   3.513   2.552
 9144SOL     OW28330   2.567   4.403   5.402
 9144SOL    HW128331   2.552   4.309   5.370
 9144SOL    HW228332   2.637   4.447   5.347
 9145SOL     OW28333   1.298   6.494   5.948
 9145SOL    HW128334   1.287   6.454   6.040
 9145SOL    HW228335   1.249   6.438   5.882
 9146SOL     OW28336   6.495   2.988   3.166
 9146SOL    HW128337   6.408   3.031   3.143
 9146SOL    HW228338   6.570   3.051   3.146
 9147SOL     OW28339   4.235   0.283   4.298
 9147SOL    HW128340   4.279   0.259   4.211
 9147SOL    HW228341   4.157   0.343   4.281
 9148SOL     OW28342   6.099   6.394   1.494
 9148SOL    HW128343   6.079   6.433   1.404
 9148SOL    HW228344   6.096   6.294   1.488
 9149SOL     OW28345   0.406   3.702   1.920
 9149SOL    HW128346   0.406   3.748   1.831
 9149SOL    HW228347   0.464   3.753   1.983
 9150SOL     OW28348   2.912   2.464   1.192
 9150SOL    HW128349   2.822   2.492   1.157
 9150SOL    HW228350   2.944   2.531   1.259
 9151SOL     OW28351   1.877   3.418   3.788
 9151SOL    HW128352   1.973   3.434   3.767
 9151SOL    HW228353   1.831   3.382   3.706
 9152SOL     OW28354   2.398   4.864   3.234
 9152SOL    HW128355   2.454   4.800   3.286
 9152SOL    HW228356   2.302   4.856   3.263
 9153SOL     OW28357   6.666   3.641   0.309
 9153SOL    HW128358   6.722   3.570   0.267
 9153SOL    HW228359   6.569   3.621   0.294
 9154SOL     OW28360   5.821   4.749   2.541
 9154SOL    HW128361   5.859   4.704   2.622
 9154SOL    HW228362   5.745   4.808   2.567
 9155SOL     OW28363   1.136   6.591   2.441
 9155SOL    HW128364   1.161   6.595   2.344
 9155SOL    HW228365   1.052   6.642   2.456
 9156SOL     OW28366   6.932   4.100   0.035
 9156SOL    HW128367   6.920   4.193   0.001
 9156SOL    HW228368   6.843   4.057   0.046
 9157SOL     OW28369   2.009   5.449   6.223
 9157SOL    HW128370   2.090   5.398   6.250
 9157SOL    HW228371   1.953   5.392   6.163
 9158SOL     OW28372   6.555   3.368   4.848
 9158SOL    HW128373   6.634   3.425   4.871
 9158SOL    HW228374   6.540   3.369   4.749
 9159SOL     OW28375   3.630   1.238   4.009
 9159SOL    HW128376   3.543   1.286   4.022
 9159SOL    HW228377   3.663   1.204   4.096
 9160SOL     OW28378   6.840   4.364   0.844
 9160SOL    HW128379   6.915   4.327   0.899
 9160SOL    HW228380   6.759   4.376   0.901
 9161SOL     OW28381   6.704   4.397   1.517
 9161SOL    HW128382   6.751   4.354   1.593
 9161SOL    HW228383   6.766   4.458   1.469
 9162SOL     OW28384   4.235   1.985   1.879
 9162SOL    HW128385   4.234   2.029   1.969
 9162SOL    HW228386   4.328   1.958   1.857
 9163SOL     OW28387   1.661   2.530   3.328
 9163SOL    HW128388   1.743   2.530   3.387
 9163SOL    HW228389   1.599   2.458   3.358
 9164SOL     OW28390   2.822   0.401   0.151
 9164SOL    HW128391   2.856   0.490   0.121
 9164SOL    HW228392   2.859   0.380   0.241
 9165SOL     OW28393   5.215   1.318   6.192
 9165SOL    HW128394   5.173   1.289   6.278
 9165SOL    HW228395   5.243   1.414   6.199
 9166SOL     OW28396   5.353   5.806   1.756
 9166SOL    HW128397   5.420   5.871   1.718
 9166SOL    HW228398   5.395   5.754   1.830
 9167SOL     OW28399   1.689   1.468   4.625
 9167SOL    HW128400   1.711   1.441   4.532
 9167SOL    HW228401   1.761   1.526   4.662
 9168SOL     OW28402   6.663   6.101   4.231
 9168SOL    HW128403   6.686   6.004   4.224
 9168SOL    HW228404   6.703   6.138   4.315
 9169SOL     OW28405   6.425   5.544   0.895
 9169SOL    HW128406   6.497   5.612   0.909
 9169SOL    HW228407   6.345   5.568   0.950
 9170SOL     OW28408   1.656   1.331   6.149
 9170SOL    HW128409   1.582   1.322   6.216
 9170SOL    HW228410   1.618   1.327   6.057
 9171SOL     OW28411   3.470   4.722   0.423
 9171SOL    HW128412   3.424   4.698   0.337
 9171SOL    HW228413   3.562   4.684   0.423
 9172SOL     OW28414   4.634   1.284   4.103
 9172SOL    HW128415   4.590   1.354   4.046
 9172SOL    HW228416   4.668   1.210   4.044
 9173SOL     OW28417   5.542   2.924   4.771
 9173SOL    HW128418   5.488   2.844   4.798
 9173SOL    HW228419   5.573   2.972   4.852
 9174SOL     OW28420   0.461   4.567   0.276
 9174SOL    HW128421   0.467   4.654   0.324
 9174SOL    HW228422   0.365   4.542   0.262
 9175SOL     OW28423   2.181   6.842   6.598
 9175SOL    HW128424   2.166   6.833   6.499
 9175SOL    HW228425   2.222   6.758   6.633
 9176SOL     OW28426   1.618   1.517   2.403
 9176SOL    HW128427   1.562   1.530   2.321
 9176SOL    HW228428   1.715   1.532   2.381
 9177SOL     OW28429   0.515   4.269   3.877
 9177SOL    HW128430   0.542   4.347   3.934
 9177SOL    HW228431   0.580   4.194   3.890
 9178SOL     OW28432   2.191   5.892   0.527
 9178SOL    HW128433   2.159   5.919   0.618
 9178SOL    HW228434   2.178   5.794   0.515
 9179SOL     OW28435   3.581   5.481   4.637
 9179SOL    HW128436   3.535   5.438   4.715
 9179SOL    HW228437   3.525   5.556   4.602
 9180SOL     OW28438   6.916   0.729   4.963
 9180SOL    HW128439   6.855   0.660   5.001
 9180SOL    HW228440   6.971   0.689   4.891
 9181SOL     OW28441   3.218   1.845   3.713
 9181SOL    HW128442   3.274   1.846   3.795
 9181SOL    HW228443   3.205   1.751   3.682
 9182SOL     OW28444   1.201   1.078   2.748
 9182SOL    HW128445   1.275   1.023   2.710
 9182SOL    HW228446   1.240   1.153   2.802
 9183SOL     OW28447   0.602   2.358   6.089
 9183SOL    HW128448   0.633   2.330   6.180
 9183SOL    HW228449   0.668   2.423   6.050
 9184SOL     OW28450   3.498   3.211   0.542
 9184SOL    HW128451   3.552   3.127   0.537
 9184SOL    HW228452   3.416   3.195   0.597
 9185SOL     OW28453   1.121   0.868   6.904
 9185SOL    HW128454   1.101   0.874   6.806
 9185SOL    HW228455   1.118   0.772   6.933
 9186SOL     OW28456   5.918   0.802   6.131
 9186SOL    HW128457   5.844   0.735   6.128
 9186SOL    HW228458   5.880   0.894   6.137
 9187SOL     OW28459   5.485   2.164   0.724
 9187SOL    HW128460   5.463   2.257   0.696
 9187SOL    HW228461   5.452   2.099   0.655
 9188SOL     OW28462   1.554   0.372   1.812
 9188SOL    HW128463   1.635   0.430   1.813
 9188SOL    HW228464   1.579   0.279   1.840
 9189SOL     OW28465   3.927   1.218   4.655
 9189SOL    HW128466   3.902   1.185   4.746
 9189SOL    HW228467   3.957   1.141   4.599
 9190SOL     OW28468   6.470   2.504   5.568
 9190SOL    HW128469   6.497   2.576   5.631
 9190SOL    HW228470   6.421   2.433   5.618
 9191SOL     OW28471   5.392   6.413   0.593
 9191SOL    HW128472   5.359   6.426   0.500
 9191SOL    HW228473   5.464   6.344   0.594
 9192SOL     OW28474   5.665   4.712   4.517
 9192SOL    HW128475   5.623   4.798   4.488
 9192SOL    HW228476   5.698   4.721   4.611
 9193SOL     OW28477   3.718   3.291   3.716
 9193SOL    HW128478   3.732   3.197   3.685
 9193SOL    HW228479   3.643   3.332   3.665
 9194SOL     OW28480   3.191   5.755   2.470
 9194SOL    HW128481   3.091   5.759   2.470
 9194SOL    HW228482   3.224   5.749   2.564
 9195SOL     OW28483   6.740   3.642   3.003
 9195SOL    HW128484   6.829   3.610   3.035
 9195SOL    HW228485   6.671   3.626   3.074
 9196SOL     OW28486   4.562   0.052   3.565
 9196SOL    HW128487   4.505   0.131   3.587
 9196SOL    HW228488   4.576   0.048   3.466
 9197SOL     OW28489   3.378   3.293   6.355
 9197SOL    HW128490   3.326   3.273   6.273
 9197SOL    HW228491   3.380   3.392   6.371
 9198SOL     OW28492   5.186   2.752   4.949
 9198SOL    HW128493   5.184   2.782   5.045
 9198SOL    HW228494   5.134   2.668   4.940
 9199SOL     OW28495   1.220   3.475   6.453
 9199SOL    HW128496   1.252   3.488   6.359
 9199SOL    HW228497   1.241   3.383   6.483
 9200SOL     OW28498   6.023   0.041   0.332
 9200SOL    HW128499   6.093   0.055   0.262
 9200SOL    HW228500   5.933   0.035   0.289
 9201SOL     OW28501   1.617   4.182   3.329
 9201SOL    HW128502   1.581   4.103   3.378
 9201SOL    HW228503   1.717   4.184   3.336
 9202SOL     OW28504   3.361   5.270   4.317
 9202SOL    HW128505   3.369   5.202   4.244
 9202SOL    HW228506   3.436   5.260   4.381
 9203SOL     OW28507   5.123   0.673   6.308
 9203SOL    HW128508   5.169   0.609   6.369
 9203SOL    HW228509   5.029   0.688   6.340
 9204SOL     OW28510   4.743   4.474   1.965
 9204SOL    HW128511   4.820   4.476   2.028
 9204SOL    HW228512   4.697   4.385   1.972
 9205SOL     OW28513   4.929   3.275   2.829
 9205SOL    HW128514   4.982   3.360   2.819
 9205SOL    HW228515   4.955   3.211   2.757
 9206SOL     OW28516   0.630   6.807   3.470
 9206SOL    HW128517   0.570   6.758   3.407
 9206SOL    HW228518   0.584   6.819   3.558
 9207SOL     OW28519   4.322   6.859   6.996
 9207SOL    HW128520   4.229   6.855   0.017
 9207SOL    HW228521   4.351   6.955   6.987
 9208SOL     OW28522   4.700   4.674   2.490
 9208SOL    HW128523   4.731   4.667   2.585
 9208SOL    HW228524   4.649   4.759   2.478
 9209SOL     OW28525   3.821   0.905   2.864
 9209SOL    HW128526   3.816   0.983   2.801
 9209SOL    HW228527   3.732   0.892   2.908
 9210SOL     OW28528   1.412   0.200   1.048
 9210SOL    HW128529   1.374   0.292   1.037
 9210SOL    HW228530   1.352   0.134   1.002
 9211SOL     OW28531   5.004   1.308   6.364
 9211SOL    HW128532   4.969   1.289   6.272
 9211SOL    HW228533   4.942   1.370   6.411
 9212SOL     OW28534   5.889   3.831   4.626
 9212SOL    HW128535   5.909   3.879   4.712
 9212SOL    HW228536   5.822   3.759   4.644
 9213SOL     OW28537   6.480   6.952   2.361
 9213SOL    HW128538   6.502   0.034   2.367
 9213SOL    HW228539   6.401   6.932   2.419
 9214SOL     OW28540   1.708   2.448   5.514
 9214SOL    HW128541   1.650   2.374   5.482
 9214SOL    HW228542   1.761   2.417   5.593
 9215SOL     OW28543   0.597   3.120   2.914
 9215SOL    HW128544   0.556   3.137   2.824
 9215SOL    HW228545   0.562   3.187   2.980
 9216SOL     OW28546   2.852   5.933   4.978
 9216SOL    HW128547   2.854   5.863   4.906
 9216SOL    HW228548   2.900   5.900   5.058
 9217SOL     OW28549   4.621   1.268   6.188
 9217SOL    HW128550   4.603   1.314   6.102
 9217SOL    HW228551   4.537   1.224   6.221
 9218SOL     OW28552   6.047   5.490   6.842
 9218SOL    HW128553   6.102   5.574   6.836
 9218SOL    HW228554   6.031   5.468   6.939
 9219SOL     OW28555   3.489   3.153   5.570
 9219SOL    HW128556   3.466   3.206   5.488
 9219SOL    HW228557   3.547   3.076   5.545
 9220SOL     OW28558   0.857   6.484   3.716
 9220SOL    HW128559   0.816   6.472   3.626
 9220SOL    HW228560   0.912   6.567   3.717
 9221SOL     OW28561   2.650   1.079   0.929
 9221SOL    HW128562   2.733   1.117   0.888
 9221SOL    HW228563   2.671   0.990   0.971
 9222SOL     OW28564   1.552   3.312   3.843
 9222SOL    HW128565   1.548   3.389   3.907
 9222SOL    HW228566   1.503   3.336   3.760
 9223SOL     OW28567   0.580   3.534   4.917
 9223SOL    HW128568   0.569   3.460   4.984
 9223SOL    HW228569   0.513   3.606   4.936
 9224SOL     OW28570   2.034   4.426   3.816
 9224SOL    HW128571   2.133   4.418   3.800
 9224SOL    HW228572   1.984   4.377   3.745
 9225SOL     OW28573   5.085   6.081   6.821
 9225SOL    HW128574   5.171   6.099   6.774
 9225SOL    HW228575   5.009   6.111   6.764
 9226SOL     OW28576   1.134   0.641   1.060
 9226SOL    HW128577   1.069   0.593   1.001
 9226SOL    HW228578   1.203   0.576   1.093
 9227SOL     OW28579   2.185   4.806   0.756
 9227SOL    HW128580   2.190   4.734   0.825
 9227SOL    HW228581   2.091   4.842   0.753
 9228SOL     OW28582   3.356   3.173   5.828
 9228SOL    HW128583   3.383   3.166   5.732
 9228SOL    HW228584   3.270   3.125   5.843
 9229SOL     OW28585   0.312   4.814   0.126
 9229SOL    HW128586   0.390   4.791   0.185
 9229SOL    HW228587   0.321   4.766   0.039
 9230SOL     OW28588   4.381   1.645   4.907
 9230SOL    HW128589   4.345   1.718   4.849
 9230SOL    HW228590   4.479   1.659   4.921
 9231SOL     OW28591   0.015   5.575   3.701
 9231SOL    HW128592   6.945   5.618   3.730
 9231SOL    HW228593   0.004   5.537   3.610
 9232SOL     OW28594   1.294   5.209   1.942
 9232SOL    HW128595   1.345   5.278   1.993
 9232SOL    HW228596   1.209   5.249   1.907
 9233SOL     OW28597   0.584   6.327   0.075
 9233SOL    HW128598   0.488   6.301   0.081
 9233SOL    HW228599   0.595   6.397   0.005
 9234SOL     OW28600   2.408   4.225   0.781
 9234SOL    HW128601   2.404   4.219   0.681
 9234SOL    HW228602   2.499   4.196   0.813
 9235SOL     OW28603   2.258   2.107   3.878
 9235SOL    HW128604   2.293   2.125   3.971
 9235SOL    HW228605   2.243   2.194   3.831
 9236SOL     OW28606   2.634   3.379   6.696
 9236SOL    HW128607   2.691   3.299   6.677
 9236SOL    HW228608   2.574   3.359   6.774
 9237SOL     OW28609   5.705   4.633   2.997
 9237SOL    HW128610   5.764   4.675   3.066
 9237SOL    HW228611   5.614   4.676   3.001
 9238SOL     OW28612   1.870   2.686   5.167
 9238SOL    HW128613   1.781   2.675   5.210
 9238SOL    HW228614   1.941   2.692   5.238
 9239SOL     OW28615   1.233   5.021   6.863
 9239SOL    HW128616   1.262   4.932   6.829
 9239SOL    HW228617   1.177   5.067   6.794
 9240SOL     OW28618   4.257   2.346   2.992
 9240SOL    HW128619   4.305   2.279   3.050
 9240SOL    HW228620   4.172   2.305   2.958
 9241SOL     OW28621   6.023   6.560   1.296
 9241SOL    HW128622   5.927   6.570   1.321
 9241SOL    HW228623   6.042   6.613   1.213
 9242SOL     OW28624   1.380   2.594   0.591
 9242SOL    HW128625   1.282   2.614   0.587
 9242SOL    HW228626   1.431   2.671   0.553
 9243SOL     OW28627   0.902   1.046   6.972
 9243SOL    HW128628   0.995   1.012   6.956
 9243SOL    HW228629   0.839   0.999   6.911
 9244SOL     OW28630   3.268   6.538   5.486
 9244SOL    HW128631   3.226   6.449   5.504
 9244SOL    HW228632   3.320   6.534   5.400
 9245SOL     OW28633   1.355   4.424   3.464
 9245SOL    HW128634   1.410   4.355   3.416
 9245SOL    HW228635   1.266   4.432   3.419
 9246SOL     OW28636   6.675   0.333   5.732
 9246SOL    HW128637   6.605   0.283   5.783
 9246SOL    HW228638   6.663   0.431   5.747
 9247SOL     OW28639   3.891   6.677   2.966
 9247SOL    HW128640   3.832   6.745   3.010
 9247SOL    HW228641   3.834   6.612   2.915
 9248SOL     OW28642   2.584   1.323   6.295
 9248SOL    HW128643   2.604   1.420   6.283
 9248SOL    HW228644   2.496   1.302   6.251
 9249SOL     OW28645   3.456   5.659   1.084
 9249SOL    HW128646   3.496   5.647   1.175
 9249SOL    HW228647   3.406   5.745   1.080
 9250SOL     OW28648   0.564   3.023   4.233
 9250SOL    HW128649   0.634   3.086   4.267
 9250SOL    HW228650   0.527   2.969   4.309
 9251SOL     OW28651   3.030   2.951   1.031
 9251SOL    HW128652   3.076   3.037   1.054
 9251SOL    HW228653   3.044   2.884   1.103
 9252SOL     OW28654   4.567   1.937   5.704
 9252SOL    HW128655   4.531   2.012   5.649
 9252SOL    HW228656   4.604   1.973   5.790
 9253SOL     OW28657   1.145   5.354   5.370
 9253SOL    HW128658   1.102   5.286   5.430
 9253SOL    HW228659   1.106   5.345   5.278
 9254SOL     OW28660   0.029   5.036   2.970
 9254SOL    HW128661   0.077   5.057   3.054
 9254SOL    HW228662   0.005   5.121   2.923
 9255SOL     OW28663   6.673   4.223   0.688
 9255SOL    HW128664   6.746   4.289   0.702
 9255SOL    HW228665   6.587   4.271   0.670
 9256SOL     OW28666   1.851   6.217   1.875
 9256SOL    HW128667   1.918   6.142   1.877
 9256SOL    HW228668   1.865   6.276   1.954
 9257SOL     OW28669   6.547   6.036   3.734
 9257SOL    HW128670   6.565   5.963   3.667
 9257SOL    HW228671   6.450   6.062   3.730
 9258SOL     OW28672   3.602   5.334   1.133
 9258SOL    HW128673   3.684   5.381   1.099
 9258SOL    HW228674   3.628   5.249   1.179
 9259SOL     OW28675   1.935   1.325   6.796
 9259SOL    HW128676   1.989   1.405   6.823
 9259SOL    HW228677   1.971   1.244   6.844
 9260SOL     OW28678   6.164   4.044   4.820
 9260SOL    HW128679   6.230   3.981   4.860
 9260SOL    HW228680   6.071   4.012   4.838
 9261SOL     OW28681   3.651   2.573   1.722
 9261SOL    HW128682   3.709   2.653   1.739
 9261SOL    HW228683   3.692   2.492   1.764
 9262SOL     OW28684   6.089   6.120   4.528
 9262SOL    HW128685   6.183   6.091   4.549
 9262SOL    HW228686   6.085   6.220   4.527
 9263SOL     OW28687   1.844   4.036   4.178
 9263SOL    HW128688   1.937   4.002   4.184
 9263SOL    HW228689   1.802   4.003   4.093
 9264SOL     OW28690   4.055   4.030   0.147
 9264SOL    HW128691   4.149   4.011   0.119
 9264SOL    HW228692   4.025   4.118   0.110
 9265SOL     OW28693   5.811   2.225   6.996
 9265SOL    HW128694   5.781   2.167   6.920
 9265SOL    HW228695   5.906   2.252   6.980
 9266SOL     OW28696   1.128   4.652   1.341
 9266SOL    HW128697   1.069   4.680   1.265
 9266SOL    HW228698   1.207   4.713   1.346
 9267SOL     OW28699   6.464   0.836   4.960
 9267SOL    HW128700   6.408   0.850   5.042
 9267SOL    HW228701   6.414   0.869   4.880
 9268SOL     OW28702   0.728   0.087   2.014
 9268SOL    HW128703   0.741   0.150   2.091
 9268SOL    HW228704   0.738   0.136   1.928
 9269SOL     OW28705   4.054   0.954   0.421
 9269SOL    HW128706   4.103   1.008   0.352
 9269SOL    HW228707   4.023   1.015   0.494
 9270SOL     OW28708   1.876   0.425   6.107
 9270SOL    HW128709   1.814   0.479   6.051
 9270SOL    HW228710   1.926   0.485   6.170
 9271SOL     OW28711   1.511   6.802   4.668
 9271SOL    HW128712   1.457   6.728   4.709
 9271SOL    HW228713   1.457   6.887   4.669
 9272SOL     OW28714   6.449   6.859   5.975
 9272SOL    HW128715   6.521   6.921   6.006
 9272SOL    HW228716   6.455   6.850   5.875
 9273SOL     OW28717   4.876   5.358   4.473
 9273SOL    HW128718   4.820   5.286   4.432
 9273SOL    HW228719   4.882   5.435   4.409
 9274SOL     OW28720   0.841   2.528   0.404
 9274SOL    HW128721   0.810   2.599   0.341
 9274SOL    HW228722   0.793   2.537   0.491
 9275SOL     OW28723   0.239   0.433   0.061
 9275SOL    HW128724   0.234   0.533   0.057
 9275SOL    HW228725   0.221   0.396   6.986
 9276SOL     OW28726   2.507   5.484   0.109
 9276SOL    HW128727   2.533   5.580   0.124
 9276SOL    HW228728   2.570   5.443   0.042
 9277SOL     OW28729   4.886   5.830   1.957
 9277SOL    HW128730   4.960   5.876   1.908
 9277SOL    HW228731   4.894   5.731   1.945
 9278SOL     OW28732   1.079   0.704   5.050
 9278SOL    HW128733   1.039   0.731   5.138
 9278SOL    HW228734   1.005   0.683   4.986
 9279SOL     OW28735   4.439   5.939   1.903
 9279SOL    HW128736   4.473   5.849   1.877
 9279SOL    HW228737   4.396   5.933   1.993
 9280SOL     OW28738   1.671   0.053   2.817
 9280SOL    HW128739   1.668   6.969   2.821
 9280SOL    HW228740   1.635   0.083   2.728
 9281SOL     OW28741   2.242   5.174   6.821
 9281SOL    HW128742   2.337   5.194   6.798
 9281SOL    HW228743   2.224   5.200   6.916
 9282SOL     OW28744   2.599   6.738   5.083
 9282SOL    HW128745   2.607   6.829   5.124
 9282SOL    HW228746   2.517   6.734   5.026
 9283SOL     OW28747   4.276   5.993   0.315
 9283SOL    HW128748   4.321   5.914   0.273
 9283SOL    HW228749   4.269   5.979   0.414
 9284SOL     OW28750   3.397   3.852   4.902
 9284SOL    HW128751   3.492   3.849   4.871
 9284SOL    HW228752   3.348   3.773   4.864
 9285SOL     OW28753   0.600   4.730   2.643
 9285SOL    HW128754   0.621   4.635   2.620
 9285SOL    HW228755   0.616   4.788   2.562
 9286SOL     OW28756   4.346   6.272   1.266
 9286SOL    HW128757   4.297   6.231   1.342
 9286SOL    HW228758   4.313   6.366   1.251
 9287SOL     OW28759   3.465   4.425   6.112
 9287SOL    HW128760   3.553   4.453   6.150
 9287SOL    HW228761   3.480   4.375   6.026
 9288SOL     OW28762   3.856   2.126   2.704
 9288SOL    HW128763   3.843   2.096   2.609
 9288SOL    HW228764   3.768   2.128   2.751
 9289SOL     OW28765   4.911   6.450   0.415
 9289SOL    HW128766   4.929   6.486   0.323
 9289SOL    HW228767   4.861   6.364   0.408
 9290SOL     OW28768   4.729   1.013   3.992
 9290SOL    HW128769   4.746   0.925   3.948
 9290SOL    HW228770   4.655   1.004   4.059
 9291SOL     OW28771   0.775   4.970   6.210
 9291SOL    HW128772   0.741   5.020   6.290
 9291SOL    HW228773   0.700   4.920   6.167
 9292SOL     OW28774   1.512   1.278   6.554
 9292SOL    HW128775   1.564   1.263   6.470
 9292SOL    HW228776   1.529   1.204   6.618
 9293SOL     OW28777   5.018   2.505   4.862
 9293SOL    HW128778   5.002   2.587   4.807
 9293SOL    HW228779   4.935   2.449   4.862
 9294SOL     OW28780   4.451   1.201   0.119
 9294SOL    HW128781   4.481   1.125   0.061
 9294SOL    HW228782   4.368   1.241   0.080
 9295SOL     OW28783   0.516   1.220   5.199
 9295SOL    HW128784   0.428   1.200   5.242
 9295SOL    HW228785   0.508   1.305   5.146
 9296SOL     OW28786   1.675   5.035   0.117
 9296SOL    HW128787   1.678   4.940   0.086
 9296SOL    HW228788   1.579   5.063   0.127
 9297SOL     OW28789   5.853   5.721   2.308
 9297SOL    HW128790   5.889   5.696   2.219
 9297SOL    HW228791   5.860   5.820   2.321
 9298SOL     OW28792   1.655   5.320   6.200
 9298SOL    HW128793   1.646   5.377   6.281
 9298SOL    HW228794   1.635   5.375   6.118
 9299SOL     OW28795   1.890   2.550   4.939
 9299SOL    HW128796   1.874   2.584   5.032
 9299SOL    HW228797   1.838   2.606   4.874
 9300SOL     OW28798   1.346   5.045   5.447
 9300SOL    HW128799   1.406   5.007   5.518
 9300SOL    HW228800   1.269   5.092   5.490
 9301SOL     OW28801   0.320   4.093   4.999
 9301SOL    HW128802   0.262   4.034   5.055
 9301SOL    HW228803   0.413   4.059   5.000
 9302SOL     OW28804   2.202   3.606   5.146
 9302SOL    HW128805   2.174   3.677   5.080
 9302SOL    HW228806   2.291   3.630   5.185
 9303SOL     OW28807   2.156   4.599   0.893
 9303SOL    HW128808   2.155   4.623   0.990
 9303SOL    HW228809   2.193   4.507   0.883
 9304SOL     OW28810   4.020   5.360   0.373
 9304SOL    HW128811   4.047   5.303   0.451
 9304SOL    HW228812   3.931   5.330   0.340
 9305SOL     OW28813   2.225   1.889   1.236
 9305SOL    HW128814   2.197   1.913   1.329
 9305SOL    HW228815   2.225   1.789   1.226
 9306SOL     OW28816   6.343   5.304   4.518
 9306SOL    HW128817   6.325   5.395   4.555
 9306SOL    HW228818   6.305   5.298   4.426
 9307SOL     OW28819   2.602   3.008   1.596
 9307SOL    HW128820   2.545   2.960   1.663
 9307SOL    HW228821   2.576   2.980   1.504
 9308SOL     OW28822   2.172   3.909   2.183
 9308SOL    HW128823   2.218   3.870   2.263
 9308SOL    HW228824   2.148   3.835   2.119
 9309SOL     OW28825   4.826   5.379   6.232
 9309SOL    HW128826   4.890   5.429   6.291
 9309SOL    HW228827   4.874   5.305   6.185
 9310SOL     OW28828   5.674   5.935   0.436
 9310SOL    HW128829   5.687   5.909   0.340
 9310SOL    HW228830   5.582   5.972   0.448
 9311SOL     OW28831   4.605   3.710   1.734
 9311SOL    HW128832   4.567   3.628   1.691
 9311SOL    HW228833   4.667   3.755   1.669
 9312SOL     OW28834   0.358   2.886   2.190
 9312SOL    HW128835   0.281   2.892   2.253
 9312SOL    HW228836   0.347   2.807   2.130
 9313SOL     OW28837   0.184   0.173   2.025
 9313SOL    HW128838   0.127   0.250   2.054
 9313SOL    HW228839   0.280   0.203   2.020
 9314SOL     OW28840   5.040   3.454   0.619
 9314SOL    HW128841   5.042   3.482   0.715
 9314SOL    HW228842   4.946   3.436   0.591
 9315SOL     OW28843   5.460   0.443   6.089
 9315SOL    HW128844   5.443   0.477   5.996
 9315SOL    HW228845   5.380   0.391   6.120
 9316SOL     OW28846   4.509   0.558   5.605
 9316SOL    HW128847   4.448   0.622   5.558
 9316SOL    HW228848   4.456   0.478   5.635
 9317SOL     OW28849   3.691   6.560   3.243
 9317SOL    HW128850   3.717   6.513   3.327
 9317SOL    HW228851   3.725   6.509   3.164
 9318SOL     OW28852   4.397   6.581   1.508
 9318SOL    HW128853   4.433   6.489   1.521
 9318SOL    HW228854   4.436   6.642   1.577
 9319SOL     OW28855   2.394   3.488   0.175
 9319SOL    HW128856   2.369   3.584   0.166
 9319SOL    HW228857   2.311   3.432   0.182
 9320SOL     OW28858   6.840   6.286   6.866
 9320SOL    HW128859   6.874   6.305   6.958
 9320SOL    HW228860   6.905   6.320   6.798
 9321SOL     OW28861   0.806   3.562   4.801
 9321SOL    HW128862   0.715   3.539   4.836
 9321SOL    HW228863   0.834   3.494   4.733
 9322SOL     OW28864   5.803   3.380   6.374
 9322SOL    HW128865   5.828   3.288   6.405
 9322SOL    HW228866   5.820   3.446   6.447
 9323SOL     OW28867   1.596   1.893   5.057
 9323SOL    HW128868   1.538   1.972   5.033
 9323SOL    HW228869   1.539   1.811   5.063
 9324SOL     OW28870   0.812   4.527   1.643
 9324SOL    HW128871   0.812   4.444   1.700
 9324SOL    HW228872   0.810   4.502   1.547
 9325SOL     OW28873   1.188   4.555   3.149
 9325SOL    HW128874   1.264   4.590   3.203
 9325SOL    HW228875   1.140   4.484   3.201
 9326SOL     OW28876   4.513   4.795   1.569
 9326SOL    HW128877   4.451   4.771   1.494
 9326SOL    HW228878   4.460   4.823   1.649
 9327SOL     OW28879   3.894   0.543   4.020
 9327SOL    HW128880   3.970   0.609   4.020
 9327SOL    HW228881   3.875   0.515   3.926
 9328SOL     OW28882   2.594   0.004   4.258
 9328SOL    HW128883   2.623   6.935   4.214
 9328SOL    HW228884   2.515   0.042   4.210
 9329SOL     OW28885   0.041   5.149   6.777
 9329SOL    HW128886   0.112   5.133   6.709
 9329SOL    HW228887   6.987   5.209   6.739
 9330SOL     OW28888   6.855   5.581   6.587
 9330SOL    HW128889   6.927   5.622   6.530
 9330SOL    HW228890   6.889   5.567   6.680
 9331SOL     OW28891   1.594   3.194   4.784
 9331SOL    HW128892   1.595   3.166   4.688
 9331SOL    HW228893   1.687   3.215   4.813
 9332SOL     OW28894   4.798   5.713   1.056
 9332SOL    HW128895   4.750   5.787   1.103
 9332SOL    HW228896   4.890   5.705   1.093
 9333SOL     OW28897   4.017   4.284   1.069
 9333SOL    HW128898   3.987   4.273   1.163
 9333SOL    HW228899   4.067   4.202   1.040
 9334SOL     OW28900   6.309   5.887   5.698
 9334SOL    HW128901   6.331   5.876   5.602
 9334SOL    HW228902   6.274   5.980   5.714
 9335SOL     OW28903   1.258   3.043   1.490
 9335SOL    HW128904   1.332   3.090   1.442
 9335SOL    HW228905   1.256   2.946   1.463
 9336SOL     OW28906   5.942   6.631   4.896
 9336SOL    HW128907   6.011   6.607   4.828
 9336SOL    HW228908   5.975   6.605   4.987
 9337SOL     OW28909   2.630   0.109   6.479
 9337SOL    HW128910   2.642   0.080   6.384
 9337SOL    HW228911   2.631   0.209   6.485
 9338SOL     OW28912   5.613   6.572   0.400
 9338SOL    HW128913   5.706   6.596   0.371
 9338SOL    HW228914   5.548   6.603   0.331
 9339SOL     OW28915   6.374   4.016   5.415
 9339SOL    HW128916   6.281   4.045   5.391
 9339SOL    HW228917   6.431   4.097   5.430
 9340SOL     OW28918   4.090   5.828   1.833
 9340SOL    HW128919   3.994   5.838   1.807
 9340SOL    HW228920   4.148   5.873   1.765
 9341SOL     OW28921   4.785   4.352   6.831
 9341SOL    HW128922   4.685   4.357   6.828
 9341SOL    HW228923   4.824   4.415   6.763
 9342SOL     OW28924   3.136   0.250   4.309
 9342SOL    HW128925   3.177   0.310   4.378
 9342SOL    HW228926   3.089   0.306   4.240
 9343SOL     OW28927   4.516   4.357   1.621
 9343SOL    HW128928   4.610   4.343   1.591
 9343SOL    HW228929   4.496   4.297   1.698
 9344SOL     OW28930   6.091   5.985   5.336
 9344SOL    HW128931   6.066   6.067   5.387
 9344SOL    HW228932   6.060   5.993   5.241
 9345SOL     OW28933   0.283   6.291   0.630
 9345SOL    HW128934   0.341   6.358   0.675
 9345SOL    HW228935   0.250   6.224   0.697
 9346SOL     OW28936   6.095   5.789   0.980
 9346SOL    HW128937   6.117   5.866   1.040
 9346SOL    HW228938   5.998   5.793   0.956
 9347SOL     OW28939   3.459   5.449   0.907
 9347SOL    HW128940   3.461   5.525   0.971
 9347SOL    HW228941   3.550   5.433   0.870
 9348SOL     OW28942   2.864   5.959   1.620
 9348SOL    HW128943   2.943   5.980   1.562
 9348SOL    HW228944   2.780   5.982   1.571
 9349SOL     OW28945   6.216   5.758   1.685
 9349SOL    HW128946   6.154   5.705   1.627
 9349SOL    HW228947   6.290   5.700   1.717
 9350SOL     OW28948   0.072   0.429   5.531
 9350SOL    HW128949   0.150   0.368   5.539
 9350SOL    HW228950   0.095   0.519   5.569
 9351SOL     OW28951   2.990   1.731   6.477
 9351SOL    HW128952   3.003   1.756   6.381
 9351SOL    HW228953   3.079   1.712   6.519
 9352SOL     OW28954   3.496   2.373   5.904
 9352SOL    HW128955   3.479   2.406   5.997
 9352SOL    HW228956   3.427   2.412   5.842
 9353SOL     OW28957   0.788   3.158   1.232
 9353SOL    HW128958   0.752   3.171   1.140
 9353SOL    HW228959   0.759   3.234   1.290
 9354SOL     OW28960   4.967   2.383   1.571
 9354SOL    HW128961   4.960   2.429   1.659
 9354SOL    HW228962   4.914   2.434   1.503
 9355SOL     OW28963   6.947   6.968   3.033
 9355SOL    HW128964   6.958   6.900   3.105
 9355SOL    HW228965   6.997   0.036   3.058
 9356SOL     OW28966   4.356   4.602   2.375
 9356SOL    HW128967   4.394   4.609   2.282
 9356SOL    HW228968   4.421   4.642   2.440
 9357SOL     OW28969   3.389   2.360   1.273
 9357SOL    HW128970   3.446   2.408   1.339
 9357SOL    HW228971   3.301   2.337   1.315
 9358SOL     OW28972   6.088   4.546   2.203
 9358SOL    HW128973   6.081   4.593   2.115
 9358SOL    HW228974   6.085   4.613   2.278
 9359SOL     OW28975   6.681   3.875   5.703
 9359SOL    HW128976   6.714   3.901   5.794
 9359SOL    HW228977   6.758   3.845   5.647
 9360SOL     OW28978   2.553   0.952   0.218
 9360SOL    HW128979   2.628   1.019   0.220
 9360SOL    HW228980   2.579   0.871   0.271
 9361SOL     OW28981   2.921   6.559   2.376
 9361SOL    HW128982   2.985   6.605   2.315
 9361SOL    HW228983   2.835   6.610   2.379
 9362SOL     OW28984   2.340   1.351   2.484
 9362SOL    HW128985   2.292   1.316   2.564
 9362SOL    HW228986   2.306   1.443   2.463
 9363SOL     OW28987   3.253   6.016   2.395
 9363SOL    HW128988   3.234   5.919   2.412
 9363SOL    HW228989   3.342   6.040   2.435
 9364SOL     OW28990   4.405   4.092   0.124
 9364SOL    HW128991   4.417   4.152   0.044
 9364SOL    HW228992   4.486   4.034   0.134
 9365SOL     OW28993   2.953   1.866   4.738
 9365SOL    HW128994   2.916   1.941   4.683
 9365SOL    HW228995   3.053   1.866   4.731
 9366SOL     OW28996   2.657   1.864   0.811
 9366SOL    HW128997   2.703   1.810   0.882
 9366SOL    HW228998   2.725   1.898   0.746
 9367SOL     OW28999   6.868   5.860   2.932
 9367SOL    HW129000   6.794   5.916   2.895
 9367SOL    HW229001   6.910   5.807   2.858
 9368SOL     OW29002   3.059   1.791   2.009
 9368SOL    HW129003   3.067   1.762   1.914
 9368SOL    HW229004   3.085   1.887   2.017
 9369SOL     OW29005   6.996   2.213   5.046
 9369SOL    HW129006   0.029   2.183   4.964
 9369SOL    HW229007   6.910   2.257   5.019
 9370SOL     OW29008   6.278   0.837   2.886
 9370SOL    HW129009   6.288   0.933   2.861
 9370SOL    HW229010   6.349   0.812   2.952
 9371SOL     OW29011   0.304   6.219   0.074
 9371SOL    HW129012   0.208   6.190   0.068
 9371SOL    HW229013   0.327   6.236   0.170
 9372SOL     OW29014   6.193   6.484   4.080
 9372SOL    HW129015   6.101   6.520   4.060
 9372SOL    HW229016   6.261   6.539   4.033
 9373SOL     OW29017   3.764   1.417   3.626
 9373SOL    HW129018   3.721   1.498   3.586
 9373SOL    HW229019   3.695   1.364   3.675
 9374SOL     OW29020   5.119   3.203   0.032
 9374SOL    HW129021   5.210   3.226   0.068
 9374SOL    HW229022   5.117   3.220   6.949
 9375SOL     OW29023   0.296   1.244   3.127
 9375SOL    HW129024   0.328   1.321   3.073
 9375SOL    HW229025   0.367   1.173   3.128
 9376SOL     OW29026   2.633   3.638   0.819
 9376SOL    HW129027   2.580   3.556   0.802
 9376SOL    HW229028   2.574   3.708   0.861
 9377SOL     OW29029   6.168   5.846   3.761
 9377SOL    HW129030   6.163   5.829   3.663
 9377SOL    HW229031   6.234   5.783   3.802
 9378SOL     OW29032   2.333   6.812   0.473
 9378SOL    HW129033   2.383   6.733   0.438
 9378SOL    HW229034   2.248   6.824   0.422
 9379SOL     OW29035   5.242   5.427   3.865
 9379SOL    HW129036   5.259   5.500   3.798
 9379SOL    HW229037   5.202   5.467   3.947
 9380SOL     OW29038   6.025   6.921   5.204
 9380SOL    HW129039   5.995   7.007   5.245
 9380SOL    HW229040   5.954   6.887   5.141
 9381SOL     OW29041   2.533   1.839   5.707
 9381SOL    HW129042   2.519   1.923   5.654
 9381SOL    HW229043   2.560   1.862   5.800
 9382SOL     OW29044   4.268   1.912   2.575
 9382SOL    HW129045   4.193   1.951   2.522
 9382SOL    HW229046   4.256   1.937   2.671
 9383SOL     OW29047   4.211   6.579   3.993
 9383SOL    HW129048   4.124   6.531   4.000
 9383SOL    HW229049   4.244   6.602   4.085
 9384SOL     OW29050   4.770   6.426   2.330
 9384SOL    HW129051   4.809   6.340   2.363
 9384SOL    HW229052   4.777   6.495   2.401
 9385SOL     OW29053   3.820   0.981   3.407
 9385SOL    HW129054   3.866   0.954   3.491
 9385SOL    HW229055   3.825   1.080   3.395
 9386SOL     OW29056   2.843   6.638   5.583
 9386SOL    HW129057   2.795   6.556   5.612
 9386SOL    HW229058   2.868   6.630   5.486
 9387SOL     OW29059   3.104   6.596   1.084
 9387SOL    HW129060   3.166   6.527   1.048
 9387SOL    HW229061   3.127   6.686   1.045
 9388SOL     OW29062   0.452   0.909   2.770
 9388SOL    HW129063   0.541   0.952   2.752
 9388SOL    HW229064   0.381   0.979   2.767
 9389SOL     OW29065   2.641   0.945   5.727
 9389SOL    HW129066   2.623   0.901   5.814
 9389SOL    HW229067   2.738   0.935   5.704
 9390SOL     OW29068   3.098   5.479   2.165
 9390SOL    HW129069   3.194   5.497   2.144
 9390SOL    HW229070   3.092   5.407   2.234
 9391SOL     OW29071   0.518   1.080   5.574
 9391SOL    HW129072   0.454   1.053   5.646
 9391SOL    HW229073   0.549   0.999   5.525
 9392SOL     OW29074   1.528   6.489   4.497
 9392SOL    HW129075   1.478   6.511   4.580
 9392SOL    HW229076   1.596   6.418   4.517
 9393SOL     OW29077   3.399   2.224   5.343
 9393SOL    HW129078   3.333   2.289   5.305
 9393SOL    HW229079   3.375   2.132   5.312
 9394SOL     OW29080   6.332   3.073   2.803
 9394SOL    HW129081   6.313   2.974   2.805
 9394SOL    HW229082   6.306   3.110   2.714
 9395SOL     OW29083   2.610   3.438   1.080
 9395SOL    HW129084   2.607   3.340   1.098
 9395SOL    HW229085   2.574   3.457   0.989
 9396SOL     OW29086   6.192   6.848   6.299
 9396SOL    HW129087   6.140   6.931   6.280
 9396SOL    HW229088   6.264   6.837   6.230
 9397SOL     OW29089   2.461   0.007   0.565
 9397SOL    HW129090   2.546   0.006   0.512
 9397SOL    HW229091   2.398   6.954   0.528
 9398SOL     OW29092   2.741   1.568   6.524
 9398SOL    HW129093   2.814   1.634   6.503
 9398SOL    HW229094   2.781   1.488   6.568
 9399SOL     OW29095   6.920   1.136   5.892
 9399SOL    HW129096   6.948   1.091   5.807
 9399SOL    HW229097   6.951   1.081   5.970
 9400SOL     OW29098   5.538   3.420   2.499
 9400SOL    HW129099   5.605   3.401   2.428
 9400SOL    HW229100   5.561   3.506   2.546
 9401SOL     OW29101   2.909   6.180   3.701
 9401SOL    HW129102   2.818   6.147   3.729
 9401SOL    HW229103   2.916   6.175   3.601
 9402SOL     OW29104   2.352   5.065   6.152
 9402SOL    HW129105   2.420   5.029   6.215
 9402SOL    HW229106   2.348   5.007   6.071
 9403SOL     OW29107   5.290   1.365   3.666
 9403SOL    HW129108   5.221   1.393   3.733
 9403SOL    HW229109   5.247   1.309   3.596
 9404SOL     OW29110   1.447   5.277   6.563
 9404SOL    HW129111   1.445   5.371   6.528
 9404SOL    HW229112   1.542   5.251   6.580
 9405SOL     OW29113   6.283   7.014   0.967
 9405SOL    HW129114   6.302   0.088   1.008
 9405SOL    HW229115   6.209   0.008   0.900
 9406SOL     OW29116   0.268   1.453   5.372
 9406SOL    HW129117   0.195   1.400   5.330
 9406SOL    HW229118   0.334   1.391   5.414
 9407SOL     OW29119   3.085   6.201   3.055
 9407SOL    HW129120   3.134   6.279   3.093
 9407SOL    HW229121   3.029   6.231   2.978
 9408SOL     OW29122   4.001   1.984   6.626
 9408SOL    HW129123   3.905   1.970   6.649
 9408SOL    HW229124   4.058   1.946   6.699
 9409SOL     OW29125   5.861   3.374   3.842
 9409SOL    HW129126   5.814   3.432   3.908
 9409SOL    HW229127   5.939   3.423   3.803
 9410SOL     OW29128   4.272   6.330   2.485
 9410SOL    HW129129   4.365   6.324   2.451
 9410SOL    HW229130   4.209   6.338   2.408
 9411SOL     OW29131   4.300   5.590   0.269
 9411SOL    HW129132   4.312   5.527   0.346
 9411SOL    HW229133   4.202   5.602   0.252
 9412SOL     OW29134   0.158   2.657   1.463
 9412SOL    HW129135   0.061   2.653   1.439
 9412SOL    HW229136   0.214   2.659   1.380
 9413SOL     OW29137   4.192   6.046   5.444
 9413SOL    HW129138   4.178   6.143   5.424
 9413SOL    HW229139   4.257   6.036   5.519
 9414SOL     OW29140   3.165   1.411   3.043
 9414SOL    HW129141   3.164   1.458   2.955
 9414SOL    HW229142   3.208   1.321   3.033
 9415SOL     OW29143   2.392   6.449   2.626
 9415SOL    HW129144   2.458   6.465   2.552
 9415SOL    HW229145   2.299   6.465   2.591
 9416SOL     OW29146   1.410   2.162   2.050
 9416SOL    HW129147   1.355   2.090   2.007
 9416SOL    HW229148   1.490   2.181   1.994
 9417SOL     OW29149   2.275   5.561   5.684
 9417SOL    HW129150   2.267   5.462   5.681
 9417SOL    HW229151   2.185   5.602   5.667
 9418SOL     OW29152   2.294   4.919   1.556
 9418SOL    HW129153   2.336   4.941   1.468
 9418SOL    HW229154   2.365   4.913   1.626
 9419SOL     OW29155   3.151   6.779   5.041
 9419SOL    HW129156   3.060   6.791   5.003
 9419SOL    HW229157   3.150   6.803   5.138
 9420SOL     OW29158   6.520   1.325   4.883
 9420SOL    HW129159   6.510   1.266   4.803
 9420SOL    HW229160   6.496   1.274   4.966
 9421SOL     OW29161   0.999   4.131   5.642
 9421SOL    HW129162   1.018   4.184   5.725
 9421SOL    HW229163   1.054   4.167   5.566
 9422SOL     OW29164   5.387   0.397   2.147
 9422SOL    HW129165   5.451   0.387   2.070
 9422SOL    HW229166   5.298   0.359   2.122
 9423SOL     OW29167   3.777   0.894   4.035
 9423SOL    HW129168   3.867   0.915   3.996
 9423SOL    HW229169   3.781   0.903   4.134
 9424SOL     OW29170   3.889   0.030   4.883
 9424SOL    HW129171   3.957   6.973   4.877
 9424SOL    HW229172   3.865   0.048   4.978
 9425SOL     OW29173   0.905   4.276   5.260
 9425SOL    HW129174   0.988   4.306   5.212
 9425SOL    HW229175   0.904   4.176   5.264
 9426SOL     OW29176   3.089   0.303   6.760
 9426SOL    HW129177   3.116   0.208   6.742
 9426SOL    HW229178   3.139   0.364   6.698
 9427SOL     OW29179   2.844   4.994   4.734
 9427SOL    HW129180   2.868   4.924   4.667
 9427SOL    HW229181   2.865   4.961   4.826
 9428SOL     OW29182   5.756   0.686   3.098
 9428SOL    HW129183   5.751   0.590   3.071
 9428SOL    HW229184   5.729   0.695   3.194
 9429SOL     OW29185   1.008   4.265   1.999
 9429SOL    HW129186   0.947   4.231   2.071
 9429SOL    HW229187   0.979   4.228   1.911
 9430SOL     OW29188   6.828   6.060   1.599
 9430SOL    HW129189   6.928   6.055   1.593
 9430SOL    HW229190   6.797   6.009   1.679
 9431SOL     OW29191   6.883   3.902   0.642
 9431SOL    HW129192   6.981   3.905   0.665
 9431SOL    HW229193   6.872   3.883   0.545
 9432SOL     OW29194   6.202   0.350   3.058
 9432SOL    HW129195   6.167   0.406   3.133
 9432SOL    HW229196   6.220   0.408   2.978
 9433SOL     OW29197   3.480   4.824   5.208
 9433SOL    HW129198   3.413   4.897   5.196
 9433SOL    HW229199   3.570   4.856   5.181
 9434SOL     OW29200   5.884   4.411   3.123
 9434SOL    HW129201   5.810   4.477   3.118
 9434SOL    HW229202   5.873   4.353   3.203
 9435SOL     OW29203   1.613   1.383   4.137
 9435SOL    HW129204   1.678   1.453   4.107
 9435SOL    HW229205   1.645   1.294   4.107
 9436SOL     OW29206   2.125   3.680   0.374
 9436SOL    HW129207   2.201   3.728   0.419
 9436SOL    HW229208   2.080   3.620   0.439
 9437SOL     OW29209   1.761   5.030   3.447
 9437SOL    HW129210   1.751   5.128   3.430
 9437SOL    HW229211   1.677   4.995   3.490
 9438SOL     OW29212   0.462   6.803   2.468
 9438SOL    HW129213   0.454   6.705   2.489
 9438SOL    HW229214   0.394   6.828   2.400
 9439SOL     OW29215   0.241   3.324   2.089
 9439SOL    HW129216   0.238   3.237   2.041
 9439SOL    HW229217   0.317   3.325   2.153
 9440SOL     OW29218   4.856   6.439   5.493
 9440SOL    HW129219   4.817   6.347   5.492
 9440SOL    HW229220   4.937   6.441   5.552
 9441SOL     OW29221   2.007   4.906   5.098
 9441SOL    HW129222   1.984   4.814   5.066
 9441SOL    HW229223   2.038   4.961   5.021
 9442SOL     OW29224   6.902   2.846   0.333
 9442SOL    HW129225   6.942   2.922   0.384
 9442SOL    HW229226   6.975   2.788   0.297
 9443SOL     OW29227   1.907   4.652   0.685
 9443SOL    HW129228   1.937   4.574   0.630
 9443SOL    HW229229   1.909   4.627   0.782
 9444SOL     OW29230   0.460   3.025   0.257
 9444SOL    HW129231   0.533   2.965   0.291
 9444SOL    HW229232   0.407   3.060   0.334
 9445SOL     OW29233   5.795   3.794   2.205
 9445SOL    HW129234   5.829   3.818   2.113
 9445SOL    HW229235   5.827   3.862   2.271
 9446SOL     OW29236   6.123   6.343   2.125
 9446SOL    HW129237   6.098   6.339   2.029
 9446SOL    HW229238   6.140   6.438   2.151
 9447SOL     OW29239   5.105   3.567   2.163
 9447SOL    HW129240   5.078   3.480   2.123
 9447SOL    HW229241   5.089   3.565   2.262
 9448SOL     OW29242   5.746   6.386   0.008
 9448SOL    HW129243   5.725   6.482   0.027
 9448SOL    HW229244   5.824   6.357   0.064
 9449SOL     OW29245   5.938   5.554   5.643
 9449SOL    HW129246   5.902   5.464   5.617
 9449SOL    HW229247   5.986   5.594   5.564
 9450SOL     OW29248   2.563   5.263   4.220
 9450SOL    HW129249   2.661   5.281   4.218
 9450SOL    HW229250   2.513   5.348   4.232
 9451SOL     OW29251   4.457   5.365   6.481
 9451SOL    HW129252   4.482   5.395   6.573
 9451SOL    HW229253   4.503   5.423   6.413
 9452SOL     OW29254   2.064   3.424   0.984
 9452SOL    HW129255   1.975   3.455   1.020
 9452SOL    HW229256   2.049   3.352   0.917
 9453SOL     OW29257   2.124   5.093   2.865
 9453SOL    HW129258   2.167   5.055   2.783
 9453SOL    HW229259   2.083   5.019   2.918
 9454SOL     OW29260   1.369   3.790   6.185
 9454SOL    HW129261   1.349   3.881   6.220
 9454SOL    HW229262   1.457   3.758   6.221
 9455SOL     OW29263   3.575   1.149   2.905
 9455SOL    HW129264   3.552   1.156   2.808
 9455SOL    HW229265   3.493   1.166   2.960
 9456SOL     OW29266   1.312   3.779   1.029
 9456SOL    HW129267   1.225   3.730   1.032
 9456SOL    HW229268   1.387   3.715   1.015
 9457SOL     OW29269   1.851   3.166   7.010
 9457SOL    HW129270   1.880   3.256   0.027
 9457SOL    HW229271   1.795   3.122   0.065
 9458SOL     OW29272   6.625   4.903   5.723
 9458SOL    HW129273   6.709   4.848   5.726
 9458SOL    HW229274   6.552   4.855   5.772
 9459SOL     OW29275   6.205   5.397   1.623
 9459SOL    HW129276   6.231   5.432   1.533
 9459SOL    HW229277   6.108   5.414   1.639
 9460SOL     OW29278   0.928   1.850   4.727
 9460SOL    HW129279   0.883   1.939   4.733
 9460SOL    HW229280   1.011   1.851   4.783
 9461SOL     OW29281   0.672   1.091   3.238
 9461SOL    HW129282   0.600   1.050   3.183
 9461SOL    HW229283   0.681   1.041   3.324
 9462SOL     OW29284   1.259   3.013   2.540
 9462SOL    HW129285   1.201   3.094   2.543
 9462SOL    HW229286   1.204   2.931   2.557
 9463SOL     OW29287   6.564   0.961   0.152
 9463SOL    HW129288   6.592   0.869   0.124
 9463SOL    HW229289   6.516   1.006   0.077
 9464SOL     OW29290   5.839   6.640   6.293
 9464SOL    HW129291   5.860   6.573   6.363
 9464SOL    HW229292   5.916   6.646   6.229
 9465SOL     OW29293   6.651   0.614   3.349
 9465SOL    HW129294   6.716   0.672   3.398
 9465SOL    HW229295   6.698   0.571   3.271
 9466SOL     OW29296   2.480   3.039   5.820
 9466SOL    HW129297   2.576   3.015   5.813
 9466SOL    HW229298   2.461   3.118   5.762
 9467SOL     OW29299   1.942   2.613   1.864
 9467SOL    HW129300   1.944   2.513   1.871
 9467SOL    HW229301   1.917   2.652   1.953
 9468SOL     OW29302   6.598   2.924   5.735
 9468SOL    HW129303   6.662   2.993   5.769
 9468SOL    HW229304   6.505   2.961   5.736
 9469SOL     OW29305   6.243   5.784   2.251
 9469SOL    HW129306   6.165   5.844   2.269
 9469SOL    HW229307   6.229   5.737   2.164
 9470SOL     OW29308   4.772   3.596   0.005
 9470SOL    HW129309   4.868   3.592   0.032
 9470SOL    HW229310   4.744   3.691   7.010
 9471SOL     OW29311   6.633   2.372   5.764
 9471SOL    HW129312   6.609   2.413   5.676
 9471SOL    HW229313   6.625   2.441   5.837
 9472SOL     OW29314   6.029   4.352   4.685
 9472SOL    HW129315   6.076   4.350   4.597
 9472SOL    HW229316   5.993   4.444   4.701
 9473SOL     OW29317   3.151   6.066   6.058
 9473SOL    HW129318   3.229   6.033   6.005
 9473SOL    HW229319   3.066   6.037   6.014
 9474SOL     OW29320   5.010   5.042   2.177
 9474SOL    HW129321   5.068   5.017   2.100
 9474SOL    HW229322   5.003   4.965   2.241
 9475SOL     OW29323   3.316   3.800   1.232
 9475SOL    HW129324   3.383   3.793   1.305
 9475SOL    HW229325   3.311   3.713   1.183
 9476SOL     OW29326   4.083   3.316   5.390
 9476SOL    HW129327   4.172   3.277   5.368
 9476SOL    HW229328   4.092   3.416   5.399
 9477SOL     OW29329   1.233   2.245   0.952
 9477SOL    HW129330   1.195   2.297   0.876
 9477SOL    HW229331   1.312   2.294   0.989
 9478SOL     OW29332   5.578   4.575   4.917
 9478SOL    HW129333   5.639   4.622   4.854
 9478SOL    HW229334   5.632   4.529   4.988
 9479SOL     OW29335   6.083   5.402   6.585
 9479SOL    HW129336   6.099   5.434   6.679
 9479SOL    HW229337   6.006   5.339   6.585
 9480SOL     OW29338   5.010   4.492   6.714
 9480SOL    HW129339   5.052   4.420   6.769
 9480SOL    HW229340   5.077   4.565   6.698
 9481SOL     OW29341   0.208   4.205   1.944
 9481SOL    HW129342   0.251   4.140   1.882
 9481SOL    HW229343   0.132   4.161   1.992
 9482SOL     OW29344   4.884   0.852   2.656
 9482SOL    HW129345   4.793   0.838   2.696
 9482SOL    HW229346   4.876   0.904   2.572
 9483SOL     OW29347   1.967   1.756   1.054
 9483SOL    HW129348   1.996   1.692   0.982
 9483SOL    HW229349   2.045   1.813   1.080
 9484SOL     OW29350   5.957   1.173   3.707
 9484SOL    HW129351   5.925   1.215   3.792
 9484SOL    HW229352   6.054   1.149   3.716
 9485SOL     OW29353   0.912   1.168   2.263
 9485SOL    HW129354   0.921   1.241   2.331
 9485SOL    HW229355   0.824   1.121   2.276
 9486SOL     OW29356   2.460   5.597   0.729
 9486SOL    HW129357   2.399   5.651   0.787
 9486SOL    HW229358   2.495   5.655   0.656
 9487SOL     OW29359   3.162   3.982   3.552
 9487SOL    HW129360   3.226   4.057   3.568
 9487SOL    HW229361   3.112   3.962   3.637
 9488SOL     OW29362   2.000   6.078   1.156
 9488SOL    HW129363   1.974   6.115   1.245
 9488SOL    HW229364   1.977   5.981   1.152
 9489SOL     OW29365   4.323   4.479   1.250
 9489SOL    HW129366   4.291   4.485   1.155
 9489SOL    HW229367   4.265   4.414   1.300
 9490SOL     OW29368   5.109   1.180   0.501
 9490SOL    HW129369   5.200   1.222   0.498
 9490SOL    HW229370   5.090   1.149   0.594
 9491SOL     OW29371   6.066   5.459   3.653
 9491SOL    HW129372   6.011   5.536   3.618
 9491SOL    HW229373   6.143   5.443   3.591
 9492SOL     OW29374   3.262   3.875   1.909
 9492SOL    HW129375   3.180   3.908   1.957
 9492SOL    HW229376   3.336   3.942   1.921
 9493SOL     OW29377   4.436   5.969   2.763
 9493SOL    HW129378   4.496   6.037   2.719
 9493SOL    HW229379   4.486   5.921   2.834
 9494SOL     OW29380   5.736   3.323   6.948
 9494SOL    HW129381   5.675   3.353   6.875
 9494SOL    HW229382   5.690   3.337   0.021
 9495SOL     OW29383   6.437   2.236   4.462
 9495SOL    HW129384   6.536   2.229   4.469
 9495SOL    HW229385   6.411   2.259   4.368
 9496SOL     OW29386   5.554   4.113   6.927
 9496SOL    HW129387   5.541   4.042   6.858
 9496SOL    HW229388   5.643   4.158   6.913
 9497SOL     OW29389   5.368   4.781   0.733
 9497SOL    HW129390   5.431   4.704   0.724
 9497SOL    HW229391   5.314   4.771   0.816
 9498SOL     OW29392   3.586   6.739   5.236
 9498SOL    HW129393   3.533   6.821   5.217
 9498SOL    HW229394   3.528   6.658   5.230
 9499SOL     OW29395   2.884   3.584   5.088
 9499SOL    HW129396   2.864   3.496   5.044
 9499SOL    HW229397   2.846   3.584   5.181
 9500SOL     OW29398   4.482   6.327   1.590
 9500SOL    HW129399   4.477   6.348   1.688
 9500SOL    HW229400   4.395   6.292   1.558
 9501SOL     OW29401   3.835   1.628   4.422
 9501SOL    HW129402   3.751   1.671   4.389
 9501SOL    HW229403   3.843   1.641   4.520
 9502SOL     OW29404   6.345   2.350   4.949
 9502SOL    HW129405   6.326   2.275   5.012
 9502SOL    HW229406   6.350   2.436   5.000
 9503SOL     OW29407   0.341   0.374   1.742
 9503SOL    HW129408   0.271   0.313   1.705
 9503SOL    HW229409   0.347   0.362   1.841
 9504SOL     OW29410   0.211   2.549   0.702
 9504SOL    HW129411   0.228   2.474   0.765
 9504SOL    HW229412   0.113   2.559   0.688
 9505SOL     OW29413   6.158   3.612   3.100
 9505SOL    HW129414   6.203   3.685   3.048
 9505SOL    HW229415   6.157   3.528   3.045
 9506SOL     OW29416   0.074   3.204   6.961
 9506SOL    HW129417   0.019   3.132   7.001
 9506SOL    HW229418   0.022   3.251   6.890
 9507SOL     OW29419   1.362   1.414   3.944
 9507SOL    HW129420   1.365   1.381   4.039
 9507SOL    HW229421   1.411   1.350   3.885
 9508SOL     OW29422   5.386   1.963   0.543
 9508SOL    HW129423   5.477   1.934   0.572
 9508SOL    HW229424   5.347   1.894   0.481
 9509SOL     OW29425   1.636   6.433   5.269
 9509SOL    HW129426   1.654   6.358   5.205
 9509SOL    HW229427   1.659   6.403   5.362
 9510SOL     OW29428   0.017   4.210   2.395
 9510SOL    HW129429   0.004   4.119   2.434
 9510SOL    HW229430   6.952   4.266   2.415
 9511SOL     OW29431   0.012   2.407   0.388
 9511SOL    HW129432   7.007   2.432   0.293
 9511SOL    HW229433   0.104   2.368   0.393
 9512SOL     OW29434   0.447   2.312   3.801
 9512SOL    HW129435   0.538   2.345   3.775
 9512SOL    HW229436   0.396   2.288   3.718
 9513SOL     OW29437   2.209   3.823   3.903
 9513SOL    HW129438   2.135   3.816   3.837
 9513SOL    HW229439   2.290   3.777   3.867
 9514SOL     OW29440   2.361   3.343   6.583
 9514SOL    HW129441   2.458   3.351   6.609
 9514SOL    HW229442   2.340   3.410   6.512
 9515SOL     OW29443   1.414   6.201   6.400
 9515SOL    HW129444   1.325   6.175   6.438
 9515SOL    HW229445   1.471   6.120   6.390
 9516SOL     OW29446   4.875   3.575   4.029
 9516SOL    HW129447   4.888   3.626   3.944
 9516SOL    HW229448   4.846   3.637   4.102
 9517SOL     OW29449   0.846   5.196   1.159
 9517SOL    HW129450   0.916   5.242   1.105
 9517SOL    HW229451   0.812   5.258   1.230
 9518SOL     OW29452   0.741   2.714   5.731
 9518SOL    HW129453   0.833   2.684   5.755
 9518SOL    HW229454   0.713   2.669   5.646
 9519SOL     OW29455   3.169   3.388   2.851
 9519SOL    HW129456   3.132   3.364   2.761
 9519SOL    HW229457   3.220   3.474   2.845
 9520SOL     OW29458   0.169   1.052   5.198
 9520SOL    HW129459   0.094   0.986   5.196
 9520SOL    HW229460   0.133   1.144   5.185
 9521SOL     OW29461   3.830   6.431   1.418
 9521SOL    HW129462   3.756   6.478   1.466
 9521SOL    HW229463   3.867   6.490   1.346
 9522SOL     OW29464   4.176   5.508   1.609
 9522SOL    HW129465   4.125   5.589   1.640
 9522SOL    HW229466   4.166   5.499   1.510
 9523SOL     OW29467   2.577   4.912   4.341
 9523SOL    HW129468   2.631   4.939   4.422
 9523SOL    HW229469   2.487   4.881   4.371
 9524SOL     OW29470   1.675   4.122   1.062
 9524SOL    HW129471   1.762   4.157   1.029
 9524SOL    HW229472   1.600   4.169   1.016
 9525SOL     OW29473   1.725   2.029   5.552
 9525SOL    HW129474   1.792   2.067   5.488
 9525SOL    HW229475   1.666   2.102   5.584
 9526SOL     OW29476   5.179   5.155   6.638
 9526SOL    HW129477   5.166   5.252   6.654
 9526SOL    HW229478   5.200   5.109   6.724
 9527SOL     OW29479   3.082   6.912   3.742
 9527SOL    HW129480   3.164   6.956   3.779
 9527SOL    HW229481   3.025   6.878   3.817
 9528SOL     OW29482   6.298   1.145   0.985
 9528SOL    HW129483   6.379   1.117   0.933
 9528SOL    HW229484   6.302   1.105   1.077
 9529SOL     OW29485   6.083   2.454   1.989
 9529SOL    HW129486   6.162   2.458   2.050
 9529SOL    HW229487   6.014   2.391   2.026
 9530SOL     OW29488   1.058   5.307   4.261
 9530SOL    HW129489   1.115   5.285   4.182
 9530SOL    HW229490   1.021   5.222   4.299
 9531SOL     OW29491   4.539   4.512   3.921
 9531SOL    HW129492   4.574   4.442   3.859
 9531SOL    HW229493   4.593   4.596   3.911
 9532SOL     OW29494   6.580   5.291   2.012
 9532SOL    HW129495   6.666   5.329   2.046
 9532SOL    HW229496   6.556   5.209   2.064
 9533SOL     OW29497   1.605   5.736   4.244
 9533SOL    HW129498   1.638   5.830   4.236
 9533SOL    HW229499   1.509   5.733   4.218
 9534SOL     OW29500   5.886   5.139   4.489
 9534SOL    HW129501   5.984   5.120   4.498
 9534SOL    HW229502   5.851   5.093   4.408
 9535SOL     OW29503   1.878   1.428   6.258
 9535SOL    HW129504   1.793   1.406   6.211
 9535SOL    HW229505   1.873   1.396   6.353
 9536SOL     OW29506   3.812   3.594   5.213
 9536SOL    HW129507   3.831   3.672   5.273
 9536SOL    HW229508   3.719   3.601   5.178
 9537SOL     OW29509   1.907   1.974   3.975
 9537SOL    HW129510   1.860   1.900   3.928
 9537SOL    HW229511   1.856   2.000   4.057
 9538SOL     OW29512   3.636   0.568   5.152
 9538SOL    HW129513   3.697   0.540   5.077
 9538SOL    HW229514   3.542   0.570   5.119
 9539SOL     OW29515   3.401   2.915   3.609
 9539SOL    HW129516   3.464   2.930   3.685
 9539SOL    HW229517   3.308   2.932   3.640
 9540SOL     OW29518   4.428   5.190   3.925
 9540SOL    HW129519   4.364   5.265   3.908
 9540SOL    HW229520   4.425   5.126   3.849
 9541SOL     OW29521   1.346   0.578   4.986
 9541SOL    HW129522   1.253   0.612   5.003
 9541SOL    HW229523   1.398   0.648   4.936
 9542SOL     OW29524   6.018   4.813   4.255
 9542SOL    HW129525   5.949   4.801   4.184
 9542SOL    HW229526   6.055   4.906   4.251
 9543SOL     OW29527   3.296   0.086   6.055
 9543SOL    HW129528   3.260   0.165   6.105
 9543SOL    HW229529   3.230   0.060   5.984
 9544SOL     OW29530   4.816   3.832   3.605
 9544SOL    HW129531   4.856   3.769   3.538
 9544SOL    HW229532   4.869   3.830   3.689
 9545SOL     OW29533   0.595   4.732   1.631
 9545SOL    HW129534   0.580   4.759   1.727
 9545SOL    HW229535   0.642   4.644   1.628
 9546SOL     OW29536   3.352   1.228   5.757
 9546SOL    HW129537   3.290   1.173   5.700
 9546SOL    HW229538   3.320   1.323   5.759
 9547SOL     OW29539   3.731   5.917   4.736
 9547SOL    HW129540   3.758   5.912   4.832
 9547SOL    HW229541   3.755   6.007   4.699
 9548SOL     OW29542   0.895   5.158   5.335
 9548SOL    HW129543   0.963   5.090   5.306
 9548SOL    HW229544   0.853   5.129   5.421
 9549SOL     OW29545   3.957   1.569   2.784
 9549SOL    HW129546   3.957   1.660   2.824
 9549SOL    HW229547   4.012   1.568   2.701
 9550SOL     OW29548   5.876   2.989   1.633
 9550SOL    HW129549   5.878   3.053   1.710
 9550SOL    HW229550   5.817   3.026   1.561
 9551SOL     OW29551   6.095   2.470   6.140
 9551SOL    HW129552   6.010   2.514   6.168
 9551SOL    HW229553   6.075   2.402   6.070
 9552SOL     OW29554   2.415   1.076   6.626
 9552SOL    HW129555   2.421   1.034   6.717
 9552SOL    HW229556   2.405   1.175   6.635
 9553SOL     OW29557   5.379   2.449   0.655
 9553SOL    HW129558   5.403   2.440   0.558
 9553SOL    HW229559   5.280   2.435   0.666
 9554SOL     OW29560   2.858   6.389   4.067
 9554SOL    HW129561   2.912   6.307   4.052
 9554SOL    HW229562   2.787   6.395   3.997
 9555SOL     OW29563   6.401   1.533   3.503
 9555SOL    HW129564   6.481   1.587   3.528
 9555SOL    HW229565   6.428   1.458   3.443
 9556SOL     OW29566   1.326   4.405   1.193
 9556SOL    HW129567   1.376   4.491   1.198
 9556SOL    HW229568   1.240   4.419   1.144
 9557SOL     OW29569   4.810   6.975   1.750
 9557SOL    HW129570   4.773   6.930   1.831
 9557SOL    HW229571   4.768   6.935   1.668
 9558SOL     OW29572   5.985   6.116   6.318
 9558SOL    HW129573   5.888   6.109   6.295
 9558SOL    HW229574   6.004   6.206   6.358
 9559SOL     OW29575   1.641   3.513   6.891
 9559SOL    HW129576   1.559   3.553   6.933
 9559SOL    HW229577   1.614   3.435   6.835
 9560SOL     OW29578   3.766   0.537   2.204
 9560SOL    HW129579   3.863   0.523   2.222
 9560SOL    HW229580   3.725   0.587   2.280
 9561SOL     OW29581   0.717   6.812   1.056
 9561SOL    HW129582   0.816   6.807   1.048
 9561SOL    HW229583   0.692   6.844   1.147
 9562SOL     OW29584   2.945   6.048   4.503
 9562SOL    HW129585   3.031   6.005   4.531
 9562SOL    HW229586   2.964   6.133   4.454
 9563SOL     OW29587   0.246   6.808   6.987
 9563SOL    HW129588   0.310   6.759   6.927
 9563SOL    HW229589   0.170   6.748   7.011
 9564SOL     OW29590   0.773   1.081   1.442
 9564SOL    HW129591   0.843   1.022   1.481
 9564SOL    HW229592   0.777   1.171   1.486
 9565SOL     OW29593   2.728   1.263   4.602
 9565SOL    HW129594   2.768   1.207   4.530
 9565SOL    HW229595   2.769   1.354   4.601
 9566SOL     OW29596   2.879   6.105   0.652
 9566SOL    HW129597   2.856   6.192   0.610
 9566SOL    HW229598   2.834   6.097   0.741
 9567SOL     OW29599   6.811   4.366   0.467
 9567SOL    HW129600   6.884   4.319   0.418
 9567SOL    HW229601   6.760   4.300   0.522
 9568SOL     OW29602   4.016   1.401   0.760
 9568SOL    HW129603   4.030   1.497   0.736
 9568SOL    HW229604   4.103   1.353   0.760
 9569SOL     OW29605   6.596   0.920   2.335
 9569SOL    HW129606   6.647   0.914   2.250
 9569SOL    HW229607   6.498   0.910   2.317
 9570SOL     OW29608   0.418   2.734   0.716
 9570SOL    HW129609   0.357   2.660   0.689
 9570SOL    HW229610   0.367   2.802   0.767
 9571SOL     OW29611   2.459   2.814   5.974
 9571SOL    HW129612   2.459   2.870   5.890
 9571SOL    HW229613   2.376   2.835   6.027
 9572SOL     OW29614   2.257   4.176   3.314
 9572SOL    HW129615   2.187   4.208   3.250
 9572SOL    HW229616   2.346   4.213   3.287
 9573SOL     OW29617   6.610   0.886   5.616
 9573SOL    HW129618   6.643   0.906   5.709
 9573SOL    HW229619   6.513   0.862   5.620
 9574SOL     OW29620   4.157   3.071   1.794
 9574SOL    HW129621   4.119   3.161   1.816
 9574SOL    HW229622   4.240   3.082   1.740
 9575SOL     OW29623   6.110   0.318   2.663
 9575SOL    HW129624   6.094   0.403   2.612
 9575SOL    HW229625   6.060   0.322   2.750
 9576SOL     OW29626   1.602   1.415   0.272
 9576SOL    HW129627   1.662   1.474   0.219
 9576SOL    HW229628   1.555   1.352   0.211
 9577SOL     OW29629   6.912   5.789   0.413
 9577SOL    HW129630   6.980   5.861   0.428
 9577SOL    HW229631   6.956   5.711   0.367
 9578SOL     OW29632   1.097   2.786   2.622
 9578SOL    HW129633   1.099   2.802   2.721
 9578SOL    HW229634   1.008   2.813   2.585
 9579SOL     OW29635   5.737   0.254   2.499
 9579SOL    HW129636   5.826   0.298   2.513
 9579SOL    HW229637   5.680   0.266   2.580
 9580SOL     OW29638   5.069   4.064   1.309
 9580SOL    HW129639   5.029   4.120   1.237
 9580SOL    HW229640   5.036   4.094   1.398
 9581SOL     OW29641   0.272   0.694   6.616
 9581SOL    HW129642   0.264   0.688   6.516
 9581SOL    HW229643   0.193   0.649   6.658
 9582SOL     OW29644   3.747   6.163   4.611
 9582SOL    HW129645   3.685   6.143   4.535
 9582SOL    HW229646   3.808   6.238   4.585
 9583SOL     OW29647   3.265   4.354   1.495
 9583SOL    HW129648   3.215   4.401   1.569
 9583SOL    HW229649   3.298   4.422   1.430
 9584SOL     OW29650   1.601   4.416   5.726
 9584SOL    HW129651   1.676   4.396   5.663
 9584SOL    HW229652   1.530   4.467   5.679
 9585SOL     OW29653   5.148   6.475   1.768
 9585SOL    HW129654   5.082   6.442   1.700
 9585SOL    HW229655   5.216   6.403   1.785
 9586SOL     OW29656   4.773   5.248   1.839
 9586SOL    HW129657   4.836   5.227   1.765
 9586SOL    HW229658   4.684   5.272   1.801
 9587SOL     OW29659   1.880   6.240   2.213
 9587SOL    HW129660   1.847   6.269   2.303
 9587SOL    HW229661   1.845   6.302   2.143
 9588SOL     OW29662   6.035   6.294   0.951
 9588SOL    HW129663   6.030   6.202   0.911
 9588SOL    HW229664   6.030   6.286   1.051
 9589SOL     OW29665   2.020   3.648   6.586
 9589SOL    HW129666   2.084   3.715   6.548
 9589SOL    HW229667   1.959   3.693   6.651
 9590SOL     OW29668   6.130   2.049   1.767
 9590SOL    HW129669   6.040   2.011   1.748
 9590SOL    HW229670   6.138   2.069   1.865
 9591SOL     OW29671   3.554   6.541   6.050
 9591SOL    HW129672   3.622   6.523   5.979
 9591SOL    HW229673   3.592   6.607   6.116
 9592SOL     OW29674   3.431   4.560   6.718
 9592SOL    HW129675   3.445   4.480   6.660
 9592SOL    HW229676   3.519   4.603   6.737
 9593SOL     OW29677   1.502   1.570   5.459
 9593SOL    HW129678   1.516   1.478   5.496
 9593SOL    HW229679   1.589   1.606   5.427
 9594SOL     OW29680   2.891   6.320   4.348
 9594SOL    HW129681   2.843   6.356   4.428
 9594SOL    HW229682   2.866   6.372   4.267
 9595SOL     OW29683   0.714   3.453   3.430
 9595SOL    HW129684   0.698   3.491   3.339
 9595SOL    HW229685   0.663   3.368   3.440
 9596SOL     OW29686   0.742   5.421   0.296
 9596SOL    HW129687   0.646   5.449   0.297
 9596SOL    HW229688   0.752   5.337   0.350
 9597SOL     OW29689   0.785   4.469   1.347
 9597SOL    HW129690   0.729   4.386   1.341
 9597SOL    HW229691   0.752   4.536   1.281
 9598SOL     OW29692   2.172   4.005   2.817
 9598SOL    HW129693   2.157   3.927   2.877
 9598SOL    HW229694   2.200   3.973   2.726
 9599SOL     OW29695   3.298   6.848   4.209
 9599SOL    HW129696   3.275   6.804   4.296
 9599SOL    HW229697   3.340   6.937   4.227
 9600SOL     OW29698   2.734   0.073   0.849
 9600SOL    HW129699   2.793   7.008   0.846
 9600SOL    HW229700   2.683   0.074   0.935
 9601SOL     OW29701   5.877   4.000   0.795
 9601SOL    HW129702   5.846   4.034   0.706
 9601SOL    HW229703   5.801   3.997   0.859
 9602SOL     OW29704   4.735   4.070   5.532
 9602SOL    HW129705   4.686   3.986   5.558
 9602SOL    HW229706   4.726   4.137   5.605
 9603SOL     OW29707   5.623   6.519   6.208
 9603SOL    HW129708   5.695   6.577   6.246
 9603SOL    HW229709   5.541   6.574   6.192
 9604SOL     OW29710   4.930   0.340   1.519
 9604SOL    HW129711   4.880   0.323   1.605
 9604SOL    HW229712   5.025   0.363   1.540
 9605SOL     OW29713   0.232   5.451   2.974
 9605SOL    HW129714   0.261   5.525   2.914
 9605SOL    HW229715   0.214   5.487   3.066
 9606SOL     OW29716   1.847   0.694   6.986
 9606SOL    HW129717   1.777   0.646   6.933
 9606SOL    HW229718   1.926   0.711   6.928
 9607SOL     OW29719   2.775   1.496   0.171
 9607SOL    HW129720   2.774   1.571   0.237
 9607SOL    HW229721   2.737   1.527   0.084
 9608SOL     OW29722   6.998   4.844   2.790
 9608SOL    HW129723   0.009   4.917   2.853
 9608SOL    HW229724   6.926   4.789   2.831
 9609SOL     OW29725   4.228   2.930   6.973
 9609SOL    HW129726   4.164   2.876   0.012
 9609SOL    HW229727   4.208   3.027   6.985
 9610SOL     OW29728   1.750   4.820   2.903
 9610SOL    HW129729   1.816   4.854   2.970
 9610SOL    HW229730   1.782   4.842   2.811
 9611SOL     OW29731   1.743   6.538   0.449
 9611SOL    HW129732   1.832   6.529   0.404
 9611SOL    HW229733   1.672   6.545   0.379
 9612SOL     OW29734   0.625   3.455   1.613
 9612SOL    HW129735   0.704   3.516   1.623
 9612SOL    HW229736   0.643   3.390   1.540
 9613SOL     OW29737   5.615   6.298   3.318
 9613SOL    HW129738   5.647   6.287   3.411
 9613SOL    HW229739   5.691   6.285   3.254
 9614SOL     OW29740   3.579   1.760   2.387
 9614SOL    HW129741   3.555   1.845   2.433
 9614SOL    HW229742   3.610   1.693   2.455
 9615SOL     OW29743   2.983   1.647   1.240
 9615SOL    HW129744   2.935   1.706   1.304
 9615SOL    HW229745   3.069   1.616   1.281
 9616SOL     OW29746   3.613   3.459   1.102
 9616SOL    HW129747   3.569   3.446   1.014
 9616SOL    HW229748   3.697   3.404   1.106
 9617SOL     OW29749   2.069   2.943   3.315
 9617SOL    HW129750   2.138   2.876   3.286
 9617SOL    HW229751   1.996   2.896   3.364
 9618SOL     OW29752   3.056   0.187   1.198
 9618SOL    HW129753   2.988   0.249   1.236
 9618SOL    HW229754   3.147   0.217   1.226
 9619SOL     OW29755   2.097   0.297   5.649
 9619SOL    HW129756   2.072   0.315   5.744
 9619SOL    HW229757   2.015   0.273   5.597
 9620SOL     OW29758   3.924   0.330   4.646
 9620SOL    HW129759   3.929   0.387   4.728
 9620SOL    HW229760   3.848   0.266   4.654
 9621SOL     OW29761   1.474   2.891   1.675
 9621SOL    HW129762   1.557   2.839   1.696
 9621SOL    HW229763   1.437   2.861   1.587
 9622SOL     OW29764   6.264   1.520   0.732
 9622SOL    HW129765   6.199   1.452   0.767
 9622SOL    HW229766   6.215   1.606   0.714
 9623SOL     OW29767   2.071   3.297   6.323
 9623SOL    HW129768   2.135   3.368   6.292
 9623SOL    HW229769   1.981   3.338   6.336
 9624SOL     OW29770   5.993   3.956   3.073
 9624SOL    HW129771   6.078   3.916   3.040
 9624SOL    HW229772   5.959   4.022   3.006
 9625SOL     OW29773   5.681   5.629   0.335
 9625SOL    HW129774   5.675   5.675   0.245
 9625SOL    HW229775   5.674   5.530   0.322
 9626SOL     OW29776   3.811   5.094   0.659
 9626SOL    HW129777   3.839   5.010   0.613
 9626SOL    HW229778   3.810   5.079   0.758
 9627SOL     OW29779   0.916   6.294   6.444
 9627SOL    HW129780   0.926   6.199   6.415
 9627SOL    HW229781   0.847   6.300   6.516
 9628SOL     OW29782   5.274   5.052   0.786
 9628SOL    HW129783   5.316   4.969   0.747
 9628SOL    HW229784   5.345   5.122   0.798
 9629SOL     OW29785   2.093   0.660   1.704
 9629SOL    HW129786   2.109   0.751   1.743
 9629SOL    HW229787   2.057   0.599   1.775
 9630SOL     OW29788   5.902   6.876   4.340
 9630SOL    HW129789   5.901   6.918   4.431
 9630SOL    HW229790   5.808   6.866   4.307
 9631SOL     OW29791   6.648   0.031   5.988
 9631SOL    HW129792   6.695   0.098   6.045
 9631SOL    HW229793   6.713   7.007   5.923
 9632SOL     OW29794   1.406   6.323   2.791
 9632SOL    HW129795   1.381   6.291   2.883
 9632SOL    HW229796   1.419   6.244   2.731
 9633SOL     OW29797   5.597   5.017   6.643
 9633SOL    HW129798   5.574   5.004   6.547
 9633SOL    HW229799   5.595   4.928   6.690
 9634SOL     OW29800   1.379   6.784   4.023
 9634SOL    HW129801   1.439   6.774   4.103
 9634SOL    HW229802   1.430   6.762   3.940
 9635SOL     OW29803   2.496   5.628   4.966
 9635SOL    HW129804   2.578   5.571   4.979
 9635SOL    HW229805   2.503   5.709   5.025
 9636SOL     OW29806   4.278   1.569   5.559
 9636SOL    HW129807   4.257   1.662   5.589
 9636SOL    HW229808   4.211   1.541   5.490
 9637SOL     OW29809   2.487   2.279   6.206
 9637SOL    HW129810   2.430   2.357   6.234
 9637SOL    HW229811   2.517   2.293   6.112
 9638SOL     OW29812   6.689   3.549   5.846
 9638SOL    HW129813   6.695   3.529   5.748
 9638SOL    HW229814   6.594   3.569   5.869
 9639SOL     OW29815   3.993   1.580   2.488
 9639SOL    HW129816   3.969   1.677   2.492
 9639SOL    HW229817   4.087   1.567   2.518
 9640SOL     OW29818   2.325   2.830   3.774
 9640SOL    HW129819   2.355   2.762   3.708
 9640SOL    HW229820   2.365   2.811   3.863
 9641SOL     OW29821   4.672   0.248   0.242
 9641SOL    HW129822   4.738   0.195   0.294
 9641SOL    HW229823   4.601   0.283   0.303
 9642SOL     OW29824   2.484   0.322   4.670
 9642SOL    HW129825   2.485   0.415   4.707
 9642SOL    HW229826   2.491   0.256   4.745
 9643SOL     OW29827   5.384   4.149   3.402
 9643SOL    HW129828   5.378   4.182   3.496
 9643SOL    HW229829   5.329   4.066   3.392
 9644SOL     OW29830   1.056   3.065   6.235
 9644SOL    HW129831   1.125   3.121   6.190
 9644SOL    HW229832   1.076   3.060   6.333
 9645SOL     OW29833   2.830   5.098   5.324
 9645SOL    HW129834   2.740   5.101   5.367
 9645SOL    HW229835   2.899   5.078   5.392
 9646SOL     OW29836   4.258   4.874   2.376
 9646SOL    HW129837   4.201   4.821   2.313
 9646SOL    HW229838   4.330   4.815   2.413
 9647SOL     OW29839   6.436   3.551   1.392
 9647SOL    HW129840   6.365   3.484   1.413
 9647SOL    HW229841   6.525   3.506   1.391
 9648SOL     OW29842   3.921   1.720   1.243
 9648SOL    HW129843   3.863   1.725   1.161
 9648SOL    HW229844   3.895   1.792   1.306
 9649SOL     OW29845   2.934   6.623   6.958
 9649SOL    HW129846   3.016   6.571   6.934
 9649SOL    HW229847   2.864   6.562   6.993
 9650SOL     OW29848   7.007   5.261   2.571
 9650SOL    HW129849   0.026   5.180   2.619
 9650SOL    HW229850   6.913   5.245   2.541
 9651SOL     OW29851   0.119   1.989   5.425
 9651SOL    HW129852   0.042   1.950   5.474
 9651SOL    HW229853   0.150   1.925   5.354
 9652SOL     OW29854   0.925   4.985   1.497
 9652SOL    HW129855   0.849   5.007   1.557
 9652SOL    HW229856   0.966   4.899   1.525
 9653SOL     OW29857   4.374   4.812   4.792
 9653SOL    HW129858   4.366   4.741   4.862
 9653SOL    HW229859   4.420   4.892   4.830
 9654SOL     OW29860   2.670   2.450   1.839
 9654SOL    HW129861   2.621   2.438   1.925
 9654SOL    HW229862   2.767   2.434   1.853
 9655SOL     OW29863   0.077   1.965   6.370
 9655SOL    HW129864   0.050   1.916   6.453
 9655SOL    HW229865   0.175   1.951   6.353
 9656SOL     OW29866   2.894   0.038   2.686
 9656SOL    HW129867   2.910   0.121   2.632
 9656SOL    HW229868   2.817   7.003   2.646
 9657SOL     OW29869   5.556   1.057   4.601
 9657SOL    HW129870   5.486   1.123   4.573
 9657SOL    HW229871   5.573   0.992   4.527
 9658SOL     OW29872   6.446   2.602   2.345
 9658SOL    HW129873   6.474   2.691   2.309
 9658SOL    HW229874   6.523   2.562   2.395
 9659SOL     OW29875   7.015   4.534   0.479
 9659SOL    HW129876   6.938   4.470   0.488
 9659SOL    HW229877   0.077   4.498   0.530
 9660SOL     OW29878   0.720   5.950   1.060
 9660SOL    HW129879   0.791   5.885   1.036
 9660SOL    HW229880   0.637   5.901   1.089
 9661SOL     OW29881   4.320   0.002   0.637
 9661SOL    HW129882   4.289   0.055   0.558
 9661SOL    HW229883   4.240   6.985   0.688
 9662SOL     OW29884   5.815   2.517   5.248
 9662SOL    HW129885   5.880   2.520   5.324
 9662SOL    HW229886   5.778   2.608   5.232
 9663SOL     OW29887   1.772   5.288   3.455
 9663SOL    HW129888   1.854   5.334   3.487
 9663SOL    HW229889   1.693   5.319   3.509
 9664SOL     OW29890   4.668   6.755   2.764
 9664SOL    HW129891   4.598   6.685   2.785
 9664SOL    HW229892   4.623   6.843   2.750
 9665SOL     OW29893   5.767   4.728   4.757
 9665SOL    HW129894   5.784   4.825   4.744
 9665SOL    HW229895   5.851   4.682   4.784
 9666SOL     OW29896   6.096   4.089   1.873
 9666SOL    HW129897   6.140   4.101   1.962
 9666SOL    HW229898   6.166   4.088   1.801
 9667SOL     OW29899   3.432   3.518   3.851
 9667SOL    HW129900   3.348   3.546   3.898
 9667SOL    HW229901   3.410   3.446   3.785
 9668SOL     OW29902   0.032   1.341   6.019
 9668SOL    HW129903   0.072   1.417   5.967
 9668SOL    HW229904   6.995   1.283   5.957
 9669SOL     OW29905   0.686   0.575   0.283
 9669SOL    HW129906   0.734   0.492   0.254
 9669SOL    HW229907   0.752   0.648   0.298
 9670SOL     OW29908   4.992   4.236   6.270
 9670SOL    HW129909   4.977   4.164   6.201
 9670SOL    HW229910   4.973   4.199   6.361
 9671SOL     OW29911   0.287   5.520   5.743
 9671SOL    HW129912   0.314   5.441   5.798
 9671SOL    HW229913   0.198   5.502   5.701
 9672SOL     OW29914   1.179   6.208   4.465
 9672SOL    HW129915   1.088   6.190   4.502
 9672SOL    HW229916   1.226   6.122   4.447
 9673SOL     OW29917   3.602   3.759   6.589
 9673SOL    HW129918   3.631   3.663   6.581
 9673SOL    HW229919   3.679   3.814   6.620
 9674SOL     OW29920   3.153   6.403   1.608
 9674SOL    HW129921   3.128   6.457   1.527
 9674SOL    HW229922   3.098   6.432   1.685
 9675SOL     OW29923   6.466   1.439   2.382
 9675SOL    HW129924   6.446   1.510   2.449
 9675SOL    HW229925   6.565   1.435   2.367
 9676SOL     OW29926   1.105   3.345   4.860
 9676SOL    HW129927   1.138   3.302   4.776
 9676SOL    HW229928   1.047   3.280   4.910
 9677SOL     OW29929   2.409   4.295   5.830
 9677SOL    HW129930   2.365   4.256   5.912
 9677SOL    HW229931   2.367   4.256   5.748
 9678SOL     OW29932   4.097   3.310   2.877
 9678SOL    HW129933   4.053   3.222   2.896
 9678SOL    HW229934   4.121   3.355   2.963
 9679SOL     OW29935   1.487   2.723   1.423
 9679SOL    HW129936   1.518   2.635   1.458
 9679SOL    HW229937   1.447   2.710   1.332
 9680SOL     OW29938   5.953   5.985   3.109
 9680SOL    HW129939   5.952   5.948   3.016
 9680SOL    HW229940   5.887   6.060   3.115
 9681SOL     OW29941   1.928   0.859   1.265
 9681SOL    HW129942   1.973   0.820   1.345
 9681SOL    HW229943   1.875   0.939   1.293
 9682SOL     OW29944   5.104   5.044   3.516
 9682SOL    HW129945   5.192   5.033   3.468
 9682SOL    HW229946   5.120   5.042   3.615
 9683SOL     OW29947   3.657   5.171   0.433
 9683SOL    HW129948   3.594   5.243   0.461
 9683SOL    HW229949   3.707   5.137   0.513
 9684SOL     OW29950   0.293   3.774   4.682
 9684SOL    HW129951   0.373   3.825   4.651
 9684SOL    HW229952   0.294   3.682   4.643
 9685SOL     OW29953   2.100   3.039   1.183
 9685SOL    HW129954   2.097   2.982   1.265
 9685SOL    HW229955   2.177   3.102   1.189
 9686SOL     OW29956   6.480   0.726   1.558
 9686SOL    HW129957   6.538   0.807   1.564
 9686SOL    HW229958   6.536   0.647   1.534
 9687SOL     OW29959   2.446   0.862   2.731
 9687SOL    HW129960   2.372   0.872   2.797
 9687SOL    HW229961   2.409   0.827   2.645
 9688SOL     OW29962   0.072   1.834   2.939
 9688SOL    HW129963   0.048   1.739   2.922
 9688SOL    HW229964   7.005   1.888   2.951
 9689SOL     OW29965   2.780   6.066   6.976
 9689SOL    HW129966   2.831   5.989   7.013
 9689SOL    HW229967   2.840   6.121   6.918
 9690SOL     OW29968   6.066   4.788   0.042
 9690SOL    HW129969   6.055   4.720   0.115
 9690SOL    HW229970   6.126   4.752   6.987
 9691SOL     OW29971   1.538   5.357   1.744
 9691SOL    HW129972   1.560   5.273   1.794
 9691SOL    HW229973   1.529   5.337   1.646
 9692SOL     OW29974   2.832   5.004   1.761
 9692SOL    HW129975   2.771   5.079   1.735
 9692SOL    HW229976   2.927   5.036   1.758
 9693SOL     OW29977   6.490   5.612   1.525
 9693SOL    HW129978   6.588   5.592   1.512
 9693SOL    HW229979   6.474   5.635   1.621
 9694SOL     OW29980   1.415   2.405   0.374
 9694SOL    HW129981   1.403   2.458   0.458
 9694SOL    HW229982   1.473   2.326   0.392
 9695SOL     OW29983   6.413   3.994   1.051
 9695SOL    HW129984   6.471   3.960   1.125
 9695SOL    HW229985   6.434   3.946   0.966
 9696SOL     OW29986   4.036   2.864   1.594
 9696SOL    HW129987   3.982   2.798   1.646
 9696SOL    HW229988   4.089   2.921   1.656
 9697SOL     OW29989   0.750   4.814   6.975
 9697SOL    HW129990   0.800   4.881   6.920
 9697SOL    HW229991   0.789   4.810   0.051
 9698SOL     OW29992   5.987   0.802   4.967
 9698SOL    HW129993   6.000   0.711   4.927
 9698SOL    HW229994   5.905   0.802   5.024
 9699SOL     OW29995   0.891   3.239   6.502
 9699SOL    HW129996   0.960   3.168   6.520
 9699SOL    HW229997   0.904   3.315   6.566
 9700SOL     OW29998   3.364   4.873   5.944
 9700SOL    HW129999   3.296   4.838   6.009
 9700SOL    HW230000   3.348   4.832   5.854
 9701SOL     OW30001   3.998   5.273   4.629
 9701SOL    HW130002   3.964   5.366   4.643
 9701SOL    HW230003   4.002   5.225   4.717
 9702SOL     OW30004   5.023   0.898   0.491
 9702SOL    HW130005   4.978   0.879   0.578
 9702SOL    HW230006   5.021   0.996   0.473
 9703SOL     OW30007   3.397   5.914   4.514
 9703SOL    HW130008   3.479   5.875   4.471
 9703SOL    HW230009   3.344   5.964   4.446
 9704SOL     OW30010   3.421   6.843   2.679
 9704SOL    HW130011   3.322   6.838   2.684
 9704SOL    HW230012   3.453   6.920   2.736
 9705SOL     OW30013   3.713   4.707   0.756
 9705SOL    HW130014   3.621   4.703   0.715
 9705SOL    HW230015   3.778   4.739   0.687
 9706SOL     OW30016   6.352   2.779   1.791
 9706SOL    HW130017   6.261   2.784   1.832
 9706SOL    HW230018   6.421   2.785   1.863
 9707SOL     OW30019   1.108   3.968   2.385
 9707SOL    HW130020   1.117   3.926   2.294
 9707SOL    HW230021   1.199   3.983   2.423
 9708SOL     OW30022   2.119   1.879   4.158
 9708SOL    HW130023   2.201   1.934   4.138
 9708SOL    HW230024   2.047   1.904   4.094
 9709SOL     OW30025   0.776   6.117   3.435
 9709SOL    HW130026   0.685   6.077   3.420
 9709SOL    HW230027   0.788   6.135   3.533
 9710SOL     OW30028   0.298   1.383   2.845
 9710SOL    HW130029   0.220   1.370   2.785
 9710SOL    HW230030   0.275   1.450   2.916
 9711SOL     OW30031   1.529   3.051   5.860
 9711SOL    HW130032   1.595   3.075   5.789
 9711SOL    HW230033   1.578   3.031   5.945
 9712SOL     OW30034   5.547   1.958   4.810
 9712SOL    HW130035   5.581   1.864   4.805
 9712SOL    HW230036   5.623   2.021   4.825
 9713SOL     OW30037   0.593   4.704   3.471
 9713SOL    HW130038   0.576   4.720   3.374
 9713SOL    HW230039   0.643   4.618   3.483
 9714SOL     OW30040   2.064   1.709   2.196
 9714SOL    HW130041   2.129   1.684   2.268
 9714SOL    HW230042   2.099   1.787   2.145
 9715SOL     OW30043   5.599   5.610   5.172
 9715SOL    HW130044   5.654   5.579   5.250
 9715SOL    HW230045   5.657   5.661   5.109
 9716SOL     OW30046   4.101   1.825   6.843
 9716SOL    HW130047   4.199   1.806   6.831
 9716SOL    HW230048   4.055   1.744   6.879
 9717SOL     OW30049   5.324   6.094   3.813
 9717SOL    HW130050   5.371   6.143   3.886
 9717SOL    HW230051   5.246   6.149   3.782
 9718SOL     OW30052   3.974   3.277   1.252
 9718SOL    HW130053   4.022   3.350   1.301
 9718SOL    HW230054   3.918   3.226   1.317
 9719SOL     OW30055   0.505   2.578   0.079
 9719SOL    HW130056   0.525   2.571   0.177
 9719SOL    HW230057   0.525   2.491   0.034
 9720SOL     OW30058   0.464   6.292   2.540
 9720SOL    HW130059   0.420   6.251   2.460
 9720SOL    HW230060   0.434   6.243   2.622
 9721SOL     OW30061   0.162   3.759   2.008
 9721SOL    HW130062   0.117   3.671   1.989
 9721SOL    HW230063   0.258   3.754   1.984
 9722SOL     OW30064   0.265   0.889   3.305
 9722SOL    HW130065   0.266   0.790   3.318
 9722SOL    HW230066   0.200   0.930   3.369
 9723SOL     OW30067   0.705   0.511   3.256
 9723SOL    HW130068   0.686   0.489   3.161
 9723SOL    HW230069   0.660   0.597   3.280
 9724SOL     OW30070   3.049   2.648   1.759
 9724SOL    HW130071   2.987   2.580   1.797
 9724SOL    HW230072   3.134   2.604   1.730
 9725SOL     OW30073   4.922   3.489   6.085
 9725SOL    HW130074   4.915   3.396   6.048
 9725SOL    HW230075   4.923   3.484   6.185
 9726SOL     OW30076   5.221   6.777   4.454
 9726SOL    HW130077   5.194   6.725   4.535
 9726SOL    HW230078   5.234   6.873   4.479
 9727SOL     OW30079   0.712   3.061   5.471
 9727SOL    HW130080   0.763   3.146   5.459
 9727SOL    HW230081   0.709   3.037   5.568
 9728SOL     OW30082   1.720   6.278   6.248
 9728SOL    HW130083   1.675   6.344   6.308
 9728SOL    HW230084   1.651   6.220   6.205
 9729SOL     OW30085   1.352   4.511   2.945
 9729SOL    HW130086   1.406   4.589   2.913
 9729SOL    HW230087   1.272   4.544   2.995
 9730SOL     OW30088   6.933   2.928   2.618
 9730SOL    HW130089   7.014   2.984   2.634
 9730SOL    HW230090   6.854   2.988   2.607
 9731SOL     OW30091   3.845   5.338   0.795
 9731SOL    HW130092   3.868   5.416   0.737
 9731SOL    HW230093   3.801   5.267   0.741
 9732SOL     OW30094   6.987   6.021   2.565
 9732SOL    HW130095   0.032   5.999   2.489
 9732SOL    HW230096   6.899   6.053   2.529
 9733SOL     OW30097   5.477   5.147   4.994
 9733SOL    HW130098   5.531   5.063   4.998
 9733SOL    HW230099   5.456   5.170   4.899
 9734SOL     OW30100   5.697   1.859   4.300
 9734SOL    HW130101   5.704   1.822   4.393
 9734SOL    HW230102   5.747   1.801   4.237
 9735SOL     OW30103   2.551   4.825   2.032
 9735SOL    HW130104   2.632   4.833   2.091
 9735SOL    HW230105   2.548   4.904   1.970
 9736SOL     OW30106   5.741   1.232   6.893
 9736SOL    HW130107   5.839   1.223   6.872
 9736SOL    HW230108   5.729   1.243   6.991
 9737SOL     OW30109   4.112   2.178   5.000
 9737SOL    HW130110   4.142   2.274   4.997
 9737SOL    HW230111   4.189   2.120   5.027
 9738SOL     OW30112   1.465   1.030   3.481
 9738SOL    HW130113   1.366   1.018   3.485
 9738SOL    HW230114   1.500   0.994   3.395
 9739SOL     OW30115   6.857   5.319   1.907
 9739SOL    HW130116   6.819   5.235   1.868
 9739SOL    HW230117   6.949   5.334   1.871
 9740SOL     OW30118   6.234   3.843   2.955
 9740SOL    HW130119   6.204   3.779   2.884
 9740SOL    HW230120   6.299   3.908   2.916
 9741SOL     OW30121   4.227   1.632   2.620
 9741SOL    HW130122   4.221   1.584   2.708
 9741SOL    HW230123   4.270   1.721   2.634
 9742SOL     OW30124   5.433   0.713   3.173
 9742SOL    HW130125   5.433   0.715   3.073
 9742SOL    HW230126   5.455   0.803   3.209
 9743SOL     OW30127   1.738   3.096   5.688
 9743SOL    HW130128   1.822   3.093   5.742
 9743SOL    HW230129   1.759   3.077   5.592
 9744SOL     OW30130   1.821   0.949   2.235
 9744SOL    HW130131   1.903   0.893   2.235
 9744SOL    HW230132   1.830   1.022   2.167
 9745SOL     OW30133   1.227   2.559   4.916
 9745SOL    HW130134   1.230   2.549   5.015
 9745SOL    HW230135   1.159   2.497   4.877
 9746SOL     OW30136   5.547   0.583   5.528
 9746SOL    HW130137   5.497   0.623   5.452
 9746SOL    HW230138   5.504   0.496   5.555
 9747SOL     OW30139   1.414   0.738   0.730
 9747SOL    HW130140   1.380   0.711   0.640
 9747SOL    HW230141   1.513   0.752   0.726
 9748SOL     OW30142   1.663   6.007   4.183
 9748SOL    HW130143   1.643   5.977   4.090
 9748SOL    HW230144   1.589   6.066   4.215
 9749SOL     OW30145   1.262   3.883   4.687
 9749SOL    HW130146   1.171   3.890   4.647
 9749SOL    HW230147   1.314   3.812   4.639
 9750SOL     OW30148   4.866   4.918   3.407
 9750SOL    HW130149   4.909   4.963   3.329
 9750SOL    HW230150   4.927   4.921   3.485
 9751SOL     OW30151   1.548   1.975   1.026
 9751SOL    HW130152   1.515   1.989   0.933
 9751SOL    HW230153   1.476   1.930   1.080
 9752SOL     OW30154   4.516   0.981   5.684
 9752SOL    HW130155   4.441   0.918   5.702
 9752SOL    HW230156   4.491   1.073   5.716
 9753SOL     OW30157   6.636   5.706   5.126
 9753SOL    HW130158   6.704   5.720   5.054
 9753SOL    HW230159   6.570   5.637   5.096
 9754SOL     OW30160   0.904   1.855   6.843
 9754SOL    HW130161   0.862   1.767   6.822
 9754SOL    HW230162   0.852   1.900   6.916
 9755SOL     OW30163   4.206   3.516   5.052
 9755SOL    HW130164   4.288   3.469   5.020
 9755SOL    HW230165   4.125   3.465   5.023
 9756SOL     OW30166   5.995   3.290   0.009
 9756SOL    HW130167   5.903   3.307   6.988
 9756SOL    HW230168   6.003   3.193   0.032
 9757SOL     OW30169   5.193   2.766   3.785
 9757SOL    HW130170   5.246   2.709   3.848
 9757SOL    HW230171   5.203   2.862   3.811
 9758SOL     OW30172   2.083   0.698   6.829
 9758SOL    HW130173   2.071   0.608   6.873
 9758SOL    HW230174   2.118   0.685   6.736
 9759SOL     OW30175   2.658   6.076   1.458
 9759SOL    HW130176   2.696   6.145   1.397
 9759SOL    HW230177   2.573   6.040   1.420
 9760SOL     OW30178   5.374   5.011   5.266
 9760SOL    HW130179   5.400   5.038   5.173
 9760SOL    HW230180   5.456   5.008   5.323
 9761SOL     OW30181   5.233   4.977   1.812
 9761SOL    HW130182   5.250   5.073   1.832
 9761SOL    HW230183   5.244   4.922   1.895
 9762SOL     OW30184   2.354   1.735   5.092
 9762SOL    HW130185   2.351   1.823   5.140
 9762SOL    HW230186   2.449   1.705   5.083
 9763SOL     OW30187   3.805   1.235   1.651
 9763SOL    HW130188   3.844   1.323   1.679
 9763SOL    HW230189   3.815   1.224   1.552
 9764SOL     OW30190   1.151   3.361   3.094
 9764SOL    HW130191   1.086   3.368   3.018
 9764SOL    HW230192   1.228   3.303   3.066
 9765SOL     OW30193   0.180   1.983   5.726
 9765SOL    HW130194   0.212   2.068   5.683
 9765SOL    HW230195   0.081   1.980   5.722
 9766SOL     OW30196   3.015   0.544   3.264
 9766SOL    HW130197   2.936   0.524   3.323
 9766SOL    HW230198   3.090   0.580   3.319
 9767SOL     OW30199   5.123   0.665   5.397
 9767SOL    HW130200   5.052   0.735   5.398
 9767SOL    HW230201   5.201   0.697   5.344
 9768SOL     OW30202   4.748   1.926   2.358
 9768SOL    HW130203   4.706   1.910   2.269
 9768SOL    HW230204   4.786   2.019   2.362
 9769SOL     OW30205   1.065   2.258   1.500
 9769SOL    HW130206   1.129   2.228   1.571
 9769SOL    HW230207   1.105   2.241   1.410
 9770SOL     OW30208   5.285   5.133   6.048
 9770SOL    HW130209   5.373   5.178   6.031
 9770SOL    HW230210   5.289   5.038   6.016
 9771SOL     OW30211   4.452   5.186   6.870
 9771SOL    HW130212   4.446   5.235   6.783
 9771SOL    HW230213   4.545   5.151   6.883
 9772SOL     OW30214   6.772   6.967   1.980
 9772SOL    HW130215   6.798   6.970   2.076
 9772SOL    HW230216   6.727   6.880   1.960
 9773SOL     OW30217   5.900   5.727   3.584
 9773SOL    HW130218   5.856   5.685   3.663
 9773SOL    HW230219   5.830   5.758   3.519
 9774SOL     OW30220   6.000   5.122   4.025
 9774SOL    HW130221   6.014   5.212   4.066
 9774SOL    HW230222   6.038   5.120   3.932
 9775SOL     OW30223   1.793   2.871   4.369
 9775SOL    HW130224   1.790   2.903   4.275
 9775SOL    HW230225   1.724   2.920   4.423
 9776SOL     OW30226   6.511   5.638   4.231
 9776SOL    HW130227   6.425   5.673   4.195
 9776SOL    HW230228   6.573   5.714   4.250
 9777SOL     OW30229   6.013   3.856   5.852
 9777SOL    HW130230   5.975   3.947   5.839
 9777SOL    HW230231   5.945   3.796   5.893
 9778SOL     OW30232   4.910   6.644   2.834
 9778SOL    HW130233   4.827   6.700   2.824
 9778SOL    HW230234   4.885   6.548   2.843
 9779SOL     OW30235   2.775   1.247   5.176
 9779SOL    HW130236   2.726   1.305   5.241
 9779SOL    HW230237   2.729   1.251   5.087
 9780SOL     OW30238   2.641   3.209   0.576
 9780SOL    HW130239   2.581   3.252   0.508
 9780SOL    HW230240   2.599   3.125   0.609
 9781SOL     OW30241   2.594   4.790   5.053
 9781SOL    HW130242   2.544   4.778   4.968
 9781SOL    HW230243   2.689   4.759   5.041
 9782SOL     OW30244   6.089   0.384   1.587
 9782SOL    HW130245   6.077   0.456   1.655
 9782SOL    HW230246   6.001   0.338   1.572
 9783SOL     OW30247   6.070   1.650   2.583
 9783SOL    HW130248   6.058   1.553   2.560
 9783SOL    HW230249   5.981   1.691   2.604
 9784SOL     OW30250   4.227   1.473   2.867
 9784SOL    HW130251   4.148   1.422   2.834
 9784SOL    HW230252   4.215   1.496   2.963
 9785SOL     OW30253   6.760   2.590   2.704
 9785SOL    HW130254   6.789   2.593   2.800
 9785SOL    HW230255   6.832   2.627   2.647
 9786SOL     OW30256   1.955   5.260   5.626
 9786SOL    HW130257   1.986   5.241   5.533
 9786SOL    HW230258   2.034   5.268   5.687
 9787SOL     OW30259   4.854   4.029   1.960
 9787SOL    HW130260   4.936   4.067   2.004
 9787SOL    HW230261   4.840   3.935   1.990
 9788SOL     OW30262   6.585   0.937   4.466
 9788SOL    HW130263   6.606   0.841   4.483
 9788SOL    HW230264   6.638   0.995   4.528
 9789SOL     OW30265   2.590   6.031   4.969
 9789SOL    HW130266   2.585   6.128   4.947
 9789SOL    HW230267   2.684   5.999   4.960
 9790SOL     OW30268   5.853   1.727   4.135
 9790SOL    HW130269   5.805   1.652   4.089
 9790SOL    HW230270   5.950   1.706   4.142
 9791SOL     OW30271   1.338   1.289   1.508
 9791SOL    HW130272   1.295   1.305   1.597
 9791SOL    HW230273   1.314   1.198   1.475
 9792SOL     OW30274   4.479   4.859   1.042
 9792SOL    HW130275   4.441   4.946   1.011
 9792SOL    HW230276   4.578   4.863   1.042
 9793SOL     OW30277   5.928   5.734   1.952
 9793SOL    HW130278   5.837   5.758   1.986
 9793SOL    HW230279   5.930   5.636   1.930
 9794SOL     OW30280   5.325   3.350   6.105
 9794SOL    HW130281   5.410   3.374   6.057
 9794SOL    HW230282   5.272   3.287   6.048
 9795SOL     OW30283   1.542   3.597   3.933
 9795SOL    HW130284   1.562   3.571   4.027
 9795SOL    HW230285   1.622   3.643   3.894
 9796SOL     OW30286   3.077   5.179   0.280
 9796SOL    HW130287   3.012   5.249   0.310
 9796SOL    HW230288   3.165   5.222   0.262
 9797SOL     OW30289   4.660   3.308   6.478
 9797SOL    HW130290   4.646   3.353   6.390
 9797SOL    HW230291   4.680   3.211   6.464
 9798SOL     OW30292   2.824   0.359   1.294
 9798SOL    HW130293   2.724   0.366   1.294
 9798SOL    HW230294   2.861   0.402   1.212
 9799SOL     OW30295   3.037   3.202   2.625
 9799SOL    HW130296   3.036   3.128   2.559
 9799SOL    HW230297   3.068   3.167   2.714
 9800SOL     OW30298   4.245   5.517   6.920
 9800SOL    HW130299   4.164   5.461   6.900
 9800SOL    HW230300   4.216   5.603   6.963
 9801SOL     OW30301   3.842   6.019   6.645
 9801SOL    HW130302   3.792   6.085   6.589
 9801SOL    HW230303   3.828   6.039   6.742
 9802SOL     OW30304   0.374   3.156   1.009
 9802SOL    HW130305   0.333   3.246   0.995
 9802SOL    HW230306   0.377   3.135   1.107
 9803SOL     OW30307   6.022   0.382   6.696
 9803SOL    HW130308   5.965   0.425   6.766
 9803SOL    HW230309   6.110   0.430   6.692
 9804SOL     OW30310   6.391   5.328   3.863
 9804SOL    HW130311   6.337   5.279   3.794
 9804SOL    HW230312   6.486   5.335   3.832
 9805SOL     OW30313   1.491   5.418   6.842
 9805SOL    HW130314   1.457   5.335   6.887
 9805SOL    HW230315   1.558   5.393   6.773
 9806SOL     OW30316   6.793   2.580   2.143
 9806SOL    HW130317   6.747   2.506   2.094
 9806SOL    HW230318   6.746   2.598   2.229
 9807SOL     OW30319   3.942   1.877   0.462
 9807SOL    HW130320   3.908   1.783   0.464
 9807SOL    HW230321   3.995   1.892   0.379
 9808SOL     OW30322   0.039   1.699   4.715
 9808SOL    HW130323   0.008   1.695   4.810
 9808SOL    HW230324   0.123   1.645   4.705
 9809SOL     OW30325   6.976   1.036   4.300
 9809SOL    HW130326   0.050   1.065   4.332
 9809SOL    HW230327   6.911   1.112   4.308
 9810SOL     OW30328   2.808   1.034   3.074
 9810SOL    HW130329   2.856   0.977   3.006
 9810SOL    HW230330   2.784   1.122   3.032
 9811SOL     OW30331   6.618   6.543   2.689
 9811SOL    HW130332   6.520   6.537   2.704
 9811SOL    HW230333   6.665   6.548   2.777
 9812SOL     OW30334   4.906   2.382   6.017
 9812SOL    HW130335   4.817   2.394   6.062
 9812SOL    HW230336   4.977   2.426   6.073
 9813SOL     OW30337   0.002   4.689   0.031
 9813SOL    HW130338   0.007   4.746   6.965
 9813SOL    HW230339   0.018   4.746   0.112
 9814SOL     OW30340   6.984   6.366   5.638
 9814SOL    HW130341   6.959   6.289   5.579
 9814SOL    HW230342   6.927   6.365   5.720
 9815SOL     OW30343   5.847   3.666   1.805
 9815SOL    HW130344   5.860   3.587   1.746
 9815SOL    HW230345   5.750   3.675   1.829
 9816SOL     OW30346   6.584   0.086   6.994
 9816SOL    HW130347   6.627   0.080   0.068
 9816SOL    HW230348   6.615   0.169   6.948
 9817SOL     OW30349   3.194   6.120   0.420
 9817SOL    HW130350   3.166   6.171   0.501
 9817SOL    HW230351   3.288   6.143   0.396
 9818SOL     OW30352   0.970   6.846   3.379
 9818SOL    HW130353   0.957   6.824   3.476
 9818SOL    HW230354   0.955   6.944   3.365
 9819SOL     OW30355   6.164   4.256   5.042
 9819SOL    HW130356   6.148   4.188   4.970
 9819SOL    HW230357   6.248   4.232   5.091
 9820SOL     OW30358   3.409   1.846   6.752
 9820SOL    HW130359   3.407   1.753   6.788
 9820SOL    HW230360   3.335   1.900   6.793
 9821SOL     OW30361   4.586   2.580   1.828
 9821SOL    HW130362   4.538   2.649   1.774
 9821SOL    HW230363   4.611   2.504   1.769
 9822SOL     OW30364   3.566   6.329   5.177
 9822SOL    HW130365   3.629   6.339   5.100
 9822SOL    HW230366   3.566   6.234   5.208
 9823SOL     OW30367   1.614   0.505   3.283
 9823SOL    HW130368   1.518   0.479   3.294
 9823SOL    HW230369   1.657   0.513   3.373
 9824SOL     OW30370   1.013   6.268   5.312
 9824SOL    HW130371   1.016   6.366   5.292
 9824SOL    HW230372   1.075   6.220   5.250
 9825SOL     OW30373   5.294   5.820   5.993
 9825SOL    HW130374   5.285   5.898   6.056
 9825SOL    HW230375   5.219   5.756   6.009
 9826SOL     OW30376   2.684   6.472   5.703
 9826SOL    HW130377   2.610   6.412   5.674
 9826SOL    HW230378   2.706   6.455   5.800
 9827SOL     OW30379   2.013   5.833   2.007
 9827SOL    HW130380   1.936   5.824   1.944
 9827SOL    HW230381   2.031   5.745   2.052
 9828SOL     OW30382   3.547   2.147   5.047
 9828SOL    HW130383   3.523   2.049   5.049
 9828SOL    HW230384   3.466   2.201   5.068
 9829SOL     OW30385   4.758   5.291   5.318
 9829SOL    HW130386   4.698   5.353   5.368
 9829SOL    HW230387   4.703   5.227   5.264
 9830SOL     OW30388   5.758   2.109   2.656
 9830SOL    HW130389   5.815   2.093   2.575
 9830SOL    HW230390   5.798   2.062   2.735
 9831SOL     OW30391   0.555   4.072   1.940
 9831SOL    HW130392   0.518   4.017   2.015
 9831SOL    HW230393   0.525   4.034   1.853
 9832SOL     OW30394   4.610   4.629   4.708
 9832SOL    HW130395   4.529   4.680   4.737
 9832SOL    HW230396   4.612   4.625   4.608
 9833SOL     OW30397   3.488   4.162   4.319
 9833SOL    HW130398   3.449   4.126   4.403
 9833SOL    HW230399   3.426   4.143   4.243
 9834SOL     OW30400   2.155   5.593   5.335
 9834SOL    HW130401   2.085   5.614   5.403
 9834SOL    HW230402   2.114   5.587   5.244
 9835SOL     OW30403   3.727   4.048   4.234
 9835SOL    HW130404   3.682   3.958   4.242
 9835SOL    HW230405   3.664   4.119   4.263
 9836SOL     OW30406   0.308   3.540   5.112
 9836SOL    HW130407   0.284   3.544   5.209
 9836SOL    HW230408   0.327   3.632   5.078
 9837SOL     OW30409   5.321   2.195   2.365
 9837SOL    HW130410   5.349   2.268   2.302
 9837SOL    HW230411   5.293   2.235   2.452
 9838SOL     OW30412   0.809   6.938   1.732
 9838SOL    HW130413   0.767   0.012   1.744
 9838SOL    HW230414   0.796   6.884   1.814
 9839SOL     OW30415   4.197   0.666   2.684
 9839SOL    HW130416   4.282   0.614   2.686
 9839SOL    HW230417   4.211   0.755   2.727
 9840SOL     OW30418   6.286   0.892   0.252
 9840SOL    HW130419   6.208   0.940   0.212
 9840SOL    HW230420   6.371   0.932   0.217
 9841SOL     OW30421   0.307   6.447   4.089
 9841SOL    HW130422   0.342   6.412   4.176
 9841SOL    HW230423   0.376   6.433   4.018
 9842SOL     OW30424   2.713   1.974   6.308
 9842SOL    HW130425   2.628   1.957   6.359
 9842SOL    HW230426   2.736   2.071   6.312
 9843SOL     OW30427   0.662   6.866   1.324
 9843SOL    HW130428   0.671   6.965   1.314
 9843SOL    HW230429   0.682   6.840   1.418
 9844SOL     OW30430   4.979   0.332   4.085
 9844SOL    HW130431   5.006   0.416   4.039
 9844SOL    HW230432   5.060   0.288   4.125
 9845SOL     OW30433   1.757   3.505   1.453
 9845SOL    HW130434   1.856   3.517   1.446
 9845SOL    HW230435   1.731   3.416   1.416
 9846SOL     OW30436   5.350   1.784   0.882
 9846SOL    HW130437   5.277   1.720   0.859
 9846SOL    HW230438   5.314   1.877   0.883
 9847SOL     OW30439   4.207   4.006   0.728
 9847SOL    HW130440   4.303   4.030   0.715
 9847SOL    HW230441   4.153   4.041   0.651
 9848SOL     OW30442   3.422   3.953   5.304
 9848SOL    HW130443   3.468   3.870   5.273
 9848SOL    HW230444   3.404   4.013   5.225
 9849SOL     OW30445   0.816   1.677   4.547
 9849SOL    HW130446   0.851   1.755   4.599
 9849SOL    HW230447   0.747   1.709   4.483
 9850SOL     OW30448   0.606   0.495   4.623
 9850SOL    HW130449   0.662   0.515   4.543
 9850SOL    HW230450   0.516   0.463   4.594
 9851SOL     OW30451   4.039   4.817   4.354
 9851SOL    HW130452   4.113   4.792   4.415
 9851SOL    HW230453   3.952   4.809   4.402
 9852SOL     OW30454   1.947   1.142   0.195
 9852SOL    HW130455   2.005   1.202   0.138
 9852SOL    HW230456   1.900   1.197   0.264
 9853SOL     OW30457   6.431   4.269   3.816
 9853SOL    HW130458   6.464   4.174   3.821
 9853SOL    HW230459   6.444   4.313   3.905
 9854SOL     OW30460   1.070   5.249   6.175
 9854SOL    HW130461   1.008   5.184   6.132
 9854SOL    HW230462   1.087   5.221   6.270
 9855SOL     OW30463   1.579   4.505   1.535
 9855SOL    HW130464   1.676   4.501   1.558
 9855SOL    HW230465   1.536   4.583   1.582
 9856SOL     OW30466   5.628   4.357   3.346
 9856SOL    HW130467   5.566   4.384   3.272
 9856SOL    HW230468   5.661   4.439   3.392
 9857SOL     OW30469   3.768   0.962   4.635
 9857SOL    HW130470   3.842   0.899   4.610
 9857SOL    HW230471   3.788   1.005   4.722
 9858SOL     OW30472   6.459   6.513   2.157
 9858SOL    HW130473   6.410   6.527   2.243
 9858SOL    HW230474   6.405   6.552   2.082
 9859SOL     OW30475   6.576   5.978   3.065
 9859SOL    HW130476   6.607   5.964   2.971
 9859SOL    HW230477   6.493   6.035   3.065
 9860SOL     OW30478   1.420   3.378   4.315
 9860SOL    HW130479   1.378   3.429   4.389
 9860SOL    HW230480   1.381   3.407   4.228
 9861SOL     OW30481   3.333   1.383   4.631
 9861SOL    HW130482   3.429   1.364   4.610
 9861SOL    HW230483   3.300   1.458   4.573
 9862SOL     OW30484   1.009   5.275   0.632
 9862SOL    HW130485   0.996   5.319   0.544
 9862SOL    HW230486   0.963   5.328   0.703
 9863SOL     OW30487   4.040   6.220   0.400
 9863SOL    HW130488   4.088   6.248   0.484
 9863SOL    HW230489   4.099   6.159   0.347
 9864SOL     OW30490   2.664   5.765   5.368
 9864SOL    HW130491   2.652   5.667   5.352
 9864SOL    HW230492   2.738   5.800   5.311
 9865SOL     OW30493   0.499   6.187   5.203
 9865SOL    HW130494   0.579   6.130   5.185
 9865SOL    HW230495   0.508   6.274   5.154
 9866SOL     OW30496   6.207   5.321   4.283
 9866SOL    HW130497   6.269   5.288   4.211
 9866SOL    HW230498   6.113   5.295   4.261
 9867SOL     OW30499   4.833   2.170   1.904
 9867SOL    HW130500   4.812   2.102   1.974
 9867SOL    HW230501   4.840   2.260   1.946
 9868SOL     OW30502   1.885   4.242   3.315
 9868SOL    HW130503   1.906   4.246   3.217
 9868SOL    HW230504   1.962   4.202   3.364
 9869SOL     OW30505   6.954   2.460   0.924
 9869SOL    HW130506   6.979   2.487   0.831
 9869SOL    HW230507   6.888   2.384   0.920
 9870SOL     OW30508   3.153   1.242   2.632
 9870SOL    HW130509   3.100   1.274   2.710
 9870SOL    HW230510   3.167   1.143   2.639
 9871SOL     OW30511   0.366   4.527   4.492
 9871SOL    HW130512   0.444   4.480   4.450
 9871SOL    HW230513   0.298   4.460   4.521
 9872SOL     OW30514   1.525   4.920   5.622
 9872SOL    HW130515   1.525   4.853   5.697
 9872SOL    HW230516   1.610   4.912   5.570
 9873SOL     OW30517   1.103   1.383   6.179
 9873SOL    HW130518   1.085   1.479   6.158
 9873SOL    HW230519   1.136   1.337   6.097
 9874SOL     OW30520   0.923   2.778   4.720
 9874SOL    HW130521   1.006   2.770   4.665
 9874SOL    HW230522   0.926   2.863   4.773
 9875SOL     OW30523   6.404   4.992   0.543
 9875SOL    HW130524   6.452   5.080   0.554
 9875SOL    HW230525   6.469   4.922   0.514
 9876SOL     OW30526   1.518   6.655   3.455
 9876SOL    HW130527   1.428   6.691   3.430
 9876SOL    HW230528   1.507   6.581   3.521
 9877SOL     OW30529   0.630   5.618   5.246
 9877SOL    HW130530   0.684   5.569   5.315
 9877SOL    HW230531   0.683   5.695   5.212
 9878SOL     OW30532   2.365   2.698   6.987
 9878SOL    HW130533   2.385   2.672   6.893
 9878SOL    HW230534   2.271   2.731   6.994
 9879SOL     OW30535   0.090   5.163   6.340
 9879SOL    HW130536   0.043   5.251   6.347
 9879SOL    HW230537   0.139   5.158   6.253
 9880SOL     OW30538   2.425   1.373   0.374
 9880SOL    HW130539   2.480   1.403   0.296
 9880SOL    HW230540   2.471   1.297   0.420
 9881SOL     OW30541   5.798   0.415   4.119
 9881SOL    HW130542   5.856   0.424   4.038
 9881SOL    HW230543   5.707   0.451   4.100
 9882SOL     OW30544   3.322   2.843   4.908
 9882SOL    HW130545   3.287   2.817   4.998
 9882SOL    HW230546   3.421   2.827   4.906
 9883SOL     OW30547   2.085   6.623   1.889
 9883SOL    HW130548   2.156   6.691   1.871
 9883SOL    HW230549   2.127   6.537   1.918
 9884SOL     OW30550   2.475   3.719   5.534
 9884SOL    HW130551   2.550   3.677   5.586
 9884SOL    HW230552   2.391   3.667   5.548
 9885SOL     OW30553   5.682   2.986   4.092
 9885SOL    HW130554   5.588   2.962   4.068
 9885SOL    HW230555   5.727   2.907   4.135
 9886SOL     OW30556   4.477   5.798   1.324
 9886SOL    HW130557   4.549   5.866   1.311
 9886SOL    HW230558   4.415   5.799   1.246
 9887SOL     OW30559   3.351   0.090   6.802
 9887SOL    HW130560   3.424   0.143   6.759
 9887SOL    HW230561   3.270   0.090   6.743
 9888SOL     OW30562   6.243   5.287   2.597
 9888SOL    HW130563   6.151   5.248   2.590
 9888SOL    HW230564   6.237   5.385   2.613
 9889SOL     OW30565   6.970   5.487   3.447
 9889SOL    HW130566   6.913   5.521   3.372
 9889SOL    HW230567   0.037   5.444   3.410
 9890SOL     OW30568   6.870   3.966   1.926
 9890SOL    HW130569   6.924   4.012   1.997
 9890SOL    HW230570   6.775   3.961   1.954
 9891SOL     OW30571   5.901   4.664   1.193
 9891SOL    HW130572   5.989   4.690   1.232
 9891SOL    HW230573   5.893   4.565   1.190
 9892SOL     OW30574   2.142   4.781   3.980
 9892SOL    HW130575   2.092   4.807   3.898
 9892SOL    HW230576   2.114   4.839   4.056
 9893SOL     OW30577   4.826   5.215   3.771
 9893SOL    HW130578   4.788   5.157   3.699
 9893SOL    HW230579   4.783   5.305   3.768
 9894SOL     OW30580   4.379   3.282   5.992
 9894SOL    HW130581   4.369   3.375   5.956
 9894SOL    HW230582   4.342   3.278   6.085
 9895SOL     OW30583   5.467   2.172   6.762
 9895SOL    HW130584   5.440   2.114   6.685
 9895SOL    HW230585   5.390   2.229   6.789
 9896SOL     OW30586   4.597   3.992   0.745
 9896SOL    HW130587   4.598   3.892   0.752
 9896SOL    HW230588   4.653   4.031   0.818
 9897SOL     OW30589   6.194   2.273   3.674
 9897SOL    HW130590   6.287   2.286   3.641
 9897SOL    HW230591   6.160   2.359   3.712
 9898SOL     OW30592   1.236   4.825   5.672
 9898SOL    HW130593   1.137   4.828   5.659
 9898SOL    HW230594   1.262   4.894   5.741
 9899SOL     OW30595   5.004   5.197   1.666
 9899SOL    HW130596   5.008   5.262   1.590
 9899SOL    HW230597   5.090   5.202   1.717
 9900SOL     OW30598   1.584   2.907   3.804
 9900SOL    HW130599   1.502   2.942   3.760
 9900SOL    HW230600   1.659   2.973   3.792
 9901SOL     OW30601   3.123   2.429   5.415
 9901SOL    HW130602   3.167   2.419   5.326
 9901SOL    HW230603   3.032   2.388   5.412
 9902SOL     OW30604   4.246   3.594   0.069
 9902SOL    HW130605   4.281   3.615   0.161
 9902SOL    HW230606   4.317   3.546   0.017
 9903SOL     OW30607   3.986   1.871   2.132
 9903SOL    HW130608   3.899   1.823   2.137
 9903SOL    HW230609   3.970   1.968   2.112
 9904SOL     OW30610   6.358   1.057   1.231
 9904SOL    HW130611   6.363   0.964   1.267
 9904SOL    HW230612   6.418   1.116   1.284
 9905SOL     OW30613   1.406   6.909   5.041
 9905SOL    HW130614   1.498   6.934   5.010
 9905SOL    HW230615   1.355   6.993   5.063
 9906SOL     OW30616   2.582   2.972   6.230
 9906SOL    HW130617   2.661   2.938   6.180
 9906SOL    HW230618   2.560   3.065   6.199
 9907SOL     OW30619   2.574   6.189   2.567
 9907SOL    HW130620   2.600   6.194   2.664
 9907SOL    HW230621   2.627   6.117   2.523
 9908SOL     OW30622   1.252   3.269   5.642
 9908SOL    HW130623   1.248   3.283   5.543
 9908SOL    HW230624   1.206   3.345   5.688
 9909SOL     OW30625   3.820   0.147   2.619
 9909SOL    HW130626   3.777   0.059   2.602
 9909SOL    HW230627   3.917   0.135   2.640
 9910SOL     OW30628   0.085   3.947   1.435
 9910SOL    HW130629   7.004   3.920   1.434
 9910SOL    HW230630   0.118   3.953   1.341
 9911SOL     OW30631   3.436   4.933   3.410
 9911SOL    HW130632   3.348   4.897   3.377
 9911SOL    HW230633   3.420   5.016   3.464
 9912SOL     OW30634   5.202   0.320   1.537
 9912SOL    HW130635   5.255   0.236   1.531
 9912SOL    HW230636   5.261   0.395   1.568
 9913SOL     OW30637   4.955   1.864   3.030
 9913SOL    HW130638   5.044   1.909   3.030
 9913SOL    HW230639   4.885   1.928   3.061
 9914SOL     OW30640   1.623   0.063   4.934
 9914SOL    HW130641   1.710   0.050   4.887
 9914SOL    HW230642   1.585   0.152   4.910
 9915SOL     OW30643   5.259   3.432   4.434
 9915SOL    HW130644   5.267   3.435   4.335
 9915SOL    HW230645   5.190   3.364   4.460
 9916SOL     OW30646   2.081   3.035   2.056
 9916SOL    HW130647   2.039   2.978   1.986
 9916SOL    HW230648   2.099   3.126   2.019
 9917SOL     OW30649   2.519   3.385   5.795
 9917SOL    HW130650   2.617   3.383   5.773
 9917SOL    HW230651   2.467   3.353   5.717
 9918SOL     OW30652   1.859   1.263   5.984
 9918SOL    HW130653   1.945   1.217   6.009
 9918SOL    HW230654   1.810   1.289   6.067
 9919SOL     OW30655   0.587   5.673   2.873
 9919SOL    HW130656   0.551   5.765   2.888
 9919SOL    HW230657   0.595   5.625   2.961
 9920SOL     OW30658   4.350   6.942   1.157
 9920SOL    HW130659   4.354   0.025   1.171
 9920SOL    HW230660   4.283   6.902   1.221
 9921SOL     OW30661   5.448   0.476   3.293
 9921SOL    HW130662   5.461   0.554   3.231
 9921SOL    HW230663   5.535   0.454   3.338
 9922SOL     OW30664   4.443   4.211   0.934
 9922SOL    HW130665   4.364   4.168   0.979
 9922SOL    HW230666   4.526   4.192   0.986
 9923SOL     OW30667   6.276   2.034   6.406
 9923SOL    HW130668   6.227   2.047   6.491
 9923SOL    HW230669   6.343   1.960   6.416
 9924SOL     OW30670   6.784   0.960   3.284
 9924SOL    HW130671   6.695   0.955   3.240
 9924SOL    HW230672   6.776   0.934   3.380
 9925SOL     OW30673   2.235   2.610   5.203
 9925SOL    HW130674   2.226   2.512   5.217
 9925SOL    HW230675   2.244   2.629   5.105
 9926SOL     OW30676   1.338   1.030   0.233
 9926SOL    HW130677   1.312   0.996   0.323
 9926SOL    HW230678   1.351   1.129   0.236
 9927SOL     OW30679   0.578   1.842   2.132
 9927SOL    HW130680   0.633   1.914   2.090
 9927SOL    HW230681   0.551   1.871   2.224
 9928SOL     OW30682   0.226   3.824   2.568
 9928SOL    HW130683   0.145   3.870   2.531
 9928SOL    HW230684   0.259   3.875   2.648
 9929SOL     OW30685   2.618   3.813   6.976
 9929SOL    HW130686   2.561   3.837   0.039
 9929SOL    HW230687   2.660   3.723   6.992
 9930SOL     OW30688   0.318   6.340   6.211
 9930SOL    HW130689   0.370   6.374   6.133
 9930SOL    HW230690   0.335   6.242   6.221
 9931SOL     OW30691   1.546   5.635   5.556
 9931SOL    HW130692   1.479   5.593   5.495
 9931SOL    HW230693   1.626   5.576   5.563
 9932SOL     OW30694   1.369   1.599   0.365
 9932SOL    HW130695   1.451   1.546   0.343
 9932SOL    HW230696   1.396   1.686   0.405
 9933SOL     OW30697   1.129   2.179   3.923
 9933SOL    HW130698   1.044   2.205   3.879
 9933SOL    HW230699   1.204   2.186   3.858
 9934SOL     OW30700   3.980   1.327   5.882
 9934SOL    HW130701   4.024   1.238   5.896
 9934SOL    HW230702   3.881   1.316   5.888
 9935SOL     OW30703   2.848   1.851   1.059
 9935SOL    HW130704   2.897   1.842   1.145
 9935SOL    HW230705   2.832   1.948   1.040
 9936SOL     OW30706   5.944   5.875   6.481
 9936SOL    HW130707   5.906   5.892   6.573
 9936SOL    HW230708   5.976   5.961   6.442
 9937SOL     OW30709   0.459   0.399   3.376
 9937SOL    HW130710   0.547   0.402   3.328
 9937SOL    HW230711   0.419   0.308   3.366
 9938SOL     OW30712   6.448   1.376   4.385
 9938SOL    HW130713   6.437   1.433   4.466
 9938SOL    HW230714   6.375   1.307   4.381
 9939SOL     OW30715   2.952   4.526   1.313
 9939SOL    HW130716   2.927   4.543   1.409
 9939SOL    HW230717   3.004   4.603   1.278
 9940SOL     OW30718   0.007   0.793   3.615
 9940SOL    HW130719   0.010   0.885   3.577
 9940SOL    HW230720   0.017   0.798   3.715
 9941SOL     OW30721   5.018   4.500   6.165
 9941SOL    HW130722   4.965   4.426   6.205
 9941SOL    HW230723   5.003   4.584   6.217
 9942SOL     OW30724   4.630   5.425   3.315
 9942SOL    HW130725   4.592   5.451   3.226
 9942SOL    HW230726   4.694   5.349   3.303
 9943SOL     OW30727   2.614   4.050   6.859
 9943SOL    HW130728   2.638   3.973   6.918
 9943SOL    HW230729   2.686   4.063   6.791
 9944SOL     OW30730   1.159   5.355   6.809
 9944SOL    HW130731   1.195   5.366   6.902
 9944SOL    HW230732   1.076   5.409   6.799
 9945SOL     OW30733   5.873   3.588   6.582
 9945SOL    HW130734   5.884   3.687   6.579
 9945SOL    HW230735   5.886   3.556   6.675
 9946SOL     OW30736   5.410   1.617   2.232
 9946SOL    HW130737   5.392   1.531   2.280
 9946SOL    HW230738   5.504   1.647   2.253
 9947SOL     OW30739   1.112   1.857   3.579
 9947SOL    HW130740   1.034   1.858   3.516
 9947SOL    HW230741   1.079   1.866   3.673
 9948SOL     OW30742   6.600   0.004   4.345
 9948SOL    HW130743   6.511   0.033   4.378
 9948SOL    HW230744   6.656   0.084   4.324
 9949SOL     OW30745   5.747   4.996   3.994
 9949SOL    HW130746   5.842   5.026   3.988
 9949SOL    HW230747   5.700   5.047   4.066
 9950SOL     OW30748   6.463   4.311   5.415
 9950SOL    HW130749   6.467   4.324   5.514
 9950SOL    HW230750   6.546   4.349   5.374
 9951SOL     OW30751   0.669   2.562   2.487
 9951SOL    HW130752   0.584   2.612   2.504
 9951SOL    HW230753   0.674   2.482   2.547
 9952SOL     OW30754   0.518   4.749   2.148
 9952SOL    HW130755   0.462   4.826   2.178
 9952SOL    HW230756   0.545   4.763   2.052
 9953SOL     OW30757   6.020   2.498   3.302
 9953SOL    HW130758   6.070   2.584   3.299
 9953SOL    HW230759   5.972   2.490   3.390
 9954SOL     OW30760   3.546   1.755   5.685
 9954SOL    HW130761   3.526   1.769   5.588
 9954SOL    HW230762   3.638   1.787   5.705
 9955SOL     OW30763   6.249   3.652   0.799
 9955SOL    HW130764   6.308   3.572   0.810
 9955SOL    HW230765   6.172   3.628   0.740
 9956SOL     OW30766   2.091   3.798   3.008
 9956SOL    HW130767   1.997   3.832   3.013
 9956SOL    HW230768   2.097   3.725   2.940
 9957SOL     OW30769   4.759   7.005   1.011
 9957SOL    HW130770   4.834   0.055   1.009
 9957SOL    HW230771   4.714   7.008   1.100
 9958SOL     OW30772   5.143   4.892   6.855
 9958SOL    HW130773   5.143   4.989   6.878
 9958SOL    HW230774   5.071   4.845   6.906
 9959SOL     OW30775   4.513   4.341   0.494
 9959SOL    HW130776   4.482   4.384   0.409
 9959SOL    HW230777   4.535   4.245   0.477
 9960SOL     OW30778   0.677   1.132   6.634
 9960SOL    HW130779   0.640   1.223   6.612
 9960SOL    HW230780   0.683   1.078   6.550
 9961SOL     OW30781   3.077   4.822   1.338
 9961SOL    HW130782   3.049   4.814   1.434
 9961SOL    HW230783   3.136   4.902   1.328
 9962SOL     OW30784   3.561   6.735   1.027
 9962SOL    HW130785   3.462   6.748   1.024
 9962SOL    HW230786   3.582   6.646   1.069
 9963SOL     OW30787   0.772   1.361   6.342
 9963SOL    HW130788   0.861   1.350   6.385
 9963SOL    HW230789   0.779   1.426   6.266
 9964SOL     OW30790   4.626   3.861   5.643
 9964SOL    HW130791   4.674   3.811   5.714
 9964SOL    HW230792   4.541   3.814   5.620
 9965SOL     OW30793   2.868   5.730   4.790
 9965SOL    HW130794   2.824   5.758   4.705
 9965SOL    HW230795   2.942   5.665   4.770
 9966SOL     OW30796   4.089   4.862   2.637
 9966SOL    HW130797   4.035   4.870   2.553
 9966SOL    HW230798   4.143   4.944   2.651
 9967SOL     OW30799   0.072   0.192   2.996
 9967SOL    HW130800   0.090   0.276   3.047
 9967SOL    HW230801   0.043   0.216   2.903
 9968SOL     OW30802   3.561   6.838   0.365
 9968SOL    HW130803   3.547   6.886   0.279
 9968SOL    HW230804   3.549   6.740   0.351
 9969SOL     OW30805   1.554   4.967   3.619
 9969SOL    HW130806   1.479   4.998   3.678
 9969SOL    HW230807   1.628   4.931   3.676
 9970SOL     OW30808   6.404   3.807   1.644
 9970SOL    HW130809   6.459   3.724   1.635
 9970SOL    HW230810   6.331   3.806   1.576
 9971SOL     OW30811   0.591   4.592   2.364
 9971SOL    HW130812   0.561   4.652   2.290
 9971SOL    HW230813   0.543   4.504   2.358
 9972SOL     OW30814   2.803   2.925   7.003
 9972SOL    HW130815   2.858   2.956   0.065
 9972SOL    HW230816   2.753   3.002   6.964
 9973SOL     OW30817   3.514   2.144   3.754
 9973SOL    HW130818   3.429   2.173   3.712
 9973SOL    HW230819   3.579   2.117   3.682
 9974SOL     OW30820   0.690   2.989   3.199
 9974SOL    HW130821   0.634   3.026   3.125
 9974SOL    HW230822   0.783   3.024   3.190
 9975SOL     OW30823   1.747   5.285   0.127
 9975SOL    HW130824   1.669   5.342   0.103
 9975SOL    HW230825   1.727   5.190   0.103
 9976SOL     OW30826   2.998   4.019   6.563
 9976SOL    HW130827   3.078   4.077   6.576
 9976SOL    HW230828   2.997   3.983   6.470
 9977SOL     OW30829   5.287   5.956   5.619
 9977SOL    HW130830   5.343   5.897   5.677
 9977SOL    HW230831   5.324   5.957   5.526
 9978SOL     OW30832   0.600   3.303   6.489
 9978SOL    HW130833   0.571   3.214   6.453
 9978SOL    HW230834   0.698   3.302   6.506
 9979SOL     OW30835   4.410   3.223   5.386
 9979SOL    HW130836   4.405   3.127   5.415
 9979SOL    HW230837   4.505   3.246   5.364
 9980SOL     OW30838   2.113   0.844   0.587
 9980SOL    HW130839   2.188   0.884   0.534
 9980SOL    HW230840   2.041   0.813   0.525
 9981SOL     OW30841   0.690   2.607   1.994
 9981SOL    HW130842   0.676   2.559   1.908
 9981SOL    HW230843   0.773   2.663   1.988
 9982SOL     OW30844   2.342   1.997   5.208
 9982SOL    HW130845   2.404   2.065   5.248
 9982SOL    HW230846   2.298   2.035   5.127
 9983SOL     OW30847   0.742   2.896   1.781
 9983SOL    HW130848   0.818   2.899   1.716
 9983SOL    HW230849   0.772   2.849   1.865
 9984SOL     OW30850   6.901   6.047   0.714
 9984SOL    HW130851   6.864   6.118   0.654
 9984SOL    HW230852   6.832   6.020   0.781
 9985SOL     OW30853   4.317   5.398   0.496
 9985SOL    HW130854   4.255   5.453   0.552
 9985SOL    HW230855   4.266   5.321   0.458
 9986SOL     OW30856   5.369   4.475   0.522
 9986SOL    HW130857   5.312   4.424   0.458
 9986SOL    HW230858   5.312   4.538   0.575
 9987SOL     OW30859   5.347   2.876   1.877
 9987SOL    HW130860   5.378   2.951   1.936
 9987SOL    HW230861   5.286   2.817   1.928
 9988SOL     OW30862   5.121   6.438   4.235
 9988SOL    HW130863   5.187   6.363   4.224
 9988SOL    HW230864   5.107   6.455   4.333
 9989SOL     OW30865   6.248   4.954   2.087
 9989SOL    HW130866   6.310   5.005   2.146
 9989SOL    HW230867   6.300   4.886   2.035
 9990SOL     OW30868   0.338   0.139   3.619
 9990SOL    HW130869   0.257   0.083   3.634
 9990SOL    HW230870   0.362   0.137   3.522
 9991SOL     OW30871   1.447   4.402   4.198
 9991SOL    HW130872   1.359   4.374   4.158
 9991SOL    HW230873   1.519   4.340   4.168
 9992SOL     OW30874   3.360   4.821   1.081
 9992SOL    HW130875   3.340   4.797   0.986
 9992SOL    HW230876   3.287   4.878   1.118
 9993SOL     OW30877   4.029   6.889   4.415
 9993SOL    HW130878   4.113   6.944   4.412
 9993SOL    HW230879   4.035   6.823   4.489
 9994SOL     OW30880   6.648   5.177   4.541
 9994SOL    HW130881   6.652   5.137   4.633
 9994SOL    HW230882   6.568   5.140   4.492
 9995SOL     OW30883   2.849   0.521   5.187
 9995SOL    HW130884   2.794   0.453   5.138
 9995SOL    HW230885   2.850   0.607   5.135
 9996SOL     OW30886   1.926   3.940   0.561
 9996SOL    HW130887   1.971   3.957   0.649
 9996SOL    HW230888   1.969   3.998   0.491
 9997SOL     OW30889   6.034   3.049   4.265
 9997SOL    HW130890   5.954   3.022   4.212
 9997SOL    HW230891   6.006   3.105   4.343
 9998SOL     OW30892   5.097   3.880   2.319
 9998SOL    HW130893   5.018   3.940   2.335
 9998SOL    HW230894   5.071   3.807   2.256
 9999SOL     OW30895   0.735   6.324   4.532
 9999SOL    HW130896   0.747   6.412   4.487
 9999SOL    HW230897   0.810   6.263   4.506
10000SOL     OW30898   5.381   2.020   1.924
10000SOL    HW130899   5.286   2.017   1.954
10000SOL    HW230900   5.386   2.060   1.833
10001SOL     OW30901   3.764   5.929   2.446
10001SOL    HW130902   3.770   5.847   2.388
10001SOL    HW230903   3.840   5.990   2.424
10002SOL     OW30904   2.906   0.958   2.002
10002SOL    HW130905   2.987   0.986   1.951
10002SOL    HW230906   2.825   0.999   1.960
10003SOL     OW30907   1.193   1.103   3.229
10003SOL    HW130908   1.227   1.197   3.230
10003SOL    HW230909   1.098   1.102   3.197
10004SOL     OW30910   6.535   4.993   4.990
10004SOL    HW130911   6.475   5.054   4.938
10004SOL    HW230912   6.594   4.943   4.927
10005SOL     OW30913   1.987   5.866   3.355
10005SOL    HW130914   1.968   5.950   3.305
10005SOL    HW230915   1.919   5.797   3.331
10006SOL     OW30916   5.398   0.361   5.594
10006SOL    HW130917   5.310   0.400   5.567
10006SOL    HW230918   5.393   0.261   5.590
10007SOL     OW30919   1.720   5.070   4.956
10007SOL    HW130920   1.751   5.120   4.875
10007SOL    HW230921   1.622   5.086   4.970
10008SOL     OW30922   4.092   1.861   5.862
10008SOL    HW130923   4.114   1.954   5.834
10008SOL    HW230924   4.134   1.842   5.951
10009SOL     OW30925   1.207   4.349   1.593
10009SOL    HW130926   1.130   4.352   1.530
10009SOL    HW230927   1.287   4.310   1.547
10010SOL     OW30928   2.289   4.918   6.914
10010SOL    HW130929   2.277   4.865   6.831
10010SOL    HW230930   2.272   5.015   6.895
10011SOL     OW30931   1.296   3.324   0.471
10011SOL    HW130932   1.277   3.342   0.568
10011SOL    HW230933   1.354   3.243   0.464
10012SOL     OW30934   4.816   1.398   1.738
10012SOL    HW130935   4.794   1.311   1.781
10012SOL    HW230936   4.913   1.400   1.715
10013SOL     OW30937   1.163   5.893   4.425
10013SOL    HW130938   1.102   5.834   4.373
10013SOL    HW230939   1.132   5.899   4.520
10014SOL     OW30940   0.708   6.534   3.109
10014SOL    HW130941   0.789   6.592   3.097
10014SOL    HW230942   0.732   6.455   3.165
10015SOL     OW30943   3.820   4.465   5.632
10015SOL    HW130944   3.800   4.514   5.548
10015SOL    HW230945   3.864   4.377   5.611
10016SOL     OW30946   2.310   6.786   3.447
10016SOL    HW130947   2.385   6.749   3.502
10016SOL    HW230948   2.279   6.872   3.487
10017SOL     OW30949   2.870   1.434   3.129
10017SOL    HW130950   2.854   1.521   3.175
10017SOL    HW230951   2.969   1.419   3.119
10018SOL     OW30952   6.445   3.309   6.053
10018SOL    HW130953   6.477   3.314   6.147
10018SOL    HW230954   6.390   3.226   6.042
10019SOL     OW30955   0.572   1.714   2.564
10019SOL    HW130956   0.636   1.710   2.641
10019SOL    HW230957   0.598   1.645   2.496
10020SOL     OW30958   6.553   0.317   1.862
10020SOL    HW130959   6.457   0.344   1.871
10020SOL    HW230960   6.579   0.261   1.941
10021SOL     OW30961   1.459   4.029   1.918
10021SOL    HW130962   1.515   3.949   1.942
10021SOL    HW230963   1.380   4.033   1.979
10022SOL     OW30964   3.095   6.344   0.157
10022SOL    HW130965   3.077   6.246   0.160
10022SOL    HW230966   3.018   6.393   0.199
10023SOL     OW30967   2.438   0.050   5.811
10023SOL    HW130968   2.410   0.109   5.887
10023SOL    HW230969   2.397   6.975   5.822
10024SOL     OW30970   1.754   4.495   2.997
10024SOL    HW130971   1.701   4.430   2.944
10024SOL    HW230972   1.769   4.578   2.943
10025SOL     OW30973   1.437   4.290   1.438
10025SOL    HW130974   1.507   4.354   1.470
10025SOL    HW230975   1.402   4.321   1.350
10026SOL     OW30976   5.007   1.459   3.316
10026SOL    HW130977   5.038   1.552   3.300
10026SOL    HW230978   4.908   1.454   3.300
10027SOL     OW30979   1.840   1.743   5.640
10027SOL    HW130980   1.837   1.841   5.621
10027SOL    HW230981   1.845   1.728   5.739
10028SOL     OW30982   3.971   0.511   1.574
10028SOL    HW130983   4.057   0.525   1.526
10028SOL    HW230984   3.945   0.594   1.622
10029SOL     OW30985   0.216   3.244   4.664
10029SOL    HW130986   0.236   3.255   4.762
10029SOL    HW230987   0.122   3.272   4.646
10030SOL     OW30988   2.536   6.790   4.615
10030SOL    HW130989   2.487   6.847   4.681
10030SOL    HW230990   2.488   6.792   4.527
10031SOL     OW30991   3.998   5.238   4.193
10031SOL    HW130992   3.951   5.225   4.280
10031SOL    HW230993   4.033   5.332   4.188
10032SOL     OW30994   3.178   5.990   5.125
10032SOL    HW130995   3.263   5.966   5.173
10032SOL    HW230996   3.136   5.908   5.089
10033SOL     OW30997   4.137   1.649   3.284
10033SOL    HW130998   4.077   1.619   3.358
10033SOL    HW230999   4.165   1.571   3.229
10034SOL     OW31000   2.135   0.651   3.200
10034SOL    HW131001   2.041   0.618   3.206
10034SOL    HW231002   2.191   0.583   3.152
10035SOL     OW31003   6.170   3.188   1.126
10035SOL    HW131004   6.181   3.112   1.062
10035SOL    HW231005   6.163   3.152   1.219
10036SOL     OW31006   6.261   0.509   6.630
10036SOL    HW131007   6.349   0.470   6.601
10036SOL    HW231008   6.276   0.602   6.663
10037SOL     OW31009   6.425   6.917   6.869
10037SOL    HW131010   6.418   6.833   6.923
10037SOL    HW231011   6.456   6.991   6.928
10038SOL     OW31012   4.369   0.123   6.947
10038SOL    HW131013   4.323   0.195   6.999
10038SOL    HW231014   4.462   0.110   6.982
10039SOL     OW31015   5.393   5.355   4.183
10039SOL    HW131016   5.395   5.255   4.185
10039SOL    HW231017   5.298   5.387   4.184
10040SOL     OW31018   3.783   0.311   0.366
10040SOL    HW131019   3.781   0.391   0.425
10040SOL    HW231020   3.693   0.298   0.324
10041SOL     OW31021   6.305   4.698   5.615
10041SOL    HW131022   6.249   4.769   5.571
10041SOL    HW231023   6.368   4.659   5.548
10042SOL     OW31024   0.692   0.992   5.137
10042SOL    HW131025   0.652   1.065   5.193
10042SOL    HW231026   0.759   1.032   5.074
10043SOL     OW31027   1.235   0.836   3.394
10043SOL    HW131028   1.240   0.867   3.299
10043SOL    HW231029   1.174   0.897   3.445
10044SOL     OW31030   2.177   0.958   5.023
10044SOL    HW131031   2.129   1.043   5.005
10044SOL    HW231032   2.143   0.886   4.962
10045SOL     OW31033   4.537   6.787   4.307
10045SOL    HW131034   4.546   6.884   4.330
10045SOL    HW231035   4.619   6.756   4.260
10046SOL     OW31036   0.118   2.422   1.615
10046SOL    HW131037   0.166   2.442   1.700
10046SOL    HW231038   0.136   2.493   1.548
10047SOL     OW31039   6.346   2.050   4.709
10047SOL    HW131040   6.275   2.120   4.703
10047SOL    HW231041   6.332   1.996   4.792
10048SOL     OW31042   3.514   1.588   1.841
10048SOL    HW131043   3.461   1.504   1.855
10048SOL    HW231044   3.595   1.586   1.900
10049SOL     OW31045   1.997   0.928   6.559
10049SOL    HW131046   1.951   0.930   6.647
10049SOL    HW231047   2.094   0.906   6.573
10050SOL     OW31048   4.976   2.766   4.790
10050SOL    HW131049   4.988   2.795   4.695
10050SOL    HW231050   5.049   2.806   4.846
10051SOL     OW31051   6.579   2.836   4.458
10051SOL    HW131052   6.587   2.876   4.366
10051SOL    HW231053   6.659   2.860   4.512
10052SOL     OW31054   1.886   3.760   1.836
10052SOL    HW131055   1.879   3.844   1.782
10052SOL    HW231056   1.834   3.687   1.791
10053SOL     OW31057   3.341   5.207   3.455
10053SOL    HW131058   3.433   5.246   3.466
10053SOL    HW231059   3.273   5.280   3.463
10054SOL     OW31060   4.392   5.643   6.054
10054SOL    HW131061   4.359   5.718   6.111
10054SOL    HW231062   4.438   5.680   5.973
10055SOL     OW31063   6.739   2.411   5.163
10055SOL    HW131064   6.660   2.361   5.200
10055SOL    HW231065   6.753   2.384   5.068
10056SOL     OW31066   6.110   4.624   0.777
10056SOL    HW131067   6.170   4.650   0.701
10056SOL    HW231068   6.154   4.552   0.831
10057SOL     OW31069   4.150   1.959   4.557
10057SOL    HW131070   4.079   1.945   4.488
10057SOL    HW231071   4.149   2.054   4.588
10058SOL     OW31072   6.229   5.403   3.429
10058SOL    HW131073   6.216   5.472   3.359
10058SOL    HW231074   6.241   5.313   3.386
10059SOL     OW31075   5.248   0.370   1.127
10059SOL    HW131076   5.223   0.426   1.048
10059SOL    HW231077   5.173   0.369   1.193
10060SOL     OW31078   2.786   2.084   1.941
10060SOL    HW131079   2.810   2.167   1.991
10060SOL    HW231080   2.837   2.007   1.979
10061SOL     OW31081   5.898   0.788   4.339
10061SOL    HW131082   5.903   0.741   4.250
10061SOL    HW231083   5.947   0.875   4.332
10062SOL     OW31084   5.921   6.285   3.386
10062SOL    HW131085   6.014   6.321   3.385
10062SOL    HW231086   5.882   6.297   3.477
10063SOL     OW31087   1.059   3.179   3.720
10063SOL    HW131088   1.043   3.222   3.631
10063SOL    HW231089   1.072   3.080   3.707
10064SOL     OW31090   5.391   5.726   4.991
10064SOL    HW131091   5.438   5.745   4.904
10064SOL    HW231092   5.455   5.682   5.054
10065SOL     OW31093   1.665   6.697   2.161
10065SOL    HW131094   1.588   6.714   2.099
10065SOL    HW231095   1.634   6.709   2.256
10066SOL     OW31096   0.646   0.883   3.901
10066SOL    HW131097   0.563   0.937   3.883
10066SOL    HW231098   0.723   0.945   3.916
10067SOL     OW31099   5.256   5.076   4.561
10067SOL    HW131100   5.296   5.004   4.618
10067SOL    HW231101   5.196   5.035   4.492
10068SOL     OW31102   5.341   2.851   4.529
10068SOL    HW131103   5.336   2.817   4.623
10068SOL    HW231104   5.401   2.931   4.527
10069SOL     OW31105   2.292   1.073   3.732
10069SOL    HW131106   2.198   1.108   3.732
10069SOL    HW231107   2.295   0.987   3.681
10070SOL     OW31108   0.136   6.444   4.780
10070SOL    HW131109   0.198   6.460   4.704
10070SOL    HW231110   0.175   6.482   4.864
10071SOL     OW31111   4.317   5.411   3.590
10071SOL    HW131112   4.397   5.471   3.587
10071SOL    HW231113   4.263   5.431   3.672
10072SOL     OW31114   0.820   6.210   3.694
10072SOL    HW131115   0.773   6.166   3.770
10072SOL    HW231116   0.843   6.305   3.719
10073SOL     OW31117   5.922   4.828   5.115
10073SOL    HW131118   5.962   4.911   5.075
10073SOL    HW231119   5.986   4.752   5.104
10074SOL     OW31120   1.445   6.590   5.730
10074SOL    HW131121   1.373   6.636   5.677
10074SOL    HW231122   1.407   6.559   5.817
10075SOL     OW31123   1.279   2.385   3.049
10075SOL    HW131124   1.230   2.378   3.136
10075SOL    HW231125   1.214   2.379   2.974
10076SOL     OW31126   4.623   0.090   4.388
10076SOL    HW131127   4.570   0.159   4.436
10076SOL    HW231128   4.669   0.131   4.309
10077SOL     OW31129   3.836   2.488   6.638
10077SOL    HW131130   3.824   2.562   6.572
10077SOL    HW231131   3.896   2.518   6.712
10078SOL     OW31132   6.356   6.122   4.604
10078SOL    HW131133   6.401   6.049   4.655
10078SOL    HW231134   6.381   6.211   4.643
10079SOL     OW31135   1.429   2.912   1.928
10079SOL    HW131136   1.459   2.909   1.832
10079SOL    HW231137   1.508   2.929   1.987
10080SOL     OW31138   1.986   2.556   0.451
10080SOL    HW131139   2.068   2.607   0.476
10080SOL    HW231140   1.993   2.524   0.357
10081SOL     OW31141   0.891   0.427   6.478
10081SOL    HW131142   0.811   0.451   6.423
10081SOL    HW231143   0.871   0.344   6.531
10082SOL     OW31144   6.315   2.360   1.826
10082SOL    HW131145   6.242   2.367   1.894
10082SOL    HW231146   6.278   2.325   1.740
10083SOL     OW31147   4.697   1.187   3.807
10083SOL    HW131148   4.658   1.155   3.721
10083SOL    HW231149   4.696   1.112   3.874
10084SOL     OW31150   3.170   0.794   6.434
10084SOL    HW131151   3.075   0.769   6.449
10084SOL    HW231152   3.213   0.727   6.374
10085SOL     OW31153   0.883   4.946   2.980
10085SOL    HW131154   0.814   4.887   2.939
10085SOL    HW231155   0.890   4.926   3.078
10086SOL     OW31156   6.021   5.158   2.318
10086SOL    HW131157   6.003   5.134   2.222
10086SOL    HW231158   6.102   5.216   2.324
10087SOL     OW31159   0.907   1.043   4.288
10087SOL    HW131160   0.954   1.092   4.362
10087SOL    HW231161   0.810   1.068   4.289
10088SOL     OW31162   0.181   6.950   5.029
10088SOL    HW131163   0.160   0.030   5.009
10088SOL    HW231164   0.236   6.912   4.955
10089SOL     OW31165   2.816   1.504   2.680
10089SOL    HW131166   2.730   1.474   2.639
10089SOL    HW231167   2.797   1.548   2.768
10090SOL     OW31168   1.145   4.353   0.718
10090SOL    HW131169   1.109   4.428   0.664
10090SOL    HW231170   1.219   4.308   0.667
10091SOL     OW31171   1.072   3.636   4.503
10091SOL    HW131172   1.079   3.598   4.411
10091SOL    HW231173   1.052   3.734   4.498
10092SOL     OW31174   1.793   3.740   5.504
10092SOL    HW131175   1.878   3.715   5.458
10092SOL    HW231176   1.729   3.663   5.503
10093SOL     OW31177   0.658   5.133   5.193
10093SOL    HW131178   0.647   5.059   5.259
10093SOL    HW231179   0.756   5.148   5.177
10094SOL     OW31180   2.550   0.511   2.280
10094SOL    HW131181   2.482   0.483   2.212
10094SOL    HW231182   2.630   0.550   2.234
10095SOL     OW31183   6.038   1.393   5.428
10095SOL    HW131184   6.121   1.401   5.483
10095SOL    HW231185   5.958   1.408   5.486
10096SOL     OW31186   6.649   5.289   2.671
10096SOL    HW131187   6.709   5.256   2.744
10096SOL    HW231188   6.553   5.274   2.698
10097SOL     OW31189   1.168   0.940   0.569
10097SOL    HW131190   1.148   0.901   0.659
10097SOL    HW231191   1.084   0.974   0.527
10098SOL     OW31192   1.716   5.858   5.774
10098SOL    HW131193   1.744   5.952   5.755
10098SOL    HW231194   1.630   5.838   5.726
10099SOL     OW31195   6.963   3.615   5.818
10099SOL    HW131196   6.866   3.591   5.822
10099SOL    HW231197   7.007   3.563   5.745
10100SOL     OW31198   4.492   0.446   5.068
10100SOL    HW131199   4.442   0.438   5.154
10100SOL    HW231200   4.551   0.527   5.071
10101SOL     OW31201   0.012   4.577   2.366
10101SOL    HW131202   0.019   4.611   2.272
10101SOL    HW231203   0.092   4.606   2.418
10102SOL     OW31204   3.191   0.997   2.949
10102SOL    HW131205   3.107   1.022   2.901
10102SOL    HW231206   3.192   0.898   2.964
10103SOL     OW31207   3.101   1.456   5.101
10103SOL    HW131208   3.085   1.547   5.137
10103SOL    HW231209   3.018   1.424   5.055
10104SOL     OW31210   0.638   4.143   5.284
10104SOL    HW131211   0.729   4.104   5.298
10104SOL    HW231212   0.590   4.147   5.372
10105SOL     OW31213   1.256   1.416   6.617
10105SOL    HW131214   1.273   1.509   6.650
10105SOL    HW231215   1.343   1.370   6.603
10106SOL     OW31216   5.319   4.943   0.472
10106SOL    HW131217   5.418   4.939   0.463
10106SOL    HW231218   5.288   4.871   0.534
10107SOL     OW31219   6.296   1.070   5.637
10107SOL    HW131220   6.323   1.046   5.543
10107SOL    HW231221   6.325   0.998   5.700
10108SOL     OW31222   6.245   6.217   0.073
10108SOL    HW131223   6.274   6.290   0.012
10108SOL    HW231224   6.148   6.228   0.095
10109SOL     OW31225   3.937   6.147   2.865
10109SOL    HW131226   4.033   6.121   2.869
10109SOL    HW231227   3.881   6.065   2.850
10110SOL     OW31228   3.387   6.545   5.205
10110SOL    HW131229   3.356   6.556   5.110
10110SOL    HW231230   3.442   6.462   5.212
10111SOL     OW31231   6.820   3.762   3.513
10111SOL    HW131232   6.889   3.814   3.562
10111SOL    HW231233   6.827   3.780   3.415
10112SOL     OW31234   5.979   3.674   5.455
10112SOL    HW131235   5.961   3.576   5.442
10112SOL    HW231236   5.940   3.725   5.378
10113SOL     OW31237   3.881   0.883   0.127
10113SOL    HW131238   3.909   0.862   0.221
10113SOL    HW231239   3.912   0.810   0.067
10114SOL     OW31240   5.357   1.302   0.530
10114SOL    HW131241   5.420   1.265   0.462
10114SOL    HW231242   5.409   1.341   0.606
10115SOL     OW31243   2.206   2.346   3.404
10115SOL    HW131244   2.228   2.435   3.445
10115SOL    HW231245   2.290   2.291   3.399
10116SOL     OW31246   0.983   6.873   1.070
10116SOL    HW131247   1.057   6.858   1.136
10116SOL    HW231248   0.949   6.966   1.079
10117SOL     OW31249   6.367   0.286   4.243
10117SOL    HW131250   6.288   0.311   4.299
10117SOL    HW231251   6.341   0.213   4.179
10118SOL     OW31252   0.467   4.863   2.889
10118SOL    HW131253   0.489   4.952   2.929
10118SOL    HW231254   0.551   4.811   2.876
10119SOL     OW31255   2.040   6.911   4.176
10119SOL    HW131256   2.062   6.888   4.271
10119SOL    HW231257   1.967   6.979   4.175
10120SOL     OW31258   0.483   3.336   3.944
10120SOL    HW131259   0.485   3.428   3.904
10120SOL    HW231260   0.561   3.284   3.911
10121SOL     OW31261   6.863   4.612   4.935
10121SOL    HW131262   6.864   4.711   4.922
10121SOL    HW231263   6.870   4.567   4.846
10122SOL     OW31264   5.960   3.027   0.077
10122SOL    HW131265   5.965   2.927   0.078
10122SOL    HW231266   5.883   3.056   0.133
10123SOL     OW31267   0.158   6.119   0.812
10123SOL    HW131268   0.065   6.127   0.777
10123SOL    HW231269   0.162   6.156   0.905
10124SOL     OW31270   2.405   4.220   6.912
10124SOL    HW131271   2.486   4.168   6.885
10124SOL    HW231272   2.354   4.248   6.831
10125SOL     OW31273   1.533   0.555   3.001
10125SOL    HW131274   1.562   0.579   3.094
10125SOL    HW231275   1.510   0.458   2.997
10126SOL     OW31276   5.880   5.679   6.303
10126SOL    HW131277   5.956   5.617   6.322
10126SOL    HW231278   5.877   5.751   6.372
10127SOL     OW31279   3.163   5.542   5.719
10127SOL    HW131280   3.168   5.452   5.676
10127SOL    HW231281   3.252   5.567   5.756
10128SOL     OW31282   0.566   1.433   1.009
10128SOL    HW131283   0.487   1.457   0.952
10128SOL    HW231284   0.571   1.334   1.018
10129SOL     OW31285   4.607   2.714   3.859
10129SOL    HW131286   4.635   2.760   3.943
10129SOL    HW231287   4.555   2.632   3.881
10130SOL     OW31288   1.633   5.059   2.618
10130SOL    HW131289   1.588   5.070   2.706
10130SOL    HW231290   1.577   5.002   2.558
10131SOL     OW31291   0.268   2.181   2.284
10131SOL    HW131292   0.244   2.111   2.217
10131SOL    HW231293   0.241   2.271   2.249
10132SOL     OW31294   2.997   6.559   3.059
10132SOL    HW131295   3.093   6.550   3.082
10132SOL    HW231296   2.981   6.648   3.018
10133SOL     OW31297   4.110   6.481   3.035
10133SOL    HW131298   4.026   6.534   3.048
10133SOL    HW231299   4.127   6.470   2.937
10134SOL     OW31300   6.524   0.350   3.651
10134SOL    HW131301   6.506   0.317   3.559
10134SOL    HW231302   6.438   0.371   3.697
10135SOL     OW31303   4.867   3.785   2.842
10135SOL    HW131304   4.831   3.865   2.794
10135SOL    HW231305   4.886   3.712   2.777
10136SOL     OW31306   5.855   0.048   3.252
10136SOL    HW131307   5.774   0.040   3.193
10136SOL    HW231308   5.923   6.995   3.225
10137SOL     OW31309   6.767   5.548   4.165
10137SOL    HW131310   6.861   5.539   4.198
10137SOL    HW231311   6.713   5.472   4.201
10138SOL     OW31312   5.287   2.089   0.906
10138SOL    HW131313   5.208   2.052   0.857
10138SOL    HW231314   5.358   2.116   0.840
10139SOL     OW31315   3.783   2.907   2.440
10139SOL    HW131316   3.695   2.888   2.483
10139SOL    HW231317   3.842   2.955   2.505
10140SOL     OW31318   6.524   5.820   5.941
10140SOL    HW131319   6.475   5.907   5.933
10140SOL    HW231320   6.463   5.745   5.917
10141SOL     OW31321   3.257   1.950   4.288
10141SOL    HW131322   3.162   1.975   4.269
10141SOL    HW231323   3.290   2.005   4.365
10142SOL     OW31324   5.184   6.637   5.453
10142SOL    HW131325   5.103   6.695   5.455
10142SOL    HW231326   5.262   6.686   5.493
10143SOL     OW31327   4.535   0.290   1.190
10143SOL    HW131328   4.606   0.346   1.147
10143SOL    HW231329   4.566   0.260   1.281
10144SOL     OW31330   4.033   6.149   5.655
10144SOL    HW131331   4.089   6.108   5.583
10144SOL    HW231332   3.947   6.181   5.615
10145SOL     OW31333   3.125   5.788   5.603
10145SOL    HW131334   3.204   5.793   5.541
10145SOL    HW231335   3.125   5.700   5.650
10146SOL     OW31336   4.117   5.011   5.311
10146SOL    HW131337   4.079   5.096   5.275
10146SOL    HW231338   4.185   5.033   5.382
10147SOL     OW31339   5.171   4.874   4.399
10147SOL    HW131340   5.111   4.887   4.320
10147SOL    HW231341   5.138   4.796   4.453
10148SOL     OW31342   6.277   5.877   0.315
10148SOL    HW131343   6.321   5.788   0.303
10148SOL    HW231344   6.325   5.929   0.385
10149SOL     OW31345   4.701   2.127   0.369
10149SOL    HW131346   4.614   2.133   0.420
10149SOL    HW231347   4.694   2.054   0.301
10150SOL     OW31348   4.949   4.012   0.797
10150SOL    HW131349   4.878   4.083   0.803
10150SOL    HW231350   4.964   3.987   0.702
10151SOL     OW31351   1.535   0.332   6.249
10151SOL    HW131352   1.583   0.266   6.192
10151SOL    HW231353   1.593   0.357   6.327
10152SOL     OW31354   1.697   5.675   3.885
10152SOL    HW131355   1.652   5.762   3.903
10152SOL    HW231356   1.766   5.688   3.813
10153SOL     OW31357   4.168   6.018   3.786
10153SOL    HW131358   4.128   6.047   3.873
10153SOL    HW231359   4.098   6.021   3.715
10154SOL     OW31360   6.137   6.890   5.940
10154SOL    HW131361   6.134   6.981   5.898
10154SOL    HW231362   6.210   6.836   5.899
10155SOL     OW31363   3.829   1.768   5.949
10155SOL    HW131364   3.861   1.787   5.856
10155SOL    HW231365   3.906   1.741   6.006
10156SOL     OW31366   6.325   6.990   1.841
10156SOL    HW131367   6.413   6.989   1.794
10156SOL    HW231368   6.251   6.989   1.773
10157SOL     OW31369   5.605   1.874   5.824
10157SOL    HW131370   5.614   1.777   5.804
10157SOL    HW231371   5.643   1.927   5.748
10158SOL     OW31372   4.699   3.862   6.911
10158SOL    HW131373   4.760   3.938   6.935
10158SOL    HW231374   4.712   3.839   6.815
10159SOL     OW31375   2.772   3.216   6.030
10159SOL    HW131376   2.783   3.266   6.116
10159SOL    HW231377   2.799   3.120   6.043
10160SOL     OW31378   1.099   4.463   2.356
10160SOL    HW131379   1.065   4.369   2.352
10160SOL    HW231380   1.033   4.524   2.313
10161SOL     OW31381   3.447   4.654   0.685
10161SOL    HW131382   3.352   4.663   0.715
10161SOL    HW231383   3.453   4.673   0.587
10162SOL     OW31384   3.261   3.895   0.532
10162SOL    HW131385   3.323   3.949   0.475
10162SOL    HW231386   3.179   3.949   0.553
10163SOL     OW31387   5.658   4.168   6.113
10163SOL    HW131388   5.719   4.244   6.132
10163SOL    HW231389   5.702   4.105   6.048
10164SOL     OW31390   6.180   2.966   5.023
10164SOL    HW131391   6.264   2.936   4.979
10164SOL    HW231392   6.155   3.057   4.988
10165SOL     OW31393   1.766   2.471   3.710
10165SOL    HW131394   1.765   2.529   3.792
10165SOL    HW231395   1.856   2.427   3.702
10166SOL     OW31396   3.816   0.605   1.913
10166SOL    HW131397   3.851   0.555   1.992
10166SOL    HW231398   3.717   0.615   1.921
10167SOL     OW31399   4.417   1.165   6.327
10167SOL    HW131400   4.319   1.184   6.313
10167SOL    HW231401   4.428   1.104   6.405
10168SOL     OW31402   6.964   3.880   4.634
10168SOL    HW131403   6.902   3.925   4.698
10168SOL    HW231404   0.030   3.849   4.682
10169SOL     OW31405   6.919   4.105   3.294
10169SOL    HW131406   6.866   4.167   3.352
10169SOL    HW231407   7.003   4.078   3.342
10170SOL     OW31408   0.753   4.289   6.189
10170SOL    HW131409   0.809   4.207   6.179
10170SOL    HW231410   0.773   4.353   6.115
10171SOL     OW31411   6.630   3.990   6.666
10171SOL    HW131412   6.581   3.904   6.654
10171SOL    HW231413   6.706   3.994   6.602
10172SOL     OW31414   6.419   0.347   3.310
10172SOL    HW131415   6.361   0.422   3.341
10172SOL    HW231416   6.476   0.378   3.234
10173SOL     OW31417   2.141   2.197   1.262
10173SOL    HW131418   2.099   2.108   1.279
10173SOL    HW231419   2.098   2.266   1.321
10174SOL     OW31420   5.605   5.009   1.889
10174SOL    HW131421   5.626   5.107   1.883
10174SOL    HW231422   5.527   4.996   1.950
10175SOL     OW31423   0.011   2.604   3.978
10175SOL    HW131424   0.025   2.556   3.891
10175SOL    HW231425   0.011   2.703   3.962
10176SOL     OW31426   1.051   3.036   5.504
10176SOL    HW131427   0.982   3.107   5.495
10176SOL    HW231428   1.123   3.050   5.436
10177SOL     OW31429   2.541   0.404   0.087
10177SOL    HW131430   2.511   0.480   0.028
10177SOL    HW231431   2.638   0.415   0.109
10178SOL     OW31432   6.514   3.126   4.989
10178SOL    HW131433   6.415   3.129   4.990
10178SOL    HW231434   6.550   3.211   4.950
10179SOL     OW31435   0.996   1.651   6.202
10179SOL    HW131436   0.897   1.653   6.215
10179SOL    HW231437   1.041   1.657   6.291
10180SOL     OW31438   3.504   5.906   6.634
10180SOL    HW131439   3.545   5.816   6.623
10180SOL    HW231440   3.440   5.904   6.711
10181SOL     OW31441   5.025   3.313   2.070
10181SOL    HW131442   5.011   3.267   1.983
10181SOL    HW231443   4.948   3.293   2.131
10182SOL     OW31444   5.825   1.542   1.966
10182SOL    HW131445   5.778   1.527   2.053
10182SOL    HW231446   5.831   1.641   1.949
10183SOL     OW31447   0.881   2.106   6.014
10183SOL    HW131448   0.915   2.180   5.956
10183SOL    HW231449   0.860   2.141   6.105
10184SOL     OW31450   4.797   1.751   6.023
10184SOL    HW131451   4.798   1.844   5.986
10184SOL    HW231452   4.768   1.753   6.118
10185SOL     OW31453   5.048   5.881   1.257
10185SOL    HW131454   5.146   5.860   1.262
10185SOL    HW231455   5.037   5.981   1.251
10186SOL     OW31456   5.568   3.420   3.172
10186SOL    HW131457   5.511   3.375   3.103
10186SOL    HW231458   5.568   3.367   3.256
10187SOL     OW31459   0.434   2.220   1.878
10187SOL    HW131460   0.367   2.291   1.900
10187SOL    HW231461   0.386   2.137   1.849
10188SOL     OW31462   3.692   6.468   6.822
10188SOL    HW131463   3.783   6.445   6.788
10188SOL    HW231464   3.624   6.443   6.753
10189SOL     OW31465   2.387   0.845   5.616
10189SOL    HW131466   2.396   0.747   5.634
10189SOL    HW231467   2.475   0.889   5.633
10190SOL     OW31468   5.269   2.827   1.195
10190SOL    HW131469   5.253   2.730   1.209
10190SOL    HW231470   5.226   2.856   1.109
10191SOL     OW31471   4.597   4.105   6.674
10191SOL    HW131472   4.590   4.157   6.589
10191SOL    HW231473   4.674   4.041   6.668
10192SOL     OW31474   4.473   0.774   5.006
10192SOL    HW131475   4.508   0.868   4.996
10192SOL    HW231476   4.523   0.728   5.079
10193SOL     OW31477   4.354   3.878   1.642
10193SOL    HW131478   4.438   3.906   1.689
10193SOL    HW231479   4.326   3.788   1.675
10194SOL     OW31480   6.009   5.093   4.799
10194SOL    HW131481   6.054   5.051   4.721
10194SOL    HW231482   6.077   5.138   4.857
10195SOL     OW31483   6.231   4.542   1.328
10195SOL    HW131484   6.208   4.636   1.304
10195SOL    HW231485   6.155   4.501   1.377
10196SOL     OW31486   5.204   1.473   4.560
10196SOL    HW131487   5.164   1.541   4.499
10196SOL    HW231488   5.143   1.458   4.638
10197SOL     OW31489   0.099   1.763   5.110
10197SOL    HW131490   0.050   1.677   5.096
10197SOL    HW231491   0.036   1.840   5.102
10198SOL     OW31492   3.864   0.750   1.669
10198SOL    HW131493   3.849   0.727   1.765
10198SOL    HW231494   3.806   0.828   1.644
10199SOL     OW31495   2.611   2.656   6.307
10199SOL    HW131496   2.613   2.650   6.207
10199SOL    HW231497   2.650   2.744   6.336
10200SOL     OW31498   5.161   2.060   1.152
10200SOL    HW131499   5.230   2.072   1.081
10200SOL    HW231500   5.206   2.043   1.240
10201SOL     OW31501   0.713   4.422   0.673
10201SOL    HW131502   0.757   4.335   0.652
10201SOL    HW231503   0.698   4.430   0.771
10202SOL     OW31504   3.855   2.199   6.236
10202SOL    HW131505   3.914   2.204   6.316
10202SOL    HW231506   3.759   2.194   6.264
10203SOL     OW31507   5.454   2.875   4.025
10203SOL    HW131508   5.421   2.846   4.115
10203SOL    HW231509   5.467   2.795   3.967
10204SOL     OW31510   5.370   6.626   6.866
10204SOL    HW131511   5.436   6.670   6.805
10204SOL    HW231512   5.332   6.544   6.822
10205SOL     OW31513   0.418   1.768   0.584
10205SOL    HW131514   0.361   1.841   0.623
10205SOL    HW231515   0.507   1.766   0.630
10206SOL     OW31516   0.683   1.190   6.009
10206SOL    HW131517   0.748   1.131   6.057
10206SOL    HW231518   0.699   1.285   6.036
10207SOL     OW31519   1.207   2.238   6.543
10207SOL    HW131520   1.165   2.166   6.598
10207SOL    HW231521   1.138   2.277   6.481
10208SOL     OW31522   5.680   5.333   3.862
10208SOL    HW131523   5.595   5.286   3.838
10208SOL    HW231524   5.676   5.361   3.958
10209SOL     OW31525   0.112   0.119   6.129
10209SOL    HW131526   0.043   0.179   6.088
10209SOL    HW231527   0.144   0.054   6.061
10210SOL     OW31528   4.382   6.635   0.811
10210SOL    HW131529   4.429   6.623   0.724
10210SOL    HW231530   4.414   6.720   0.854
10211SOL     OW31531   3.309   6.587   4.671
10211SOL    HW131532   3.402   6.587   4.634
10211SOL    HW231533   3.251   6.526   4.616
10212SOL     OW31534   0.926   0.103   5.138
10212SOL    HW131535   0.984   0.024   5.116
10212SOL    HW231536   0.984   0.182   5.159
10213SOL     OW31537   4.651   2.824   1.088
10213SOL    HW131538   4.684   2.909   1.127
10213SOL    HW231539   4.631   2.759   1.161
10214SOL     OW31540   1.201   1.666   1.807
10214SOL    HW131541   1.229   1.709   1.721
10214SOL    HW231542   1.132   1.596   1.788
10215SOL     OW31543   3.997   3.046   2.862
10215SOL    HW131544   4.057   2.985   2.913
10215SOL    HW231545   3.901   3.026   2.885
10216SOL     OW31546   6.044   0.615   1.772
10216SOL    HW131547   6.018   0.657   1.859
10216SOL    HW231548   6.143   0.614   1.763
10217SOL     OW31549   2.354   0.831   3.623
10217SOL    HW131550   2.403   0.776   3.691
10217SOL    HW231551   2.280   0.777   3.583
10218SOL     OW31552   0.955   2.948   1.281
10218SOL    HW131553   0.906   3.033   1.262
10218SOL    HW231554   1.043   2.949   1.233
10219SOL     OW31555   6.976   1.553   2.346
10219SOL    HW131556   0.030   1.552   2.417
10219SOL    HW231557   6.993   1.630   2.284
10220SOL     OW31558   4.106   2.634   1.010
10220SOL    HW131559   4.080   2.637   0.913
10220SOL    HW231560   4.024   2.620   1.066
10221SOL     OW31561   0.924   5.578   3.318
10221SOL    HW131562   0.943   5.586   3.416
10221SOL    HW231563   0.908   5.669   3.280
10222SOL     OW31564   3.000   3.558   4.749
10222SOL    HW131565   2.928   3.528   4.812
10222SOL    HW231566   3.003   3.497   4.670
10223SOL     OW31567   0.636   5.193   0.795
10223SOL    HW131568   0.728   5.233   0.797
10223SOL    HW231569   0.569   5.265   0.813
10224SOL     OW31570   6.039   3.433   3.659
10224SOL    HW131571   6.096   3.470   3.586
10224SOL    HW231572   6.012   3.340   3.637
10225SOL     OW31573   1.576   3.985   5.637
10225SOL    HW131574   1.552   3.939   5.552
10225SOL    HW231575   1.619   3.920   5.699
10226SOL     OW31576   3.372   1.676   6.956
10226SOL    HW131577   3.348   1.743   0.010
10226SOL    HW231578   3.296   1.611   6.945
10227SOL     OW31579   5.304   3.931   0.497
10227SOL    HW131580   5.298   3.834   0.520
10227SOL    HW231581   5.389   3.968   0.534
10228SOL     OW31582   6.608   0.375   0.441
10228SOL    HW131583   6.606   0.455   0.502
10228SOL    HW231584   6.667   0.304   0.482
10229SOL     OW31585   0.534   3.356   5.129
10229SOL    HW131586   0.450   3.411   5.128
10229SOL    HW231587   0.511   3.262   5.154
10230SOL     OW31588   6.531   5.718   2.248
10230SOL    HW131589   6.578   5.742   2.333
10230SOL    HW231590   6.433   5.731   2.258
10231SOL     OW31591   1.576   5.940   3.895
10231SOL    HW131592   1.633   5.968   3.818
10231SOL    HW231593   1.505   6.009   3.911
10232SOL     OW31594   3.084   0.432   3.618
10232SOL    HW131595   3.120   0.515   3.576
10232SOL    HW231596   3.153   0.394   3.680
10233SOL     OW31597   3.939   4.082   5.956
10233SOL    HW131598   3.934   4.140   6.038
10233SOL    HW231599   4.024   4.102   5.906
10234SOL     OW31600   5.911   0.313   1.263
10234SOL    HW131601   5.904   0.294   1.361
10234SOL    HW231602   5.971   0.246   1.220
10235SOL     OW31603   0.929   1.119   3.133
10235SOL    HW131604   0.842   1.078   3.160
10235SOL    HW231605   0.915   1.216   3.112
10236SOL     OW31606   2.697   6.693   0.282
10236SOL    HW131607   2.639   6.734   0.211
10236SOL    HW231608   2.640   6.652   0.353
10237SOL     OW31609   0.600   3.108   0.030
10237SOL    HW131610   0.665   3.173   0.068
10237SOL    HW231611   0.517   3.105   0.087
10238SOL     OW31612   4.120   5.019   0.816
10238SOL    HW131613   4.098   4.952   0.746
10238SOL    HW231614   4.086   4.988   0.904
10239SOL     OW31615   1.531   2.934   4.491
10239SOL    HW131616   1.462   2.994   4.451
10239SOL    HW231617   1.538   2.952   4.590
10240SOL     OW31618   2.238   0.085   1.838
10240SOL    HW131619   2.329   0.095   1.878
10240SOL    HW231620   2.236   0.005   1.779
10241SOL     OW31621   5.109   1.786   2.031
10241SOL    HW131622   5.129   1.866   1.974
10241SOL    HW231623   5.142   1.704   1.985
10242SOL     OW31624   0.279   2.334   0.871
10242SOL    HW131625   0.274   2.358   0.968
10242SOL    HW231626   0.360   2.278   0.855
10243SOL     OW31627   2.381   4.291   1.184
10243SOL    HW131628   2.463   4.235   1.194
10243SOL    HW231629   2.396   4.380   1.227
10244SOL     OW31630   2.339   3.870   1.191
10244SOL    HW131631   2.365   3.917   1.276
10244SOL    HW231632   2.398   3.790   1.178
10245SOL     OW31633   3.518   3.927   0.894
10245SOL    HW131634   3.547   3.833   0.873
10245SOL    HW231635   3.418   3.930   0.901
10246SOL     OW31636   3.443   2.897   4.284
10246SOL    HW131637   3.452   2.833   4.207
10246SOL    HW231638   3.364   2.956   4.269
10247SOL     OW31639   1.121   4.354   5.109
10247SOL    HW131640   1.200   4.408   5.135
10247SOL    HW231641   1.098   4.371   5.013
10248SOL     OW31642   1.345   6.876   3.627
10248SOL    HW131643   1.265   6.905   3.680
10248SOL    HW231644   1.314   6.820   3.549
10249SOL     OW31645   2.003   5.119   0.035
10249SOL    HW131646   1.970   5.027   0.011
10249SOL    HW231647   1.929   5.185   0.025
10250SOL     OW31648   5.571   2.957   0.246
10250SOL    HW131649   5.612   2.875   0.207
10250SOL    HW231650   5.500   2.932   0.312
10251SOL     OW31651   1.428   0.433   3.823
10251SOL    HW131652   1.503   0.470   3.878
10251SOL    HW231653   1.455   0.431   3.727
10252SOL     OW31654   4.815   3.644   5.388
10252SOL    HW131655   4.774   3.619   5.300
10252SOL    HW231656   4.750   3.622   5.461
10253SOL     OW31657   3.801   6.961   0.024
10253SOL    HW131658   3.715   6.949   0.073
10253SOL    HW231659   3.784   6.957   6.941
10254SOL     OW31660   5.321   2.047   5.169
10254SOL    HW131661   5.281   2.025   5.258
10254SOL    HW231662   5.304   1.971   5.106
10255SOL     OW31663   2.936   5.783   1.220
10255SOL    HW131664   2.880   5.790   1.138
10255SOL    HW231665   2.896   5.713   1.281
10256SOL     OW31666   5.339   0.985   1.716
10256SOL    HW131667   5.246   1.019   1.699
10256SOL    HW231668   5.357   0.982   1.814
10257SOL     OW31669   2.956   5.004   3.372
10257SOL    HW131670   3.050   4.990   3.340
10257SOL    HW231671   2.958   5.037   3.466
10258SOL     OW31672   3.102   2.086   3.176
10258SOL    HW131673   3.059   2.120   3.260
10258SOL    HW231674   3.195   2.056   3.197
10259SOL     OW31675   0.779   4.355   4.250
10259SOL    HW131676   0.839   4.293   4.198
10259SOL    HW231677   0.767   4.320   4.342
10260SOL     OW31678   1.588   1.283   3.591
10260SOL    HW131679   1.549   1.223   3.661
10260SOL    HW231680   1.614   1.229   3.511
10261SOL     OW31681   0.342   3.605   1.012
10261SOL    HW131682   0.412   3.567   0.951
10261SOL    HW231683   0.259   3.550   1.006
10262SOL     OW31684   3.943   0.881   6.713
10262SOL    HW131685   3.926   0.826   6.795
10262SOL    HW231686   3.988   0.824   6.644
10263SOL     OW31687   6.228   0.908   0.736
10263SOL    HW131688   6.224   0.830   0.673
10263SOL    HW231689   6.183   0.986   0.693
10264SOL     OW31690   6.062   5.029   6.412
10264SOL    HW131691   6.007   5.081   6.477
10264SOL    HW231692   6.121   4.965   6.461
10265SOL     OW31693   2.260   2.635   0.874
10265SOL    HW131694   2.214   2.547   0.887
10265SOL    HW231695   2.279   2.676   0.963
10266SOL     OW31696   3.106   3.075   2.867
10266SOL    HW131697   3.177   3.041   2.929
10266SOL    HW231698   3.044   3.136   2.916
10267SOL     OW31699   5.300   0.676   0.526
10267SOL    HW131700   5.323   0.763   0.482
10267SOL    HW231701   5.285   0.691   0.624
10268SOL     OW31702   5.598   0.331   1.611
10268SOL    HW131703   5.610   0.430   1.609
10268SOL    HW231704   5.506   0.308   1.577
10269SOL     OW31705   1.490   2.566   6.721
10269SOL    HW131706   1.492   2.627   6.641
10269SOL    HW231707   1.477   2.620   6.804
10270SOL     OW31708   3.544   6.158   2.395
10270SOL    HW131709   3.626   6.144   2.450
10270SOL    HW231710   3.568   6.167   2.299
10271SOL     OW31711   3.077   2.140   0.927
10271SOL    HW131712   3.091   2.196   0.847
10271SOL    HW231713   2.979   2.132   0.946
10272SOL     OW31714   6.747   0.953   4.133
10272SOL    HW131715   6.832   0.952   4.186
10272SOL    HW231716   6.688   1.025   4.167
10273SOL     OW31717   3.125   5.359   4.384
10273SOL    HW131718   3.050   5.301   4.352
10273SOL    HW231719   3.213   5.318   4.358
10274SOL     OW31720   0.262   5.092   5.589
10274SOL    HW131721   0.243   4.995   5.575
10274SOL    HW231722   0.319   5.104   5.669
10275SOL     OW31723   0.069   0.912   3.014
10275SOL    HW131724   0.010   0.864   3.079
10275SOL    HW231725   0.135   0.848   2.976
10276SOL     OW31726   4.653   5.654   5.620
10276SOL    HW131727   4.604   5.709   5.553
10276SOL    HW231728   4.747   5.687   5.629
10277SOL     OW31729   1.323   6.945   4.352
10277SOL    HW131730   1.378   6.869   4.317
10277SOL    HW231731   1.364   0.016   4.324
10278SOL     OW31732   0.087   0.427   5.015
10278SOL    HW131733   0.021   0.502   5.021
10278SOL    HW231734   0.147   0.442   4.937
10279SOL     OW31735   2.391   5.477   4.302
10279SOL    HW131736   2.448   5.555   4.276
10279SOL    HW231737   2.300   5.488   4.262
10280SOL     OW31738   5.557   3.557   0.640
10280SOL    HW131739   5.520   3.585   0.551
10280SOL    HW231740   5.619   3.628   0.674
10281SOL     OW31741   6.726   2.258   3.335
10281SOL    HW131742   6.661   2.188   3.306
10281SOL    HW231743   6.803   2.262   3.272
10282SOL     OW31744   4.852   3.259   3.082
10282SOL    HW131745   4.883   3.268   2.987
10282SOL    HW231746   4.767   3.206   3.084
10283SOL     OW31747   0.385   3.793   1.202
10283SOL    HW131748   0.357   3.742   1.121
10283SOL    HW231749   0.399   3.889   1.178
10284SOL     OW31750   0.281   2.449   3.973
10284SOL    HW131751   0.350   2.425   3.905
10284SOL    HW231752   0.237   2.535   3.947
10285SOL     OW31753   4.211   6.630   3.300
10285SOL    HW131754   4.161   6.556   3.345
10285SOL    HW231755   4.173   6.718   3.328
10286SOL     OW31756   2.964   0.839   3.792
10286SOL    HW131757   3.010   0.820   3.705
10286SOL    HW231758   2.955   0.937   3.804
10287SOL     OW31759   1.995   5.891   1.630
10287SOL    HW131760   2.084   5.880   1.675
10287SOL    HW231761   1.923   5.895   1.699
10288SOL     OW31762   3.385   6.917   5.129
10288SOL    HW131763   3.377   7.005   5.174
10288SOL    HW231764   3.308   6.904   5.066
10289SOL     OW31765   3.320   6.081   0.821
10289SOL    HW131766   3.312   6.120   0.912
10289SOL    HW231767   3.251   6.121   0.761
10290SOL     OW31768   3.127   3.338   2.368
10290SOL    HW131769   3.040   3.386   2.358
10290SOL    HW231770   3.125   3.282   2.451
10291SOL     OW31771   3.333   1.196   3.060
10291SOL    HW131772   3.283   1.123   3.013
10291SOL    HW231773   3.322   1.186   3.159
10292SOL     OW31774   0.250   0.936   6.196
10292SOL    HW131775   0.252   1.006   6.125
10292SOL    HW231776   0.182   0.960   6.265
10293SOL     OW31777   0.813   3.819   3.854
10293SOL    HW131778   0.758   3.740   3.827
10293SOL    HW231779   0.857   3.857   3.772
10294SOL     OW31780   3.695   1.919   3.007
10294SOL    HW131781   3.633   1.841   3.018
10294SOL    HW231782   3.783   1.897   3.051
10295SOL     OW31783   1.264   2.357   6.193
10295SOL    HW131784   1.321   2.340   6.273
10295SOL    HW231785   1.241   2.455   6.188
10296SOL     OW31786   5.872   0.827   5.726
10296SOL    HW131787   5.795   0.886   5.749
10296SOL    HW231788   5.860   0.791   5.633
10297SOL     OW31789   2.763   1.684   6.922
10297SOL    HW131790   2.740   1.758   6.859
10297SOL    HW231791   2.787   1.602   6.870
10298SOL     OW31792   1.347   4.484   1.781
10298SOL    HW131793   1.290   4.475   1.700
10298SOL    HW231794   1.292   4.469   1.863
10299SOL     OW31795   4.773   6.548   2.560
10299SOL    HW131796   4.825   6.471   2.599
10299SOL    HW231797   4.764   6.620   2.628
10300SOL     OW31798   1.239   4.115   2.068
10300SOL    HW131799   1.178   4.183   2.028
10300SOL    HW231800   1.254   4.135   2.165
10301SOL     OW31801   3.895   1.956   5.461
10301SOL    HW131802   3.903   2.053   5.483
10301SOL    HW231803   3.868   1.945   5.365
10302SOL     OW31804   2.854   6.840   4.415
10302SOL    HW131805   2.790   6.910   4.381
10302SOL    HW231806   2.842   6.828   4.513
10303SOL     OW31807   1.052   6.110   3.846
10303SOL    HW131808   1.065   6.141   3.752
10303SOL    HW231809   1.028   6.188   3.903
10304SOL     OW31810   6.497   0.021   0.594
10304SOL    HW131811   6.436   0.067   0.530
10304SOL    HW231812   6.445   7.007   0.674
10305SOL     OW31813   3.398   3.780   6.076
10305SOL    HW131814   3.305   3.748   6.095
10305SOL    HW231815   3.396   3.842   5.998
10306SOL     OW31816   5.383   6.608   1.313
10306SOL    HW131817   5.411   6.584   1.407
10306SOL    HW231818   5.289   6.642   1.314
10307SOL     OW31819   2.936   1.483   4.674
10307SOL    HW131820   2.915   1.522   4.585
10307SOL    HW231821   3.033   1.459   4.678
10308SOL     OW31822   2.112   4.560   2.667
10308SOL    HW131823   2.063   4.505   2.735
10308SOL    HW231824   2.135   4.649   2.707
10309SOL     OW31825   6.317   0.776   5.718
10309SOL    HW131826   6.246   0.717   5.681
10309SOL    HW231827   6.333   0.753   5.814
10310SOL     OW31828   2.662   3.537   0.080
10310SOL    HW131829   2.584   3.535   0.143
10310SOL    HW231830   2.718   3.455   0.093
10311SOL     OW31831   5.999   5.603   0.276
10311SOL    HW131832   6.056   5.614   0.357
10311SOL    HW231833   5.928   5.674   0.275
10312SOL     OW31834   4.260   0.210   2.059
10312SOL    HW131835   4.352   0.247   2.060
10312SOL    HW231836   4.225   0.209   1.966
10313SOL     OW31837   3.811   5.917   2.882
10313SOL    HW131838   3.784   5.848   2.815
10313SOL    HW231839   3.770   5.896   2.971
10314SOL     OW31840   0.605   0.436   6.694
10314SOL    HW131841   0.535   0.437   6.765
10314SOL    HW231842   0.642   0.528   6.682
10315SOL     OW31843   5.176   6.795   3.690
10315SOL    HW131844   5.268   6.808   3.653
10315SOL    HW231845   5.137   6.883   3.715
10316SOL     OW31846   6.406   2.208   5.997
10316SOL    HW131847   6.407   2.304   6.022
10316SOL    HW231848   6.312   2.175   5.991
10317SOL     OW31849   3.648   5.977   5.790
10317SOL    HW131850   3.726   5.958   5.850
10317SOL    HW231851   3.628   5.896   5.735
10318SOL     OW31852   5.367   0.206   6.505
10318SOL    HW131853   5.290   0.143   6.521
10318SOL    HW231854   5.452   0.154   6.498
10319SOL     OW31855   0.485   4.654   5.717
10319SOL    HW131856   0.479   4.566   5.671
10319SOL    HW231857   0.421   4.718   5.673
10320SOL     OW31858   0.056   6.817   3.250
10320SOL    HW131859   0.074   6.721   3.228
10320SOL    HW231860   6.983   6.825   3.296
10321SOL     OW31861   5.621   2.381   2.015
10321SOL    HW131862   5.575   2.396   2.103
10321SOL    HW231863   5.560   2.334   1.952
10322SOL     OW31864   4.041   4.817   4.717
10322SOL    HW131865   4.128   4.808   4.668
10322SOL    HW231866   4.023   4.732   4.767
10323SOL     OW31867   6.446   4.876   5.228
10323SOL    HW131868   6.441   4.952   5.293
10323SOL    HW231869   6.460   4.912   5.136
10324SOL     OW31870   3.050   3.658   2.538
10324SOL    HW131871   3.030   3.675   2.442
10324SOL    HW231872   2.980   3.599   2.577
10325SOL     OW31873   0.113   5.025   2.629
10325SOL    HW131874   0.213   5.020   2.635
10325SOL    HW231875   0.073   4.953   2.686
10326SOL     OW31876   5.626   3.944   6.544
10326SOL    HW131877   5.607   3.910   6.452
10326SOL    HW231878   5.610   3.871   6.610
10327SOL     OW31879   2.441   3.297   1.630
10327SOL    HW131880   2.404   3.340   1.713
10327SOL    HW231881   2.527   3.250   1.652
10328SOL     OW31882   6.325   2.875   2.207
10328SOL    HW131883   6.232   2.855   2.176
10328SOL    HW231884   6.358   2.959   2.163
10329SOL     OW31885   2.873   0.514   2.765
10329SOL    HW131886   2.829   0.487   2.851
10329SOL    HW231887   2.813   0.576   2.715
10330SOL     OW31888   4.630   0.561   0.996
10330SOL    HW131889   4.605   0.653   0.964
10330SOL    HW231890   4.723   0.540   0.967
10331SOL     OW31891   6.378   6.015   6.792
10331SOL    HW131892   6.435   5.950   6.841
10331SOL    HW231893   6.333   5.968   6.715
10332SOL     OW31894   1.000   0.682   6.550
10332SOL    HW131895   0.989   0.608   6.485
10332SOL    HW231896   0.916   0.695   6.602
10333SOL     OW31897   0.270   5.974   4.653
10333SOL    HW131898   0.271   5.908   4.579
10333SOL    HW231899   0.244   5.928   4.738
10334SOL     OW31900   3.387   0.096   4.316
10334SOL    HW131901   3.316   0.076   4.384
10334SOL    HW231902   3.360   0.177   4.263
10335SOL     OW31903   1.423   4.466   6.619
10335SOL    HW131904   1.344   4.527   6.624
10335SOL    HW231905   1.396   4.373   6.644
10336SOL     OW31906   6.315   6.508   1.741
10336SOL    HW131907   6.360   6.587   1.700
10336SOL    HW231908   6.220   6.532   1.762
10337SOL     OW31909   6.673   5.616   0.321
10337SOL    HW131910   6.746   5.683   0.339
10337SOL    HW231911   6.672   5.548   0.394
10338SOL     OW31912   1.531   6.357   2.263
10338SOL    HW131913   1.508   6.395   2.174
10338SOL    HW231914   1.468   6.282   2.285
10339SOL     OW31915   6.322   3.491   6.353
10339SOL    HW131916   6.240   3.453   6.309
10339SOL    HW231917   6.322   3.591   6.342
10340SOL     OW31918   1.814   2.697   6.503
10340SOL    HW131919   1.757   2.629   6.457
10340SOL    HW231920   1.757   2.773   6.535
10341SOL     OW31921   2.053   3.437   2.223
10341SOL    HW131922   1.966   3.449   2.176
10341SOL    HW231923   2.128   3.445   2.157
10342SOL     OW31924   1.792   0.517   3.536
10342SOL    HW131925   1.851   0.593   3.565
10342SOL    HW231926   1.841   0.431   3.548
10343SOL     OW31927   2.842   5.078   0.486
10343SOL    HW131928   2.797   5.037   0.565
10343SOL    HW231929   2.896   5.009   0.439
10344SOL     OW31930   3.438   3.756   6.807
10344SOL    HW131931   3.369   3.828   6.797
10344SOL    HW231932   3.498   3.757   6.728
10345SOL     OW31933   1.466   3.116   5.534
10345SOL    HW131934   1.398   3.168   5.586
10345SOL    HW231935   1.517   3.177   5.474
10346SOL     OW31936   0.062   5.349   1.703
10346SOL    HW131937   0.016   5.355   1.615
10346SOL    HW231938   0.132   5.278   1.700
10347SOL     OW31939   4.538   1.085   3.459
10347SOL    HW131940   4.453   1.046   3.422
10347SOL    HW231941   4.535   1.185   3.450
10348SOL     OW31942   6.197   2.462   0.319
10348SOL    HW131943   6.123   2.404   0.286
10348SOL    HW231944   6.168   2.558   0.316
10349SOL     OW31945   0.642   0.484   6.374
10349SOL    HW131946   0.586   0.540   6.435
10349SOL    HW231947   0.626   0.512   6.279
10350SOL     OW31948   2.848   6.008   5.614
10350SOL    HW131949   2.914   5.954   5.665
10350SOL    HW231950   2.871   6.105   5.622
10351SOL     OW31951   4.752   4.949   5.688
10351SOL    HW131952   4.839   4.993   5.667
10351SOL    HW231953   4.758   4.901   5.776
10352SOL     OW31954   3.473   0.937   6.318
10352SOL    HW131955   3.537   0.873   6.359
10352SOL    HW231956   3.515   0.981   6.239
10353SOL     OW31957   6.417   2.784   4.949
10353SOL    HW131958   6.430   2.755   5.044
10353SOL    HW231959   6.495   2.839   4.920
10354SOL     OW31960   5.385   1.081   0.812
10354SOL    HW131961   5.370   1.056   0.908
10354SOL    HW231962   5.482   1.103   0.798
10355SOL     OW31963   2.990   6.261   2.151
10355SOL    HW131964   3.079   6.241   2.111
10355SOL    HW231965   2.923   6.194   2.118
10356SOL     OW31966   0.370   4.118   6.260
10356SOL    HW131967   0.299   4.053   6.282
10356SOL    HW231968   0.445   4.110   6.326
10357SOL     OW31969   2.253   2.180   5.852
10357SOL    HW131970   2.247   2.267   5.901
10357SOL    HW231971   2.326   2.125   5.891
10358SOL     OW31972   6.844   2.612   2.968
10358SOL    HW131973   6.865   2.544   3.038
10358SOL    HW231974   6.780   2.680   3.005
10359SOL     OW31975   0.371   1.610   1.277
10359SOL    HW131976   0.391   1.670   1.199
10359SOL    HW231977   0.427   1.527   1.269
10360SOL     OW31978   4.564   5.522   3.050
10360SOL    HW131979   4.629   5.587   3.011
10360SOL    HW231980   4.527   5.464   2.978
10361SOL     OW31981   2.905   5.763   2.427
10361SOL    HW131982   2.869   5.719   2.345
10361SOL    HW231983   2.907   5.862   2.414
10362SOL     OW31984   2.230   5.348   5.080
10362SOL    HW131985   2.144   5.370   5.127
10362SOL    HW231986   2.211   5.319   4.986
10363SOL     OW31987   5.433   0.742   2.889
10363SOL    HW131988   5.489   0.679   2.835
10363SOL    HW231989   5.470   0.835   2.881
10364SOL     OW31990   2.769   3.900   1.291
10364SOL    HW131991   2.806   3.833   1.227
10364SOL    HW231992   2.735   3.854   1.373
10365SOL     OW31993   3.704   5.469   0.173
10365SOL    HW131994   3.733   5.374   0.179
10365SOL    HW231995   3.680   5.491   0.078
10366SOL     OW31996   2.256   6.791   3.746
10366SOL    HW131997   2.189   6.846   3.796
10366SOL    HW231998   2.348   6.828   3.762
10367SOL     OW31999   5.943   1.925   3.181
10367SOL    HW132000   5.846   1.915   3.162
10367SOL    HW232001   5.956   1.943   3.279
10368SOL     OW32002   2.239   1.266   2.217
10368SOL    HW132003   2.286   1.234   2.299
10368SOL    HW232004   2.280   1.353   2.188
10369SOL     OW32005   3.765   1.801   1.042
10369SOL    HW132006   3.835   1.851   0.991
10369SOL    HW232007   3.700   1.760   0.979
10370SOL     OW32008   4.233   0.916   5.148
10370SOL    HW132009   4.330   0.908   5.126
10370SOL    HW232010   4.219   0.994   5.210
10371SOL     OW32011   4.218   5.667   5.221
10371SOL    HW132012   4.216   5.646   5.318
10371SOL    HW232013   4.271   5.598   5.173
10372SOL     OW32014   2.445   0.892   4.517
10372SOL    HW132015   2.431   0.911   4.614
10372SOL    HW232016   2.356   0.880   4.472
10373SOL     OW32017   1.194   6.783   4.571
10373SOL    HW132018   1.262   6.738   4.629
10373SOL    HW232019   1.240   6.829   4.495
10374SOL     OW32020   2.813   1.599   3.381
10374SOL    HW132021   2.713   1.600   3.372
10374SOL    HW232022   2.838   1.616   3.476
10375SOL     OW32023   5.808   2.236   1.092
10375SOL    HW132024   5.773   2.198   1.006
10375SOL    HW232025   5.851   2.164   1.146
10376SOL     OW32026   0.320   1.479   3.752
10376SOL    HW132027   0.372   1.423   3.689
10376SOL    HW232028   0.222   1.473   3.730
10377SOL     OW32029   0.415   0.524   3.633
10377SOL    HW132030   0.393   0.462   3.709
10377SOL    HW232031   0.430   0.470   3.550
10378SOL     OW32032   6.730   0.480   5.506
10378SOL    HW132033   6.721   0.406   5.571
10378SOL    HW232034   6.655   0.477   5.440
10379SOL     OW32035   5.112   0.137   4.941
10379SOL    HW132036   5.113   0.097   4.849
10379SOL    HW232037   5.152   0.229   4.937
10380SOL     OW32038   5.610   0.592   2.753
10380SOL    HW132039   5.702   0.587   2.790
10380SOL    HW232040   5.614   0.616   2.656
10381SOL     OW32041   4.875   5.156   6.042
10381SOL    HW132042   4.951   5.118   6.093
10381SOL    HW232043   4.789   5.125   6.082
10382SOL     OW32044   2.411   5.774   5.783
10382SOL    HW132045   2.360   5.694   5.752
10382SOL    HW232046   2.472   5.749   5.858
10383SOL     OW32047   0.602   2.963   0.769
10383SOL    HW132048   0.538   2.886   0.761
10383SOL    HW232049   0.693   2.928   0.794
10384SOL     OW32050   6.963   6.990   0.581
10384SOL    HW132051   6.964   6.920   0.652
10384SOL    HW232052   0.008   0.049   0.607
10385SOL     OW32053   6.057   0.938   5.917
10385SOL    HW132054   6.007   0.923   5.831
10385SOL    HW232055   6.015   0.885   5.990
10386SOL     OW32056   6.504   2.874   5.348
10386SOL    HW132057   6.583   2.846   5.295
10386SOL    HW232058   6.471   2.797   5.402
10387SOL     OW32059   1.428   2.582   2.788
10387SOL    HW132060   1.388   2.665   2.828
10387SOL    HW232061   1.430   2.510   2.857
10388SOL     OW32062   1.686   5.033   3.111
10388SOL    HW132063   1.771   4.982   3.119
10388SOL    HW232064   1.703   5.130   3.132
10389SOL     OW32065   1.245   4.722   3.900
10389SOL    HW132066   1.306   4.735   3.978
10389SOL    HW232067   1.162   4.675   3.929
10390SOL     OW32068   1.683   3.148   3.124
10390SOL    HW132069   1.588   3.117   3.122
10390SOL    HW232070   1.742   3.077   3.086
10391SOL     OW32071   1.805   6.217   6.703
10391SOL    HW132072   1.873   6.276   6.660
10391SOL    HW232073   1.717   6.226   6.655
10392SOL     OW32074   6.395   4.993   0.139
10392SOL    HW132075   6.442   4.951   0.061
10392SOL    HW232076   6.299   5.010   0.115
10393SOL     OW32077   0.613   1.244   4.115
10393SOL    HW132078   0.706   1.270   4.141
10393SOL    HW232079   0.576   1.178   4.181
10394SOL     OW32080   2.746   6.451   0.014
10394SOL    HW132081   2.720   6.392   0.091
10394SOL    HW232082   2.668   6.463   6.969
10395SOL     OW32083   7.006   0.628   4.425
10395SOL    HW132084   6.969   0.537   4.443
10395SOL    HW232085   0.065   0.621   4.359
10396SOL     OW32086   0.756   0.518   4.362
10396SOL    HW132087   0.720   0.425   4.351
10396SOL    HW232088   0.748   0.567   4.275
10397SOL     OW32089   3.678   0.824   3.795
10397SOL    HW132090   3.640   0.733   3.813
10397SOL    HW232091   3.701   0.869   3.881
10398SOL     OW32092   5.991   2.737   1.574
10398SOL    HW132093   6.011   2.712   1.669
10398SOL    HW232094   5.938   2.822   1.573
10399SOL     OW32095   5.441   2.389   5.003
10399SOL    HW132096   5.382   2.432   5.072
10399SOL    HW232097   5.398   2.398   4.913
10400SOL     OW32098   2.569   5.486   2.504
10400SOL    HW132099   2.610   5.431   2.432
10400SOL    HW232100   2.469   5.480   2.498
10401SOL     OW32101   0.572   5.601   2.174
10401SOL    HW132102   0.551   5.675   2.238
10401SOL    HW232103   0.536   5.515   2.209
10402SOL     OW32104   0.936   3.406   4.613
10402SOL    HW132105   0.935   3.466   4.533
10402SOL    HW232106   1.030   3.384   4.637
10403SOL     OW32107   5.539   1.420   1.528
10403SOL    HW132108   5.599   1.486   1.573
10403SOL    HW232109   5.491   1.464   1.452
10404SOL     OW32110   0.740   6.824   4.274
10404SOL    HW132111   0.809   6.783   4.214
10404SOL    HW232112   0.668   6.866   4.218
10405SOL     OW32113   1.745   6.156   5.734
10405SOL    HW132114   1.651   6.149   5.767
10405SOL    HW232115   1.804   6.189   5.808
10406SOL     OW32116   2.600   4.020   5.886
10406SOL    HW132117   2.589   4.115   5.916
10406SOL    HW232118   2.538   4.002   5.809
10407SOL     OW32119   1.042   2.428   6.427
10407SOL    HW132120   0.999   2.501   6.480
10407SOL    HW232121   1.089   2.468   6.348
10408SOL     OW32122   4.394   4.911   3.454
10408SOL    HW132123   4.351   4.989   3.407
10408SOL    HW232124   4.486   4.898   3.418
10409SOL     OW32125   0.499   4.311   2.244
10409SOL    HW132126   0.519   4.343   2.152
10409SOL    HW232127   0.400   4.317   2.261
10410SOL     OW32128   4.781   0.837   1.459
10410SOL    HW132129   4.718   0.895   1.510
10410SOL    HW232130   4.796   0.875   1.368
10411SOL     OW32131   2.414   4.782   2.976
10411SOL    HW132132   2.401   4.835   3.059
10411SOL    HW232133   2.477   4.707   2.993
10412SOL     OW32134   1.260   2.057   0.379
10412SOL    HW132135   1.238   2.111   0.461
10412SOL    HW232136   1.358   2.060   0.363
10413SOL     OW32137   6.879   2.572   6.828
10413SOL    HW132138   6.839   2.658   6.860
10413SOL    HW232139   6.936   2.590   6.747
10414SOL     OW32140   5.467   6.096   6.394
10414SOL    HW132141   5.469   5.998   6.378
10414SOL    HW232142   5.496   6.116   6.488
10415SOL     OW32143   0.429   6.056   4.176
10415SOL    HW132144   0.510   5.999   4.189
10415SOL    HW232145   0.447   6.148   4.208
10416SOL     OW32146   5.400   1.824   5.013
10416SOL    HW132147   5.419   1.897   4.947
10416SOL    HW232148   5.476   1.818   5.079
10417SOL     OW32149   4.046   4.846   3.655
10417SOL    HW132150   4.127   4.800   3.617
10417SOL    HW232151   4.066   4.878   3.748
10418SOL     OW32152   6.670   4.465   6.679
10418SOL    HW132153   6.570   4.457   6.679
10418SOL    HW232154   6.696   4.555   6.713
10419SOL     OW32155   3.031   1.140   4.758
10419SOL    HW132156   3.107   1.100   4.809
10419SOL    HW232157   2.980   1.202   4.818
10420SOL     OW32158   6.903   3.445   3.247
10420SOL    HW132159   6.830   3.390   3.288
10420SOL    HW232160   6.905   3.429   3.148
10421SOL     OW32161   1.061   4.668   4.391
10421SOL    HW132162   1.037   4.594   4.454
10421SOL    HW232163   1.126   4.730   4.436
10422SOL     OW32164   6.763   3.540   4.916
10422SOL    HW132165   6.855   3.568   4.888
10422SOL    HW232166   6.699   3.616   4.900
10423SOL     OW32167   3.520   5.031   4.027
10423SOL    HW132168   3.443   5.079   3.985
10423SOL    HW232169   3.571   4.983   3.956
10424SOL     OW32170   3.584   0.992   0.179
10424SOL    HW132171   3.580   0.908   0.125
10424SOL    HW232172   3.649   0.981   0.254
10425SOL     OW32173   1.816   1.295   0.385
10425SOL    HW132174   1.764   1.218   0.421
10425SOL    HW232175   1.753   1.361   0.342
10426SOL     OW32176   6.191   2.074   6.135
10426SOL    HW132177   6.156   2.011   6.204
10426SOL    HW232178   6.246   2.145   6.180
10427SOL     OW32179   5.635   6.824   4.271
10427SOL    HW132180   5.601   6.807   4.364
10427SOL    HW232181   5.617   6.743   4.214
10428SOL     OW32182   1.723   0.745   4.133
10428SOL    HW132183   1.771   0.791   4.058
10428SOL    HW232184   1.666   0.812   4.181
10429SOL     OW32185   1.121   3.243   2.596
10429SOL    HW132186   1.081   3.328   2.560
10429SOL    HW232187   1.139   3.254   2.694
10430SOL     OW32188   2.729   0.484   3.878
10430SOL    HW132189   2.702   0.524   3.790
10430SOL    HW232190   2.720   0.553   3.950
10431SOL     OW32191   2.824   0.997   3.342
10431SOL    HW132192   2.820   0.986   3.242
10431SOL    HW232193   2.810   1.094   3.365
10432SOL     OW32194   0.788   5.653   5.672
10432SOL    HW132195   0.742   5.568   5.695
10432SOL    HW232196   0.726   5.711   5.618
10433SOL     OW32197   1.969   0.085   2.793
10433SOL    HW132198   1.871   0.095   2.810
10433SOL    HW232199   1.986   0.081   2.694
10434SOL     OW32200   4.177   6.624   5.193
10434SOL    HW132201   4.232   6.653   5.114
10434SOL    HW232202   4.182   6.525   5.202
10435SOL     OW32203   2.022   2.240   6.696
10435SOL    HW132204   1.953   2.168   6.688
10435SOL    HW232205   2.109   2.200   6.724
10436SOL     OW32206   6.704   4.147   4.909
10436SOL    HW132207   6.801   4.125   4.898
10436SOL    HW232208   6.668   4.097   4.987
10437SOL     OW32209   5.125   5.946   5.218
10437SOL    HW132210   5.158   5.861   5.259
10437SOL    HW232211   5.142   6.022   5.281
10438SOL     OW32212   6.608   6.174   6.438
10438SOL    HW132213   6.639   6.265   6.410
10438SOL    HW232214   6.579   6.177   6.534
10439SOL     OW32215   6.576   6.856   4.589
10439SOL    HW132216   6.676   6.850   4.588
10439SOL    HW232217   6.546   6.919   4.518
10440SOL     OW32218   0.079   2.268   7.012
10440SOL    HW132219   0.036   2.194   0.048
10440SOL    HW232220   0.060   2.257   6.915
10441SOL     OW32221   3.580   1.982   1.137
10441SOL    HW132222   3.531   1.932   1.208
10441SOL    HW232223   3.647   1.922   1.094
10442SOL     OW32224   2.203   1.715   6.079
10442SOL    HW132225   2.259   1.759   6.149
10442SOL    HW232226   2.156   1.785   6.025
10443SOL     OW32227   0.264   2.062   2.973
10443SOL    HW132228   0.195   2.125   2.938
10443SOL    HW232229   0.235   1.968   2.955
10444SOL     OW32230   3.771   5.644   4.216
10444SOL    HW132231   3.702   5.572   4.208
10444SOL    HW232232   3.840   5.617   4.284
10445SOL     OW32233   1.317   4.020   2.833
10445SOL    HW132234   1.274   4.002   2.922
10445SOL    HW232235   1.386   3.950   2.815
10446SOL     OW32236   1.646   4.008   6.086
10446SOL    HW132237   1.728   3.951   6.076
10446SOL    HW232238   1.637   4.068   6.007
10447SOL     OW32239   0.157   2.254   2.533
10447SOL    HW132240   0.170   2.214   2.442
10447SOL    HW232241   0.061   2.245   2.560
10448SOL     OW32242   2.513   6.062   2.939
10448SOL    HW132243   2.593   6.110   2.904
10448SOL    HW232244   2.431   6.117   2.924
10449SOL     OW32245   4.230   5.621   5.499
10449SOL    HW132246   4.318   5.668   5.506
10449SOL    HW232247   4.231   5.539   5.556
10450SOL     OW32248   0.318   0.719   6.046
10450SOL    HW132249   0.292   0.803   6.094
10450SOL    HW232250   0.235   0.670   6.019
10451SOL     OW32251   2.275   0.865   3.120
10451SOL    HW132252   2.242   0.792   3.178
10451SOL    HW232253   2.355   0.908   3.162
10452SOL     OW32254   0.321   3.560   4.529
10452SOL    HW132255   0.256   3.500   4.576
10452SOL    HW232256   0.364   3.510   4.454
10453SOL     OW32257   4.001   5.609   3.630
10453SOL    HW132258   3.952   5.553   3.697
10453SOL    HW232259   4.018   5.555   3.547
10454SOL     OW32260   6.922   0.237   5.744
10454SOL    HW132261   6.827   0.268   5.739
10454SOL    HW232262   6.970   0.261   5.659
10455SOL     OW32263   6.381   6.384   3.777
10455SOL    HW132264   6.425   6.367   3.866
10455SOL    HW232265   6.300   6.326   3.768
10456SOL     OW32266   1.033   5.576   6.976
10456SOL    HW132267   0.939   5.563   6.946
10456SOL    HW232268   1.055   5.674   6.975
10457SOL     OW32269   3.708   2.495   6.956
10457SOL    HW132270   3.678   2.589   6.945
10457SOL    HW232271   3.635   2.440   6.998
10458SOL     OW32272   7.007   5.729   6.423
10458SOL    HW132273   6.973   5.822   6.434
10458SOL    HW232274   0.021   5.715   6.328
10459SOL     OW32275   0.320   5.277   0.438
10459SOL    HW132276   0.310   5.250   0.534
10459SOL    HW232277   0.302   5.198   0.380
10460SOL     OW32278   0.561   2.485   0.934
10460SOL    HW132279   0.562   2.583   0.917
10460SOL    HW232280   0.563   2.435   0.847
10461SOL     OW32281   6.997   4.979   5.388
10461SOL    HW132282   6.998   5.059   5.449
10461SOL    HW232283   0.034   4.905   5.429
10462SOL     OW32284   4.021   1.725   0.783
10462SOL    HW132285   4.041   1.790   0.857
10462SOL    HW232286   3.934   1.750   0.740
10463SOL     OW32287   4.760   2.670   6.450
10463SOL    HW132288   4.684   2.623   6.495
10463SOL    HW232289   4.727   2.715   6.367
10464SOL     OW32290   6.519   4.927   2.786
10464SOL    HW132291   6.494   5.024   2.782
10464SOL    HW232292   6.525   4.890   2.693
10465SOL     OW32293   5.195   4.473   2.137
10465SOL    HW132294   5.212   4.384   2.181
10465SOL    HW232295   5.097   4.486   2.125
10466SOL     OW32296   6.234   4.855   6.492
10466SOL    HW132297   6.185   4.768   6.492
10466SOL    HW232298   6.332   4.838   6.486
10467SOL     OW32299   1.833   2.587   0.073
10467SOL    HW132300   1.870   2.547   7.005
10467SOL    HW232301   1.798   2.678   0.054
10468SOL     OW32302   2.679   5.200   3.627
10468SOL    HW132303   2.658   5.105   3.604
10468SOL    HW232304   2.594   5.253   3.628
10469SOL     OW32305   6.261   1.469   4.597
10469SOL    HW132306   6.243   1.394   4.661
10469SOL    HW232307   6.250   1.557   4.644
10470SOL     OW32308   2.521   2.551   3.999
10470SOL    HW132309   2.467   2.634   4.010
10470SOL    HW232310   2.538   2.535   3.901
10471SOL     OW32311   3.348   6.874   6.963
10471SOL    HW132312   3.314   6.939   6.895
10471SOL    HW232313   3.271   6.820   6.999
10472SOL     OW32314   3.005   4.818   6.933
10472SOL    HW132315   3.081   4.861   6.982
10472SOL    HW232316   2.991   4.865   6.846
10473SOL     OW32317   5.129   5.159   6.922
10473SOL    HW132318   5.046   5.212   6.937
10473SOL    HW232319   5.203   5.197   6.978
10474SOL     OW32320   5.048   1.006   3.498
10474SOL    HW132321   5.089   1.096   3.481
10474SOL    HW232322   5.083   0.969   3.584
10475SOL     OW32323   1.040   0.101   1.372
10475SOL    HW132324   1.098   0.035   1.325
10475SOL    HW232325   0.949   0.101   1.332
10476SOL     OW32326   3.571   6.180   6.787
10476SOL    HW132327   3.546   6.087   6.761
10476SOL    HW232328   3.630   6.220   6.717
10477SOL     OW32329   6.275   6.059   3.022
10477SOL    HW132330   6.184   6.017   3.017
10477SOL    HW232331   6.270   6.152   2.984
10478SOL     OW32332   5.968   0.703   0.026
10478SOL    HW132333   5.910   0.634   6.999
10478SOL    HW232334   6.046   0.724   6.982
10479SOL     OW32335   0.545   2.427   2.154
10479SOL    HW132336   0.603   2.495   2.110
10479SOL    HW232337   0.454   2.467   2.170
10480SOL     OW32338   1.771   0.210   2.499
10480SOL    HW132339   1.825   0.127   2.508
10480SOL    HW232340   1.801   0.262   2.419
10481SOL     OW32341   0.130   0.824   2.652
10481SOL    HW132342   0.206   0.876   2.613
10481SOL    HW232343   0.138   0.822   2.751
10482SOL     OW32344   5.401   3.661   4.038
10482SOL    HW132345   5.412   3.754   4.004
10482SOL    HW232346   5.429   3.596   3.967
10483SOL     OW32347   6.123   5.703   0.582
10483SOL    HW132348   6.145   5.784   0.636
10483SOL    HW232349   6.024   5.700   0.565
10484SOL     OW32350   6.447   1.102   1.797
10484SOL    HW132351   6.404   1.020   1.833
10484SOL    HW232352   6.377   1.164   1.763
10485SOL     OW32353   5.540   3.249   5.648
10485SOL    HW132354   5.440   3.251   5.659
10485SOL    HW232355   5.564   3.284   5.558
10486SOL     OW32356   5.743   2.782   1.755
10486SOL    HW132357   5.783   2.852   1.695
10486SOL    HW232358   5.748   2.813   1.850
10487SOL     OW32359   6.225   6.864   1.485
10487SOL    HW132360   6.242   6.917   1.402
10487SOL    HW232361   6.162   6.914   1.544
10488SOL     OW32362   2.655   2.620   6.024
10488SOL    HW132363   2.739   2.668   6.046
10488SOL    HW232364   2.591   2.683   5.981
10489SOL     OW32365   0.088   5.782   6.190
10489SOL    HW132366   0.128   5.863   6.233
10489SOL    HW232367   0.161   5.727   6.150
10490SOL     OW32368   6.795   1.074   3.615
10490SOL    HW132369   6.753   1.122   3.538
10490SOL    HW232370   6.752   1.104   3.700
10491SOL     OW32371   2.015   4.544   6.021
10491SOL    HW132372   2.052   4.525   6.112
10491SOL    HW232373   1.928   4.497   6.010
10492SOL     OW32374   4.947   3.378   5.079
10492SOL    HW132375   4.892   3.301   5.113
10492SOL    HW232376   4.889   3.459   5.072
10493SOL     OW32377   3.727   0.965   1.576
10493SOL    HW132378   3.761   1.048   1.619
10493SOL    HW232379   3.628   0.959   1.588
10494SOL     OW32380   5.659   1.686   4.770
10494SOL    HW132381   5.730   1.686   4.840
10494SOL    HW232382   5.701   1.705   4.681
10495SOL     OW32383   1.447   6.620   0.987
10495SOL    HW132384   1.527   6.569   0.956
10495SOL    HW232385   1.367   6.593   0.934
10496SOL     OW32386   0.173   6.778   6.187
10496SOL    HW132387   0.100   6.744   6.128
10496SOL    HW232388   0.134   6.841   6.255
10497SOL     OW32389   1.410   0.527   1.159
10497SOL    HW132390   1.414   0.505   1.062
10497SOL    HW232391   1.418   0.625   1.172
10498SOL     OW32392   1.702   6.427   5.913
10498SOL    HW132393   1.798   6.400   5.919
10498SOL    HW232394   1.656   6.409   6.000
10499SOL     OW32395   2.948   5.889   3.459
10499SOL    HW132396   2.971   5.802   3.415
10499SOL    HW232397   3.030   5.926   3.502
10500SOL     OW32398   1.269   2.064   6.038
10500SOL    HW132399   1.231   2.010   5.963
10500SOL    HW232400   1.209   2.141   6.058
10501SOL     OW32401   1.881   3.902   2.669
10501SOL    HW132402   1.978   3.916   2.688
10501SOL    HW232403   1.842   3.986   2.632
10502SOL     OW32404   3.401   6.375   6.730
10502SOL    HW132405   3.366   6.350   6.639
10502SOL    HW232406   3.466   6.305   6.760
10503SOL     OW32407   3.256   2.722   0.108
10503SOL    HW132408   3.213   2.708   0.197
10503SOL    HW232409   3.189   2.762   0.045
10504SOL     OW32410   3.107   2.999   0.500
10504SOL    HW132411   3.075   2.962   0.587
10504SOL    HW232412   3.035   3.054   0.458
10505SOL     OW32413   6.353   5.800   1.380
10505SOL    HW132414   6.375   5.892   1.413
10505SOL    HW232415   6.404   5.733   1.433
10506SOL     OW32416   0.698   3.876   6.177
10506SOL    HW132417   0.609   3.900   6.216
10506SOL    HW232418   0.727   3.787   6.213
10507SOL     OW32419   1.162   0.560   6.209
10507SOL    HW132420   1.071   0.586   6.241
10507SOL    HW232421   1.194   0.627   6.142
10508SOL     OW32422   5.246   4.442   3.515
10508SOL    HW132423   5.158   4.402   3.489
10508SOL    HW232424   5.247   4.456   3.614
10509SOL     OW32425   1.122   6.497   6.460
10509SOL    HW132426   1.029   6.460   6.462
10509SOL    HW232427   1.174   6.462   6.538
10510SOL     OW32428   6.200   5.763   6.863
10510SOL    HW132429   6.187   5.818   6.780
10510SOL    HW232430   6.199   5.823   6.943
10511SOL     OW32431   4.405   2.710   0.242
10511SOL    HW132432   4.380   2.741   0.334
10511SOL    HW232433   4.340   2.640   0.212
10512SOL     OW32434   4.211   0.246   6.020
10512SOL    HW132435   4.228   0.166   5.962
10512SOL    HW232436   4.113   0.264   6.024
10513SOL     OW32437   0.668   2.613   5.993
10513SOL    HW132438   0.756   2.569   5.973
10513SOL    HW232439   0.628   2.648   5.908
10514SOL     OW32440   6.816   4.348   6.982
10514SOL    HW132441   6.808   4.415   0.040
10514SOL    HW232442   6.731   4.347   6.929
10515SOL     OW32443   6.533   2.101   3.633
10515SOL    HW132444   6.516   2.028   3.566
10515SOL    HW232445   6.484   2.183   3.605
10516SOL     OW32446   4.437   1.086   5.990
10516SOL    HW132447   4.516   1.117   5.936
10516SOL    HW232448   4.467   1.016   6.055
10517SOL     OW32449   6.368   1.629   2.576
10517SOL    HW132450   6.378   1.588   2.667
10517SOL    HW232451   6.272   1.652   2.560
10518SOL     OW32452   1.096   6.248   0.718
10518SOL    HW132453   1.020   6.308   0.741
10518SOL    HW232454   1.077   6.155   0.751
10519SOL     OW32455   3.284   3.256   6.110
10519SOL    HW132456   3.340   3.238   6.030
10519SOL    HW232457   3.190   3.273   6.082
10520SOL     OW32458   3.398   2.593   6.922
10520SOL    HW132459   3.348   2.652   6.986
10520SOL    HW232460   3.342   2.513   6.900
10521SOL     OW32461   6.576   6.038   1.252
10521SOL    HW132462   6.631   5.955   1.255
10521SOL    HW232463   6.592   6.085   1.165
10522SOL     OW32464   6.651   0.503   0.719
10522SOL    HW132465   6.575   0.528   0.779
10522SOL    HW232466   6.736   0.544   0.752
10523SOL     OW32467   6.984   5.722   5.861
10523SOL    HW132468   6.941   5.783   5.927
10523SOL    HW232469   6.921   5.706   5.785
10524SOL     OW32470   1.970   0.145   4.530
10524SOL    HW132471   2.063   0.170   4.558
10524SOL    HW232472   1.951   0.185   4.440
10525SOL     OW32473   1.743   6.681   5.021
10525SOL    HW132474   1.723   6.642   4.932
10525SOL    HW232475   1.701   6.772   5.028
10526SOL     OW32476   0.174   1.027   2.121
10526SOL    HW132477   0.239   1.077   2.065
10526SOL    HW232478   0.118   1.091   2.174
10527SOL     OW32479   0.760   2.877   4.487
10527SOL    HW132480   0.758   2.977   4.494
10527SOL    HW232481   0.831   2.842   4.548
10528SOL     OW32482   6.928   5.234   5.068
10528SOL    HW132483   7.007   5.176   5.090
10528SOL    HW232484   6.887   5.268   5.152
10529SOL     OW32485   6.795   6.872   3.343
10529SOL    HW132486   6.730   6.810   3.387
10529SOL    HW232487   6.755   6.963   3.337
10530SOL     OW32488   2.728   2.285   5.687
10530SOL    HW132489   2.770   2.201   5.723
10530SOL    HW232490   2.784   2.364   5.715
10531SOL     OW32491   1.303   3.514   4.576
10531SOL    HW132492   1.385   3.571   4.580
10531SOL    HW232493   1.223   3.572   4.561
10532SOL     OW32494   4.133   2.605   6.429
10532SOL    HW132495   4.183   2.665   6.492
10532SOL    HW232496   4.037   2.632   6.427
10533SOL     OW32497   2.687   1.180   5.505
10533SOL    HW132498   2.732   1.100   5.464
10533SOL    HW232499   2.616   1.149   5.568
10534SOL     OW32500   0.068   5.598   0.857
10534SOL    HW132501   0.101   5.662   0.788
10534SOL    HW232502   0.046   5.647   0.941
10535SOL     OW32503   0.529   1.542   2.213
10535SOL    HW132504   0.522   1.466   2.278
10535SOL    HW232505   0.623   1.577   2.214
10536SOL     OW32506   4.960   0.594   2.710
10536SOL    HW132507   4.947   0.602   2.809
10536SOL    HW232508   4.956   0.685   2.669
10537SOL     OW32509   3.028   5.359   2.470
10537SOL    HW132510   3.018   5.437   2.531
10537SOL    HW232511   2.948   5.299   2.479
10538SOL     OW32512   4.241   4.269   0.220
10538SOL    HW132513   4.295   4.350   0.244
10538SOL    HW232514   4.303   4.194   0.194
10539SOL     OW32515   0.609   3.350   6.151
10539SOL    HW132516   0.600   3.274   6.086
10539SOL    HW232517   0.703   3.354   6.185
10540SOL     OW32518   2.002   0.613   5.787
10540SOL    HW132519   1.918   0.560   5.789
10540SOL    HW232520   2.074   0.563   5.837
10541SOL     OW32521   4.158   3.253   0.096
10541SOL    HW132522   4.127   3.281   0.186
10541SOL    HW232523   4.249   3.212   0.103
10542SOL     OW32524   6.941   2.473   0.637
10542SOL    HW132525   6.858   2.528   0.628
10542SOL    HW232526   6.969   2.438   0.548
10543SOL     OW32527   0.563   1.724   5.732
10543SOL    HW132528   0.613   1.643   5.702
10543SOL    HW232529   0.629   1.798   5.750
10544SOL     OW32530   2.315   2.157   2.385
10544SOL    HW132531   2.248   2.221   2.348
10544SOL    HW232532   2.333   2.180   2.481
10545SOL     OW32533   0.028   0.329   2.388
10545SOL    HW132534   6.954   0.358   2.420
10545SOL    HW232535   0.036   0.348   2.290
10546SOL     OW32536   2.495   0.085   4.496
10546SOL    HW132537   2.557   0.162   4.511
10546SOL    HW232538   2.530   0.028   4.422
10547SOL     OW32539   4.319   1.611   1.355
10547SOL    HW132540   4.233   1.571   1.384
10547SOL    HW232541   4.382   1.539   1.325
10548SOL     OW32542   5.249   3.931   4.465
10548SOL    HW132543   5.343   3.912   4.491
10548SOL    HW232544   5.196   3.956   4.546
10549SOL     OW32545   0.947   0.185   2.219
10549SOL    HW132546   1.016   0.122   2.184
10549SOL    HW232547   0.948   0.184   2.319
10550SOL     OW32548   5.136   0.545   3.910
10550SOL    HW132549   5.230   0.510   3.907
10550SOL    HW232550   5.098   0.546   3.817
10551SOL     OW32551   1.150   2.138   5.274
10551SOL    HW132552   1.206   2.158   5.354
10551SOL    HW232553   1.207   2.139   5.192
10552SOL     OW32554   3.281   2.587   5.891
10552SOL    HW132555   3.251   2.558   5.800
10552SOL    HW232556   3.345   2.663   5.882
10553SOL     OW32557   0.732   5.863   6.951
10553SOL    HW132558   0.689   5.814   0.011
10553SOL    HW232559   0.779   5.798   6.891
10554SOL     OW32560   6.755   4.979   0.022
10554SOL    HW132561   6.791   4.975   6.944
10554SOL    HW232562   6.792   5.060   0.068
10555SOL     OW32563   3.342   1.579   2.546
10555SOL    HW132564   3.242   1.575   2.545
10555SOL    HW232565   3.376   1.587   2.453
10556SOL     OW32566   2.047   3.379   5.169
10556SOL    HW132567   2.095   3.460   5.136
10556SOL    HW232568   2.092   3.297   5.134
10557SOL     OW32569   6.983   2.514   3.239
10557SOL    HW132570   6.963   2.421   3.211
10557SOL    HW232571   0.065   2.523   3.258
10558SOL     OW32572   4.506   6.777   5.360
10558SOL    HW132573   4.588   6.752   5.412
10558SOL    HW232574   4.437   6.705   5.372
10559SOL     OW32575   4.850   1.907   0.998
10559SOL    HW132576   4.802   1.975   1.053
10559SOL    HW232577   4.926   1.951   0.949
10560SOL     OW32578   1.450   4.192   4.887
10560SOL    HW132579   1.498   4.254   4.949
10560SOL    HW232580   1.416   4.113   4.938
10561SOL     OW32581   2.018   4.809   6.610
10561SOL    HW132582   2.047   4.816   6.515
10561SOL    HW232583   2.098   4.808   6.669
10562SOL     OW32584   4.421   1.293   0.740
10562SOL    HW132585   4.434   1.353   0.660
10562SOL    HW232586   4.511   1.263   0.773
10563SOL     OW32587   2.183   1.833   5.359
10563SOL    HW132588   2.102   1.819   5.303
10563SOL    HW232589   2.246   1.895   5.312
10564SOL     OW32590   5.669   1.218   1.673
10564SOL    HW132591   5.680   1.150   1.600
10564SOL    HW232592   5.637   1.304   1.635
10565SOL     OW32593   6.636   0.942   5.336
10565SOL    HW132594   6.647   0.911   5.431
10565SOL    HW232595   6.539   0.954   5.316
10566SOL     OW32596   3.445   4.008   6.223
10566SOL    HW132597   3.435   3.914   6.188
10566SOL    HW232598   3.354   4.047   6.239
10567SOL     OW32599   1.867   3.747   4.116
10567SOL    HW132600   1.962   3.741   4.146
10567SOL    HW232601   1.806   3.744   4.195
10568SOL     OW32602   5.467   1.074   2.301
10568SOL    HW132603   5.423   1.055   2.389
10568SOL    HW232604   5.564   1.055   2.307
10569SOL     OW32605   6.277   3.137   3.055
10569SOL    HW132606   6.307   3.122   2.961
10569SOL    HW232607   6.207   3.070   3.080
10570SOL     OW32608   2.162   4.525   2.408
10570SOL    HW132609   2.255   4.502   2.382
10570SOL    HW232610   2.156   4.540   2.506
10571SOL     OW32611   6.474   5.946   2.552
10571SOL    HW132612   6.443   5.983   2.464
10571SOL    HW232613   6.538   5.871   2.535
10572SOL     OW32614   5.891   3.847   2.597
10572SOL    HW132615   5.910   3.919   2.663
10572SOL    HW232616   5.924   3.874   2.507
10573SOL     OW32617   6.264   5.617   3.862
10573SOL    HW132618   6.340   5.627   3.926
10573SOL    HW232619   6.262   5.523   3.828
10574SOL     OW32620   0.833   2.143   3.552
10574SOL    HW132621   0.859   2.162   3.647
10574SOL    HW232622   0.854   2.048   3.530
10575SOL     OW32623   1.162   1.008   4.949
10575SOL    HW132624   1.097   0.939   4.918
10575SOL    HW232625   1.171   1.079   4.880
10576SOL     OW32626   1.554   5.444   4.983
10576SOL    HW132627   1.632   5.473   5.039
10576SOL    HW232628   1.575   5.458   4.887
10577SOL     OW32629   1.759   2.923   5.997
10577SOL    HW132630   1.669   2.910   6.039
10577SOL    HW232631   1.826   2.941   6.068
10578SOL     OW32632   5.797   6.892   4.999
10578SOL    HW132633   5.841   6.889   4.910
10578SOL    HW232634   5.783   6.799   5.033
10579SOL     OW32635   4.333   2.005   0.689
10579SOL    HW132636   4.344   1.914   0.727
10579SOL    HW232637   4.258   2.052   0.736
10580SOL     OW32638   6.971   6.128   6.476
10580SOL    HW132639   6.915   6.141   6.394
10580SOL    HW232640   0.052   6.137   6.453
10581SOL     OW32641   5.491   0.738   3.830
10581SOL    HW132642   5.499   0.762   3.927
10581SOL    HW232643   5.459   0.817   3.779
10582SOL     OW32644   3.662   5.184   6.679
10582SOL    HW132645   3.682   5.163   6.775
10582SOL    HW232646   3.744   5.220   6.635
10583SOL     OW32647   3.736   0.994   0.404
10583SOL    HW132648   3.714   0.980   0.500
10583SOL    HW232649   3.835   0.988   0.392
10584SOL     OW32650   5.411   6.320   1.686
10584SOL    HW132651   5.501   6.279   1.674
10584SOL    HW232652   5.357   6.264   1.749
10585SOL     OW32653   0.920   2.836   6.307
10585SOL    HW132654   0.832   2.796   6.282
10585SOL    HW232655   0.929   2.925   6.263
10586SOL     OW32656   2.918   5.964   5.977
10586SOL    HW132657   2.868   5.992   6.059
10586SOL    HW232658   2.900   5.867   5.959
10587SOL     OW32659   6.038   3.600   0.644
10587SOL    HW132660   6.056   3.534   0.571
10587SOL    HW232661   5.971   3.667   0.612
10588SOL     OW32662   0.994   5.004   2.694
10588SOL    HW132663   0.927   4.989   2.766
10588SOL    HW232664   0.948   5.038   2.612
10589SOL     OW32665   5.543   2.545   4.290
10589SOL    HW132666   5.512   2.451   4.302
10589SOL    HW232667   5.633   2.556   4.332
10590SOL     OW32668   1.256   0.237   3.444
10590SOL    HW132669   1.196   0.222   3.522
10590SOL    HW232670   1.328   0.167   3.443
10591SOL     OW32671   1.306   1.743   6.060
10591SOL    HW132672   1.290   1.836   6.028
10591SOL    HW232673   1.404   1.726   6.068
10592SOL     OW32674   6.729   1.526   0.552
10592SOL    HW132675   6.667   1.473   0.610
10592SOL    HW232676   6.677   1.597   0.505
10593SOL     OW32677   1.902   5.564   1.754
10593SOL    HW132678   2.002   5.558   1.759
10593SOL    HW232679   1.862   5.506   1.824
10594SOL     OW32680   6.124   1.669   4.119
10594SOL    HW132681   6.171   1.694   4.204
10594SOL    HW232682   6.186   1.684   4.042
10595SOL     OW32683   3.976   6.777   6.467
10595SOL    HW132684   3.988   6.779   6.566
10595SOL    HW232685   4.065   6.788   6.422
10596SOL     OW32686   4.174   6.919   2.322
10596SOL    HW132687   4.187   6.857   2.244
10596SOL    HW232688   4.081   6.908   2.358
10597SOL     OW32689   2.230   0.802   4.800
10597SOL    HW132690   2.268   0.776   4.711
10597SOL    HW232691   2.236   0.725   4.863
10598SOL     OW32692   1.974   2.413   6.883
10598SOL    HW132693   1.998   2.332   6.830
10598SOL    HW232694   2.045   2.483   6.873
10599SOL     OW32695   5.965   0.756   0.293
10599SOL    HW132696   6.044   0.707   0.330
10599SOL    HW232697   5.957   0.738   0.195
10600SOL     OW32698   2.686   2.673   5.672
10600SOL    HW132699   2.686   2.699   5.575
10600SOL    HW232700   2.599   2.629   5.695
10601SOL     OW32701   2.733   6.632   6.187
10601SOL    HW132702   2.704   6.632   6.091
10601SOL    HW232703   2.675   6.568   6.239
10602SOL     OW32704   4.961   1.630   1.598
10602SOL    HW132705   4.978   1.549   1.654
10602SOL    HW232706   4.863   1.642   1.585
10603SOL     OW32707   1.808   5.110   4.045
10603SOL    HW132708   1.751   5.188   4.017
10603SOL    HW232709   1.780   5.029   3.995
10604SOL     OW32710   6.470   4.354   4.156
10604SOL    HW132711   6.492   4.318   4.247
10604SOL    HW232712   6.542   4.418   4.128
10605SOL     OW32713   1.169   5.152   0.097
10605SOL    HW132714   1.184   5.250   0.084
10605SOL    HW232715   1.226   5.100   0.034
10606SOL     OW32716   0.229   0.635   1.643
10606SOL    HW132717   0.173   0.573   1.588
10606SOL    HW232718   0.271   0.584   1.718
10607SOL     OW32719   4.877   4.452   6.431
10607SOL    HW132720   4.918   4.543   6.419
10607SOL    HW232721   4.949   4.384   6.444
10608SOL     OW32722   5.565   1.364   4.281
10608SOL    HW132723   5.513   1.347   4.365
10608SOL    HW232724   5.501   1.377   4.205
10609SOL     OW32725   4.265   6.323   0.626
10609SOL    HW132726   4.204   6.396   0.658
10609SOL    HW232727   4.360   6.349   0.646
10610SOL     OW32728   1.263   3.143   5.879
10610SOL    HW132729   1.239   3.216   5.815
10610SOL    HW232730   1.348   3.099   5.850
10611SOL     OW32731   5.395   2.483   6.157
10611SOL    HW132732   5.417   2.441   6.244
10611SOL    HW232733   5.425   2.423   6.082
10612SOL     OW32734   2.549   6.801   6.431
10612SOL    HW132735   2.579   6.892   6.460
10612SOL    HW232736   2.517   6.805   6.337
10613SOL     OW32737   0.593   6.674   5.677
10613SOL    HW132738   0.563   6.692   5.770
10613SOL    HW232739   0.558   6.745   5.616
10614SOL     OW32740   6.298   1.051   4.481
10614SOL    HW132741   6.344   1.026   4.395
10614SOL    HW232742   6.200   1.038   4.471
10615SOL     OW32743   5.018   5.284   4.910
10615SOL    HW132744   5.039   5.270   4.813
10615SOL    HW232745   5.090   5.341   4.951
10616SOL     OW32746   3.292   6.442   0.356
10616SOL    HW132747   3.218   6.404   0.300
10616SOL    HW232748   3.345   6.367   0.396
10617SOL     OW32749   1.918   2.377   0.935
10617SOL    HW132750   1.893   2.392   0.839
10617SOL    HW232751   2.016   2.360   0.942
10618SOL     OW32752   5.961   2.763   0.095
10618SOL    HW132753   5.987   2.759   0.191
10618SOL    HW232754   5.977   2.673   0.053
10619SOL     OW32755   0.780   4.222   3.718
10619SOL    HW132756   0.734   4.172   3.791
10619SOL    HW232757   0.842   4.161   3.669
10620SOL     OW32758   1.680   5.965   4.629
10620SOL    HW132759   1.744   6.032   4.669
10620SOL    HW232760   1.731   5.902   4.571
10621SOL     OW32761   1.867   5.924   6.727
10621SOL    HW132762   1.864   6.024   6.737
10621SOL    HW232763   1.864   5.900   6.630
10622SOL     OW32764   3.581   0.044   1.615
10622SOL    HW132765   3.573   0.120   1.680
10622SOL    HW232766   3.591   0.080   1.523
10623SOL     OW32767   6.088   2.558   3.906
10623SOL    HW132768   6.131   2.592   3.823
10623SOL    HW232769   6.140   2.588   3.985
10624SOL     OW32770   1.422   1.019   4.702
10624SOL    HW132771   1.375   1.098   4.741
10624SOL    HW232772   1.496   0.991   4.764
10625SOL     OW32773   0.701   2.859   6.995
10625SOL    HW132774   0.665   2.950   6.975
10625SOL    HW232775   0.779   2.867   0.041
10626SOL     OW32776   0.407   1.753   1.912
10626SOL    HW132777   0.403   1.653   1.921
10626SOL    HW232778   0.452   1.792   1.992
10627SOL     OW32779   6.335   6.563   2.695
10627SOL    HW132780   6.239   6.540   2.711
10627SOL    HW232781   6.350   6.661   2.711
10628SOL     OW32782   6.451   5.369   5.571
10628SOL    HW132783   6.453   5.293   5.636
10628SOL    HW232784   6.544   5.388   5.540
10629SOL     OW32785   2.709   5.413   5.669
10629SOL    HW132786   2.692   5.444   5.575
10629SOL    HW232787   2.724   5.493   5.728
10630SOL     OW32788   5.932   1.653   3.535
10630SOL    HW132789   6.012   1.668   3.593
10630SOL    HW232790   5.948   1.695   3.445
10631SOL     OW32791   0.472   6.546   3.647
10631SOL    HW132792   0.514   6.497   3.571
10631SOL    HW232793   0.515   6.635   3.657
10632SOL     OW32794   6.611   2.128   4.751
10632SOL    HW132795   6.659   2.174   4.676
10632SOL    HW232796   6.512   2.142   4.741
10633SOL     OW32797   2.453   5.441   1.345
10633SOL    HW132798   2.466   5.432   1.444
10633SOL    HW232799   2.378   5.505   1.327
10634SOL     OW32800   3.564   6.196   0.719
10634SOL    HW132801   3.633   6.175   0.787
10634SOL    HW232802   3.473   6.177   0.756
10635SOL     OW32803   2.274   0.522   1.328
10635SOL    HW132804   2.251   0.504   1.424
10635SOL    HW232805   2.192   0.514   1.272
10636SOL     OW32806   0.839   1.952   1.103
10636SOL    HW132807   0.781   1.890   1.050
10636SOL    HW232808   0.796   1.971   1.191
10637SOL     OW32809   3.598   4.181   4.779
10637SOL    HW132810   3.647   4.236   4.846
10637SOL    HW232811   3.500   4.190   4.793
10638SOL     OW32812   6.471   6.324   4.742
10638SOL    HW132813   6.499   6.270   4.822
10638SOL    HW232814   6.402   6.390   4.770
10639SOL     OW32815   1.774   0.985   5.069
10639SOL    HW132816   1.786   0.886   5.060
10639SOL    HW232817   1.692   1.012   5.018
10640SOL     OW32818   5.146   1.553   6.725
10640SOL    HW132819   5.151   1.454   6.708
10640SOL    HW232820   5.218   1.578   6.789
10641SOL     OW32821   5.678   1.572   0.132
10641SOL    HW132822   5.601   1.511   0.151
10641SOL    HW232823   5.643   1.663   0.109
10642SOL     OW32824   0.218   2.437   1.881
10642SOL    HW132825   0.246   2.530   1.905
10642SOL    HW232826   0.148   2.406   1.945
10643SOL     OW32827   2.638   3.514   5.370
10643SOL    HW132828   2.716   3.457   5.344
10643SOL    HW232829   2.662   3.571   5.448
10644SOL     OW32830   4.572   1.806   4.358
10644SOL    HW132831   4.514   1.726   4.340
10644SOL    HW232832   4.522   1.871   4.415
10645SOL     OW32833   2.237   0.229   4.640
10645SOL    HW132834   2.241   0.131   4.656
10645SOL    HW232835   2.328   0.263   4.615
10646SOL     OW32836   1.387   2.786   5.706
10646SOL    HW132837   1.380   2.773   5.607
10646SOL    HW232838   1.320   2.853   5.736
10647SOL     OW32839   6.598   4.825   0.451
10647SOL    HW132840   6.687   4.868   0.464
10647SOL    HW232841   6.605   4.727   0.469
10648SOL     OW32842   4.936   2.783   6.894
10648SOL    HW132843   4.950   2.701   6.838
10648SOL    HW232844   4.847   2.823   6.873
10649SOL     OW32845   6.583   4.638   5.529
10649SOL    HW132846   6.644   4.715   5.510
10649SOL    HW232847   6.610   4.595   5.615
10650SOL     OW32848   2.534   6.589   4.026
10650SOL    HW132849   2.470   6.514   4.041
10650SOL    HW232850   2.602   6.561   3.959
10651SOL     OW32851   4.974   6.791   5.459
10651SOL    HW132852   4.951   6.851   5.382
10651SOL    HW232853   4.890   6.749   5.494
10652SOL     OW32854   3.717   0.433   6.309
10652SOL    HW132855   3.773   0.412   6.389
10652SOL    HW232856   3.675   0.349   6.274
10653SOL     OW32857   5.282   4.380   4.203
10653SOL    HW132858   5.202   4.334   4.241
10653SOL    HW232859   5.262   4.477   4.189
10654SOL     OW32860   3.844   0.991   0.873
10654SOL    HW132861   3.777   1.064   0.891
10654SOL    HW232862   3.917   1.028   0.816
10655SOL     OW32863   3.015   5.976   0.894
10655SOL    HW132864   3.099   6.019   0.927
10655SOL    HW232865   3.036   5.909   0.823
10656SOL     OW32866   6.431   2.424   0.172
10656SOL    HW132867   6.350   2.435   0.229
10656SOL    HW232868   6.511   2.459   0.221
10657SOL     OW32869   5.746   0.750   1.088
10657SOL    HW132870   5.692   0.691   1.028
10657SOL    HW232871   5.718   0.737   1.183
10658SOL     OW32872   0.097   5.027   4.250
10658SOL    HW132873   0.138   5.080   4.324
10658SOL    HW232874   0.007   5.063   4.229
10659SOL     OW32875   6.119   0.206   0.603
10659SOL    HW132876   6.088   0.297   0.630
10659SOL    HW232877   6.100   0.192   0.505
10660SOL     OW32878   4.783   4.994   5.419
10660SOL    HW132879   4.760   4.928   5.490
10660SOL    HW232880   4.866   5.044   5.445
10661SOL     OW32881   0.404   6.576   2.775
10661SOL    HW132882   0.384   6.668   2.809
10661SOL    HW232883   0.394   6.574   2.676
10662SOL     OW32884   6.596   1.235   0.536
10662SOL    HW132885   6.537   1.300   0.583
10662SOL    HW232886   6.549   1.148   0.526
10663SOL     OW32887   7.010   0.150   0.280
10663SOL    HW132888   0.087   0.184   0.291
10663SOL    HW232889   6.947   0.205   0.335
10664SOL     OW32890   2.295   5.269   0.067
10664SOL    HW132891   2.212   5.262   0.121
10664SOL    HW232892   2.350   5.346   0.099
10665SOL     OW32893   6.313   1.636   1.074
10665SOL    HW132894   6.359   1.576   1.008
10665SOL    HW232895   6.327   1.600   1.167
10666SOL     OW32896   2.387   6.151   0.134
10666SOL    HW132897   2.405   6.073   0.075
10666SOL    HW232898   2.350   6.226   0.080
10667SOL     OW32899   3.554   1.835   6.047
10667SOL    HW132900   3.646   1.809   6.016
10667SOL    HW232901   3.533   1.927   6.014
10668SOL     OW32902   1.543   1.693   6.546
10668SOL    HW132903   1.617   1.632   6.577
10668SOL    HW232904   1.509   1.663   6.457
10669SOL     OW32905   2.012   0.003   0.077
10669SOL    HW132906   1.981   0.057   0.155
10669SOL    HW232907   1.934   6.972   0.035
10670SOL     OW32908   5.905   4.396   5.867
10670SOL    HW132909   5.935   4.335   5.940
10670SOL    HW232910   5.977   4.462   5.846
10671SOL     OW32911   2.140   1.550   3.109
10671SOL    HW132912   2.156   1.638   3.156
10671SOL    HW232913   2.133   1.477   3.177
10672SOL     OW32914   0.030   3.235   1.366
10672SOL    HW132915   0.022   3.139   1.391
10672SOL    HW232916   6.969   3.260   1.306
10673SOL     OW32917   2.723   3.029   5.302
10673SOL    HW132918   2.640   3.018   5.247
10673SOL    HW232919   2.699   3.040   5.398
10674SOL     OW32920   4.057   3.384   1.532
10674SOL    HW132921   3.972   3.354   1.577
10674SOL    HW232922   4.062   3.484   1.535
10675SOL     OW32923   0.293   0.243   5.579
10675SOL    HW132924   0.319   0.269   5.487
10675SOL    HW232925   0.363   0.184   5.619
10676SOL     OW32926   6.277   6.712   6.545
10676SOL    HW132927   6.375   6.700   6.527
10676SOL    HW232928   6.235   6.758   6.467
10677SOL     OW32929   0.601   0.488   0.830
10677SOL    HW132930   0.605   0.539   0.744
10677SOL    HW232931   0.593   0.552   0.906
10678SOL     OW32932   2.362   6.123   2.218
10678SOL    HW132933   2.361   6.023   2.214
10678SOL    HW232934   2.443   6.158   2.171
10679SOL     OW32935   5.155   5.562   4.649
10679SOL    HW132936   5.136   5.466   4.670
10679SOL    HW232937   5.079   5.618   4.680
10680SOL     OW32938   1.657   3.187   2.664
10680SOL    HW132939   1.604   3.113   2.704
10680SOL    HW232940   1.643   3.190   2.565
10681SOL     OW32941   6.612   2.056   5.890
10681SOL    HW132942   6.539   2.112   5.927
10681SOL    HW232943   6.633   1.982   5.953
10682SOL     OW32944   0.160   1.533   3.084
10682SOL    HW132945   0.128   1.505   3.175
10682SOL    HW232946   0.082   1.563   3.030
10683SOL     OW32947   1.676   1.395   5.041
10683SOL    HW132948   1.599   1.349   4.995
10683SOL    HW232949   1.678   1.491   5.014
10684SOL     OW32950   6.205   4.495   0.043
10684SOL    HW132951   6.108   4.495   0.067
10684SOL    HW232952   6.251   4.421   0.092
10685SOL     OW32953   0.112   3.082   2.684
10685SOL    HW132954   0.080   3.147   2.752
10685SOL    HW232955   0.195   3.117   2.640
10686SOL     OW32956   3.224   5.321   6.990
10686SOL    HW132957   3.270   5.282   6.910
10686SOL    HW232958   3.292   5.366   0.033
10687SOL     OW32959   0.456   4.684   3.226
10687SOL    HW132960   0.362   4.698   3.257
10687SOL    HW232961   0.482   4.755   3.162
10688SOL     OW32962   6.770   5.064   1.801
10688SOL    HW132963   6.735   5.000   1.869
10688SOL    HW232964   6.712   5.062   1.720
10689SOL     OW32965   0.672   1.022   2.709
10689SOL    HW132966   0.612   1.055   2.636
10689SOL    HW232967   0.750   0.974   2.668
10690SOL     OW32968   4.240   4.916   1.588
10690SOL    HW132969   4.222   4.873   1.676
10690SOL    HW232970   4.204   4.859   1.514
10691SOL     OW32971   0.008   1.264   1.713
10691SOL    HW132972   7.016   1.363   1.698
10691SOL    HW232973   6.956   1.235   1.780
10692SOL     OW32974   3.686   6.204   3.460
10692SOL    HW132975   3.760   6.200   3.393
10692SOL    HW232976   3.602   6.167   3.420
10693SOL     OW32977   6.576   1.729   1.943
10693SOL    HW132978   6.641   1.800   1.970
10693SOL    HW232979   6.605   1.641   1.980
10694SOL     OW32980   3.958   6.445   0.238
10694SOL    HW132981   3.957   6.397   0.326
10694SOL    HW232982   3.875   6.501   0.230
10695SOL     OW32983   0.280   2.983   4.066
10695SOL    HW132984   0.190   2.946   4.091
10695SOL    HW232985   0.334   2.997   4.149
10696SOL     OW32986   0.254   6.070   1.777
10696SOL    HW132987   0.305   5.995   1.820
10696SOL    HW232988   0.293   6.157   1.806
10697SOL     OW32989   2.156   5.643   3.431
10697SOL    HW132990   2.118   5.728   3.394
10697SOL    HW232991   2.243   5.662   3.477
10698SOL     OW32992   2.872   6.618   3.628
10698SOL    HW132993   2.970   6.633   3.642
10698SOL    HW232994   2.857   6.580   3.537
10699SOL     OW32995   2.728   2.376   2.941
10699SOL    HW132996   2.815   2.333   2.965
10699SOL    HW232997   2.714   2.371   2.842
10700SOL     OW32998   6.959   6.851   0.895
10700SOL    HW132999   6.944   6.943   0.932
10700SOL    HW233000   6.903   6.785   0.945
10701SOL     OW33001   2.816   6.211   1.273
10701SOL    HW133002   2.892   6.150   1.249
10701SOL    HW233003   2.834   6.302   1.237
10702SOL     OW33004   6.536   2.983   1.228
10702SOL    HW133005   6.486   2.901   1.256
10702SOL    HW233006   6.634   2.962   1.223
10703SOL     OW33007   3.569   3.946   3.865
10703SOL    HW133008   3.636   3.876   3.838
10703SOL    HW233009   3.501   3.905   3.925
10704SOL     OW33010   4.756   6.960   2.059
10704SOL    HW133011   4.807   6.949   2.144
10704SOL    HW233012   4.718   0.037   2.055
10705SOL     OW33013   0.348   2.883   6.074
10705SOL    HW133014   0.446   2.906   6.073
10705SOL    HW233015   0.300   2.942   6.009
10706SOL     OW33016   3.659   1.322   2.222
10706SOL    HW133017   3.593   1.273   2.165
10706SOL    HW233018   3.751   1.307   2.186
10707SOL     OW33019   5.878   6.943   6.087
10707SOL    HW133020   5.956   6.888   6.056
10707SOL    HW233021   5.910   7.013   6.151
10708SOL     OW33022   5.241   1.479   1.011
10708SOL    HW133023   5.184   1.463   1.092
10708SOL    HW233024   5.334   1.503   1.041
10709SOL     OW33025   6.569   6.124   5.927
10709SOL    HW133026   6.651   6.147   5.980
10709SOL    HW233027   6.597   6.083   5.840
10710SOL     OW33028   5.894   5.415   3.254
10710SOL    HW133029   5.977   5.464   3.284
10710SOL    HW233030   5.814   5.456   3.298
10711SOL     OW33031   1.551   6.693   3.838
10711SOL    HW133032   1.503   6.677   3.752
10711SOL    HW233033   1.650   6.690   3.822
10712SOL     OW33034   3.611   1.595   4.953
10712SOL    HW133035   3.642   1.543   5.033
10712SOL    HW233036   3.517   1.570   4.930
10713SOL     OW33037   0.789   6.182   1.394
10713SOL    HW133038   0.700   6.171   1.349
10713SOL    HW233039   0.850   6.108   1.367
10714SOL     OW33040   6.869   5.062   5.968
10714SOL    HW133041   6.831   4.976   5.934
10714SOL    HW233042   6.829   5.083   6.057
10715SOL     OW33043   5.645   1.130   4.144
10715SOL    HW133044   5.615   1.127   4.049
10715SOL    HW233045   5.600   1.207   4.191
10716SOL     OW33046   6.148   0.266   3.511
10716SOL    HW133047   6.226   0.213   3.478
10716SOL    HW233048   6.166   0.363   3.499
10717SOL     OW33049   0.093   0.266   0.982
10717SOL    HW133050   0.101   0.364   0.998
10717SOL    HW233051   0.105   0.216   1.068
10718SOL     OW33052   0.055   4.854   0.238
10718SOL    HW133053   0.038   4.946   0.203
10718SOL    HW233054   0.149   4.827   0.216
10719SOL     OW33055   5.081   0.732   1.852
10719SOL    HW133056   5.168   0.755   1.897
10719SOL    HW233057   5.094   0.736   1.753
10720SOL     OW33058   0.584   3.342   6.826
10720SOL    HW133059   0.565   3.380   6.735
10720SOL    HW233060   0.681   3.354   6.847
10721SOL     OW33061   4.988   2.351   4.308
10721SOL    HW133062   4.915   2.304   4.356
10721SOL    HW233063   5.071   2.295   4.309
10722SOL     OW33064   0.595   4.129   0.202
10722SOL    HW133065   0.693   4.142   0.211
10722SOL    HW233066   0.572   4.111   0.107
10723SOL     OW33067   6.457   4.187   6.742
10723SOL    HW133068   6.527   4.130   6.699
10723SOL    HW233069   6.373   4.133   6.754
10724SOL     OW33070   3.754   6.482   5.870
10724SOL    HW133071   3.845   6.465   5.907
10724SOL    HW233072   3.734   6.415   5.798
10725SOL     OW33073   6.579   5.941   4.833
10725SOL    HW133074   6.525   5.970   4.911
10725SOL    HW233075   6.636   6.017   4.801
10726SOL     OW33076   5.218   0.602   4.358
10726SOL    HW133077   5.177   0.667   4.294
10726SOL    HW233078   5.313   0.626   4.376
10727SOL     OW33079   2.184   6.157   6.106
10727SOL    HW133080   2.195   6.089   6.033
10727SOL    HW233081   2.258   6.224   6.100
10728SOL     OW33082   4.773   5.665   3.296
10728SOL    HW133083   4.768   5.565   3.298
10728SOL    HW233084   4.856   5.693   3.246
10729SOL     OW33085   6.045   3.205   3.490
10729SOL    HW133086   5.992   3.126   3.458
10729SOL    HW233087   6.026   3.283   3.431
10730SOL     OW33088   2.137   5.953   2.737
10730SOL    HW133089   2.220   5.961   2.682
10730SOL    HW233090   2.150   5.999   2.824
10731SOL     OW33091   4.797   6.798   6.221
10731SOL    HW133092   4.816   6.705   6.189
10731SOL    HW233093   4.704   6.803   6.256
10732SOL     OW33094   6.101   6.217   2.869
10732SOL    HW133095   6.088   6.280   2.792
10732SOL    HW233096   6.092   6.268   2.955
10733SOL     OW33097   0.500   0.891   6.314
10733SOL    HW133098   0.527   0.977   6.357
10733SOL    HW233099   0.436   0.909   6.239
10734SOL     OW33100   1.088   1.396   4.943
10734SOL    HW133101   1.129   1.375   5.031
10734SOL    HW233102   0.988   1.396   4.952
10735SOL     OW33103   1.207   5.488   2.368
10735SOL    HW133104   1.274   5.413   2.370
10735SOL    HW233105   1.208   5.536   2.455
10736SOL     OW33106   5.642   6.582   3.534
10736SOL    HW133107   5.670   6.541   3.621
10736SOL    HW233108   5.715   6.573   3.467
10737SOL     OW33109   6.235   1.416   2.252
10737SOL    HW133110   6.324   1.403   2.294
10737SOL    HW233111   6.164   1.411   2.323
10738SOL     OW33112   3.608   1.191   1.847
10738SOL    HW133113   3.642   1.148   1.930
10738SOL    HW233114   3.685   1.216   1.788
10739SOL     OW33115   5.367   2.581   3.369
10739SOL    HW133116   5.315   2.629   3.440
10739SOL    HW233117   5.336   2.612   3.279
10740SOL     OW33118   1.977   6.923   6.259
10740SOL    HW133119   2.072   6.925   6.228
10740SOL    HW233120   1.930   7.005   6.226
10741SOL     OW33121   2.502   2.427   3.740
10741SOL    HW133122   2.525   2.447   3.645
10741SOL    HW233123   2.576   2.373   3.781
10742SOL     OW33124   6.379   6.571   2.412
10742SOL    HW133125   6.336   6.658   2.437
10742SOL    HW233126   6.400   6.519   2.494
10743SOL     OW33127   3.166   1.094   5.599
10743SOL    HW133128   3.077   1.134   5.620
10743SOL    HW233129   3.153   1.003   5.560
10744SOL     OW33130   1.959   0.754   0.971
10744SOL    HW133131   1.931   0.843   0.934
10744SOL    HW233132   2.043   0.724   0.926
10745SOL     OW33133   1.401   5.109   1.704
10745SOL    HW133134   1.368   5.146   1.791
10745SOL    HW233135   1.365   5.017   1.691
10746SOL     OW33136   2.082   6.025   6.345
10746SOL    HW133137   2.144   5.962   6.392
10746SOL    HW233138   2.129   6.070   6.270
10747SOL     OW33139   5.751   1.222   4.915
10747SOL    HW133140   5.693   1.299   4.890
10747SOL    HW233141   5.706   1.168   4.986
10748SOL     OW33142   4.029   6.045   0.752
10748SOL    HW133143   4.046   6.140   0.778
10748SOL    HW233144   3.969   6.003   0.819
10749SOL     OW33145   5.316   5.539   2.122
10749SOL    HW133146   5.288   5.520   2.028
10749SOL    HW233147   5.309   5.456   2.177
10750SOL     OW33148   5.074   2.071   4.314
10750SOL    HW133149   4.992   2.020   4.288
10750SOL    HW233150   5.083   2.070   4.414
10751SOL     OW33151   0.256   4.813   5.552
10751SOL    HW133152   0.305   4.768   5.477
10751SOL    HW233153   0.182   4.754   5.584
10752SOL     OW33154   6.131   6.349   0.591
10752SOL    HW133155   6.090   6.371   0.679
10752SOL    HW233156   6.070   6.288   0.540
10753SOL     OW33157   4.576   6.667   3.963
10753SOL    HW133158   4.623   6.639   4.047
10753SOL    HW233159   4.520   6.592   3.930
10754SOL     OW33160   1.006   4.194   1.730
10754SOL    HW133161   1.100   4.216   1.755
10754SOL    HW233162   0.987   4.225   1.637
10755SOL     OW33163   6.160   3.130   1.678
10755SOL    HW133164   6.093   3.065   1.642
10755SOL    HW233165   6.236   3.080   1.719
10756SOL     OW33166   0.474   1.505   0.533
10756SOL    HW133167   0.430   1.588   0.568
10756SOL    HW233168   0.542   1.530   0.464
10757SOL     OW33169   0.500   3.923   1.695
10757SOL    HW133170   0.576   3.984   1.672
10757SOL    HW233171   0.496   3.848   1.629
10758SOL     OW33172   0.793   0.232   6.735
10758SOL    HW133173   0.891   0.250   6.733
10758SOL    HW233174   0.743   0.318   6.729
10759SOL     OW33175   2.795   2.217   6.088
10759SOL    HW133176   2.804   2.232   6.186
10759SOL    HW233177   2.705   2.249   6.057
10760SOL     OW33178   1.014   5.484   0.422
10760SOL    HW133179   0.927   5.513   0.382
10760SOL    HW233180   1.084   5.480   0.350
10761SOL     OW33181   0.296   1.166   6.015
10761SOL    HW133182   0.345   1.254   6.011
10761SOL    HW233183   0.200   1.183   6.034
10762SOL     OW33184   3.043   6.240   6.414
10762SOL    HW133185   3.012   6.310   6.349
10762SOL    HW233186   3.138   6.258   6.439
10763SOL     OW33187   5.216   0.051   3.337
10763SOL    HW133188   5.189   6.983   3.384
10763SOL    HW233189   5.136   0.110   3.327
10764SOL     OW33190   4.432   0.670   4.420
10764SOL    HW133191   4.480   0.617   4.350
10764SOL    HW233192   4.372   0.610   4.472
10765SOL     OW33193   6.527   2.043   2.553
10765SOL    HW133194   6.496   2.103   2.479
10765SOL    HW233195   6.566   2.098   2.627
10766SOL     OW33196   1.456   5.519   6.436
10766SOL    HW133197   1.551   5.541   6.416
10766SOL    HW233198   1.407   5.503   6.351
10767SOL     OW33199   1.601   5.505   0.626
10767SOL    HW133200   1.663   5.522   0.549
10767SOL    HW233201   1.651   5.458   0.699
10768SOL     OW33202   5.460   5.946   0.837
10768SOL    HW133203   5.426   6.038   0.859
10768SOL    HW233204   5.393   5.878   0.865
10769SOL     OW33205   3.482   3.312   4.497
10769SOL    HW133206   3.473   3.388   4.561
10769SOL    HW233207   3.541   3.338   4.421
10770SOL     OW33208   5.311   0.216   3.835
10770SOL    HW133209   5.304   0.313   3.813
10770SOL    HW233210   5.377   0.173   3.773
10771SOL     OW33211   4.831   5.884   5.473
10771SOL    HW133212   4.899   5.891   5.546
10771SOL    HW233213   4.773   5.966   5.473
10772SOL     OW33214   5.607   5.165   2.754
10772SOL    HW133215   5.548   5.217   2.816
10772SOL    HW233216   5.666   5.104   2.806
10773SOL     OW33217   0.188   3.638   1.684
10773SOL    HW133218   0.243   3.683   1.614
10773SOL    HW233219   0.141   3.708   1.738
10774SOL     OW33220   0.931   3.003   0.632
10774SOL    HW133221   0.893   2.916   0.660
10774SOL    HW233222   0.924   3.069   0.707
10775SOL     OW33223   1.595   4.394   0.237
10775SOL    HW133224   1.606   4.300   0.268
10775SOL    HW233225   1.625   4.458   0.308
10776SOL     OW33226   1.077   2.368   3.620
10776SOL    HW133227   1.091   2.466   3.606
10776SOL    HW233228   0.998   2.355   3.680
10777SOL     OW33229   3.415   1.494   2.294
10777SOL    HW133230   3.398   1.567   2.227
10777SOL    HW233231   3.498   1.445   2.268
10778SOL     OW33232   6.046   6.874   3.214
10778SOL    HW133233   6.077   6.868   3.308
10778SOL    HW233234   6.113   6.830   3.154
10779SOL     OW33235   5.096   3.976   4.677
10779SOL    HW133236   5.012   3.973   4.731
10779SOL    HW233237   5.175   3.985   4.738
10780SOL     OW33238   1.942   5.924   5.003
10780SOL    HW133239   1.953   5.939   4.904
10780SOL    HW233240   2.030   5.936   5.049
10781SOL     OW33241   5.828   2.249   5.410
10781SOL    HW133242   5.804   2.168   5.355
10781SOL    HW233243   5.820   2.331   5.353
10782SOL     OW33244   1.667   2.673   4.780
10782SOL    HW133245   1.629   2.765   4.769
10782SOL    HW233246   1.592   2.608   4.795
10783SOL     OW33247   1.133   2.414   2.815
10783SOL    HW133248   1.196   2.484   2.779
10783SOL    HW233249   1.060   2.399   2.749
10784SOL     OW33250   3.237   5.738   2.760
10784SOL    HW133251   3.318   5.772   2.808
10784SOL    HW233252   3.249   5.640   2.742
10785SOL     OW33253   2.204   5.571   2.297
10785SOL    HW133254   2.152   5.598   2.378
10785SOL    HW233255   2.247   5.651   2.257
10786SOL     OW33256   3.923   1.383   2.106
10786SOL    HW133257   3.969   1.343   2.186
10786SOL    HW233258   3.986   1.387   2.029
10787SOL     OW33259   3.981   0.786   3.319
10787SOL    HW133260   3.919   0.864   3.333
10787SOL    HW233261   3.927   0.703   3.306
10788SOL     OW33262   0.976   4.561   0.601
10788SOL    HW133263   0.975   4.661   0.592
10788SOL    HW233264   0.883   4.528   0.609
10789SOL     OW33265   6.541   1.240   1.380
10789SOL    HW133266   6.532   1.302   1.457
10789SOL    HW233267   6.619   1.268   1.323
10790SOL     OW33268   0.793   1.522   4.824
10790SOL    HW133269   0.764   1.599   4.882
10790SOL    HW233270   0.780   1.547   4.728
10791SOL     OW33271   1.357   1.981   3.513
10791SOL    HW133272   1.278   1.922   3.530
10791SOL    HW233273   1.408   1.995   3.598
10792SOL     OW33274   4.098   1.688   1.629
10792SOL    HW133275   4.168   1.759   1.624
10792SOL    HW233276   4.067   1.678   1.723
10793SOL     OW33277   4.220   1.871   4.857
10793SOL    HW133278   4.155   1.797   4.876
10793SOL    HW233279   4.205   1.906   4.764
10794SOL     OW33280   4.578   2.570   0.582
10794SOL    HW133281   4.480   2.579   0.568
10794SOL    HW233282   4.618   2.517   0.507
10795SOL     OW33283   0.140   3.669   3.550
10795SOL    HW133284   0.099   3.679   3.459
10795SOL    HW233285   0.136   3.757   3.597
10796SOL     OW33286   0.392   6.906   6.087
10796SOL    HW133287   0.441   6.954   6.160
10796SOL    HW233288   0.326   6.843   6.127
10797SOL     OW33289   3.889   3.943   6.974
10797SOL    HW133290   3.980   3.961   7.012
10797SOL    HW233291   3.827   3.919   0.033
10798SOL     OW33292   2.212   0.285   0.232
10798SOL    HW133293   2.298   0.237   0.252
10798SOL    HW233294   2.184   0.265   0.137
10799SOL     OW33295   2.731   0.906   2.631
10799SOL    HW133296   2.716   0.828   2.570
10799SOL    HW233297   2.648   0.924   2.683
10800SOL     OW33298   1.951   0.039   5.760
10800SOL    HW133299   1.871   0.098   5.746
10800SOL    HW233300   1.922   6.970   5.805
10801SOL     OW33301   2.593   6.668   5.966
10801SOL    HW133302   2.519   6.614   6.005
10801SOL    HW233303   2.565   6.704   5.877
10802SOL     OW33304   0.918   4.956   4.679
10802SOL    HW133305   1.009   4.986   4.649
10802SOL    HW233306   0.917   4.857   4.688
10803SOL     OW33307   0.184   4.346   4.589
10803SOL    HW133308   0.103   4.317   4.537
10803SOL    HW233309   0.237   4.265   4.615
10804SOL     OW33310   5.228   4.761   1.022
10804SOL    HW133311   5.207   4.856   1.000
10804SOL    HW233312   5.176   4.733   1.103
10805SOL     OW33313   4.138   6.784   0.296
10805SOL    HW133314   4.071   6.824   0.359
10805SOL    HW233315   4.104   6.791   0.202
10806SOL     OW33316   5.400   3.565   0.017
10806SOL    HW133317   5.385   3.649   0.068
10806SOL    HW233318   5.323   3.502   0.034
10807SOL     OW33319   4.846   6.993   3.348
10807SOL    HW133320   4.916   6.994   3.277
10807SOL    HW233321   4.757   7.013   3.307
10808SOL     OW33322   6.990   2.668   6.586
10808SOL    HW133323   0.042   2.733   6.552
10808SOL    HW233324   6.930   2.639   6.511
10809SOL     OW33325   2.515   1.005   3.450
10809SOL    HW133326   2.482   0.935   3.514
10809SOL    HW233327   2.559   1.078   3.501
10810SOL     OW33328   0.383   1.639   6.094
10810SOL    HW133329   0.312   1.695   6.050
10810SOL    HW233330   0.380   1.546   6.057
10811SOL     OW33331   4.619   4.609   5.474
10811SOL    HW133332   4.597   4.675   5.545
10811SOL    HW233333   4.573   4.634   5.389
10812SOL     OW33334   6.609   2.080   3.173
10812SOL    HW133335   6.651   1.993   3.197
10812SOL    HW233336   6.551   2.067   3.092
10813SOL     OW33337   3.166   6.149   1.749
10813SOL    HW133338   3.131   6.232   1.705
10813SOL    HW233339   3.211   6.174   1.835
10814SOL     OW33340   1.690   6.629   4.764
10814SOL    HW133341   1.741   6.622   4.679
10814SOL    HW233342   1.628   6.708   4.760
10815SOL     OW33343   5.032   2.359   2.711
10815SOL    HW133344   4.961   2.299   2.749
10815SOL    HW233345   4.993   2.450   2.694
10816SOL     OW33346   2.284   1.704   2.367
10816SOL    HW133347   2.347   1.771   2.328
10816SOL    HW233348   2.245   1.740   2.452
10817SOL     OW33349   4.598   6.896   2.342
10817SOL    HW133350   4.548   6.957   2.281
10817SOL    HW233351   4.536   6.824   2.375
10818SOL     OW33352   5.084   3.262   6.787
10818SOL    HW133353   5.011   3.252   6.719
10818SOL    HW233354   5.136   3.346   6.768
10819SOL     OW33355   0.362   3.979   6.019
10819SOL    HW133356   0.379   3.891   6.064
10819SOL    HW233357   0.391   4.053   6.080
10820SOL     OW33358   0.285   6.851   4.488
10820SOL    HW133359   0.318   6.936   4.448
10820SOL    HW233360   0.211   6.871   4.553
10821SOL     OW33361   6.815   0.201   0.484
10821SOL    HW133362   6.864   0.277   0.526
10821SOL    HW233363   6.856   0.114   0.514
10822SOL     OW33364   1.599   4.521   1.014
10822SOL    HW133365   1.681   4.526   0.958
10822SOL    HW233366   1.621   4.482   1.104
10823SOL     OW33367   1.532   0.893   1.510
10823SOL    HW133368   1.513   0.891   1.412
10823SOL    HW233369   1.606   0.830   1.531
10824SOL     OW33370   5.586   0.283   2.699
10824SOL    HW133371   5.587   0.356   2.767
10824SOL    HW233372   5.492   0.250   2.687
10825SOL     OW33373   3.536   1.199   1.374
10825SOL    HW133374   3.493   1.161   1.455
10825SOL    HW233375   3.636   1.199   1.386
10826SOL     OW33376   6.723   3.114   1.737
10826SOL    HW133377   6.798   3.163   1.692
10826SOL    HW233378   6.714   3.146   1.831
10827SOL     OW33379   0.249   2.643   4.294
10827SOL    HW133380   0.173   2.695   4.256
10827SOL    HW233381   0.327   2.646   4.231
10828SOL     OW33382   1.063   5.914   0.315
10828SOL    HW133383   1.085   5.929   0.411
10828SOL    HW233384   0.966   5.890   0.306
10829SOL     OW33385   2.491   3.640   1.230
10829SOL    HW133386   2.539   3.566   1.182
10829SOL    HW233387   2.436   3.601   1.304
10830SOL     OW33388   4.630   1.966   3.883
10830SOL    HW133389   4.697   1.953   3.810
10830SOL    HW233390   4.667   2.031   3.950
10831SOL     OW33391   5.415   2.316   3.418
10831SOL    HW133392   5.390   2.413   3.427
10831SOL    HW233393   5.514   2.306   3.431
10832SOL     OW33394   0.101   2.182   1.488
10832SOL    HW133395   0.104   2.265   1.544
10832SOL    HW233396   0.194   2.145   1.481
10833SOL     OW33397   3.156   6.722   4.400
10833SOL    HW133398   3.066   6.713   4.357
10833SOL    HW233399   3.161   6.662   4.480
10834SOL     OW33400   0.492   0.809   5.849
10834SOL    HW133401   0.487   0.737   5.779
10834SOL    HW233402   0.429   0.787   5.924
10835SOL     OW33403   6.636   1.732   2.622
10835SOL    HW133404   6.548   1.687   2.604
10835SOL    HW233405   6.637   1.821   2.576
10836SOL     OW33406   1.965   2.272   6.233
10836SOL    HW133407   1.992   2.205   6.164
10836SOL    HW233408   1.870   2.256   6.260
10837SOL     OW33409   0.818   5.508   1.118
10837SOL    HW133410   0.734   5.467   1.151
10837SOL    HW233411   0.896   5.472   1.170
10838SOL     OW33412   5.870   6.764   0.715
10838SOL    HW133413   5.884   6.674   0.757
10838SOL    HW233414   5.926   6.770   0.631
10839SOL     OW33415   2.184   2.321   1.002
10839SOL    HW133416   2.221   2.263   0.929
10839SOL    HW233417   2.199   2.276   1.090
10840SOL     OW33418   3.606   5.042   2.627
10840SOL    HW133419   3.575   5.095   2.705
10840SOL    HW233420   3.673   4.974   2.658
10841SOL     OW33421   4.567   4.043   5.857
10841SOL    HW133422   4.570   3.976   5.783
10841SOL    HW233423   4.650   4.099   5.856
10842SOL     OW33424   6.135   2.977   1.962
10842SOL    HW133425   6.075   3.046   1.921
10842SOL    HW233426   6.084   2.923   2.028
10843SOL     OW33427   0.618   0.814   1.672
10843SOL    HW133428   0.676   0.895   1.681
10843SOL    HW233429   0.548   0.830   1.603
10844SOL     OW33430   3.692   6.492   3.491
10844SOL    HW133431   3.598   6.514   3.519
10844SOL    HW233432   3.705   6.393   3.492
10845SOL     OW33433   2.198   2.680   0.573
10845SOL    HW133434   2.168   2.768   0.609
10845SOL    HW233435   2.252   2.632   0.642
10846SOL     OW33436   3.156   2.059   2.017
10846SOL    HW133437   3.244   2.011   2.020
10846SOL    HW233438   3.159   2.129   1.946
10847SOL     OW33439   4.347   2.838   6.191
10847SOL    HW133440   4.390   2.873   6.108
10847SOL    HW233441   4.250   2.861   6.191
10848SOL     OW33442   1.529   1.276   0.056
10848SOL    HW133443   1.577   1.305   6.989
10848SOL    HW233444   1.449   1.221   0.031
10849SOL     OW33445   2.729   5.006   4.118
10849SOL    HW133446   2.716   5.043   4.026
10849SOL    HW233447   2.647   5.023   4.173
10850SOL     OW33448   5.451   0.164   1.073
10850SOL    HW133449   5.382   0.237   1.072
10850SOL    HW233450   5.445   0.111   0.988
10851SOL     OW33451   4.000   2.240   6.494
10851SOL    HW133452   3.995   2.160   6.555
10851SOL    HW233453   3.959   2.319   6.540
10852SOL     OW33454   0.933   6.979   6.482
10852SOL    HW133455   0.908   6.917   6.408
10852SOL    HW233456   0.906   6.938   6.570
10853SOL     OW33457   2.328   1.445   4.568
10853SOL    HW133458   2.369   1.534   4.588
10853SOL    HW233459   2.262   1.422   4.639
10854SOL     OW33460   6.939   6.344   0.105
10854SOL    HW133461   6.972   6.413   0.169
10854SOL    HW233462   7.001   6.266   0.106
10855SOL     OW33463   1.325   6.226   1.273
10855SOL    HW133464   1.329   6.320   1.241
10855SOL    HW233465   1.286   6.223   1.365
10856SOL     OW33466   6.095   0.128   6.583
10856SOL    HW133467   6.108   0.051   6.646
10856SOL    HW233468   6.060   0.207   6.634
10857SOL     OW33469   6.206   0.434   4.420
10857SOL    HW133470   6.234   0.529   4.405
10857SOL    HW233471   6.131   0.432   4.486
10858SOL     OW33472   2.070   1.609   0.866
10858SOL    HW133473   2.149   1.600   0.805
10858SOL    HW233474   2.005   1.536   0.845
10859SOL     OW33475   0.783   4.902   2.182
10859SOL    HW133476   0.751   4.878   2.090
10859SOL    HW233477   0.861   4.844   2.205
10860SOL     OW33478   6.070   2.278   0.586
10860SOL    HW133479   6.094   2.355   0.644
10860SOL    HW233480   6.153   2.240   0.545
10861SOL     OW33481   3.238   2.857   2.247
10861SOL    HW133482   3.237   2.758   2.262
10861SOL    HW233483   3.321   2.883   2.198
10862SOL     OW33484   3.822   3.121   5.742
10862SOL    HW133485   3.769   3.183   5.799
10862SOL    HW233486   3.801   3.026   5.765
10863SOL     OW33487   2.401   1.628   2.994
10863SOL    HW133488   2.304   1.614   3.014
10863SOL    HW233489   2.431   1.715   3.035
10864SOL     OW33490   3.137   4.784   2.066
10864SOL    HW133491   3.047   4.801   2.025
10864SOL    HW233492   3.145   4.688   2.092
10865SOL     OW33493   2.953   1.343   2.850
10865SOL    HW133494   2.873   1.291   2.879
10865SOL    HW233495   2.928   1.407   2.778
10866SOL     OW33496   0.018   3.684   3.298
10866SOL    HW133497   6.989   3.596   3.281
10866SOL    HW233498   0.065   3.714   3.216
10867SOL     OW33499   4.399   3.429   0.530
10867SOL    HW133500   4.318   3.434   0.588
10867SOL    HW233501   4.481   3.431   0.587
10868SOL     OW33502   1.188   1.205   4.751
10868SOL    HW133503   1.145   1.278   4.804
10868SOL    HW233504   1.142   1.196   4.663
10869NA      NA33505   6.794   2.189   5.787
10870NA      NA33506   4.526   4.534   5.035
10871NA      NA33507   1.371   4.916   2.912
10872NA      NA33508   5.630   4.125   3.349
10873NA      NA33509   3.617   2.262   5.398
10874NA      NA33510   2.265   4.837   0.303
10875NA      NA33511   1.444   5.658   6.845
10876NA      NA33512   3.529   4.333   0.916
10877NA      NA33513   4.551   5.355   0.589
10878NA      NA33514   3.288   0.986   6.441
10879NA      NA33515   5.497   6.909   1.896
10880NA      NA33516   1.840   6.596   5.207
10881NA      NA33517   4.086   5.322   1.712
10882NA      NA33518   3.563   3.269   6.772
   7.01572   7.01572   7.01572
