Generated by trjconv : CNT in water t= 341.00000
33518
    1C        C    1   2.844   2.770   4.745
    1C        C    2   2.897   2.720   4.866
    1C        C    3   2.844   2.774   4.983
    1C        C    4   2.852   2.778   4.259
    1C        C    5   2.899   2.727   4.382
    1C        C    6   2.842   2.769   4.504
    1C        C    7   3.015   2.642   4.628
    1C        C    8   2.896   2.719   4.625
    1C        C    9   3.081   2.607   4.747
    1C        C   10   3.013   2.639   4.867
    1C        C   11   3.184   2.492   4.978
    1C        C   12   3.064   2.562   4.973
    1C        C   13   2.848   2.767   3.774
    1C        C   14   2.902   2.720   3.896
    1C        C   15   2.855   2.777   4.017
    1C        C   16   3.023   2.646   4.140
    1C        C   17   2.910   2.731   4.139
    1C        C   18   3.081   2.611   4.264
    1C        C   19   3.015   2.646   4.384
    1C        C   20   3.208   2.555   4.504
    1C        C   21   3.078   2.610   4.505
    1C        C   22   3.278   2.533   4.625
    1C        C   23   3.209   2.545   4.748
    1C        C   24   3.416   2.483   4.866
    1C        C   25   3.274   2.499   4.866
    1C        C   26   3.494   2.476   4.982
    1C        C   27   2.847   2.766   3.284
    1C        C   28   2.898   2.717   3.406
    1C        C   29   2.852   2.767   3.530
    1C        C   30   3.019   2.637   3.651
    1C        C   31   2.905   2.721   3.653
    1C        C   32   3.079   2.601   3.774
    1C        C   33   3.015   2.637   3.895
    1C        C   34   3.209   2.548   4.018
    1C        C   35   3.078   2.603   4.017
    1C        C   36   3.278   2.531   4.140
    1C        C   37   3.212   2.559   4.261
    1C        C   38   3.418   2.509   4.383
    1C        C   39   3.279   2.535   4.384
    1C        C   40   3.488   2.502   4.506
    1C        C   41   3.416   2.504   4.628
    1C        C   42   3.633   2.477   4.744
    1C        C   43   3.491   2.481   4.745
    1C        C   44   3.708   2.485   4.863
    1C        C   45   3.633   2.475   4.981
    1C        C   46   2.836   2.751   2.793
    1C        C   47   2.892   2.707   2.914
    1C        C   48   2.844   2.759   3.036
    1C        C   49   3.012   2.635   3.164
    1C        C   50   2.898   2.719   3.161
    1C        C   51   3.078   2.605   3.285
    1C        C   52   3.017   2.640   3.407
    1C        C   53   3.209   2.548   3.529
    1C        C   54   3.079   2.603   3.528
    1C        C   55   3.277   2.524   3.650
    1C        C   56   3.210   2.549   3.772
    1C        C   57   3.416   2.505   3.896
    1C        C   58   3.276   2.528   3.896
    1C        C   59   3.487   2.505   4.018
    1C        C   60   3.417   2.505   4.141
    1C        C   61   3.630   2.495   4.258
    1C        C   62   3.488   2.493   4.262
    1C        C   63   3.700   2.503   4.380
    1C        C   64   3.629   2.501   4.502
    1C        C   65   3.840   2.531   4.621
    1C        C   66   3.703   2.496   4.623
    1C        C   67   3.911   2.557   4.740
    1C        C   68   3.844   2.524   4.860
    1C        C   69   4.056   2.582   4.978
    1C        C   70   3.927   2.530   4.973
    1C        C   71   2.819   2.733   2.308
    1C        C   72   2.880   2.692   2.428
    1C        C   73   2.831   2.744   2.550
    1C        C   74   3.006   2.623   2.671
    1C        C   75   2.891   2.705   2.671
    1C        C   76   3.071   2.597   2.794
    1C        C   77   3.011   2.630   2.917
    1C        C   78   3.203   2.546   3.039
    1C        C   79   3.072   2.600   3.041
    1C        C   80   3.273   2.526   3.160
    1C        C   81   3.209   2.551   3.283
    1C        C   82   3.413   2.499   3.404
    1C        C   83   3.275   2.529   3.406
    1C        C   84   3.484   2.493   3.526
    1C        C   85   3.417   2.501   3.650
    1C        C   86   3.627   2.495   3.772
    1C        C   87   3.486   2.496   3.774
    1C        C   88   3.699   2.504   3.893
    1C        C   89   3.629   2.504   4.016
    1C        C   90   3.835   2.552   4.134
    1C        C   91   3.701   2.509   4.137
    1C        C   92   3.901   2.572   4.258
    1C        C   93   3.836   2.538   4.379
    1C        C   94   4.029   2.631   4.497
    1C        C   95   3.904   2.565   4.500
    1C        C   96   4.087   2.673   4.618
    1C        C   97   4.036   2.625   4.741
    1C        C   98   4.195   2.761   4.859
    1C        C   99   4.106   2.649   4.862
    1C        C  100   4.214   2.842   4.972
    1C        C  101   2.823   2.730   2.071
    1C        C  102   2.987   2.589   2.191
    1C        C  103   2.875   2.678   2.190
    1C        C  104   3.063   2.575   2.311
    1C        C  105   2.999   2.615   2.431
    1C        C  106   3.198   2.529   2.550
    1C        C  107   3.068   2.584   2.550
    1C        C  108   3.268   2.521   2.672
    1C        C  109   3.201   2.543   2.795
    1C        C  110   3.408   2.496   2.913
    1C        C  111   3.269   2.520   2.917
    1C        C  112   3.481   2.497   3.034
    1C        C  113   3.413   2.507   3.157
    1C        C  114   3.623   2.504   3.279
    1C        C  115   3.482   2.495   3.280
    1C        C  116   3.692   2.507   3.402
    1C        C  117   3.625   2.499   3.526
    1C        C  118   3.831   2.542   3.645
    1C        C  119   3.695   2.503   3.649
    1C        C  120   3.898   2.572   3.766
    1C        C  121   3.834   2.545   3.890
    1C        C  122   4.026   2.640   4.010
    1C        C  123   3.902   2.573   4.011
    1C        C  124   4.085   2.676   4.134
    1C        C  125   4.028   2.634   4.256
    1C        C  126   4.193   2.771   4.377
    1C        C  127   4.090   2.674   4.377
    1C        C  128   4.242   2.821   4.500
    1C        C  129   4.192   2.767   4.621
    1C        C  130   4.329   2.934   4.739
    1C        C  131   4.251   2.816   4.740
    1C        C  132   4.355   3.004   4.859
    1C        C  133   4.286   2.960   4.973
    1C        C  134   3.171   2.468   2.082
    1C        C  135   3.037   2.508   2.084
    1C        C  136   3.260   2.476   2.190
    1C        C  137   3.195   2.523   2.306
    1C        C  138   3.404   2.484   2.425
    1C        C  139   3.264   2.506   2.428
    1C        C  140   3.476   2.485   2.546
    1C        C  141   3.408   2.498   2.669
    1C        C  142   3.620   2.501   2.787
    1C        C  143   3.479   2.491   2.791
    1C        C  144   3.689   2.515   2.910
    1C        C  145   3.622   2.506   3.034
    1C        C  146   3.831   2.539   3.156
    1C        C  147   3.693   2.509   3.156
    1C        C  148   3.897   2.567   3.278
    1C        C  149   3.829   2.543   3.400
    1C        C  150   4.022   2.629   3.522
    1C        C  151   3.895   2.567   3.522
    1C        C  152   4.082   2.674   3.642
    1C        C  153   4.022   2.640   3.765
    1C        C  154   4.195   2.763   3.888
    1C        C  155   4.083   2.677   3.887
    1C        C  156   4.245   2.813   4.010
    1C        C  157   4.197   2.761   4.132
    1C        C  158   4.341   2.918   4.253
    1C        C  159   4.250   2.811   4.254
    1C        C  160   4.379   2.982   4.374
    1C        C  161   4.328   2.932   4.496
    1C        C  162   4.432   3.120   4.615
    1C        C  163   4.364   2.995   4.617
    1C        C  164   4.470   3.183   4.736
    1C        C  165   4.439   3.118   4.857
    1C        C  166   4.522   3.322   4.974
    1C        C  167   4.484   3.188   4.969
    1C        C  168   3.476   2.439   2.069
    1C        C  169   3.400   2.458   2.185
    1C        C  170   3.618   2.464   2.307
    1C        C  171   3.476   2.464   2.305
    1C        C  172   3.692   2.485   2.426
    1C        C  173   3.617   2.486   2.546
    1C        C  174   3.828   2.537   2.667
    1C        C  175   3.691   2.502   2.665
    1C        C  176   3.894   2.564   2.789
    1C        C  177   3.827   2.547   2.912
    1C        C  178   4.020   2.632   3.031
    1C        C  179   3.896   2.566   3.033
    1C        C  180   4.081   2.666   3.154
    1C        C  181   4.024   2.628   3.278
    1C        C  182   4.197   2.750   3.399
    1C        C  183   4.086   2.663   3.400
    1C        C  184   4.248   2.804   3.519
    1C        C  185   4.194   2.760   3.642
    1C        C  186   4.336   2.918   3.765
    1C        C  187   4.247   2.807   3.764
    1C        C  188   4.376   2.980   3.886
    1C        C  189   4.339   2.919   4.007
    1C        C  190   4.440   3.104   4.126
    1C        C  191   4.375   2.979   4.130
    1C        C  192   4.465   3.172   4.247
    1C        C  193   4.438   3.110   4.371
    1C        C  194   4.504   3.315   4.492
    1C        C  195   4.462   3.180   4.491
    1C        C  196   4.525   3.388   4.611
    1C        C  197   4.506   3.321   4.734
    1C        C  198   4.555   3.534   4.848
    1C        C  199   4.530   3.394   4.854
    1C        C  200   4.580   3.617   4.963
    1C        C  201   3.614   2.415   2.073
    1C        C  202   3.824   2.511   2.182
    1C        C  203   3.690   2.462   2.185
    1C        C  204   3.895   2.539   2.302
    1C        C  205   3.829   2.521   2.426
    1C        C  206   4.022   2.622   2.544
    1C        C  207   3.895   2.559   2.544
    1C        C  208   4.085   2.656   2.665
    1C        C  209   4.022   2.624   2.788
    1C        C  210   4.197   2.748   2.911
    1C        C  211   4.081   2.667   2.908
    1C        C  212   4.252   2.795   3.033
    1C        C  213   4.195   2.749   3.154
    1C        C  214   4.333   2.910   3.273
    1C        C  215   4.248   2.797   3.276
    1C        C  216   4.371   2.972   3.394
    1C        C  217   4.338   2.913   3.518
    1C        C  218   4.437   3.099   3.638
    1C        C  219   4.377   2.971   3.641
    1C        C  220   4.466   3.167   3.758
    1C        C  221   4.441   3.106   3.883
    1C        C  222   4.502   3.308   4.004
    1C        C  223   4.472   3.170   4.005
    1C        C  224   4.515   3.379   4.126
    1C        C  225   4.499   3.309   4.248
    1C        C  226   4.525   3.523   4.367
    1C        C  227   4.514   3.382   4.368
    1C        C  228   4.521   3.599   4.486
    1C        C  229   4.535   3.529   4.608
    1C        C  230   4.502   3.743   4.728
    1C        C  231   4.536   3.605   4.726
    1C        C  232   4.494   3.819   4.847
    1C        C  233   4.543   3.752   4.960
    1C        C  234   4.018   2.608   2.064
    1C        C  235   3.896   2.541   2.065
    1C        C  236   4.081   2.652   2.181
    1C        C  237   4.019   2.608   2.300
    1C        C  238   4.197   2.735   2.422
    1C        C  239   4.082   2.651   2.419
    1C        C  240   4.256   2.779   2.543
    1C        C  241   4.203   2.735   2.666
    1C        C  242   4.345   2.894   2.782
    1C        C  243   4.251   2.788   2.787
    1C        C  244   4.383   2.955   2.904
    1C        C  245   4.346   2.900   3.029
    1C        C  246   4.442   3.090   3.147
    1C        C  247   4.381   2.962   3.151
    1C        C  248   4.459   3.159   3.269
    1C        C  249   4.435   3.098   3.394
    1C        C  250   4.504   3.300   3.515
    1C        C  251   4.464   3.164   3.515
    1C        C  252   4.511   3.374   3.635
    1C        C  253   4.501   3.304   3.757
    1C        C  254   4.523   3.514   3.879
    1C        C  255   4.516   3.373   3.880
    1C        C  256   4.520   3.589   3.999
    1C        C  257   4.526   3.520   4.122
    1C        C  258   4.489   3.730   4.241
    1C        C  259   4.519   3.592   4.243
    1C        C  260   4.473   3.802   4.361
    1C        C  261   4.495   3.738   4.485
    1C        C  262   4.430   3.942   4.604
    1C        C  263   4.482   3.811   4.605
    1C        C  264   4.404   4.011   4.725
    1C        C  265   4.443   3.950   4.846
    1C        C  266   4.316   4.127   4.958
    1C        C  267   4.393   4.011   4.962
    1C        C  268   4.261   2.777   2.065
    1C        C  269   4.198   2.731   2.181
    1C        C  270   4.344   2.890   2.299
    1C        C  271   4.252   2.782   2.301
    1C        C  272   4.387   2.951   2.419
    1C        C  273   4.345   2.889   2.539
    1C        C  274   4.447   3.079   2.659
    1C        C  275   4.381   2.954   2.659
    1C        C  276   4.475   3.147   2.780
    1C        C  277   4.443   3.082   2.901
    1C        C  278   4.510   3.286   3.024
    1C        C  279   4.467   3.151   3.022
    1C        C  280   4.515   3.358   3.145
    1C        C  281   4.498   3.295   3.270
    1C        C  282   4.518   3.509   3.386
    1C        C  283   4.513   3.368   3.391
    1C        C  284   4.514   3.580   3.508
    1C        C  285   4.518   3.515   3.633
    1C        C  286   4.500   3.724   3.755
    1C        C  287   4.524   3.584   3.756
    1C        C  288   4.474   3.793   3.875
    1C        C  289   4.491   3.728   3.999
    1C        C  290   4.428   3.934   4.116
    1C        C  291   4.475   3.800   4.120
    1C        C  292   4.396   3.997   4.238
    1C        C  293   4.425   3.935   4.362
    1C        C  294   4.326   4.126   4.476
    1C        C  295   4.397   4.005   4.482
    1C        C  296   4.283   4.186   4.597
    1C        C  297   4.333   4.134   4.719
    1C        C  298   4.202   4.309   4.839
    1C        C  299   4.291   4.197   4.839
    1C        C  300   4.172   4.404   4.942
    1C        C  301   4.354   2.881   2.063
    1C        C  302   4.475   3.065   2.174
    1C        C  303   4.400   2.943   2.180
    1C        C  304   4.487   3.140   2.294
    1C        C  305   4.451   3.077   2.415
    1C        C  306   4.507   3.282   2.535
    1C        C  307   4.476   3.144   2.537
    1C        C  308   4.515   3.354   2.656
    1C        C  309   4.503   3.285   2.779
    1C        C  310   4.529   3.495   2.899
    1C        C  311   4.525   3.353   2.900
    1C        C  312   4.521   3.569   3.019
    1C        C  313   4.520   3.499   3.141
    1C        C  314   4.474   3.710   3.263
    1C        C  315   4.511   3.574   3.261
    1C        C  316   4.464   3.781   3.385
    1C        C  317   4.491   3.720   3.509
    1C        C  318   4.429   3.922   3.627
    1C        C  319   4.478   3.789   3.631
    1C        C  320   4.395   3.986   3.748
    1C        C  321   4.423   3.925   3.872
    1C        C  322   4.324   4.115   3.989
    1C        C  323   4.397   3.994   3.992
    1C        C  324   4.282   4.175   4.110
    1C        C  325   4.328   4.121   4.232
    1C        C  326   4.187   4.284   4.353
    1C        C  327   4.283   4.180   4.352
    1C        C  328   4.135   4.338   4.473
    1C        C  329   4.191   4.292   4.594
    1C        C  330   4.024   4.425   4.712
    1C        C  331   4.141   4.343   4.716
    1C        C  332   3.967   4.482   4.828
    1C        C  333   4.049   4.471   4.941
    1C        C  334   4.557   3.267   2.058
    1C        C  335   4.534   3.129   2.061
    1C        C  336   4.546   3.346   2.173
    1C        C  337   4.525   3.277   2.294
    1C        C  338   4.523   3.493   2.409
    1C        C  339   4.524   3.352   2.413
    1C        C  340   4.519   3.565   2.530
    1C        C  341   4.521   3.496   2.653
    1C        C  342   4.489   3.703   2.775
    1C        C  343   4.518   3.565   2.777
    1C        C  344   4.470   3.774   2.895
    1C        C  345   4.487   3.707   3.018
    1C        C  346   4.419   3.910   3.135
    1C        C  347   4.467   3.777   3.139
    1C        C  348   4.392   3.976   3.257
    1C        C  349   4.424   3.917   3.381
    1C        C  350   4.323   4.103   3.502
    1C        C  351   4.397   3.982   3.504
    1C        C  352   4.277   4.163   3.622
    1C        C  353   4.318   4.105   3.744
    1C        C  354   4.178   4.266   3.864
    1C        C  355   4.276   4.164   3.865
    1C        C  356   4.124   4.314   3.986
    1C        C  357   4.181   4.273   4.108
    1C        C  358   4.012   4.400   4.228
    1C        C  359   4.129   4.322   4.230
    1C        C  360   3.952   4.444   4.348
    1C        C  361   4.016   4.415   4.471
    1C        C  362   3.828   4.514   4.592
    1C        C  363   3.958   4.458   4.592
    1C        C  364   3.763   4.542   4.714
    1C        C  365   3.838   4.538   4.833
    1C        C  366   3.628   4.592   4.947
    1C        C  367   3.766   4.570   4.949
    1C        C  368   4.509   3.559   2.052
    1C        C  369   4.532   3.487   2.170
    1C        C  370   4.500   3.704   2.287
    1C        C  371   4.522   3.565   2.287
    1C        C  372   4.481   3.774   2.408
    1C        C  373   4.499   3.705   2.530
    1C        C  374   4.433   3.907   2.649
    1C        C  375   4.478   3.773   2.652
    1C        C  376   4.395   3.972   2.769
    1C        C  377   4.425   3.908   2.891
    1C        C  378   4.321   4.096   3.011
    1C        C  379   4.390   3.973   3.012
    1C        C  380   4.279   4.154   3.133
    1C        C  381   4.319   4.097   3.256
    1C        C  382   4.182   4.257   3.375
    1C        C  383   4.279   4.155   3.378
    1C        C  384   4.126   4.306   3.495
    1C        C  385   4.179   4.264   3.620
    1C        C  386   4.005   4.387   3.739
    1C        C  387   4.121   4.306   3.742
    1C        C  388   3.943   4.421   3.862
    1C        C  389   4.005   4.390   3.985
    1C        C  390   3.816   4.488   4.105
    1C        C  391   3.944   4.428   4.107
    1C        C  392   3.752   4.513   4.228
    1C        C  393   3.822   4.500   4.350
    1C        C  394   3.615   4.545   4.475
    1C        C  395   3.755   4.528   4.472
    1C        C  396   3.545   4.558   4.597
    1C        C  397   3.622   4.559   4.715
    1C        C  398   3.408   4.553   4.841
    1C        C  399   3.548   4.575   4.834
    1C        C  400   3.337   4.521   4.957
    1C        C  401   4.505   3.698   2.052
    1C        C  402   4.439   3.910   2.165
    1C        C  403   4.489   3.778   2.167
    1C        C  404   4.413   3.975   2.287
    1C        C  405   4.437   3.908   2.409
    1C        C  406   4.324   4.092   2.526
    1C        C  407   4.405   3.976   2.529
    1C        C  408   4.273   4.144   2.646
    1C        C  409   4.319   4.091   2.769
    1C        C  410   4.176   4.251   2.887
    1C        C  411   4.280   4.155   2.889
    1C        C  412   4.125   4.300   3.009
    1C        C  413   4.178   4.253   3.131
    1C        C  414   4.005   4.377   3.252
    1C        C  415   4.124   4.300   3.253
    1C        C  416   3.945   4.414   3.375
    1C        C  417   4.004   4.376   3.498
    1C        C  418   3.811   4.474   3.618
    1C        C  419   3.939   4.415   3.617
    1C        C  420   3.747   4.504   3.740
    1C        C  421   3.815   4.480   3.862
    1C        C  422   3.608   4.529   3.986
    1C        C  423   3.747   4.505   3.983
    1C        C  424   3.540   4.534   4.110
    1C        C  425   3.612   4.534   4.232
    1C        C  426   3.401   4.543   4.355
    1C        C  427   3.542   4.540   4.354
    1C        C  428   3.331   4.545   4.478
    1C        C  429   3.404   4.556   4.598
    1C        C  430   3.194   4.523   4.721
    1C        C  431   3.334   4.545   4.721
    1C        C  432   3.126   4.500   4.844
    1C        C  433   3.203   4.483   4.960
    1C        C  434   4.387   4.123   2.054
    1C        C  435   4.443   3.995   2.053
    1C        C  436   4.305   4.161   2.165
    1C        C  437   4.338   4.095   2.286
    1C        C  438   4.183   4.250   2.398
    1C        C  439   4.284   4.151   2.404
    1C        C  440   4.126   4.293   2.520
    1C        C  441   4.175   4.246   2.643
    1C        C  442   4.008   4.378   2.765
    1C        C  443   4.123   4.297   2.764
    1C        C  444   3.945   4.413   2.886
    1C        C  445   4.007   4.377   3.008
    1C        C  446   3.812   4.462   3.130
    1C        C  447   3.945   4.413   3.130
    1C        C  448   3.749   4.494   3.252
    1C        C  449   3.815   4.469   3.374
    1C        C  450   3.607   4.522   3.496
    1C        C  451   3.745   4.490   3.494
    1C        C  452   3.538   4.534   3.619
    1C        C  453   3.608   4.533   3.742
    1C        C  454   3.397   4.537   3.864
    1C        C  455   3.538   4.539   3.864
    1C        C  456   3.327   4.530   3.987
    1C        C  457   3.399   4.533   4.108
    1C        C  458   3.192   4.510   4.235
    1C        C  459   3.332   4.531   4.233
    1C        C  460   3.124   4.486   4.357
    1C        C  461   3.194   4.511   4.477
    1C        C  462   2.999   4.432   4.603
    1C        C  463   3.127   4.492   4.600
    1C        C  464   2.934   4.402   4.725
    1C        C  465   2.992   4.452   4.846
    1C        C  466   2.801   4.342   4.957
    1C        C  467   2.910   4.430   4.961
    1C        C  468   4.127   4.288   2.039
    1C        C  469   4.188   4.244   2.158
    1C        C  470   4.008   4.371   2.277
    1C        C  471   4.130   4.298   2.276
    1C        C  472   3.945   4.402   2.399
    1C        C  473   4.008   4.371   2.521
    1C        C  474   3.814   4.461   2.642
    1C        C  475   3.946   4.411   2.642
    1C        C  476   3.746   4.484   2.764
    1C        C  477   3.814   4.466   2.887
    1C        C  478   3.606   4.515   3.007
    1C        C  479   3.745   4.487   3.008
    1C        C  480   3.537   4.527   3.130
    1C        C  481   3.610   4.522   3.251
    1C        C  482   3.398   4.527   3.373
    1C        C  483   3.539   4.531   3.373
    1C        C  484   3.327   4.520   3.495
    1C        C  485   3.397   4.531   3.618
    1C        C  486   3.190   4.495   3.743
    1C        C  487   3.329   4.524   3.741
    1C        C  488   3.125   4.479   3.867
    1C        C  489   3.189   4.500   3.991
    1C        C  490   2.998   4.417   4.115
    1C        C  491   3.123   4.483   4.115
    1C        C  492   2.939   4.383   4.239
    1C        C  493   2.998   4.423   4.360
    1C        C  494   2.827   4.303   4.483
    1C        C  495   2.936   4.393   4.483
    1C        C  496   2.774   4.255   4.605
    1C        C  497   2.821   4.317   4.723
    1C        C  498   2.673   4.163   4.845
    1C        C  499   2.751   4.281   4.841
    1C        C  500   2.597   4.116   4.953
    1C        C  501   4.003   4.351   2.037
    1C        C  502   3.818   4.463   2.156
    1C        C  503   3.943   4.397   2.154
    1C        C  504   3.744   4.476   2.276
    1C        C  505   3.812   4.451   2.397
    1C        C  506   3.609   4.508   2.519
    1C        C  507   3.747   4.479   2.519
    1C        C  508   3.538   4.510   2.641
    1C        C  509   3.607   4.507   2.765
    1C        C  510   3.393   4.515   2.887
    1C        C  511   3.535   4.520   2.886
    1C        C  512   3.322   4.513   3.009
    1C        C  513   3.396   4.529   3.128
    1C        C  514   3.189   4.491   3.254
    1C        C  515   3.327   4.521   3.251
    1C        C  516   3.120   4.469   3.376
    1C        C  517   3.188   4.494   3.497
    1C        C  518   3.000   4.404   3.626
    1C        C  519   3.123   4.473   3.621
    1C        C  520   2.939   4.369   3.748
    1C        C  521   3.001   4.410   3.869
    1C        C  522   2.829   4.291   3.995
    1C        C  523   2.943   4.374   3.992
    1C        C  524   2.782   4.240   4.117
    1C        C  525   2.830   4.292   4.239
    1C        C  526   2.691   4.136   4.362
    1C        C  527   2.779   4.246   4.363
    1C        C  528   2.654   4.077   4.485
    1C        C  529   2.688   4.143   4.605
    1C        C  530   2.594   3.956   4.731
    1C        C  531   2.645   4.089   4.729
    1C        C  532   2.545   3.900   4.852
    1C        C  533   2.532   3.992   4.961
    1C        C  534   3.621   4.555   2.041
    1C        C  535   3.753   4.510   2.041
    1C        C  536   3.538   4.534   2.156
    1C        C  537   3.605   4.507   2.278
    1C        C  538   3.394   4.515   2.402
    1C        C  539   3.535   4.523   2.399
    1C        C  540   3.325   4.502   2.524
    1C        C  541   3.397   4.511   2.645
    1C        C  542   3.183   4.486   2.764
    1C        C  543   3.322   4.510   2.765
    1C        C  544   3.115   4.468   2.887
    1C        C  545   3.184   4.483   3.009
    1C        C  546   2.992   4.402   3.134
    1C        C  547   3.120   4.462   3.134
    1C        C  548   2.938   4.359   3.257
    1C        C  549   2.997   4.400   3.379
    1C        C  550   2.827   4.281   3.506
    1C        C  551   2.939   4.367   3.503
    1C        C  552   2.774   4.235   3.628
    1C        C  553   2.824   4.288   3.749
    1C        C  554   2.695   4.126   3.877
    1C        C  555   2.775   4.242   3.873
    1C        C  556   2.660   4.063   3.998
    1C        C  557   2.700   4.125   4.119
    1C        C  558   2.605   3.938   4.246
    1C        C  559   2.660   4.068   4.242
    1C        C  560   2.578   3.875   4.369
    1C        C  561   2.597   3.947   4.489
    1C        C  562   2.538   3.746   4.615
    1C        C  563   2.573   3.883   4.613
    1C        C  564   2.519   3.680   4.739
    1C        C  565   2.522   3.759   4.857
    1C        C  566   2.533   3.544   4.977
    1C        C  567   2.525   3.683   4.975
    1C        C  568   3.328   4.473   2.040
    1C        C  569   3.399   4.504   2.157
    1C        C  570   3.188   4.471   2.279
    1C        C  571   3.326   4.503   2.279
    1C        C  572   3.117   4.452   2.400
    1C        C  573   3.186   4.476   2.521
    1C        C  574   2.988   4.401   2.645
    1C        C  575   3.115   4.462   2.642
    1C        C  576   2.930   4.363   2.768
    1C        C  577   2.992   4.400   2.890
    1C        C  578   2.823   4.274   3.015
    1C        C  579   2.930   4.365   3.013
    1C        C  580   2.775   4.224   3.138
    1C        C  581   2.827   4.271   3.260
    1C        C  582   2.692   4.115   3.388
    1C        C  583   2.778   4.227   3.385
    1C        C  584   2.657   4.057   3.512
    1C        C  585   2.691   4.120   3.634
    1C        C  586   2.596   3.934   3.758
    1C        C  587   2.655   4.062   3.758
    1C        C  588   2.574   3.868   3.881
    1C        C  589   2.602   3.934   4.002
    1C        C  590   2.534   3.735   4.128
    1C        C  591   2.574   3.871   4.126
    1C        C  592   2.527   3.667   4.251
    1C        C  593   2.542   3.738   4.372
    1C        C  594   2.517   3.530   4.496
    1C        C  595   2.527   3.671   4.496
    1C        C  596   2.520   3.463   4.620
    1C        C  597   2.517   3.538   4.740
    1C        C  598   2.536   3.325   4.861
    1C        C  599   2.532   3.466   4.860
    1C        C  600   2.530   3.245   4.976
    1C        C  601   3.196   4.433   2.045
    1C        C  602   2.980   4.392   2.159
    1C        C  603   3.118   4.433   2.161
    1C        C  604   2.924   4.361   2.285
    1C        C  605   2.989   4.392   2.407
    1C        C  606   2.815   4.268   2.528
    1C        C  607   2.924   4.357   2.527
    1C        C  608   2.767   4.222   2.653
    1C        C  609   2.820   4.275   2.773
    1C        C  610   2.681   4.111   2.896
    1C        C  611   2.773   4.219   2.894
    1C        C  612   2.644   4.056   3.021
    1C        C  613   2.687   4.113   3.142
    1C        C  614   2.592   3.927   3.267
    1C        C  615   2.653   4.055   3.266
    1C        C  616   2.572   3.863   3.392
    1C        C  617   2.595   3.931   3.513
    1C        C  618   2.530   3.730   3.638
    1C        C  619   2.571   3.866   3.637
    1C        C  620   2.514   3.662   3.761
    1C        C  621   2.531   3.733   3.882
    1C        C  622   2.506   3.525   4.008
    1C        C  623   2.526   3.665   4.005
    1C        C  624   2.512   3.454   4.131
    1C        C  625   2.513   3.527   4.252
    1C        C  626   2.539   3.318   4.378
    1C        C  627   2.515   3.457   4.375
    1C        C  628   2.555   3.249   4.500
    1C        C  629   2.540   3.323   4.619
    1C        C  630   2.596   3.118   4.746
    1C        C  631   2.550   3.252   4.741
    1C        C  632   2.612   3.044   4.866
    1C        C  633   2.561   3.108   4.983
    1C        C  634   2.775   4.305   2.056
    1C        C  635   2.892   4.383   2.047
    1C        C  636   2.747   4.229   2.170
    1C        C  637   2.811   4.275   2.287
    1C        C  638   2.673   4.109   2.411
    1C        C  639   2.760   4.220   2.407
    1C        C  640   2.633   4.053   2.534
    1C        C  641   2.679   4.112   2.653
    1C        C  642   2.583   3.922   2.777
    1C        C  643   2.643   4.049   2.775
    1C        C  644   2.562   3.858   2.901
    1C        C  645   2.584   3.928   3.022
    1C        C  646   2.528   3.725   3.147
    1C        C  647   2.563   3.862   3.145
    1C        C  648   2.516   3.657   3.270
    1C        C  649   2.535   3.727   3.392
    1C        C  650   2.514   3.519   3.519
    1C        C  651   2.524   3.660   3.516
    1C        C  652   2.513   3.450   3.642
    1C        C  653   2.505   3.521   3.764
    1C        C  654   2.525   3.312   3.890
    1C        C  655   2.502   3.452   3.887
    1C        C  656   2.538   3.241   4.011
    1C        C  657   2.529   3.314   4.132
    1C        C  658   2.588   3.112   4.257
    1C        C  659   2.546   3.247   4.255
    1C        C  660   2.627   3.051   4.378
    1C        C  661   2.598   3.114   4.501
    1C        C  662   2.706   2.935   4.621
    1C        C  663   2.626   3.051   4.625
    1C        C  664   2.751   2.878   4.743
    1C        C  665   2.694   2.926   4.864
    1C        C  666   2.740   2.867   4.982
    1C        C  667   2.675   4.025   2.052
    1C        C  668   2.685   4.102   2.169
    1C        C  669   2.580   3.916   2.292
    1C        C  670   2.644   4.042   2.290
    1C        C  671   2.551   3.851   2.414
    1C        C  672   2.573   3.925   2.532
    1C        C  673   2.514   3.721   2.661
    1C        C  674   2.554   3.857   2.655
    1C        C  675   2.507   3.651   2.783
    1C        C  676   2.524   3.722   2.904
    1C        C  677   2.506   3.512   3.029
    1C        C  678   2.515   3.653   3.027
    1C        C  679   2.510   3.444   3.154
    1C        C  680   2.511   3.516   3.275
    1C        C  681   2.533   3.306   3.401
    1C        C  682   2.512   3.446   3.398
    1C        C  683   2.550   3.240   3.525
    1C        C  684   2.534   3.311   3.647
    1C        C  685   2.606   3.113   3.770
    1C        C  686   2.549   3.242   3.770
    1C        C  687   2.639   3.052   3.893
    1C        C  688   2.596   3.112   4.013
    1C        C  689   2.706   2.934   4.137
    1C        C  690   2.622   3.047   4.136
    1C        C  691   2.756   2.881   4.258
    1C        C  692   2.710   2.937   4.380
    1C        C  693   2.750   2.876   4.501
    1C        C  694   2.622   3.895   2.058
    1C        C  695   2.524   3.704   2.176
    1C        C  696   2.572   3.837   2.175
    1C        C  697   2.508   3.638   2.299
    1C        C  698   2.516   3.714   2.418
    1C        C  699   2.491   3.506   2.544
    1C        C  700   2.503   3.646   2.542
    1C        C  701   2.502   3.434   2.666
    1C        C  702   2.510   3.509   2.785
    1C        C  703   2.529   3.300   2.911
    1C        C  704   2.514   3.440   2.908
    1C        C  705   2.547   3.235   3.035
    1C        C  706   2.534   3.305   3.157
    1C        C  707   2.602   3.105   3.279
    1C        C  708   2.554   3.238   3.280
    1C        C  709   2.632   3.043   3.402
    1C        C  710   2.606   3.110   3.524
    1C        C  711   2.714   2.931   3.650
    1C        C  712   2.635   3.048   3.647
    1C        C  713   2.757   2.875   3.772
    1C        C  714   2.715   2.932   3.894
    1C        C  715   2.754   2.876   4.017
    1C        C  716   2.449   3.499   2.065
    1C        C  717   2.490   3.633   2.060
    1C        C  718   2.459   3.420   2.184
    1C        C  719   2.483   3.498   2.301
    1C        C  720   2.516   3.291   2.426
    1C        C  721   2.489   3.430   2.425
    1C        C  722   2.540   3.223   2.547
    1C        C  723   2.525   3.295   2.668
    1C        C  724   2.599   3.097   2.792
    1C        C  725   2.544   3.228   2.790
    1C        C  726   2.626   3.036   2.917
    1C        C  727   2.594   3.102   3.037
    1C        C  728   2.707   2.919   3.159
    1C        C  729   2.628   3.036   3.158
    1C        C  730   2.754   2.872   3.284
    1C        C  731   2.710   2.925   3.407
    1C        C  732   2.755   2.870   3.529
    1C        C  733   2.487   3.199   2.071
    1C        C  734   2.484   3.279   2.186
    1C        C  735   2.575   3.084   2.307
    1C        C  736   2.518   3.215   2.308
    1C        C  737   2.611   3.020   2.427
    1C        C  738   2.589   3.090   2.547
    1C        C  739   2.700   2.911   2.671
    1C        C  740   2.624   3.030   2.670
    1C        C  741   2.742   2.856   2.794
    1C        C  742   2.698   2.915   2.915
    1C        C  743   2.747   2.862   3.037
    1C        C  744   2.546   3.073   2.073
    1C        C  745   2.682   2.898   2.184
    1C        C  746   2.606   3.016   2.187
    1C        C  747   2.729   2.843   2.305
    1C        C  748   2.692   2.904   2.428
    1C        C  749   2.735   2.848   2.550
    1C        C  750   2.739   2.841   2.069
    1C        C  751   3.661   2.300   1.992
    1C        O  752   3.634   2.182   2.025
    1C        O  753   3.642   2.288   1.854
    1C        C  754   4.601   3.051   1.954
    1C        O  755   4.567   3.070   1.835
    1C        O  756   4.729   3.008   1.991
    1C        C  757   4.470   4.221   1.980
    1C        O  758   4.541   4.310   2.034
    1C        O  759   4.455   4.252   1.844
    1C        C  760   3.601   4.672   1.953
    1C        O  761   3.603   4.791   1.995
    1C        O  762   3.575   4.668   1.815
    1C        C  763   2.891   4.475   1.931
    1C        O  764   2.941   4.431   1.824
    1C        O  765   2.852   4.610   1.932
    1C        C  766   2.341   3.463   1.970
    1C        O  767   2.348   3.495   1.848
    1C        O  768   2.210   3.475   2.016
    1C        C  769   4.696   3.604   5.053
    1C        O  770   4.681   3.552   5.167
    1C        O  771   4.830   3.605   5.009
    1C        C  772   4.279   4.450   5.034
    1C        O  773   4.259   4.450   5.158
    1C        O  774   4.393   4.528   5.007
    1C        C  775   4.142   2.504   5.070
    1C        O  776   4.253   2.463   5.024
    1C        O  777   4.167   2.558   5.197
    1C        C  778   2.872   4.542   5.049
    1C        O  779   2.808   4.640   5.001
    1C        O  780   2.880   4.539   5.189
    1C        C  781   2.490   3.038   5.092
    1C        O  782   2.367   3.014   5.080
    1C        O  783   2.533   3.058   5.223
    1C        C  784   2.410   4.005   5.043
    1C        O  785   2.294   4.035   5.004
    1C        O  786   2.402   3.976   5.180
    1C        C  787   2.951   2.450   1.979
    1C        O  788   2.999   2.462   1.863
    1C        O  789   2.892   2.327   2.005
    1C        C  790   3.168   2.370   5.060
    1C        O  791   3.094   2.276   5.022
    1C        O  792   3.187   2.369   5.199
    1C        H  793   4.270   3.032   5.051
    1C        H  794   4.158   2.817   5.060
    1C        H  795   4.499   3.125   5.055
    1C        H  796   4.568   3.358   5.063
    1C        H  797   4.594   3.815   5.030
    1C        H  798   4.382   3.961   5.056
    1C        H  799   4.311   4.189   5.045
    1C        H  800   4.008   4.471   5.040
    1C        H  801   3.818   4.623   5.026
    1C        H  802   3.582   4.603   5.043
    1C        H  803   3.374   4.555   5.052
    1C        H  804   3.159   4.444   5.049
    1C        H  805   3.901   2.467   5.056
    1C        H  806   3.684   2.483   5.075
    1C        H  807   3.000   2.539   5.056
    1C        H  808   3.452   2.447   5.076
    1C        H  809   2.861   2.717   5.072
    1C        H  810   2.717   2.913   5.076
    1C        H  811   2.469   3.283   5.055
    1C        H  812   2.563   3.499   5.069
    1C        H  813   2.475   3.731   5.057
    1C        H  814   2.589   4.178   5.040
    1C        H  815   2.788   4.290   5.050
    1C        H  816   2.712   2.884   1.975
    1C        H  817   2.853   2.699   1.973
    1C        H  818   3.213   2.447   1.986
    1C        H  819   3.433   2.458   1.972
    1C        H  820   3.832   2.580   1.988
    1C        H  821   4.049   2.661   1.977
    1C        H  822   4.268   2.711   1.981
    1C        H  823   4.414   2.892   1.975
    1C        H  824   4.633   3.303   1.991
    1C        H  825   4.462   3.509   1.970
    1C        H  826   4.545   3.738   1.961
    1C        H  827   3.772   4.461   1.948
    1C        H  828   3.968   4.385   1.942
    1C        H  829   4.193   4.315   1.959
    1C        H  830   4.484   3.954   1.964
    1C        H  831   2.661   3.825   1.987
    1C        H  832   2.720   4.053   1.959
    1C        H  833   2.714   4.289   1.970
    1C        H  834   3.356   4.539   1.960
    1C        H  835   3.158   4.380   1.960
    1C        H  836   2.511   3.004   1.999
    1C        H  837   2.409   3.204   1.999
    1C        H  838   2.528   3.669   1.967
    2V3OU   H29  839   2.805   3.553   3.711
    2V3OU   C27  840   2.793   3.502   3.810
    2V3OU   H27  841   2.732   3.562   3.882
    2V3OU   H28  842   2.741   3.404   3.794
    2V3OU   O11  843   2.917   3.467   3.872
    2V3OU   C15  844   2.924   3.400   3.992
    2V3OU   C13  845   3.051   3.375   4.047
    2V3OU   C14  846   3.081   3.272   4.137
    2V3OU   C16  847   2.982   3.185   4.181
    2V3OU    H6  848   2.994   3.106   4.256
    2V3OU   C12  849   3.215   3.232   4.187
    2V3OU    O2  850   3.243   3.123   4.240
    2V3OU   C10  851   3.328   3.309   4.132
    2V3OU    C8  852   3.459   3.267   4.150
    2V3OU   O10  853   3.494   3.153   4.216
    2V3OU   H26  854   3.410   3.115   4.247
    2V3OU    C6  855   3.565   3.346   4.094
    2V3OU    C5  856   3.541   3.465   4.027
    2V3OU    C4  857   3.703   3.290   4.100
    2V3OU    H4  858   3.724   3.230   4.193
    2V3OU    H5  859   3.708   3.223   4.009
    2V3OU    C2  860   3.809   3.398   4.081
    2V3OU    O6  861   3.800   3.470   4.205
    2V3OU   H21  862   3.761   3.558   4.192
    2V3OU    C3  863   3.780   3.493   3.965
    2V3OU    H2  864   3.863   3.568   3.952
    2V3OU    H3  865   3.778   3.440   3.867
    2V3OU   C25  866   3.943   3.326   4.068
    2V3OU    O7  867   3.991   3.291   3.960
    2V3OU   C26  868   4.024   3.286   4.190
    2V3OU   H22  869   4.066   3.378   4.239
    2V3OU   H23  870   4.112   3.224   4.161
    2V3OU    O8  871   3.959   3.209   4.290
    2V3OU   H24  872   3.927   3.267   4.361
    2V3OU    C1  873   3.647   3.563   3.985
    2V3OU    H1  874   3.619   3.616   3.889
    2V3OU    O3  875   3.660   3.657   4.091
    2V3OU   C19  876   3.621   3.793   4.071
    2V3OU    H9  877   3.518   3.800   4.025
    2V3OU    O4  878   3.714   3.852   3.983
    2V3OU   C20  879   3.848   3.870   4.028
    2V3OU   H10  880   3.907   3.777   4.054
    2V3OU   C24  881   3.612   3.856   4.210
    2V3OU   H16  882   3.539   3.794   4.268
    2V3OU   H17  883   3.568   3.958   4.199
    2V3OU   C23  884   3.753   3.876   4.267
    2V3OU   H15  885   3.794   3.773   4.295
    2V3OU    N1  886   3.739   3.956   4.387
    2V3OU   H19  887   3.811   3.925   4.449
    2V3OU   H20  888   3.651   3.932   4.428
    2V3OU   C21  889   3.843   3.946   4.160
    2V3OU   H11  890   3.951   3.937   4.191
    2V3OU    O5  891   3.824   4.087   4.156
    2V3OU   H18  892   3.785   4.101   4.244
    2V3OU   C22  893   3.914   3.944   3.912
    2V3OU   H12  894   3.866   4.046   3.903
    2V3OU   H13  895   3.900   3.889   3.816
    2V3OU   H14  896   4.025   3.952   3.923
    2V3OU   C11  897   3.162   3.467   4.018
    2V3OU    O1  898   3.135   3.585   3.990
    2V3OU    C9  899   3.299   3.423   4.053
    2V3OU    C7  900   3.404   3.502   4.008
    2V3OU    O9  901   3.381   3.622   3.944
    2V3OU   H25  902   3.284   3.627   3.944
    2V3OU   C17  903   2.828   3.313   4.049
    2V3OU    H7  904   2.732   3.353   4.019
    2V3OU   C18  905   2.852   3.211   4.141
    2V3OU    H8  906   2.793   3.173   4.226
    3SOL     OW  907   2.898   4.325   5.675
    3SOL    HW1  908   2.855   4.364   5.594
    3SOL    HW2  909   2.844   4.349   5.756
    4SOL     OW  910   6.688   6.992   6.752
    4SOL    HW1  911   6.754   6.937   6.801
    4SOL    HW2  912   6.634   6.934   6.691
    5SOL     OW  913   4.611   1.527   2.866
    5SOL    HW1  914   4.609   1.445   2.924
    5SOL    HW2  915   4.560   1.510   2.781
    6SOL     OW  916   4.988   2.384   3.139
    6SOL    HW1  917   4.959   2.291   3.158
    6SOL    HW2  918   4.956   2.411   3.048
    7SOL     OW  919   0.939   4.164   3.918
    7SOL    HW1  920   0.915   4.153   4.015
    7SOL    HW2  921   0.857   4.152   3.862
    8SOL     OW  922   3.020   2.260   5.538
    8SOL    HW1  923   3.114   2.236   5.512
    8SOL    HW2  924   2.955   2.208   5.483
    9SOL     OW  925   6.582   1.733   6.018
    9SOL    HW1  926   6.569   1.685   5.932
    9SOL    HW2  927   6.660   1.693   6.067
   10SOL     OW  928   3.543   4.914   4.127
   10SOL    HW1  929   3.477   4.904   4.052
   10SOL    HW2  930   3.636   4.902   4.092
   11SOL     OW  931   1.801   1.092   6.927
   11SOL    HW1  932   1.725   1.132   6.978
   11SOL    HW2  933   1.812   0.996   6.953
   12SOL     OW  934   2.630   4.709   4.123
   12SOL    HW1  935   2.591   4.630   4.076
   12SOL    HW2  936   2.729   4.700   4.126
   13SOL     OW  937   3.791   6.065   2.674
   13SOL    HW1  938   3.850   6.111   2.608
   13SOL    HW2  939   3.739   5.993   2.627
   14SOL     OW  940   4.240   3.977   6.266
   14SOL    HW1  941   4.208   3.901   6.209
   14SOL    HW2  942   4.329   4.008   6.233
   15SOL     OW  943   0.868   6.759   6.455
   15SOL    HW1  944   0.812   6.677   6.460
   15SOL    HW2  945   0.811   6.838   6.436
   16SOL     OW  946   5.995   2.492   6.169
   16SOL    HW1  947   6.023   2.553   6.243
   16SOL    HW2  948   5.955   2.409   6.207
   17SOL     OW  949   5.113   0.468   6.544
   17SOL    HW1  950   5.048   0.404   6.504
   17SOL    HW2  951   5.188   0.418   6.587
   18SOL     OW  952   4.144   1.322   5.058
   18SOL    HW1  953   4.048   1.304   5.081
   18SOL    HW2  954   4.175   1.404   5.106
   19SOL     OW  955   0.620   2.186   2.292
   19SOL    HW1  956   0.684   2.223   2.360
   19SOL    HW2  957   0.561   2.117   2.336
   20SOL     OW  958   5.477   1.812   5.074
   20SOL    HW1  959   5.397   1.787   5.129
   20SOL    HW2  960   5.448   1.867   4.995
   21SOL     OW  961   2.890   0.491   2.937
   21SOL    HW1  962   2.846   0.566   2.987
   21SOL    HW2  963   2.824   0.417   2.924
   22SOL     OW  964   1.146   6.068   6.528
   22SOL    HW1  965   1.201   6.142   6.566
   22SOL    HW2  966   1.146   6.075   6.428
   23SOL     OW  967   3.977   5.557   2.319
   23SOL    HW1  968   3.879   5.549   2.300
   23SOL    HW2  969   4.014   5.468   2.343
   24SOL     OW  970   3.719   6.924   2.452
   24SOL    HW1  971   3.811   6.961   2.452
   24SOL    HW2  972   3.698   6.888   2.543
   25SOL     OW  973   2.616   6.971   4.221
   25SOL    HW1  974   2.698   6.914   4.230
   25SOL    HW2  975   2.566   6.944   4.138
   26SOL     OW  976   0.486   1.935   7.000
   26SOL    HW1  977   0.565   1.952   0.037
   26SOL    HW2  978   0.419   2.009   7.012
   27SOL     OW  979   1.319   1.535   2.022
   27SOL    HW1  980   1.312   1.586   2.108
   27SOL    HW2  981   1.301   1.595   1.945
   28SOL     OW  982   0.440   0.964   4.672
   28SOL    HW1  983   0.503   1.006   4.738
   28SOL    HW2  984   0.482   0.883   4.633
   29SOL     OW  985   6.330   0.790   1.148
   29SOL    HW1  986   6.376   0.776   1.236
   29SOL    HW2  987   6.355   0.879   1.111
   30SOL     OW  988   3.895   0.368   5.493
   30SOL    HW1  989   3.818   0.340   5.551
   30SOL    HW2  990   3.949   0.287   5.469
   31SOL     OW  991   0.540   2.202   5.580
   31SOL    HW1  992   0.605   2.132   5.608
   31SOL    HW2  993   0.584   2.292   5.582
   32SOL     OW  994   1.697   1.705   2.420
   32SOL    HW1  995   1.724   1.700   2.516
   32SOL    HW2  996   1.733   1.788   2.379
   33SOL     OW  997   0.992   4.269   4.966
   33SOL    HW1  998   1.029   4.230   5.050
   33SOL    HW2  999   1.003   4.368   4.968
   34SOL     OW 1000   2.203   5.938   4.787
   34SOL    HW1 1001   2.197   5.959   4.885
   34SOL    HW2 1002   2.111   5.932   4.749
   35SOL     OW 1003   4.603   1.777   5.543
   35SOL    HW1 1004   4.609   1.684   5.581
   35SOL    HW2 1005   4.517   1.818   5.572
   36SOL     OW 1006   5.367   1.297   3.590
   36SOL    HW1 1007   5.418   1.285   3.675
   36SOL    HW2 1008   5.317   1.213   3.569
   37SOL     OW 1009   1.977   1.515   4.967
   37SOL    HW1 1010   2.016   1.596   5.010
   37SOL    HW2 1011   1.901   1.543   4.907
   38SOL     OW 1012   2.300   4.095   1.978
   38SOL    HW1 1013   2.366   4.074   2.050
   38SOL    HW2 1014   2.336   4.065   1.890
   39SOL     OW 1015   6.354   4.895   6.100
   39SOL    HW1 1016   6.409   4.846   6.167
   39SOL    HW2 1017   6.330   4.834   6.024
   40SOL     OW 1018   3.443   1.492   6.539
   40SOL    HW1 1019   3.481   1.558   6.604
   40SOL    HW2 1020   3.453   1.400   6.575
   41SOL     OW 1021   6.407   3.630   2.566
   41SOL    HW1 1022   6.458   3.712   2.592
   41SOL    HW2 1023   6.311   3.641   2.592
   42SOL     OW 1024   3.367   6.151   4.318
   42SOL    HW1 1025   3.442   6.210   4.349
   42SOL    HW2 1026   3.288   6.208   4.294
   43SOL     OW 1027   4.185   0.208   5.621
   43SOL    HW1 1028   4.194   0.304   5.648
   43SOL    HW2 1029   4.123   0.201   5.543
   44SOL     OW 1030   6.069   2.656   4.771
   44SOL    HW1 1031   6.020   2.603   4.702
   44SOL    HW2 1032   6.114   2.733   4.727
   45SOL     OW 1033   4.140   5.371   1.374
   45SOL    HW1 1034   4.105   5.454   1.329
   45SOL    HW2 1035   4.218   5.335   1.322
   46SOL     OW 1036   0.495   2.754   4.131
   46SOL    HW1 1037   0.552   2.837   4.131
   46SOL    HW2 1038   0.508   2.705   4.045
   47SOL     OW 1039   4.833   3.466   1.259
   47SOL    HW1 1040   4.859   3.371   1.277
   47SOL    HW2 1041   4.847   3.486   1.162
   48SOL     OW 1042   0.035   2.699   6.325
   48SOL    HW1 1043   6.976   2.649   6.295
   48SOL    HW2 1044   0.109   2.684   6.259
   49SOL     OW 1045   5.276   3.066   1.490
   49SOL    HW1 1046   5.312   3.129   1.421
   49SOL    HW2 1047   5.330   2.982   1.489
   50SOL     OW 1048   5.887   1.701   5.305
   50SOL    HW1 1049   5.806   1.747   5.270
   50SOL    HW2 1050   5.961   1.766   5.316
   51SOL     OW 1051   2.144   6.256   2.873
   51SOL    HW1 1052   2.080   6.237   2.799
   51SOL    HW2 1053   2.221   6.193   2.867
   52SOL     OW 1054   5.032   2.796   1.863
   52SOL    HW1 1055   5.003   2.717   1.917
   52SOL    HW2 1056   4.953   2.832   1.812
   53SOL     OW 1057   5.074   0.295   3.475
   53SOL    HW1 1058   5.157   0.348   3.489
   53SOL    HW2 1059   5.083   0.239   3.393
   54SOL     OW 1060   5.523   6.984   0.040
   54SOL    HW1 1061   5.548   7.012   0.133
   54SOL    HW2 1062   5.429   6.949   0.041
   55SOL     OW 1063   2.424   2.223   5.494
   55SOL    HW1 1064   2.490   2.283   5.449
   55SOL    HW2 1065   2.465   2.132   5.507
   56SOL     OW 1066   1.306   2.055   1.297
   56SOL    HW1 1067   1.236   1.984   1.301
   56SOL    HW2 1068   1.326   2.087   1.390
   57SOL     OW 1069   3.662   1.464   6.996
   57SOL    HW1 1070   3.613   1.415   6.923
   57SOL    HW2 1071   3.760   1.448   6.986
   58SOL     OW 1072   0.582   0.125   6.120
   58SOL    HW1 1073   0.542   0.091   6.034
   58SOL    HW2 1074   0.622   0.215   6.103
   59SOL     OW 1075   6.476   3.785   5.793
   59SOL    HW1 1076   6.419   3.770   5.874
   59SOL    HW2 1077   6.422   3.767   5.711
   60SOL     OW 1078   5.379   2.010   3.725
   60SOL    HW1 1079   5.375   2.054   3.814
   60SOL    HW2 1080   5.301   2.039   3.669
   61SOL     OW 1081   6.774   0.979   4.449
   61SOL    HW1 1082   6.787   0.881   4.437
   61SOL    HW2 1083   6.686   1.006   4.409
   62SOL     OW 1084   2.036   1.394   1.469
   62SOL    HW1 1085   2.115   1.334   1.459
   62SOL    HW2 1086   2.023   1.415   1.566
   63SOL     OW 1087   3.919   0.225   3.978
   63SOL    HW1 1088   3.928   0.224   4.078
   63SOL    HW2 1089   4.002   0.190   3.936
   64SOL     OW 1090   0.605   3.652   6.550
   64SOL    HW1 1091   0.684   3.595   6.526
   64SOL    HW2 1092   0.542   3.656   6.473
   65SOL     OW 1093   1.309   6.122   5.747
   65SOL    HW1 1094   1.384   6.115   5.682
   65SOL    HW2 1095   1.237   6.180   5.708
   66SOL     OW 1096   3.438   0.213   3.047
   66SOL    HW1 1097   3.412   0.262   3.130
   66SOL    HW2 1098   3.509   0.146   3.069
   67SOL     OW 1099   0.089   3.217   6.068
   67SOL    HW1 1100   0.095   3.201   6.167
   67SOL    HW2 1101   0.165   3.172   6.022
   68SOL     OW 1102   6.825   1.390   6.169
   68SOL    HW1 1103   6.869   1.304   6.191
   68SOL    HW2 1104   6.733   1.372   6.133
   69SOL     OW 1105   1.930   3.106   6.108
   69SOL    HW1 1106   2.018   3.127   6.152
   69SOL    HW2 1107   1.941   3.027   6.049
   70SOL     OW 1108   5.528   5.041   4.779
   70SOL    HW1 1109   5.461   5.111   4.803
   70SOL    HW2 1110   5.507   5.003   4.689
   71SOL     OW 1111   4.921   1.573   3.646
   71SOL    HW1 1112   4.920   1.606   3.552
   71SOL    HW2 1113   4.837   1.602   3.692
   72SOL     OW 1114   0.453   0.998   3.050
   72SOL    HW1 1115   0.374   1.058   3.041
   72SOL    HW2 1116   0.425   0.911   3.092
   73SOL     OW 1117   3.022   0.348   0.756
   73SOL    HW1 1118   2.999   0.276   0.691
   73SOL    HW2 1119   2.941   0.405   0.772
   74SOL     OW 1120   2.565   1.450   6.571
   74SOL    HW1 1121   2.466   1.452   6.556
   74SOL    HW2 1122   2.607   1.385   6.508
   75SOL     OW 1123   3.461   1.001   1.819
   75SOL    HW1 1124   3.489   0.950   1.901
   75SOL    HW2 1125   3.438   1.095   1.844
   76SOL     OW 1126   1.740   3.906   5.929
   76SOL    HW1 1127   1.681   3.826   5.932
   76SOL    HW2 1128   1.698   3.981   5.981
   77SOL     OW 1129   2.209   5.795   3.416
   77SOL    HW1 1130   2.189   5.727   3.345
   77SOL    HW2 1131   2.126   5.848   3.436
   78SOL     OW 1132   4.199   1.364   0.914
   78SOL    HW1 1133   4.105   1.374   0.883
   78SOL    HW2 1134   4.212   1.272   0.951
   79SOL     OW 1135   2.281   5.773   1.969
   79SOL    HW1 1136   2.239   5.797   1.882
   79SOL    HW2 1137   2.362   5.831   1.984
   80SOL     OW 1138   4.572   1.836   4.726
   80SOL    HW1 1139   4.645   1.890   4.685
   80SOL    HW2 1140   4.608   1.746   4.752
   81SOL     OW 1141   1.892   6.949   0.778
   81SOL    HW1 1142   1.946   6.872   0.744
   81SOL    HW2 1143   1.915   0.009   0.727
   82SOL     OW 1144   0.325   6.103   1.744
   82SOL    HW1 1145   0.329   6.045   1.663
   82SOL    HW2 1146   0.246   6.164   1.737
   83SOL     OW 1147   0.300   1.614   6.062
   83SOL    HW1 1148   0.365   1.568   6.123
   83SOL    HW2 1149   0.234   1.666   6.117
   84SOL     OW 1150   6.517   3.907   2.871
   84SOL    HW1 1151   6.563   3.899   2.782
   84SOL    HW2 1152   6.555   3.985   2.921
   85SOL     OW 1153   1.782   0.415   3.259
   85SOL    HW1 1154   1.851   0.447   3.195
   85SOL    HW2 1155   1.782   0.315   3.262
   86SOL     OW 1156   6.596   1.080   6.652
   86SOL    HW1 1157   6.668   1.081   6.721
   86SOL    HW2 1158   6.559   1.172   6.640
   87SOL     OW 1159   3.699   3.900   0.835
   87SOL    HW1 1160   3.763   3.896   0.913
   87SOL    HW2 1161   3.722   3.979   0.778
   88SOL     OW 1162   3.288   2.037   6.413
   88SOL    HW1 1163   3.196   2.054   6.450
   88SOL    HW2 1164   3.289   2.056   6.315
   89SOL     OW 1165   3.346   3.757   1.052
   89SOL    HW1 1166   3.279   3.825   1.023
   89SOL    HW2 1167   3.395   3.722   0.973
   90SOL     OW 1168   4.681   4.678   2.364
   90SOL    HW1 1169   4.621   4.601   2.340
   90SOL    HW2 1170   4.627   4.749   2.408
   91SOL     OW 1171   5.904   5.217   6.308
   91SOL    HW1 1172   5.837   5.217   6.234
   91SOL    HW2 1173   5.954   5.303   6.309
   92SOL     OW 1174   5.426   4.008   1.140
   92SOL    HW1 1175   5.525   4.015   1.129
   92SOL    HW2 1176   5.398   4.062   1.219
   93SOL     OW 1177   3.078   3.575   0.473
   93SOL    HW1 1178   3.100   3.506   0.405
   93SOL    HW2 1179   2.979   3.589   0.475
   94SOL     OW 1180   2.405   5.966   0.720
   94SOL    HW1 1181   2.355   6.052   0.722
   94SOL    HW2 1182   2.342   5.890   0.738
   95SOL     OW 1183   1.389   1.261   3.290
   95SOL    HW1 1184   1.416   1.176   3.245
   95SOL    HW2 1185   1.394   1.250   3.389
   96SOL     OW 1186   4.638   5.755   6.729
   96SOL    HW1 1187   4.571   5.806   6.676
   96SOL    HW2 1188   4.699   5.819   6.776
   97SOL     OW 1189   2.038   4.103   5.075
   97SOL    HW1 1190   1.991   4.101   4.987
   97SOL    HW2 1191   2.136   4.092   5.061
   98SOL     OW 1192   0.766   2.266   1.007
   98SOL    HW1 1193   0.722   2.236   1.092
   98SOL    HW2 1194   0.703   2.321   0.953
   99SOL     OW 1195   3.657   4.058   2.980
   99SOL    HW1 1196   3.605   3.973   2.989
   99SOL    HW2 1197   3.752   4.042   3.007
  100SOL     OW 1198   6.322   0.026   4.390
  100SOL    HW1 1199   6.355   0.021   4.484
  100SOL    HW2 1200   6.247   0.091   4.384
  101SOL     OW 1201   0.587   5.337   2.318
  101SOL    HW1 1202   0.643   5.338   2.235
  101SOL    HW2 1203   0.572   5.431   2.349
  102SOL     OW 1204   3.151   5.935   2.488
  102SOL    HW1 1205   3.248   5.912   2.486
  102SOL    HW2 1206   3.113   5.928   2.396
  103SOL     OW 1207   1.772   1.973   2.241
  103SOL    HW1 1208   1.763   2.067   2.208
  103SOL    HW2 1209   1.727   1.911   2.177
  104SOL     OW 1210   1.600   5.013   2.297
  104SOL    HW1 1211   1.689   4.971   2.281
  104SOL    HW2 1212   1.534   4.943   2.324
  105SOL     OW 1213   5.144   1.718   6.090
  105SOL    HW1 1214   5.176   1.744   6.181
  105SOL    HW2 1215   5.216   1.667   6.043
  106SOL     OW 1216   4.549   4.955   2.070
  106SOL    HW1 1217   4.590   5.016   2.137
  106SOL    HW2 1218   4.597   4.867   2.069
  107SOL     OW 1219   6.232   0.613   6.866
  107SOL    HW1 1220   6.189   0.699   6.839
  107SOL    HW2 1221   6.329   0.627   6.880
  108SOL     OW 1222   3.401   6.830   5.352
  108SOL    HW1 1223   3.451   6.897   5.297
  108SOL    HW2 1224   3.330   6.877   5.405
  109SOL     OW 1225   2.932   0.437   2.262
  109SOL    HW1 1226   3.012   0.494   2.242
  109SOL    HW2 1227   2.934   0.409   2.358
  110SOL     OW 1228   2.646   5.265   4.914
  110SOL    HW1 1229   2.567   5.326   4.909
  110SOL    HW2 1230   2.615   5.170   4.919
  111SOL     OW 1231   0.717   1.454   2.699
  111SOL    HW1 1232   0.806   1.454   2.653
  111SOL    HW2 1233   0.693   1.547   2.726
  112SOL     OW 1234   5.107   6.659   6.546
  112SOL    HW1 1235   5.079   6.732   6.483
  112SOL    HW2 1236   5.185   6.690   6.600
  113SOL     OW 1237   0.199   6.049   2.487
  113SOL    HW1 1238   0.115   6.020   2.441
  113SOL    HW2 1239   0.225   5.981   2.555
  114SOL     OW 1240   1.115   5.280   2.294
  114SOL    HW1 1241   1.094   5.266   2.391
  114SOL    HW2 1242   1.157   5.197   2.257
  115SOL     OW 1243   5.787   0.891   3.539
  115SOL    HW1 1244   5.753   0.835   3.464
  115SOL    HW2 1245   5.786   0.988   3.512
  116SOL     OW 1246   0.189   6.223   1.438
  116SOL    HW1 1247   0.149   6.135   1.462
  116SOL    HW2 1248   0.116   6.287   1.412
  117SOL     OW 1249   2.301   0.631   0.367
  117SOL    HW1 1250   2.284   0.681   0.452
  117SOL    HW2 1251   2.366   0.557   0.384
  118SOL     OW 1252   1.562   1.753   3.620
  118SOL    HW1 1253   1.600   1.786   3.707
  118SOL    HW2 1254   1.516   1.829   3.574
  119SOL     OW 1255   0.313   6.541   6.551
  119SOL    HW1 1256   0.253   6.486   6.493
  119SOL    HW2 1257   0.381   6.587   6.494
  120SOL     OW 1258   4.292   0.811   4.715
  120SOL    HW1 1259   4.351   0.764   4.649
  120SOL    HW2 1260   4.205   0.835   4.671
  121SOL     OW 1261   1.973   3.756   0.217
  121SOL    HW1 1262   1.910   3.825   0.183
  121SOL    HW2 1263   1.990   3.688   0.146
  122SOL     OW 1264   1.860   3.496   0.162
  122SOL    HW1 1265   1.823   3.488   0.255
  122SOL    HW2 1266   1.792   3.539   0.103
  123SOL     OW 1267   1.270   1.083   1.748
  123SOL    HW1 1268   1.171   1.075   1.736
  123SOL    HW2 1269   1.289   1.135   1.831
  124SOL     OW 1270   3.200   1.914   0.560
  124SOL    HW1 1271   3.187   1.893   0.657
  124SOL    HW2 1272   3.295   1.942   0.545
  125SOL     OW 1273   3.475   2.811   0.440
  125SOL    HW1 1274   3.465   2.866   0.523
  125SOL    HW2 1275   3.477   2.714   0.464
  126SOL     OW 1276   3.238   3.134   3.308
  126SOL    HW1 1277   3.280   3.049   3.341
  126SOL    HW2 1278   3.310   3.199   3.285
  127SOL     OW 1279   6.713   6.456   6.066
  127SOL    HW1 1280   6.671   6.547   6.068
  127SOL    HW2 1281   6.641   6.387   6.063
  128SOL     OW 1282   5.158   3.098   2.463
  128SOL    HW1 1283   5.191   3.081   2.556
  128SOL    HW2 1284   5.235   3.110   2.402
  129SOL     OW 1285   3.010   4.350   0.794
  129SOL    HW1 1286   3.080   4.418   0.771
  129SOL    HW2 1287   2.959   4.380   0.874
  130SOL     OW 1288   6.320   0.874   4.892
  130SOL    HW1 1289   6.324   0.967   4.856
  130SOL    HW2 1290   6.242   0.865   4.954
  131SOL     OW 1291   5.802   0.757   4.412
  131SOL    HW1 1292   5.814   0.695   4.334
  131SOL    HW2 1293   5.734   0.719   4.475
  132SOL     OW 1294   3.749   3.328   1.612
  132SOL    HW1 1295   3.703   3.379   1.685
  132SOL    HW2 1296   3.790   3.245   1.649
  133SOL     OW 1297   5.532   1.461   3.247
  133SOL    HW1 1298   5.450   1.490   3.297
  133SOL    HW2 1299   5.545   1.363   3.258
  134SOL     OW 1300   0.469   0.694   2.469
  134SOL    HW1 1301   0.555   0.730   2.505
  134SOL    HW2 1302   0.408   0.671   2.545
  135SOL     OW 1303   5.043   3.107   4.221
  135SOL    HW1 1304   4.982   3.157   4.159
  135SOL    HW2 1305   5.138   3.125   4.196
  136SOL     OW 1306   2.427   6.351   4.106
  136SOL    HW1 1307   2.445   6.432   4.051
  136SOL    HW2 1308   2.432   6.373   4.203
  137SOL     OW 1309   4.214   1.212   4.077
  137SOL    HW1 1310   4.225   1.131   4.135
  137SOL    HW2 1311   4.165   1.283   4.127
  138SOL     OW 1312   0.851   4.846   3.282
  138SOL    HW1 1313   0.895   4.933   3.258
  138SOL    HW2 1314   0.753   4.852   3.265
  139SOL     OW 1315   2.461   5.370   6.514
  139SOL    HW1 1316   2.458   5.464   6.548
  139SOL    HW2 1317   2.381   5.320   6.548
  140SOL     OW 1318   1.938   6.229   2.650
  140SOL    HW1 1319   1.901   6.285   2.576
  140SOL    HW2 1320   1.929   6.133   2.626
  141SOL     OW 1321   6.684   3.673   6.190
  141SOL    HW1 1322   6.762   3.726   6.224
  141SOL    HW2 1323   6.603   3.693   6.245
  142SOL     OW 1324   2.325   3.818   1.467
  142SOL    HW1 1325   2.327   3.767   1.553
  142SOL    HW2 1326   2.253   3.888   1.471
  143SOL     OW 1327   6.040   6.082   1.037
  143SOL    HW1 1328   5.962   6.023   1.054
  143SOL    HW2 1329   6.125   6.031   1.051
  144SOL     OW 1330   3.272   4.908   4.239
  144SOL    HW1 1331   3.303   4.819   4.274
  144SOL    HW2 1332   3.350   4.955   4.197
  145SOL     OW 1333   1.310   5.114   2.203
  145SOL    HW1 1334   1.387   5.095   2.264
  145SOL    HW2 1335   1.333   5.084   2.110
  146SOL     OW 1336   5.176   0.731   5.653
  146SOL    HW1 1337   5.124   0.762   5.733
  146SOL    HW2 1338   5.273   0.749   5.667
  147SOL     OW 1339   5.175   1.389   4.719
  147SOL    HW1 1340   5.170   1.467   4.656
  147SOL    HW2 1341   5.269   1.356   4.724
  148SOL     OW 1342   1.328   5.033   1.498
  148SOL    HW1 1343   1.278   4.956   1.459
  148SOL    HW2 1344   1.351   5.099   1.425
  149SOL     OW 1345   3.017   2.025   5.135
  149SOL    HW1 1346   3.050   2.097   5.075
  149SOL    HW2 1347   3.073   2.022   5.217
  150SOL     OW 1348   4.540   0.799   6.165
  150SOL    HW1 1349   4.630   0.844   6.163
  150SOL    HW2 1350   4.552   0.702   6.187
  151SOL     OW 1351   4.182   0.663   1.516
  151SOL    HW1 1352   4.227   0.719   1.446
  151SOL    HW2 1353   4.228   0.574   1.522
  152SOL     OW 1354   0.117   1.484   0.662
  152SOL    HW1 1355   0.133   1.503   0.759
  152SOL    HW2 1356   0.172   1.405   0.634
  153SOL     OW 1357   2.395   0.528   3.617
  153SOL    HW1 1358   2.328   0.525   3.543
  153SOL    HW2 1359   2.470   0.464   3.597
  154SOL     OW 1360   6.647   2.242   0.081
  154SOL    HW1 1361   6.721   2.258   0.146
  154SOL    HW2 1362   6.559   2.253   0.128
  155SOL     OW 1363   0.691   0.077   2.166
  155SOL    HW1 1364   0.775   0.039   2.126
  155SOL    HW2 1365   0.650   0.142   2.102
  156SOL     OW 1366   6.259   1.712   0.220
  156SOL    HW1 1367   6.231   1.806   0.240
  156SOL    HW2 1368   6.338   1.689   0.277
  157SOL     OW 1369   5.829   2.921   6.785
  157SOL    HW1 1370   5.926   2.942   6.799
  157SOL    HW2 1371   5.774   3.002   6.806
  158SOL     OW 1372   1.553   2.536   1.794
  158SOL    HW1 1373   1.456   2.555   1.810
  158SOL    HW2 1374   1.607   2.618   1.813
  159SOL     OW 1375   4.449   4.379   1.102
  159SOL    HW1 1376   4.421   4.300   1.048
  159SOL    HW2 1377   4.461   4.458   1.042
  160SOL     OW 1378   6.757   0.321   1.697
  160SOL    HW1 1379   6.779   0.306   1.601
  160SOL    HW2 1380   6.740   0.418   1.713
  161SOL     OW 1381   0.953   6.848   1.415
  161SOL    HW1 1382   0.922   6.894   1.332
  161SOL    HW2 1383   0.951   6.749   1.401
  162SOL     OW 1384   2.624   6.673   0.355
  162SOL    HW1 1385   2.569   6.634   0.282
  162SOL    HW2 1386   2.721   6.649   0.341
  163SOL     OW 1387   0.411   5.134   3.167
  163SOL    HW1 1388   0.424   5.223   3.124
  163SOL    HW2 1389   0.368   5.072   3.102
  164SOL     OW 1390   0.905   1.911   2.787
  164SOL    HW1 1391   0.856   1.965   2.719
  164SOL    HW2 1392   0.886   1.947   2.878
  165SOL     OW 1393   6.217   5.732   1.595
  165SOL    HW1 1394   6.138   5.671   1.588
  165SOL    HW2 1395   6.300   5.677   1.605
  166SOL     OW 1396   6.728   3.360   1.610
  166SOL    HW1 1397   6.796   3.288   1.619
  166SOL    HW2 1398   6.660   3.351   1.683
  167SOL     OW 1399   5.721   1.685   6.818
  167SOL    HW1 1400   5.625   1.712   6.815
  167SOL    HW2 1401   5.775   1.758   6.861
  168SOL     OW 1402   4.000   2.137   1.481
  168SOL    HW1 1403   3.940   2.179   1.550
  168SOL    HW2 1404   3.957   2.144   1.391
  169SOL     OW 1405   6.044   3.267   6.699
  169SOL    HW1 1406   6.020   3.244   6.605
  169SOL    HW2 1407   6.117   3.335   6.699
  170SOL     OW 1408   0.003   5.696   3.262
  170SOL    HW1 1409   6.974   5.695   3.348
  170SOL    HW2 1410   6.963   5.710   3.186
  171SOL     OW 1411   1.740   3.637   6.680
  171SOL    HW1 1412   1.656   3.592   6.713
  171SOL    HW2 1413   1.776   3.588   6.601
  172SOL     OW 1414   6.785   2.577   2.252
  172SOL    HW1 1415   6.729   2.545   2.176
  172SOL    HW2 1416   6.727   2.629   2.316
  173SOL     OW 1417   5.760   1.427   4.387
  173SOL    HW1 1418   5.793   1.345   4.433
  173SOL    HW2 1419   5.785   1.507   4.442
  174SOL     OW 1420   5.242   5.046   4.725
  174SOL    HW1 1421   5.289   5.023   4.639
  174SOL    HW2 1422   5.181   5.124   4.710
  175SOL     OW 1423   2.820   0.385   1.396
  175SOL    HW1 1424   2.919   0.373   1.385
  175SOL    HW2 1425   2.773   0.356   1.313
  176SOL     OW 1426   5.022   4.372   3.494
  176SOL    HW1 1427   5.011   4.285   3.447
  176SOL    HW2 1428   4.938   4.425   3.486
  177SOL     OW 1429   5.263   2.535   5.177
  177SOL    HW1 1430   5.290   2.503   5.268
  177SOL    HW2 1431   5.336   2.592   5.139
  178SOL     OW 1432   3.182   4.863   4.546
  178SOL    HW1 1433   3.153   4.844   4.640
  178SOL    HW2 1434   3.183   4.961   4.530
  179SOL     OW 1435   4.393   6.649   0.065
  179SOL    HW1 1436   4.485   6.631   0.099
  179SOL    HW2 1437   4.328   6.589   0.113
  180SOL     OW 1438   2.461   6.604   0.137
  180SOL    HW1 1439   2.395   6.612   0.212
  180SOL    HW2 1440   2.439   6.525   0.081
  181SOL     OW 1441   3.582   2.538   5.838
  181SOL    HW1 1442   3.620   2.604   5.902
  181SOL    HW2 1443   3.656   2.496   5.786
  182SOL     OW 1444   4.934   3.168   6.772
  182SOL    HW1 1445   4.847   3.170   6.822
  182SOL    HW2 1446   4.979   3.257   6.781
  183SOL     OW 1447   4.275   2.218   3.544
  183SOL    HW1 1448   4.175   2.210   3.547
  183SOL    HW2 1449   4.306   2.210   3.449
  184SOL     OW 1450   0.837   6.784   3.546
  184SOL    HW1 1451   0.893   6.739   3.616
  184SOL    HW2 1452   0.752   6.733   3.535
  185SOL     OW 1453   1.086   1.568   3.698
  185SOL    HW1 1454   1.151   1.516   3.754
  185SOL    HW2 1455   1.029   1.504   3.646
  186SOL     OW 1456   5.717   6.668   4.339
  186SOL    HW1 1457   5.662   6.617   4.272
  186SOL    HW2 1458   5.666   6.747   4.371
  187SOL     OW 1459   4.577   6.009   2.121
  187SOL    HW1 1460   4.664   6.039   2.081
  187SOL    HW2 1461   4.522   5.963   2.052
  188SOL     OW 1462   1.039   2.165   3.508
  188SOL    HW1 1463   1.055   2.250   3.459
  188SOL    HW2 1464   1.059   2.087   3.448
  189SOL     OW 1465   6.999   4.716   6.575
  189SOL    HW1 1466   6.946   4.641   6.537
  189SOL    HW2 1467   0.027   4.762   6.501
  190SOL     OW 1468   5.655   4.867   0.062
  190SOL    HW1 1469   5.661   4.881   6.986
  190SOL    HW2 1470   5.748   4.866   0.101
  191SOL     OW 1471   6.522   1.309   5.277
  191SOL    HW1 1472   6.507   1.331   5.180
  191SOL    HW2 1473   6.518   1.210   5.289
  192SOL     OW 1474   0.609   4.574   1.565
  192SOL    HW1 1475   0.691   4.522   1.538
  192SOL    HW2 1476   0.633   4.670   1.574
  193SOL     OW 1477   5.008   4.508   5.432
  193SOL    HW1 1478   4.967   4.522   5.523
  193SOL    HW2 1479   4.943   4.458   5.374
  194SOL     OW 1480   4.047   6.964   2.164
  194SOL    HW1 1481   4.035   0.016   2.098
  194SOL    HW2 1482   4.128   6.982   2.220
  195SOL     OW 1483   2.208   0.661   3.907
  195SOL    HW1 1484   2.184   0.739   3.848
  195SOL    HW2 1485   2.307   0.647   3.904
  196SOL     OW 1486   3.572   6.867   6.846
  196SOL    HW1 1487   3.621   6.837   6.927
  196SOL    HW2 1488   3.565   6.967   6.846
  197SOL     OW 1489   3.222   5.726   6.870
  197SOL    HW1 1490   3.230   5.826   6.871
  197SOL    HW2 1491   3.177   5.697   6.786
  198SOL     OW 1492   4.725   6.573   0.704
  198SOL    HW1 1493   4.692   6.611   0.790
  198SOL    HW2 1494   4.822   6.594   0.694
  199SOL     OW 1495   6.283   1.120   2.751
  199SOL    HW1 1496   6.201   1.151   2.799
  199SOL    HW2 1497   6.263   1.035   2.702
  200SOL     OW 1498   0.586   3.500   2.558
  200SOL    HW1 1499   0.496   3.457   2.558
  200SOL    HW2 1500   0.610   3.528   2.651
  201SOL     OW 1501   3.120   6.569   5.871
  201SOL    HW1 1502   3.200   6.523   5.910
  201SOL    HW2 1503   3.039   6.545   5.924
  202SOL     OW 1504   4.951   0.610   5.308
  202SOL    HW1 1505   4.946   0.684   5.375
  202SOL    HW2 1506   4.858   0.581   5.284
  203SOL     OW 1507   4.800   2.354   5.060
  203SOL    HW1 1508   4.819   2.414   4.983
  203SOL    HW2 1509   4.883   2.342   5.115
  204SOL     OW 1510   0.654   7.021   6.736
  204SOL    HW1 1511   0.594   0.062   6.783
  204SOL    HW2 1512   0.735   7.003   6.792
  205SOL     OW 1513   0.922   1.158   1.543
  205SOL    HW1 1514   0.828   1.131   1.562
  205SOL    HW2 1515   0.977   1.149   1.626
  206SOL     OW 1516   0.473   4.838   2.256
  206SOL    HW1 1517   0.532   4.911   2.221
  206SOL    HW2 1518   0.434   4.865   2.343
  207SOL     OW 1519   3.761   0.645   5.458
  207SOL    HW1 1520   3.769   0.657   5.359
  207SOL    HW2 1521   3.774   0.548   5.481
  208SOL     OW 1522   5.297   4.043   5.574
  208SOL    HW1 1523   5.391   4.011   5.568
  208SOL    HW2 1524   5.294   4.131   5.621
  209SOL     OW 1525   0.925   5.700   5.563
  209SOL    HW1 1526   0.980   5.652   5.632
  209SOL    HW2 1527   0.845   5.741   5.607
  210SOL     OW 1528   4.060   2.140   2.479
  210SOL    HW1 1529   4.110   2.227   2.487
  210SOL    HW2 1530   4.060   2.111   2.384
  211SOL     OW 1531   0.825   6.399   3.562
  211SOL    HW1 1532   0.907   6.411   3.617
  211SOL    HW2 1533   0.749   6.373   3.620
  212SOL     OW 1534   1.598   4.323   1.995
  212SOL    HW1 1535   1.618   4.388   2.068
  212SOL    HW2 1536   1.666   4.332   1.922
  213SOL     OW 1537   4.074   1.037   7.006
  213SOL    HW1 1538   4.126   0.997   6.930
  213SOL    HW2 1539   3.980   1.053   6.977
  214SOL     OW 1540   2.363   5.935   2.424
  214SOL    HW1 1541   2.456   5.952   2.391
  214SOL    HW2 1542   2.350   5.980   2.513
  215SOL     OW 1543   3.378   4.115   2.165
  215SOL    HW1 1544   3.314   4.191   2.156
  215SOL    HW2 1545   3.430   4.124   2.250
  216SOL     OW 1546   1.364   6.855   4.618
  216SOL    HW1 1547   1.423   6.795   4.672
  216SOL    HW2 1548   1.277   6.809   4.601
  217SOL     OW 1549   2.049   2.783   4.864
  217SOL    HW1 1550   1.983   2.765   4.792
  217SOL    HW2 1551   2.062   2.881   4.874
  218SOL     OW 1552   1.262   2.793   5.230
  218SOL    HW1 1553   1.217   2.882   5.227
  218SOL    HW2 1554   1.348   2.798   5.180
  219SOL     OW 1555   3.582   5.075   5.809
  219SOL    HW1 1556   3.591   5.125   5.895
  219SOL    HW2 1557   3.487   5.045   5.798
  220SOL     OW 1558   3.345   5.270   6.915
  220SOL    HW1 1559   3.418   5.203   6.928
  220SOL    HW2 1560   3.338   5.293   6.818
  221SOL     OW 1561   5.961   4.031   2.485
  221SOL    HW1 1562   5.964   4.125   2.451
  221SOL    HW2 1563   5.879   3.986   2.450
  222SOL     OW 1564   1.867   4.829   5.629
  222SOL    HW1 1565   1.941   4.766   5.604
  222SOL    HW2 1566   1.784   4.804   5.580
  223SOL     OW 1567   0.596   3.435   0.652
  223SOL    HW1 1568   0.638   3.525   0.641
  223SOL    HW2 1569   0.553   3.408   0.566
  224SOL     OW 1570   3.057   2.076   3.498
  224SOL    HW1 1571   3.092   2.054   3.407
  224SOL    HW2 1572   2.996   2.155   3.492
  225SOL     OW 1573   5.372   1.363   6.321
  225SOL    HW1 1574   5.311   1.423   6.373
  225SOL    HW2 1575   5.453   1.414   6.292
  226SOL     OW 1576   0.762   6.406   6.883
  226SOL    HW1 1577   0.723   6.461   6.957
  226SOL    HW2 1578   0.690   6.383   6.818
  227SOL     OW 1579   1.088   4.385   2.598
  227SOL    HW1 1580   1.066   4.404   2.694
  227SOL    HW2 1581   1.044   4.453   2.539
  228SOL     OW 1582   2.856   6.998   3.835
  228SOL    HW1 1583   2.828   6.909   3.800
  228SOL    HW2 1584   2.828   0.047   3.771
  229SOL     OW 1585   6.118   5.585   0.896
  229SOL    HW1 1586   6.144   5.664   0.841
  229SOL    HW2 1587   6.168   5.587   0.982
  230SOL     OW 1588   3.040   4.895   3.825
  230SOL    HW1 1589   2.956   4.843   3.839
  230SOL    HW2 1590   3.080   4.870   3.736
  231SOL     OW 1591   6.557   2.349   5.673
  231SOL    HW1 1592   6.645   2.395   5.659
  231SOL    HW2 1593   6.520   2.320   5.585
  232SOL     OW 1594   0.471   4.405   6.275
  232SOL    HW1 1595   0.384   4.365   6.250
  232SOL    HW2 1596   0.472   4.426   6.373
  233SOL     OW 1597   2.344   1.085   4.716
  233SOL    HW1 1598   2.444   1.093   4.724
  233SOL    HW2 1599   2.309   1.162   4.663
  234SOL     OW 1600   2.379   5.509   5.440
  234SOL    HW1 1601   2.422   5.517   5.530
  234SOL    HW2 1602   2.431   5.563   5.373
  235SOL     OW 1603   3.669   2.807   2.311
  235SOL    HW1 1604   3.680   2.709   2.329
  235SOL    HW2 1605   3.647   2.821   2.215
  236SOL     OW 1606   5.803   3.444   6.711
  236SOL    HW1 1607   5.763   3.443   6.620
  236SOL    HW2 1608   5.873   3.373   6.718
  237SOL     OW 1609   0.376   6.504   0.326
  237SOL    HW1 1610   0.396   6.460   0.413
  237SOL    HW2 1611   0.443   6.575   0.308
  238SOL     OW 1612   6.693   2.923   0.669
  238SOL    HW1 1613   6.788   2.927   0.698
  238SOL    HW2 1614   6.663   3.014   0.639
  239SOL     OW 1615   6.676   4.505   0.066
  239SOL    HW1 1616   6.621   4.481   7.009
  239SOL    HW2 1617   6.652   4.596   0.098
  240SOL     OW 1618   0.532   3.090   5.547
  240SOL    HW1 1619   0.588   3.044   5.478
  240SOL    HW2 1620   0.468   3.151   5.502
  241SOL     OW 1621   0.498   0.589   3.753
  241SOL    HW1 1622   0.430   0.631   3.814
  241SOL    HW2 1623   0.459   0.577   3.662
  242SOL     OW 1624   1.616   2.651   6.170
  242SOL    HW1 1625   1.662   2.611   6.249
  242SOL    HW2 1626   1.566   2.733   6.198
  243SOL     OW 1627   4.574   0.207   5.806
  243SOL    HW1 1628   4.503   0.149   5.848
  243SOL    HW2 1629   4.569   0.299   5.844
  244SOL     OW 1630   4.850   2.686   4.439
  244SOL    HW1 1631   4.812   2.728   4.521
  244SOL    HW2 1632   4.775   2.653   4.381
  245SOL     OW 1633   0.030   2.840   4.334
  245SOL    HW1 1634   0.010   2.856   4.238
  245SOL    HW2 1635   0.128   2.852   4.351
  246SOL     OW 1636   5.441   3.493   3.729
  246SOL    HW1 1637   5.431   3.477   3.827
  246SOL    HW2 1638   5.463   3.590   3.712
  247SOL     OW 1639   2.718   1.777   2.804
  247SOL    HW1 1640   2.720   1.681   2.777
  247SOL    HW2 1641   2.711   1.784   2.903
  248SOL     OW 1642   4.516   2.423   4.177
  248SOL    HW1 1643   4.500   2.429   4.079
  248SOL    HW2 1644   4.614   2.436   4.196
  249SOL     OW 1645   3.365   0.073   4.898
  249SOL    HW1 1646   3.342   0.157   4.949
  249SOL    HW2 1647   3.300   0.001   4.923
  250SOL     OW 1648   5.446   1.790   5.507
  250SOL    HW1 1649   5.371   1.800   5.573
  250SOL    HW2 1650   5.422   1.719   5.440
  251SOL     OW 1651   4.149   3.499   5.543
  251SOL    HW1 1652   4.220   3.526   5.607
  251SOL    HW2 1653   4.109   3.580   5.500
  252SOL     OW 1654   0.028   1.514   5.832
  252SOL    HW1 1655   7.004   1.599   5.806
  252SOL    HW2 1656   7.004   1.436   5.789
  253SOL     OW 1657   2.591   4.422   0.062
  253SOL    HW1 1658   2.599   4.394   6.989
  253SOL    HW2 1659   2.572   4.342   0.119
  254SOL     OW 1660   6.588   2.542   3.545
  254SOL    HW1 1661   6.671   2.556   3.599
  254SOL    HW2 1662   6.542   2.459   3.576
  255SOL     OW 1663   3.079   1.832   4.123
  255SOL    HW1 1664   3.173   1.863   4.138
  255SOL    HW2 1665   3.050   1.778   4.202
  256SOL     OW 1666   6.705   4.655   6.796
  256SOL    HW1 1667   6.768   4.592   6.750
  256SOL    HW2 1668   6.613   4.615   6.796
  257SOL     OW 1669   3.275   5.354   5.470
  257SOL    HW1 1670   3.191   5.376   5.421
  257SOL    HW2 1671   3.339   5.431   5.462
  258SOL     OW 1672   5.122   3.519   4.783
  258SOL    HW1 1673   5.132   3.612   4.817
  258SOL    HW2 1674   5.189   3.460   4.829
  259SOL     OW 1675   1.787   2.764   2.715
  259SOL    HW1 1676   1.711   2.744   2.653
  259SOL    HW2 1677   1.852   2.689   2.713
  260SOL     OW 1678   4.485   6.985   0.901
  260SOL    HW1 1679   4.416   7.005   0.831
  260SOL    HW2 1680   4.516   0.047   0.944
  261SOL     OW 1681   0.438   3.569   1.134
  261SOL    HW1 1682   0.434   3.511   1.053
  261SOL    HW2 1683   0.403   3.519   1.213
  262SOL     OW 1684   1.102   3.887   2.233
  262SOL    HW1 1685   1.036   3.851   2.299
  262SOL    HW2 1686   1.069   3.870   2.140
  263SOL     OW 1687   6.982   1.843   4.528
  263SOL    HW1 1688   6.957   1.913   4.595
  263SOL    HW2 1689   7.009   1.886   4.442
  264SOL     OW 1690   6.578   4.033   5.740
  264SOL    HW1 1691   6.496   4.081   5.708
  264SOL    HW2 1692   6.552   3.944   5.778
  265SOL     OW 1693   5.007   4.124   3.366
  265SOL    HW1 1694   4.909   4.116   3.347
  265SOL    HW2 1695   5.044   4.034   3.390
  266SOL     OW 1696   3.564   2.294   6.858
  266SOL    HW1 1697   3.524   2.384   6.840
  266SOL    HW2 1698   3.523   2.227   6.796
  267SOL     OW 1699   1.071   3.231   6.954
  267SOL    HW1 1700   1.117   3.307   6.908
  267SOL    HW2 1701   1.046   3.162   6.886
  268SOL     OW 1702   5.003   5.214   5.047
  268SOL    HW1 1703   5.070   5.279   5.012
  268SOL    HW2 1704   4.948   5.178   4.972
  269SOL     OW 1705   1.935   2.400   0.278
  269SOL    HW1 1706   1.894   2.349   0.202
  269SOL    HW2 1707   1.988   2.339   0.335
  270SOL     OW 1708   5.219   0.919   2.186
  270SOL    HW1 1709   5.191   1.015   2.182
  270SOL    HW2 1710   5.240   0.894   2.281
  271SOL     OW 1711   2.120   2.295   0.923
  271SOL    HW1 1712   2.142   2.337   0.836
  271SOL    HW2 1713   2.039   2.339   0.962
  272SOL     OW 1714   3.791   5.523   3.953
  272SOL    HW1 1715   3.757   5.430   3.966
  272SOL    HW2 1716   3.725   5.575   3.899
  273SOL     OW 1717   1.181   5.653   4.872
  273SOL    HW1 1718   1.181   5.598   4.789
  273SOL    HW2 1719   1.202   5.595   4.951
  274SOL     OW 1720   4.984   2.677   3.514
  274SOL    HW1 1721   4.909   2.715   3.460
  274SOL    HW2 1722   4.954   2.592   3.558
  275SOL     OW 1723   1.151   5.286   6.412
  275SOL    HW1 1724   1.118   5.366   6.361
  275SOL    HW2 1725   1.219   5.315   6.479
  276SOL     OW 1726   6.382   5.410   4.124
  276SOL    HW1 1727   6.376   5.474   4.200
  276SOL    HW2 1728   6.317   5.436   4.052
  277SOL     OW 1729   3.015   0.920   5.779
  277SOL    HW1 1730   2.955   0.861   5.726
  277SOL    HW2 1731   2.962   0.971   5.847
  278SOL     OW 1732   5.540   3.326   2.510
  278SOL    HW1 1733   5.537   3.287   2.418
  278SOL    HW2 1734   5.511   3.257   2.576
  279SOL     OW 1735   6.641   3.153   3.922
  279SOL    HW1 1736   6.566   3.086   3.923
  279SOL    HW2 1737   6.619   3.226   3.857
  280SOL     OW 1738   4.594   6.651   3.787
  280SOL    HW1 1739   4.675   6.593   3.773
  280SOL    HW2 1740   4.623   6.746   3.798
  281SOL     OW 1741   2.970   5.474   3.679
  281SOL    HW1 1742   2.904   5.403   3.653
  281SOL    HW2 1743   3.039   5.435   3.740
  282SOL     OW 1744   3.651   2.279   5.315
  282SOL    HW1 1745   3.572   2.266   5.254
  282SOL    HW2 1746   3.661   2.377   5.335
  283SOL     OW 1747   6.300   0.025   5.439
  283SOL    HW1 1748   6.210   0.040   5.480
  283SOL    HW2 1749   6.332   0.109   5.396
  284SOL     OW 1750   0.696   4.459   4.129
  284SOL    HW1 1751   0.696   4.532   4.198
  284SOL    HW2 1752   0.626   4.391   4.152
  285SOL     OW 1753   5.531   6.302   0.373
  285SOL    HW1 1754   5.613   6.250   0.394
  285SOL    HW2 1755   5.454   6.239   0.357
  286SOL     OW 1756   3.795   5.011   5.450
  286SOL    HW1 1757   3.751   5.100   5.453
  286SOL    HW2 1758   3.889   5.019   5.482
  287SOL     OW 1759   1.474   5.311   6.403
  287SOL    HW1 1760   1.423   5.277   6.324
  287SOL    HW2 1761   1.460   5.250   6.481
  288SOL     OW 1762   4.307   0.775   1.107
  288SOL    HW1 1763   4.221   0.743   1.069
  288SOL    HW2 1764   4.379   0.771   1.037
  289SOL     OW 1765   1.188   5.536   5.978
  289SOL    HW1 1766   1.210   5.438   5.976
  289SOL    HW2 1767   1.235   5.578   6.056
  290SOL     OW 1768   4.452   0.545   3.495
  290SOL    HW1 1769   4.360   0.553   3.535
  290SOL    HW2 1770   4.447   0.567   3.397
  291SOL     OW 1771   3.673   1.202   3.691
  291SOL    HW1 1772   3.607   1.170   3.623
  291SOL    HW2 1773   3.763   1.163   3.671
  292SOL     OW 1774   4.207   0.967   3.584
  292SOL    HW1 1775   4.160   0.927   3.663
  292SOL    HW2 1776   4.230   1.062   3.604
  293SOL     OW 1777   4.613   6.156   1.546
  293SOL    HW1 1778   4.627   6.183   1.451
  293SOL    HW2 1779   4.532   6.201   1.582
  294SOL     OW 1780   6.101   5.751   6.656
  294SOL    HW1 1781   6.064   5.703   6.735
  294SOL    HW2 1782   6.140   5.839   6.684
  295SOL     OW 1783   1.760   2.161   5.773
  295SOL    HW1 1784   1.787   2.217   5.694
  295SOL    HW2 1785   1.816   2.078   5.776
  296SOL     OW 1786   6.239   2.195   1.015
  296SOL    HW1 1787   6.202   2.279   1.055
  296SOL    HW2 1788   6.313   2.218   0.952
  297SOL     OW 1789   4.207   5.080   3.522
  297SOL    HW1 1790   4.242   5.102   3.430
  297SOL    HW2 1791   4.108   5.065   3.516
  298SOL     OW 1792   3.848   0.452   0.746
  298SOL    HW1 1793   3.899   0.370   0.774
  298SOL    HW2 1794   3.773   0.425   0.685
  299SOL     OW 1795   3.493   1.933   0.091
  299SOL    HW1 1796   3.591   1.944   0.075
  299SOL    HW2 1797   3.442   1.967   0.012
  300SOL     OW 1798   3.904   0.782   2.837
  300SOL    HW1 1799   3.863   0.831   2.760
  300SOL    HW2 1800   3.951   0.847   2.897
  301SOL     OW 1801   5.154   0.650   1.325
  301SOL    HW1 1802   5.192   0.742   1.313
  301SOL    HW2 1803   5.208   0.601   1.394
  302SOL     OW 1804   0.883   0.353   2.295
  302SOL    HW1 1805   0.816   0.281   2.280
  302SOL    HW2 1806   0.852   0.413   2.368
  303SOL     OW 1807   5.807   6.255   1.740
  303SOL    HW1 1808   5.821   6.351   1.762
  303SOL    HW2 1809   5.786   6.204   1.823
  304SOL     OW 1810   1.947   6.310   6.336
  304SOL    HW1 1811   2.011   6.365   6.282
  304SOL    HW2 1812   1.986   6.220   6.353
  305SOL     OW 1813   1.447   3.162   0.674
  305SOL    HW1 1814   1.472   3.114   0.758
  305SOL    HW2 1815   1.348   3.172   0.670
  306SOL     OW 1816   0.223   1.014   2.715
  306SOL    HW1 1817   0.226   1.015   2.615
  306SOL    HW2 1818   0.316   1.024   2.752
  307SOL     OW 1819   3.748   3.845   0.372
  307SOL    HW1 1820   3.847   3.849   0.359
  307SOL    HW2 1821   3.705   3.924   0.329
  308SOL     OW 1822   6.340   2.984   4.501
  308SOL    HW1 1823   6.400   2.916   4.459
  308SOL    HW2 1824   6.394   3.047   4.557
  309SOL     OW 1825   1.554   6.675   0.595
  309SOL    HW1 1826   1.555   6.756   0.537
  309SOL    HW2 1827   1.551   6.593   0.538
  310SOL     OW 1828   5.658   6.393   3.988
  310SOL    HW1 1829   5.610   6.466   4.036
  310SOL    HW2 1830   5.703   6.334   4.055
  311SOL     OW 1831   2.275   4.430   2.452
  311SOL    HW1 1832   2.179   4.440   2.480
  311SOL    HW2 1833   2.333   4.425   2.533
  312SOL     OW 1834   4.132   2.194   4.237
  312SOL    HW1 1835   4.034   2.204   4.220
  312SOL    HW2 1836   4.175   2.151   4.158
  313SOL     OW 1837   3.203   3.469   3.089
  313SOL    HW1 1838   3.241   3.559   3.108
  313SOL    HW2 1839   3.123   3.454   3.147
  314SOL     OW 1840   1.850   4.822   4.723
  314SOL    HW1 1841   1.759   4.791   4.748
  314SOL    HW2 1842   1.866   4.913   4.763
  315SOL     OW 1843   0.496   1.960   4.001
  315SOL    HW1 1844   0.573   1.935   3.943
  315SOL    HW2 1845   0.478   2.058   3.992
  316SOL     OW 1846   4.057   1.340   4.420
  316SOL    HW1 1847   3.992   1.386   4.481
  316SOL    HW2 1848   4.131   1.300   4.475
  317SOL     OW 1849   1.199   1.463   1.394
  317SOL    HW1 1850   1.219   1.476   1.491
  317SOL    HW2 1851   1.284   1.448   1.344
  318SOL     OW 1852   6.205   0.930   6.494
  318SOL    HW1 1853   6.109   0.908   6.511
  318SOL    HW2 1854   6.236   0.881   6.413
  319SOL     OW 1855   6.787   2.361   3.186
  319SOL    HW1 1856   6.752   2.290   3.125
  319SOL    HW2 1857   6.739   2.355   3.274
  320SOL     OW 1858   6.459   3.434   6.628
  320SOL    HW1 1859   6.470   3.338   6.603
  320SOL    HW2 1860   6.445   3.489   6.545
  321SOL     OW 1861   4.314   2.278   0.658
  321SOL    HW1 1862   4.243   2.233   0.713
  321SOL    HW2 1863   4.271   2.324   0.580
  322SOL     OW 1864   3.898   3.048   4.491
  322SOL    HW1 1865   3.948   3.106   4.556
  322SOL    HW2 1866   3.925   3.072   4.397
  323SOL     OW 1867   1.257   2.201   4.816
  323SOL    HW1 1868   1.194   2.124   4.825
  323SOL    HW2 1869   1.290   2.206   4.722
  324SOL     OW 1870   2.304   0.010   3.635
  324SOL    HW1 1871   2.309   0.063   3.719
  324SOL    HW2 1872   2.326   0.068   3.557
  325SOL     OW 1873   1.057   3.754   2.698
  325SOL    HW1 1874   1.018   3.780   2.787
  325SOL    HW2 1875   1.133   3.691   2.712
  326SOL     OW 1876   0.853   4.265   5.692
  326SOL    HW1 1877   0.793   4.337   5.656
  326SOL    HW2 1878   0.839   4.181   5.640
  327SOL     OW 1879   2.475   4.412   2.631
  327SOL    HW1 1880   2.556   4.431   2.577
  327SOL    HW2 1881   2.480   4.463   2.717
  328SOL     OW 1882   1.826   5.061   1.502
  328SOL    HW1 1883   1.889   5.040   1.576
  328SOL    HW2 1884   1.815   4.980   1.444
  329SOL     OW 1885   2.328   3.653   6.145
  329SOL    HW1 1886   2.250   3.610   6.100
  329SOL    HW2 1887   2.357   3.734   6.094
  330SOL     OW 1888   3.454   6.160   0.304
  330SOL    HW1 1889   3.420   6.162   0.210
  330SOL    HW2 1890   3.413   6.235   0.356
  331SOL     OW 1891   5.533   5.334   1.259
  331SOL    HW1 1892   5.585   5.262   1.306
  331SOL    HW2 1893   5.547   5.326   1.160
  332SOL     OW 1894   5.975   2.126   4.060
  332SOL    HW1 1895   5.921   2.127   3.976
  332SOL    HW2 1896   5.928   2.178   4.131
  333SOL     OW 1897   4.147   0.722   5.292
  333SOL    HW1 1898   4.102   0.809   5.314
  333SOL    HW2 1899   4.201   0.733   5.209
  334SOL     OW 1900   3.745   2.199   0.789
  334SOL    HW1 1901   3.654   2.208   0.746
  334SOL    HW2 1902   3.785   2.111   0.763
  335SOL     OW 1903   4.116   0.765   6.735
  335SOL    HW1 1904   4.082   0.710   6.660
  335SOL    HW2 1905   4.074   0.856   6.732
  336SOL     OW 1906   2.802   1.066   2.915
  336SOL    HW1 1907   2.797   0.971   2.885
  336SOL    HW2 1908   2.727   1.085   2.979
  337SOL     OW 1909   0.908   2.519   5.982
  337SOL    HW1 1910   0.972   2.478   5.917
  337SOL    HW2 1911   0.935   2.613   6.000
  338SOL     OW 1912   3.200   2.922   1.972
  338SOL    HW1 1913   3.161   2.841   1.929
  338SOL    HW2 1914   3.127   2.984   1.999
  339SOL     OW 1915   4.762   5.088   4.889
  339SOL    HW1 1916   4.779   5.022   4.962
  339SOL    HW2 1917   4.668   5.079   4.858
  340SOL     OW 1918   4.837   3.192   4.740
  340SOL    HW1 1919   4.828   3.216   4.644
  340SOL    HW2 1920   4.877   3.269   4.790
  341SOL     OW 1921   5.137   6.633   4.360
  341SOL    HW1 1922   5.202   6.580   4.414
  341SOL    HW2 1923   5.186   6.697   4.302
  342SOL     OW 1924   4.640   2.912   0.335
  342SOL    HW1 1925   4.714   2.979   0.341
  342SOL    HW2 1926   4.669   2.825   0.374
  343SOL     OW 1927   0.355   6.550   2.564
  343SOL    HW1 1928   0.302   6.466   2.574
  343SOL    HW2 1929   0.435   6.532   2.507
  344SOL     OW 1930   0.863   2.684   1.936
  344SOL    HW1 1931   0.834   2.626   2.012
  344SOL    HW2 1932   0.792   2.753   1.918
  345SOL     OW 1933   6.282   2.146   4.269
  345SOL    HW1 1934   6.217   2.204   4.319
  345SOL    HW2 1935   6.319   2.077   4.331
  346SOL     OW 1936   1.646   0.245   2.911
  346SOL    HW1 1937   1.600   0.314   2.967
  346SOL    HW2 1938   1.742   0.269   2.901
  347SOL     OW 1939   3.188   5.601   0.273
  347SOL    HW1 1940   3.102   5.648   0.254
  347SOL    HW2 1941   3.207   5.536   0.199
  348SOL     OW 1942   4.759   4.471   3.427
  348SOL    HW1 1943   4.769   4.455   3.329
  348SOL    HW2 1944   4.742   4.567   3.444
  349SOL     OW 1945   6.515   4.493   2.313
  349SOL    HW1 1946   6.571   4.518   2.392
  349SOL    HW2 1947   6.565   4.426   2.257
  350SOL     OW 1948   3.041   3.161   1.108
  350SOL    HW1 1949   2.954   3.186   1.150
  350SOL    HW2 1950   3.096   3.108   1.173
  351SOL     OW 1951   2.489   3.543   0.583
  351SOL    HW1 1952   2.542   3.466   0.618
  351SOL    HW2 1953   2.487   3.616   0.651
  352SOL     OW 1954   3.852   6.942   3.565
  352SOL    HW1 1955   3.825   6.994   3.647
  352SOL    HW2 1956   3.863   7.005   3.488
  353SOL     OW 1957   3.094   0.104   6.652
  353SOL    HW1 1958   3.170   0.051   6.689
  353SOL    HW2 1959   3.066   0.173   6.719
  354SOL     OW 1960   4.652   2.418   1.342
  354SOL    HW1 1961   4.652   2.325   1.378
  354SOL    HW2 1962   4.726   2.428   1.275
  355SOL     OW 1963   1.663   3.775   2.658
  355SOL    HW1 1964   1.638   3.788   2.754
  355SOL    HW2 1965   1.625   3.688   2.625
  356SOL     OW 1966   2.351   0.941   5.739
  356SOL    HW1 1967   2.333   1.036   5.716
  356SOL    HW2 1968   2.296   0.915   5.818
  357SOL     OW 1969   6.536   5.899   4.728
  357SOL    HW1 1970   6.577   5.968   4.787
  357SOL    HW2 1971   6.510   5.820   4.783
  358SOL     OW 1972   5.016   6.684   0.818
  358SOL    HW1 1973   4.970   6.715   0.901
  358SOL    HW2 1974   5.081   6.612   0.841
  359SOL     OW 1975   3.130   1.226   2.145
  359SOL    HW1 1976   3.173   1.253   2.060
  359SOL    HW2 1977   3.129   1.126   2.152
  360SOL     OW 1978   1.811   3.514   4.606
  360SOL    HW1 1979   1.858   3.571   4.674
  360SOL    HW2 1980   1.737   3.566   4.563
  361SOL     OW 1981   6.612   6.373   2.868
  361SOL    HW1 1982   6.663   6.453   2.837
  361SOL    HW2 1983   6.657   6.290   2.835
  362SOL     OW 1984   3.455   2.765   1.839
  362SOL    HW1 1985   3.383   2.797   1.901
  362SOL    HW2 1986   3.434   2.673   1.807
  363SOL     OW 1987   5.629   4.301   3.177
  363SOL    HW1 1988   5.611   4.338   3.268
  363SOL    HW2 1989   5.557   4.237   3.151
  364SOL     OW 1990   6.923   5.096   0.007
  364SOL    HW1 1991   6.996   5.108   6.962
  364SOL    HW2 1992   6.878   5.008   7.014
  365SOL     OW 1993   4.749   0.192   0.952
  365SOL    HW1 1994   4.806   0.179   0.871
  365SOL    HW2 1995   4.806   0.212   1.031
  366SOL     OW 1996   6.138   2.077   6.440
  366SOL    HW1 1997   6.204   2.132   6.390
  366SOL    HW2 1998   6.130   1.987   6.397
  367SOL     OW 1999   5.917   2.290   6.330
  367SOL    HW1 2000   5.972   2.299   6.413
  367SOL    HW2 2001   5.830   2.247   6.353
  368SOL     OW 2002   0.165   2.445   5.399
  368SOL    HW1 2003   0.080   2.393   5.393
  368SOL    HW2 2004   0.241   2.388   5.369
  369SOL     OW 2005   6.021   5.148   2.703
  369SOL    HW1 2006   6.043   5.086   2.629
  369SOL    HW2 2007   5.934   5.120   2.745
  370SOL     OW 2008   0.861   2.177   4.204
  370SOL    HW1 2009   0.804   2.259   4.195
  370SOL    HW2 2010   0.913   2.182   4.289
  371SOL     OW 2011   1.892   4.546   6.575
  371SOL    HW1 2012   1.940   4.487   6.639
  371SOL    HW2 2013   1.823   4.493   6.526
  372SOL     OW 2014   2.002   6.673   5.682
  372SOL    HW1 2015   2.019   6.748   5.619
  372SOL    HW2 2016   2.036   6.697   5.773
  373SOL     OW 2017   5.830   6.453   5.639
  373SOL    HW1 2018   5.880   6.435   5.554
  373SOL    HW2 2019   5.828   6.551   5.657
  374SOL     OW 2020   2.573   2.071   3.421
  374SOL    HW1 2021   2.631   1.992   3.442
  374SOL    HW2 2022   2.631   2.151   3.405
  375SOL     OW 2023   1.104   4.362   3.843
  375SOL    HW1 2024   1.150   4.394   3.926
  375SOL    HW2 2025   1.032   4.298   3.868
  376SOL     OW 2026   1.258   1.226   5.255
  376SOL    HW1 2027   1.290   1.290   5.185
  376SOL    HW2 2028   1.305   1.245   5.341
  377SOL     OW 2029   1.359   2.017   0.169
  377SOL    HW1 2030   1.329   1.924   0.148
  377SOL    HW2 2031   1.452   2.015   0.205
  378SOL     OW 2032   3.890   1.548   0.647
  378SOL    HW1 2033   3.923   1.475   0.706
  378SOL    HW2 2034   3.962   1.576   0.584
  379SOL     OW 2035   5.669   2.962   0.355
  379SOL    HW1 2036   5.571   2.956   0.340
  379SOL    HW2 2037   5.691   2.928   0.446
  380SOL     OW 2038   2.757   1.407   1.238
  380SOL    HW1 2039   2.766   1.377   1.143
  380SOL    HW2 2040   2.800   1.340   1.298
  381SOL     OW 2041   1.662   3.670   3.600
  381SOL    HW1 2042   1.601   3.599   3.636
  381SOL    HW2 2043   1.633   3.694   3.507
  382SOL     OW 2044   6.068   1.488   0.276
  382SOL    HW1 2045   6.044   1.448   0.188
  382SOL    HW2 2046   6.131   1.564   0.262
  383SOL     OW 2047   3.906   2.776   0.197
  383SOL    HW1 2048   3.912   2.683   0.162
  383SOL    HW2 2049   3.825   2.821   0.159
  384SOL     OW 2050   6.860   5.509   4.785
  384SOL    HW1 2051   6.911   5.572   4.843
  384SOL    HW2 2052   6.863   5.541   4.691
  385SOL     OW 2053   2.773   5.061   5.337
  385SOL    HW1 2054   2.868   5.070   5.367
  385SOL    HW2 2055   2.770   5.027   5.243
  386SOL     OW 2056   2.962   6.413   4.043
  386SOL    HW1 2057   2.920   6.344   3.984
  386SOL    HW2 2058   2.998   6.487   3.987
  387SOL     OW 2059   0.842   5.432   2.576
  387SOL    HW1 2060   0.863   5.334   2.578
  387SOL    HW2 2061   0.917   5.484   2.616
  388SOL     OW 2062   1.877   2.100   6.515
  388SOL    HW1 2063   1.891   2.149   6.429
  388SOL    HW2 2064   1.779   2.089   6.531
  389SOL     OW 2065   3.603   3.793   2.375
  389SOL    HW1 2066   3.572   3.853   2.301
  389SOL    HW2 2067   3.692   3.754   2.351
  390SOL     OW 2068   2.564   1.053   3.106
  390SOL    HW1 2069   2.468   1.027   3.097
  390SOL    HW2 2070   2.571   1.140   3.156
  391SOL     OW 2071   2.409   2.290   6.181
  391SOL    HW1 2072   2.434   2.251   6.270
  391SOL    HW2 2073   2.345   2.229   6.135
  392SOL     OW 2074   2.024   4.272   1.193
  392SOL    HW1 2075   2.028   4.270   1.093
  392SOL    HW2 2076   2.108   4.312   1.229
  393SOL     OW 2077   0.743   4.388   6.720
  393SOL    HW1 2078   0.748   4.319   6.648
  393SOL    HW2 2079   0.746   4.480   6.679
  394SOL     OW 2080   0.158   0.813   6.912
  394SOL    HW1 2081   0.162   0.803   7.011
  394SOL    HW2 2082   0.077   0.766   6.877
  395SOL     OW 2083   4.874   3.566   3.397
  395SOL    HW1 2084   4.864   3.664   3.382
  395SOL    HW2 2085   4.844   3.517   3.316
  396SOL     OW 2086   4.066   3.767   2.476
  396SOL    HW1 2087   4.088   3.747   2.380
  396SOL    HW2 2088   4.096   3.691   2.534
  397SOL     OW 2089   4.693   2.264   5.440
  397SOL    HW1 2090   4.707   2.271   5.538
  397SOL    HW2 2091   4.712   2.352   5.397
  398SOL     OW 2092   0.932   6.213   2.619
  398SOL    HW1 2093   0.986   6.177   2.695
  398SOL    HW2 2094   0.977   6.294   2.581
  399SOL     OW 2095   5.431   5.919   2.856
  399SOL    HW1 2096   5.359   5.979   2.821
  399SOL    HW2 2097   5.390   5.846   2.910
  400SOL     OW 2098   6.156   6.916   6.096
  400SOL    HW1 2099   6.132   7.012   6.112
  400SOL    HW2 2100   6.179   6.904   5.999
  401SOL     OW 2101   4.932   0.758   5.553
  401SOL    HW1 2102   5.016   0.773   5.606
  401SOL    HW2 2103   4.861   0.723   5.613
  402SOL     OW 2104   5.471   0.240   3.436
  402SOL    HW1 2105   5.424   0.210   3.353
  402SOL    HW2 2106   5.563   0.273   3.412
  403SOL     OW 2107   4.413   1.894   4.443
  403SOL    HW1 2108   4.345   1.916   4.514
  403SOL    HW2 2109   4.459   1.977   4.414
  404SOL     OW 2110   1.226   6.132   4.141
  404SOL    HW1 2111   1.144   6.121   4.196
  404SOL    HW2 2112   1.279   6.047   4.141
  405SOL     OW 2113   1.735   3.451   1.961
  405SOL    HW1 2114   1.775   3.470   1.871
  405SOL    HW2 2115   1.642   3.416   1.949
  406SOL     OW 2116   1.198   4.425   4.294
  406SOL    HW1 2117   1.258   4.420   4.374
  406SOL    HW2 2118   1.216   4.348   4.234
  407SOL     OW 2119   1.493   0.726   3.459
  407SOL    HW1 2120   1.547   0.794   3.509
  407SOL    HW2 2121   1.415   0.771   3.415
  408SOL     OW 2122   1.285   2.450   3.256
  408SOL    HW1 2123   1.362   2.431   3.317
  408SOL    HW2 2124   1.244   2.538   3.281
  409SOL     OW 2125   6.826   2.362   0.866
  409SOL    HW1 2126   6.788   2.410   0.787
  409SOL    HW2 2127   6.753   2.346   0.933
  410SOL     OW 2128   1.376   0.618   1.282
  410SOL    HW1 2129   1.370   0.522   1.254
  410SOL    HW2 2130   1.285   0.654   1.299
  411SOL     OW 2131   5.250   0.139   0.318
  411SOL    HW1 2132   5.178   0.089   0.366
  411SOL    HW2 2133   5.214   0.177   0.233
  412SOL     OW 2134   5.412   6.389   3.608
  412SOL    HW1 2135   5.349   6.379   3.530
  412SOL    HW2 2136   5.383   6.329   3.682
  413SOL     OW 2137   5.682   5.131   2.108
  413SOL    HW1 2138   5.584   5.113   2.112
  413SOL    HW2 2139   5.723   5.109   2.197
  414SOL     OW 2140   3.547   5.461   3.481
  414SOL    HW1 2141   3.634   5.507   3.464
  414SOL    HW2 2142   3.496   5.511   3.551
  415SOL     OW 2143   1.050   5.711   6.835
  415SOL    HW1 2144   1.149   5.711   6.820
  415SOL    HW2 2145   1.007   5.646   6.772
  416SOL     OW 2146   5.038   5.686   4.114
  416SOL    HW1 2147   5.116   5.629   4.139
  416SOL    HW2 2148   4.958   5.658   4.167
  417SOL     OW 2149   2.921   5.147   0.044
  417SOL    HW1 2150   2.858   5.187   0.110
  417SOL    HW2 2151   2.870   5.108   6.991
  418SOL     OW 2152   3.871   5.785   0.907
  418SOL    HW1 2153   3.788   5.809   0.858
  418SOL    HW2 2154   3.877   5.685   0.916
  419SOL     OW 2155   1.637   0.557   1.330
  419SOL    HW1 2156   1.542   0.579   1.309
  419SOL    HW2 2157   1.675   0.627   1.390
  420SOL     OW 2158   5.839   1.902   6.919
  420SOL    HW1 2159   5.928   1.915   6.963
  420SOL    HW2 2160   5.838   1.947   6.830
  421SOL     OW 2161   0.055   4.549   6.074
  421SOL    HW1 2162   0.010   4.606   6.142
  421SOL    HW2 2163   7.012   4.524   6.002
  422SOL     OW 2164   5.713   4.149   0.271
  422SOL    HW1 2165   5.683   4.073   0.212
  422SOL    HW2 2166   5.813   4.148   0.278
  423SOL     OW 2167   1.071   2.366   6.957
  423SOL    HW1 2168   1.114   2.277   6.973
  423SOL    HW2 2169   1.066   2.385   6.859
  424SOL     OW 2170   2.352   4.191   0.655
  424SOL    HW1 2171   2.320   4.150   0.740
  424SOL    HW2 2172   2.293   4.163   0.579
  425SOL     OW 2173   5.731   1.309   2.718
  425SOL    HW1 2174   5.637   1.335   2.696
  425SOL    HW2 2175   5.782   1.391   2.747
  426SOL     OW 2176   4.545   2.553   3.921
  426SOL    HW1 2177   4.453   2.529   3.891
  426SOL    HW2 2178   4.603   2.572   3.842
  427SOL     OW 2179   4.904   5.750   2.742
  427SOL    HW1 2180   4.875   5.788   2.830
  427SOL    HW2 2181   4.976   5.682   2.758
  428SOL     OW 2182   4.384   0.718   4.427
  428SOL    HW1 2183   4.285   0.714   4.411
  428SOL    HW2 2184   4.432   0.693   4.344
  429SOL     OW 2185   1.663   3.104   1.117
  429SOL    HW1 2186   1.653   3.012   1.076
  429SOL    HW2 2187   1.634   3.172   1.050
  430SOL     OW 2188   6.724   0.399   5.349
  430SOL    HW1 2189   6.818   0.371   5.328
  430SOL    HW2 2190   6.660   0.329   5.317
  431SOL     OW 2191   3.091   0.094   0.456
  431SOL    HW1 2192   3.109   0.062   0.363
  431SOL    HW2 2193   3.176   0.099   0.507
  432SOL     OW 2194   6.743   1.396   1.185
  432SOL    HW1 2195   6.734   1.472   1.250
  432SOL    HW2 2196   6.716   1.427   1.094
  433SOL     OW 2197   2.963   6.398   4.915
  433SOL    HW1 2198   3.003   6.355   4.834
  433SOL    HW2 2199   2.912   6.480   4.888
  434SOL     OW 2200   3.314   6.033   2.240
  434SOL    HW1 2201   3.238   5.980   2.204
  434SOL    HW2 2202   3.285   6.128   2.253
  435SOL     OW 2203   5.292   2.665   6.463
  435SOL    HW1 2204   5.343   2.606   6.525
  435SOL    HW2 2205   5.324   2.759   6.471
  436SOL     OW 2206   3.260   6.353   0.963
  436SOL    HW1 2207   3.280   6.437   1.014
  436SOL    HW2 2208   3.161   6.339   0.959
  437SOL     OW 2209   1.113   0.698   6.993
  437SOL    HW1 2210   1.027   0.649   7.004
  437SOL    HW2 2211   1.130   0.756   0.050
  438SOL     OW 2212   2.037   3.865   2.572
  438SOL    HW1 2213   2.112   3.890   2.512
  438SOL    HW2 2214   2.072   3.808   2.647
  439SOL     OW 2215   5.827   5.015   2.855
  439SOL    HW1 2216   5.750   4.963   2.819
  439SOL    HW2 2217   5.809   5.040   2.950
  440SOL     OW 2218   1.849   1.221   5.222
  440SOL    HW1 2219   1.939   1.257   5.199
  440SOL    HW2 2220   1.829   1.142   5.163
  441SOL     OW 2221   0.964   2.718   4.221
  441SOL    HW1 2222   1.004   2.740   4.132
  441SOL    HW2 2223   1.006   2.635   4.257
  442SOL     OW 2224   3.393   4.798   5.857
  442SOL    HW1 2225   3.398   4.806   5.956
  442SOL    HW2 2226   3.361   4.884   5.818
  443SOL     OW 2227   5.905   4.194   4.726
  443SOL    HW1 2228   6.001   4.201   4.700
  443SOL    HW2 2229   5.848   4.189   4.644
  444SOL     OW 2230   5.076   1.336   5.393
  444SOL    HW1 2231   5.051   1.327   5.489
  444SOL    HW2 2232   4.996   1.317   5.336
  445SOL     OW 2233   0.604   5.271   2.781
  445SOL    HW1 2234   0.538   5.326   2.729
  445SOL    HW2 2235   0.599   5.176   2.750
  446SOL     OW 2236   3.640   4.897   3.296
  446SOL    HW1 2237   3.730   4.923   3.262
  446SOL    HW2 2238   3.587   4.853   3.223
  447SOL     OW 2239   0.425   2.715   6.064
  447SOL    HW1 2240   0.377   2.781   6.005
  447SOL    HW2 2241   0.358   2.662   6.116
  448SOL     OW 2242   1.847   0.706   3.616
  448SOL    HW1 2243   1.940   0.713   3.651
  448SOL    HW2 2244   1.820   0.609   3.615
  449SOL     OW 2245   3.894   1.418   4.033
  449SOL    HW1 2246   3.984   1.437   4.070
  449SOL    HW2 2247   3.885   1.320   4.014
  450SOL     OW 2248   1.373   5.883   3.843
  450SOL    HW1 2249   1.303   5.829   3.796
  450SOL    HW2 2250   1.370   5.977   3.810
  451SOL     OW 2251   1.915   1.506   3.855
  451SOL    HW1 2252   1.898   1.480   3.760
  451SOL    HW2 2253   1.903   1.605   3.865
  452SOL     OW 2254   6.208   5.823   0.799
  452SOL    HW1 2255   6.165   5.912   0.784
  452SOL    HW2 2256   6.306   5.834   0.808
  453SOL     OW 2257   4.099   1.208   5.990
  453SOL    HW1 2258   4.051   1.131   6.033
  453SOL    HW2 2259   4.049   1.293   6.008
  454SOL     OW 2260   6.716   4.837   6.522
  454SOL    HW1 2261   6.749   4.751   6.482
  454SOL    HW2 2262   6.686   4.820   6.616
  455SOL     OW 2263   6.259   2.859   3.219
  455SOL    HW1 2264   6.251   2.919   3.139
  455SOL    HW2 2265   6.248   2.764   3.190
  456SOL     OW 2266   5.875   6.693   3.958
  456SOL    HW1 2267   5.846   6.789   3.963
  456SOL    HW2 2268   5.800   6.638   3.922
  457SOL     OW 2269   2.133   2.928   4.210
  457SOL    HW1 2270   2.050   2.909   4.157
  457SOL    HW2 2271   2.114   2.915   4.307
  458SOL     OW 2272   4.233   5.538   3.820
  458SOL    HW1 2273   4.290   5.619   3.836
  458SOL    HW2 2274   4.160   5.561   3.755
  459SOL     OW 2275   1.706   6.838   5.082
  459SOL    HW1 2276   1.772   6.767   5.103
  459SOL    HW2 2277   1.620   6.797   5.053
  460SOL     OW 2278   1.642   6.937   3.689
  460SOL    HW1 2279   1.610   6.917   3.597
  460SOL    HW2 2280   1.624   0.011   3.710
  461SOL     OW 2281   6.796   0.106   6.323
  461SOL    HW1 2282   6.763   0.014   6.304
  461SOL    HW2 2283   6.855   0.105   6.404
  462SOL     OW 2284   3.336   3.013   6.209
  462SOL    HW1 2285   3.240   3.014   6.180
  462SOL    HW2 2286   3.379   3.099   6.183
  463SOL     OW 2287   6.422   6.321   3.440
  463SOL    HW1 2288   6.478   6.404   3.448
  463SOL    HW2 2289   6.482   6.241   3.431
  464SOL     OW 2290   2.552   1.973   4.993
  464SOL    HW1 2291   2.509   2.047   4.942
  464SOL    HW2 2292   2.602   2.011   5.071
  465SOL     OW 2293   0.561   2.440   5.848
  465SOL    HW1 2294   0.523   2.510   5.787
  465SOL    HW2 2295   0.586   2.483   5.935
  466SOL     OW 2296   0.851   5.730   2.944
  466SOL    HW1 2297   0.845   5.778   3.032
  466SOL    HW2 2298   0.938   5.680   2.940
  467SOL     OW 2299   1.915   1.199   0.415
  467SOL    HW1 2300   1.986   1.245   0.469
  467SOL    HW2 2301   1.922   1.100   0.429
  468SOL     OW 2302   3.406   0.315   6.291
  468SOL    HW1 2303   3.377   0.220   6.278
  468SOL    HW2 2304   3.459   0.324   6.375
  469SOL     OW 2305   2.621   3.129   6.315
  469SOL    HW1 2306   2.679   3.179   6.379
  469SOL    HW2 2307   2.645   3.154   6.221
  470SOL     OW 2308   3.976   0.164   1.742
  470SOL    HW1 2309   4.018   0.074   1.732
  470SOL    HW2 2310   3.935   0.173   1.833
  471SOL     OW 2311   2.043   2.135   4.201
  471SOL    HW1 2312   2.009   2.200   4.132
  471SOL    HW2 2313   2.012   2.043   4.178
  472SOL     OW 2314   5.159   3.350   6.101
  472SOL    HW1 2315   5.110   3.433   6.075
  472SOL    HW2 2316   5.094   3.283   6.136
  473SOL     OW 2317   1.327   2.889   3.226
  473SOL    HW1 2318   1.240   2.923   3.191
  473SOL    HW2 2319   1.388   2.967   3.245
  474SOL     OW 2320   5.009   5.964   4.055
  474SOL    HW1 2321   5.006   5.872   4.095
  474SOL    HW2 2322   5.095   5.977   4.006
  475SOL     OW 2323   5.976   1.128   6.292
  475SOL    HW1 2324   5.882   1.113   6.322
  475SOL    HW2 2325   5.998   1.065   6.217
  476SOL     OW 2326   0.168   3.369   3.472
  476SOL    HW1 2327   0.201   3.437   3.407
  476SOL    HW2 2328   0.245   3.335   3.527
  477SOL     OW 2329   1.482   5.316   3.576
  477SOL    HW1 2330   1.486   5.266   3.663
  477SOL    HW2 2331   1.388   5.314   3.542
  478SOL     OW 2332   3.175   6.257   2.289
  478SOL    HW1 2333   3.198   6.334   2.348
  478SOL    HW2 2334   3.148   6.291   2.199
  479SOL     OW 2335   4.365   2.046   5.905
  479SOL    HW1 2336   4.306   2.105   5.959
  479SOL    HW2 2337   4.419   2.101   5.842
  480SOL     OW 2338   2.457   0.893   0.417
  480SOL    HW1 2339   2.471   0.850   0.328
  480SOL    HW2 2340   2.401   0.974   0.406
  481SOL     OW 2341   1.586   6.916   0.413
  481SOL    HW1 2342   1.508   6.943   0.471
  481SOL    HW2 2343   1.644   6.996   0.397
  482SOL     OW 2344   4.328   5.017   2.318
  482SOL    HW1 2345   4.363   5.109   2.299
  482SOL    HW2 2346   4.267   5.021   2.397
  483SOL     OW 2347   6.908   1.349   2.070
  483SOL    HW1 2348   6.939   1.361   1.976
  483SOL    HW2 2349   6.980   1.378   2.133
  484SOL     OW 2350   2.161   3.372   4.409
  484SOL    HW1 2351   2.204   3.287   4.379
  484SOL    HW2 2352   2.231   3.438   4.434
  485SOL     OW 2353   3.380   5.650   2.364
  485SOL    HW1 2354   3.387   5.743   2.399
  485SOL    HW2 2355   3.295   5.608   2.397
  486SOL     OW 2356   6.495   1.047   0.392
  486SOL    HW1 2357   6.506   1.079   0.486
  486SOL    HW2 2358   6.398   1.053   0.366
  487SOL     OW 2359   1.120   0.698   1.686
  487SOL    HW1 2360   1.036   0.718   1.635
  487SOL    HW2 2361   1.103   0.621   1.748
  488SOL     OW 2362   1.095   1.335   1.953
  488SOL    HW1 2363   1.150   1.303   2.029
  488SOL    HW2 2364   1.072   1.432   1.967
  489SOL     OW 2365   3.814   6.375   5.862
  489SOL    HW1 2366   3.762   6.291   5.843
  489SOL    HW2 2367   3.826   6.384   5.961
  490SOL     OW 2368   6.341   6.463   2.818
  490SOL    HW1 2369   6.301   6.383   2.864
  490SOL    HW2 2370   6.438   6.447   2.800
  491SOL     OW 2371   0.525   2.915   2.807
  491SOL    HW1 2372   0.583   2.894   2.728
  491SOL    HW2 2373   0.569   2.986   2.862
  492SOL     OW 2374   1.755   0.453   5.145
  492SOL    HW1 2375   1.808   0.418   5.223
  492SOL    HW2 2376   1.788   0.409   5.061
  493SOL     OW 2377   5.037   5.729   5.518
  493SOL    HW1 2378   5.030   5.730   5.418
  493SOL    HW2 2379   4.978   5.801   5.556
  494SOL     OW 2380   0.320   6.436   6.236
  494SOL    HW1 2381   0.270   6.377   6.300
  494SOL    HW2 2382   0.415   6.406   6.231
  495SOL     OW 2383   4.691   5.843   3.452
  495SOL    HW1 2384   4.598   5.832   3.415
  495SOL    HW2 2385   4.696   5.929   3.503
  496SOL     OW 2386   5.134   3.619   1.846
  496SOL    HW1 2387   5.107   3.572   1.930
  496SOL    HW2 2388   5.097   3.712   1.846
  497SOL     OW 2389   2.772   1.258   4.760
  497SOL    HW1 2390   2.717   1.330   4.802
  497SOL    HW2 2391   2.864   1.293   4.740
  498SOL     OW 2392   1.924   3.998   1.691
  498SOL    HW1 2393   1.832   3.999   1.653
  498SOL    HW2 2394   1.920   3.976   1.788
  499SOL     OW 2395   1.894   6.551   4.814
  499SOL    HW1 2396   1.870   6.454   4.815
  499SOL    HW2 2397   1.941   6.575   4.899
  500SOL     OW 2398   0.624   3.285   4.662
  500SOL    HW1 2399   0.591   3.330   4.580
  500SOL    HW2 2400   0.695   3.341   4.705
  501SOL     OW 2401   3.307   5.673   0.967
  501SOL    HW1 2402   3.269   5.589   1.005
  501SOL    HW2 2403   3.399   5.656   0.932
  502SOL     OW 2404   0.274   4.045   0.201
  502SOL    HW1 2405   0.313   4.015   0.114
  502SOL    HW2 2406   0.183   4.005   0.212
  503SOL     OW 2407   6.820   5.153   0.258
  503SOL    HW1 2408   6.824   5.139   0.159
  503SOL    HW2 2409   6.809   5.251   0.277
  504SOL     OW 2410   0.945   5.407   2.125
  504SOL    HW1 2411   0.978   5.463   2.049
  504SOL    HW2 2412   1.023   5.370   2.176
  505SOL     OW 2413   2.888   5.799   5.150
  505SOL    HW1 2414   2.845   5.713   5.178
  505SOL    HW2 2415   2.818   5.867   5.131
  506SOL     OW 2416   2.274   4.883   4.173
  506SOL    HW1 2417   2.321   4.852   4.256
  506SOL    HW2 2418   2.244   4.977   4.186
  507SOL     OW 2419   3.331   6.660   3.220
  507SOL    HW1 2420   3.331   6.581   3.281
  507SOL    HW2 2421   3.409   6.654   3.158
  508SOL     OW 2422   6.966   3.955   2.403
  508SOL    HW1 2423   0.015   3.987   2.342
  508SOL    HW2 2424   6.928   4.032   2.454
  509SOL     OW 2425   2.949   1.604   1.383
  509SOL    HW1 2426   2.890   1.544   1.329
  509SOL    HW2 2427   2.940   1.581   1.480
  510SOL     OW 2428   6.636   4.753   0.247
  510SOL    HW1 2429   6.588   4.811   0.181
  510SOL    HW2 2430   6.731   4.783   0.254
  511SOL     OW 2431   1.006   1.389   5.305
  511SOL    HW1 2432   1.094   1.426   5.334
  511SOL    HW2 2433   0.945   1.383   5.384
  512SOL     OW 2434   0.094   3.222   0.108
  512SOL    HW1 2435   7.018   3.237   0.109
  512SOL    HW2 2436   0.114   3.126   0.124
  513SOL     OW 2437   5.762   0.088   3.304
  513SOL    HW1 2438   5.724   0.180   3.300
  513SOL    HW2 2439   5.804   0.065   3.216
  514SOL     OW 2440   6.635   2.123   3.760
  514SOL    HW1 2441   6.612   2.102   3.854
  514SOL    HW2 2442   6.640   2.039   3.706
  515SOL     OW 2443   1.088   0.896   6.556
  515SOL    HW1 2444   0.990   0.913   6.547
  515SOL    HW2 2445   1.118   0.922   6.648
  516SOL     OW 2446   2.572   4.611   1.852
  516SOL    HW1 2447   2.527   4.624   1.941
  516SOL    HW2 2448   2.670   4.629   1.861
  517SOL     OW 2449   4.460   5.944   1.573
  517SOL    HW1 2450   4.401   5.944   1.492
  517SOL    HW2 2451   4.526   6.019   1.566
  518SOL     OW 2452   3.168   1.982   3.278
  518SOL    HW1 2453   3.256   2.030   3.273
  518SOL    HW2 2454   3.132   1.969   3.186
  519SOL     OW 2455   0.377   0.414   4.824
  519SOL    HW1 2456   0.446   0.404   4.752
  519SOL    HW2 2457   0.386   0.504   4.867
  520SOL     OW 2458   6.597   4.159   0.508
  520SOL    HW1 2459   6.645   4.216   0.441
  520SOL    HW2 2460   6.619   4.190   0.600
  521SOL     OW 2461   6.479   4.858   5.008
  521SOL    HW1 2462   6.579   4.861   5.017
  521SOL    HW2 2463   6.454   4.867   4.912
  522SOL     OW 2464   3.690   2.876   4.494
  522SOL    HW1 2465   3.670   2.853   4.589
  522SOL    HW2 2466   3.765   2.941   4.490
  523SOL     OW 2467   0.162   5.257   1.781
  523SOL    HW1 2468   0.241   5.230   1.726
  523SOL    HW2 2469   0.191   5.325   1.849
  524SOL     OW 2470   0.520   1.513   2.297
  524SOL    HW1 2471   0.443   1.492   2.359
  524SOL    HW2 2472   0.487   1.567   2.220
  525SOL     OW 2473   2.275   3.044   5.705
  525SOL    HW1 2474   2.331   3.052   5.623
  525SOL    HW2 2475   2.284   2.952   5.744
  526SOL     OW 2476   4.088   6.589   3.847
  526SOL    HW1 2477   4.048   6.618   3.760
  526SOL    HW2 2478   4.175   6.543   3.829
  527SOL     OW 2479   6.039   2.510   6.558
  527SOL    HW1 2480   6.043   2.566   6.475
  527SOL    HW2 2481   6.090   2.555   6.631
  528SOL     OW 2482   0.753   1.634   3.825
  528SOL    HW1 2483   0.796   1.629   3.916
  528SOL    HW2 2484   0.711   1.546   3.804
  529SOL     OW 2485   2.021   0.042   4.369
  529SOL    HW1 2486   2.012   0.035   4.269
  529SOL    HW2 2487   2.072   6.985   4.403
  530SOL     OW 2488   3.498   3.247   4.490
  530SOL    HW1 2489   3.524   3.206   4.577
  530SOL    HW2 2490   3.492   3.175   4.420
  531SOL     OW 2491   0.336   1.236   3.501
  531SOL    HW1 2492   0.396   1.162   3.468
  531SOL    HW2 2493   0.347   1.247   3.599
  532SOL     OW 2494   1.296   2.610   6.811
  532SOL    HW1 2495   1.264   2.589   6.904
  532SOL    HW2 2496   1.336   2.702   6.810
  533SOL     OW 2497   4.320   6.961   4.023
  533SOL    HW1 2498   4.238   6.929   3.976
  533SOL    HW2 2499   4.368   6.883   4.063
  534SOL     OW 2500   5.257   6.184   2.660
  534SOL    HW1 2501   5.296   6.234   2.583
  534SOL    HW2 2502   5.226   6.094   2.629
  535SOL     OW 2503   1.111   3.599   4.633
  535SOL    HW1 2504   1.174   3.668   4.667
  535SOL    HW2 2505   1.018   3.620   4.665
  536SOL     OW 2506   0.026   5.092   1.546
  536SOL    HW1 2507   0.080   5.008   1.554
  536SOL    HW2 2508   0.018   5.136   1.635
  537SOL     OW 2509   2.953   6.645   4.452
  537SOL    HW1 2510   3.051   6.664   4.456
  537SOL    HW2 2511   2.933   6.561   4.502
  538SOL     OW 2512   1.399   4.516   3.122
  538SOL    HW1 2513   1.487   4.533   3.168
  538SOL    HW2 2514   1.351   4.443   3.170
  539SOL     OW 2515   1.602   5.767   1.030
  539SOL    HW1 2516   1.691   5.730   1.006
  539SOL    HW2 2517   1.605   5.804   1.123
  540SOL     OW 2518   1.038   0.329   3.413
  540SOL    HW1 2519   1.047   0.422   3.377
  540SOL    HW2 2520   0.942   0.310   3.431
  541SOL     OW 2521   4.705   5.756   3.916
  541SOL    HW1 2522   4.705   5.749   4.015
  541SOL    HW2 2523   4.661   5.842   3.888
  542SOL     OW 2524   6.431   6.656   0.415
  542SOL    HW1 2525   6.428   6.611   0.504
  542SOL    HW2 2526   6.407   6.591   0.344
  543SOL     OW 2527   1.519   4.125   5.703
  543SOL    HW1 2528   1.488   4.039   5.743
  543SOL    HW2 2529   1.614   4.141   5.729
  544SOL     OW 2530   3.335   4.201   0.022
  544SOL    HW1 2531   3.249   4.164   7.011
  544SOL    HW2 2532   3.355   4.163   0.112
  545SOL     OW 2533   2.906   1.287   2.280
  545SOL    HW1 2534   2.893   1.373   2.329
  545SOL    HW2 2535   2.996   1.288   2.236
  546SOL     OW 2536   2.150   3.027   0.549
  546SOL    HW1 2537   2.106   3.078   0.623
  546SOL    HW2 2538   2.233   3.075   0.520
  547SOL     OW 2539   3.562   1.182   0.074
  547SOL    HW1 2540   3.472   1.166   0.115
  547SOL    HW2 2541   3.633   1.155   0.138
  548SOL     OW 2542   3.293   3.129   2.472
  548SOL    HW1 2543   3.320   3.115   2.567
  548SOL    HW2 2544   3.207   3.081   2.454
  549SOL     OW 2545   5.196   3.044   0.567
  549SOL    HW1 2546   5.284   3.066   0.527
  549SOL    HW2 2547   5.142   3.127   0.577
  550SOL     OW 2548   6.984   5.106   3.568
  550SOL    HW1 2549   0.013   5.026   3.537
  550SOL    HW2 2550   7.007   5.125   3.664
  551SOL     OW 2551   1.088   0.579   2.310
  551SOL    HW1 2552   1.015   0.515   2.331
  551SOL    HW2 2553   1.138   0.602   2.394
  552SOL     OW 2554   5.072   4.372   0.300
  552SOL    HW1 2555   5.135   4.448   0.312
  552SOL    HW2 2556   5.111   4.306   0.236
  553SOL     OW 2557   1.563   6.347   2.096
  553SOL    HW1 2558   1.616   6.394   2.026
  553SOL    HW2 2559   1.566   6.399   2.181
  554SOL     OW 2560   5.643   0.258   5.951
  554SOL    HW1 2561   5.604   0.343   5.916
  554SOL    HW2 2562   5.618   0.182   5.890
  555SOL     OW 2563   1.411   5.402   2.874
  555SOL    HW1 2564   1.430   5.466   2.948
  555SOL    HW2 2565   1.356   5.326   2.909
  556SOL     OW 2566   5.182   2.287   3.925
  556SOL    HW1 2567   5.191   2.334   3.838
  556SOL    HW2 2568   5.240   2.206   3.926
  557SOL     OW 2569   0.607   4.730   0.269
  557SOL    HW1 2570   0.689   4.788   0.276
  557SOL    HW2 2571   0.592   4.683   0.355
  558SOL     OW 2572   2.946   3.497   4.582
  558SOL    HW1 2573   2.943   3.554   4.664
  558SOL    HW2 2574   2.928   3.402   4.607
  559SOL     OW 2575   6.359   5.679   7.004
  559SOL    HW1 2576   6.394   5.748   6.941
  559SOL    HW2 2577   6.336   5.723   0.069
  560SOL     OW 2578   4.583   4.201   6.900
  560SOL    HW1 2579   4.568   4.120   6.956
  560SOL    HW2 2580   4.570   4.283   6.956
  561SOL     OW 2581   6.515   1.145   0.637
  561SOL    HW1 2582   6.451   1.219   0.616
  561SOL    HW2 2583   6.478   1.090   0.712
  562SOL     OW 2584   5.410   0.893   5.714
  562SOL    HW1 2585   5.433   0.837   5.794
  562SOL    HW2 2586   5.349   0.967   5.742
  563SOL     OW 2587   2.325   0.493   3.026
  563SOL    HW1 2588   2.301   0.556   3.099
  563SOL    HW2 2589   2.332   0.543   2.940
  564SOL     OW 2590   2.530   2.215   6.690
  564SOL    HW1 2591   2.457   2.150   6.709
  564SOL    HW2 2592   2.517   2.298   6.745
  565SOL     OW 2593   3.872   2.765   5.478
  565SOL    HW1 2594   3.965   2.784   5.446
  565SOL    HW2 2595   3.866   2.786   5.575
  566SOL     OW 2596   6.202   5.533   3.824
  566SOL    HW1 2597   6.171   5.441   3.802
  566SOL    HW2 2598   6.126   5.587   3.860
  567SOL     OW 2599   3.713   3.188   2.338
  567SOL    HW1 2600   3.673   3.177   2.429
  567SOL    HW2 2601   3.640   3.191   2.269
  568SOL     OW 2602   4.146   1.697   0.168
  568SOL    HW1 2603   4.206   1.711   0.247
  568SOL    HW2 2604   4.201   1.702   0.084
  569SOL     OW 2605   1.211   3.423   6.344
  569SOL    HW1 2606   1.244   3.335   6.311
  569SOL    HW2 2607   1.173   3.413   6.435
  570SOL     OW 2608   3.064   6.329   0.159
  570SOL    HW1 2609   3.036   6.273   0.236
  570SOL    HW2 2610   3.073   6.272   0.077
  571SOL     OW 2611   3.179   0.221   2.451
  571SOL    HW1 2612   3.119   0.182   2.520
  571SOL    HW2 2613   3.232   0.147   2.408
  572SOL     OW 2614   2.903   5.017   5.663
  572SOL    HW1 2615   2.938   5.042   5.753
  572SOL    HW2 2616   2.975   5.028   5.595
  573SOL     OW 2617   5.433   1.348   5.865
  573SOL    HW1 2618   5.451   1.276   5.798
  573SOL    HW2 2619   5.383   1.422   5.822
  574SOL     OW 2620   3.723   2.125   4.445
  574SOL    HW1 2621   3.696   2.211   4.489
  574SOL    HW2 2622   3.753   2.143   4.352
  575SOL     OW 2623   5.450   3.914   0.098
  575SOL    HW1 2624   5.422   3.997   0.049
  575SOL    HW2 2625   5.396   3.905   0.182
  576SOL     OW 2626   1.027   2.133   2.970
  576SOL    HW1 2627   1.096   2.064   2.950
  576SOL    HW2 2628   1.007   2.185   2.887
  577SOL     OW 2629   1.791   1.720   2.679
  577SOL    HW1 2630   1.814   1.633   2.722
  577SOL    HW2 2631   1.866   1.785   2.691
  578SOL     OW 2632   6.143   5.253   3.322
  578SOL    HW1 2633   6.146   5.157   3.292
  578SOL    HW2 2634   6.062   5.297   3.284
  579SOL     OW 2635   1.385   3.034   1.934
  579SOL    HW1 2636   1.412   2.978   2.013
  579SOL    HW2 2637   1.466   3.079   1.897
  580SOL     OW 2638   6.499   5.024   6.861
  580SOL    HW1 2639   6.562   5.074   6.802
  580SOL    HW2 2640   6.430   4.977   6.804
  581SOL     OW 2641   3.200   2.949   2.987
  581SOL    HW1 2642   3.135   3.005   3.038
  581SOL    HW2 2643   3.163   2.856   2.977
  582SOL     OW 2644   5.463   5.896   2.503
  582SOL    HW1 2645   5.498   5.977   2.549
  582SOL    HW2 2646   5.538   5.847   2.460
  583SOL     OW 2647   2.943   5.067   5.948
  583SOL    HW1 2648   2.861   5.119   5.973
  583SOL    HW2 2649   2.937   4.975   5.986
  584SOL     OW 2650   1.911   3.864   6.499
  584SOL    HW1 2651   1.902   3.799   6.424
  584SOL    HW2 2652   1.832   3.858   6.559
  585SOL     OW 2653   5.583   3.218   6.061
  585SOL    HW1 2654   5.628   3.211   6.150
  585SOL    HW2 2655   5.509   3.152   6.055
  586SOL     OW 2656   3.994   1.872   6.701
  586SOL    HW1 2657   4.042   1.790   6.733
  586SOL    HW2 2658   3.954   1.854   6.610
  587SOL     OW 2659   3.150   1.626   5.370
  587SOL    HW1 2660   3.190   1.540   5.339
  587SOL    HW2 2661   3.178   1.700   5.309
  588SOL     OW 2662   2.772   4.535   0.781
  588SOL    HW1 2663   2.695   4.482   0.818
  588SOL    HW2 2664   2.787   4.510   0.686
  589SOL     OW 2665   3.106   5.383   1.461
  589SOL    HW1 2666   3.012   5.348   1.454
  589SOL    HW2 2667   3.137   5.414   1.372
  590SOL     OW 2668   4.951   2.641   2.571
  590SOL    HW1 2669   4.894   2.715   2.536
  590SOL    HW2 2670   4.929   2.623   2.666
  591SOL     OW 2671   3.614   5.905   3.465
  591SOL    HW1 2672   3.576   5.889   3.556
  591SOL    HW2 2673   3.549   5.874   3.396
  592SOL     OW 2674   3.065   0.259   1.450
  592SOL    HW1 2675   3.055   0.238   1.547
  592SOL    HW2 2676   3.145   0.318   1.437
  593SOL     OW 2677   4.295   2.356   3.278
  593SOL    HW1 2678   4.328   2.391   3.191
  593SOL    HW2 2679   4.342   2.404   3.353
  594SOL     OW 2680   5.435   1.996   6.500
  594SOL    HW1 2681   5.396   2.060   6.433
  594SOL    HW2 2682   5.478   1.920   6.451
  595SOL     OW 2683   5.881   0.420   3.920
  595SOL    HW1 2684   5.906   0.517   3.921
  595SOL    HW2 2685   5.872   0.388   3.826
  596SOL     OW 2686   1.664   4.648   3.181
  596SOL    HW1 2687   1.701   4.558   3.158
  596SOL    HW2 2688   1.705   4.717   3.121
  597SOL     OW 2689   4.017   6.787   6.593
  597SOL    HW1 2690   4.084   6.850   6.555
  597SOL    HW2 2691   3.927   6.805   6.553
  598SOL     OW 2692   3.057   3.806   6.351
  598SOL    HW1 2693   2.965   3.769   6.366
  598SOL    HW2 2694   3.125   3.738   6.379
  599SOL     OW 2695   2.068   6.518   2.546
  599SOL    HW1 2696   2.120   6.556   2.470
  599SOL    HW2 2697   2.125   6.517   2.628
  600SOL     OW 2698   0.763   0.700   1.246
  600SOL    HW1 2699   0.748   0.618   1.190
  600SOL    HW2 2700   0.817   0.766   1.194
  601SOL     OW 2701   3.036   6.081   3.979
  601SOL    HW1 2702   3.091   6.069   3.897
  601SOL    HW2 2703   3.042   6.176   4.010
  602SOL     OW 2704   1.792   2.928   6.647
  602SOL    HW1 2705   1.819   2.898   6.739
  602SOL    HW2 2706   1.873   2.951   6.594
  603SOL     OW 2707   3.856   1.862   4.171
  603SOL    HW1 2708   3.920   1.821   4.106
  603SOL    HW2 2709   3.779   1.800   4.185
  604SOL     OW 2710   0.827   3.226   1.710
  604SOL    HW1 2711   0.850   3.172   1.790
  604SOL    HW2 2712   0.744   3.279   1.728
  605SOL     OW 2713   6.127   6.111   2.584
  605SOL    HW1 2714   6.187   6.088   2.508
  605SOL    HW2 2715   6.074   6.193   2.562
  606SOL     OW 2716   5.024   0.638   6.725
  606SOL    HW1 2717   4.971   0.563   6.764
  606SOL    HW2 2718   5.055   0.613   6.633
  607SOL     OW 2719   5.643   0.854   5.579
  607SOL    HW1 2720   5.630   0.768   5.529
  607SOL    HW2 2721   5.557   0.881   5.623
  608SOL     OW 2722   3.684   6.173   6.560
  608SOL    HW1 2723   3.754   6.103   6.545
  608SOL    HW2 2724   3.664   6.179   6.658
  609SOL     OW 2725   4.137   3.329   3.718
  609SOL    HW1 2726   4.073   3.376   3.779
  609SOL    HW2 2727   4.095   3.246   3.683
  610SOL     OW 2728   5.022   2.384   2.414
  610SOL    HW1 2729   4.989   2.444   2.487
  610SOL    HW2 2730   5.074   2.437   2.348
  611SOL     OW 2731   2.580   0.653   6.855
  611SOL    HW1 2732   2.570   0.641   6.954
  611SOL    HW2 2733   2.497   0.693   6.817
  612SOL     OW 2734   3.896   6.786   6.112
  612SOL    HW1 2735   3.802   6.783   6.144
  612SOL    HW2 2736   3.945   6.860   6.159
  613SOL     OW 2737   4.446   6.623   5.935
  613SOL    HW1 2738   4.463   6.693   6.004
  613SOL    HW2 2739   4.429   6.667   5.846
  614SOL     OW 2740   5.068   4.038   1.590
  614SOL    HW1 2741   4.988   4.076   1.544
  614SOL    HW2 2742   5.124   3.988   1.524
  615SOL     OW 2743   0.579   1.811   0.817
  615SOL    HW1 2744   0.598   1.905   0.847
  615SOL    HW2 2745   0.483   1.790   0.834
  616SOL     OW 2746   0.413   2.201   3.933
  616SOL    HW1 2747   0.352   2.191   3.855
  616SOL    HW2 2748   0.381   2.275   3.992
  617SOL     OW 2749   6.816   3.815   6.587
  617SOL    HW1 2750   6.814   3.779   6.680
  617SOL    HW2 2751   6.908   3.804   6.549
  618SOL     OW 2752   0.056   3.380   6.756
  618SOL    HW1 2753   0.117   3.449   6.794
  618SOL    HW2 2754   0.072   3.292   6.802
  619SOL     OW 2755   4.972   0.284   6.408
  619SOL    HW1 2756   4.977   0.205   6.470
  619SOL    HW2 2757   4.925   0.258   6.324
  620SOL     OW 2758   4.787   2.323   1.843
  620SOL    HW1 2759   4.708   2.262   1.840
  620SOL    HW2 2760   4.776   2.396   1.776
  621SOL     OW 2761   2.396   6.803   6.042
  621SOL    HW1 2762   2.480   6.780   5.994
  621SOL    HW2 2763   2.385   6.743   6.121
  622SOL     OW 2764   0.941   1.671   4.995
  622SOL    HW1 2765   1.034   1.673   5.032
  622SOL    HW2 2766   0.915   1.763   4.966
  623SOL     OW 2767   0.706   6.121   5.671
  623SOL    HW1 2768   0.650   6.203   5.656
  623SOL    HW2 2769   0.791   6.146   5.715
  624SOL     OW 2770   0.134   1.209   0.539
  624SOL    HW1 2771   0.195   1.252   0.473
  624SOL    HW2 2772   0.138   1.110   0.529
  625SOL     OW 2773   1.894   2.398   1.079
  625SOL    HW1 2774   1.819   2.346   1.037
  625SOL    HW2 2775   1.942   2.340   1.144
  626SOL     OW 2776   0.544   5.834   2.934
  626SOL    HW1 2777   0.519   5.926   2.906
  626SOL    HW2 2778   0.483   5.768   2.890
  627SOL     OW 2779   6.411   6.195   0.899
  627SOL    HW1 2780   6.398   6.096   0.887
  627SOL    HW2 2781   6.387   6.220   0.992
  628SOL     OW 2782   5.302   5.398   5.550
  628SOL    HW1 2783   5.360   5.474   5.520
  628SOL    HW2 2784   5.289   5.334   5.474
  629SOL     OW 2785   0.763   0.557   6.415
  629SOL    HW1 2786   0.779   0.650   6.381
  629SOL    HW2 2787   0.679   0.521   6.376
  630SOL     OW 2788   0.597   1.552   0.223
  630SOL    HW1 2789   0.582   1.458   0.254
  630SOL    HW2 2790   0.515   1.584   0.175
  631SOL     OW 2791   3.851   0.802   5.673
  631SOL    HW1 2792   3.908   0.866   5.622
  631SOL    HW2 2793   3.821   0.729   5.612
  632SOL     OW 2794   4.729   1.849   1.438
  632SOL    HW1 2795   4.741   1.850   1.338
  632SOL    HW2 2796   4.793   1.913   1.480
  633SOL     OW 2797   2.835   3.756   6.889
  633SOL    HW1 2798   2.788   3.673   6.861
  633SOL    HW2 2799   2.783   3.836   6.860
  634SOL     OW 2800   3.157   4.080   3.352
  634SOL    HW1 2801   3.239   4.111   3.304
  634SOL    HW2 2802   3.083   4.067   3.286
  635SOL     OW 2803   4.834   5.919   0.992
  635SOL    HW1 2804   4.891   5.926   0.910
  635SOL    HW2 2805   4.823   6.010   1.033
  636SOL     OW 2806   3.088   6.608   6.473
  636SOL    HW1 2807   3.148   6.560   6.409
  636SOL    HW2 2808   3.023   6.665   6.422
  637SOL     OW 2809   0.283   3.106   3.450
  637SOL    HW1 2810   0.250   3.077   3.360
  637SOL    HW2 2811   0.235   3.055   3.521
  638SOL     OW 2812   5.637   3.258   3.978
  638SOL    HW1 2813   5.583   3.202   3.915
  638SOL    HW2 2814   5.588   3.344   3.996
  639SOL     OW 2815   4.906   3.435   2.771
  639SOL    HW1 2816   4.958   3.357   2.804
  639SOL    HW2 2817   4.909   3.438   2.671
  640SOL     OW 2818   0.085   5.090   4.476
  640SOL    HW1 2819   0.075   5.026   4.400
  640SOL    HW2 2820   0.181   5.094   4.504
  641SOL     OW 2821   0.652   4.691   4.912
  641SOL    HW1 2822   0.677   4.764   4.975
  641SOL    HW2 2823   0.567   4.647   4.942
  642SOL     OW 2824   0.521   3.336   4.403
  642SOL    HW1 2825   0.495   3.246   4.368
  642SOL    HW2 2826   0.559   3.391   4.329
  643SOL     OW 2827   6.214   0.025   6.380
  643SOL    HW1 2828   6.248   0.042   6.473
  643SOL    HW2 2829   6.186   6.952   6.371
  644SOL     OW 2830   1.340   0.208   4.307
  644SOL    HW1 2831   1.383   0.150   4.376
  644SOL    HW2 2832   1.275   0.154   4.253
  645SOL     OW 2833   4.336   0.030   5.139
  645SOL    HW1 2834   4.377   0.121   5.130
  645SOL    HW2 2835   4.363   7.013   5.227
  646SOL     OW 2836   3.715   0.866   4.871
  646SOL    HW1 2837   3.790   0.897   4.814
  646SOL    HW2 2838   3.662   0.797   4.823
  647SOL     OW 2839   5.361   1.963   4.883
  647SOL    HW1 2840   5.274   2.013   4.887
  647SOL    HW2 2841   5.369   1.918   4.794
  648SOL     OW 2842   0.624   4.226   4.276
  648SOL    HW1 2843   0.634   4.280   4.359
  648SOL    HW2 2844   0.528   4.220   4.250
  649SOL     OW 2845   2.413   3.918   1.052
  649SOL    HW1 2846   2.384   3.929   1.147
  649SOL    HW2 2847   2.513   3.921   1.048
  650SOL     OW 2848   6.339   4.141   1.057
  650SOL    HW1 2849   6.381   4.091   0.981
  650SOL    HW2 2850   6.252   4.181   1.026
  651SOL     OW 2851   1.830   0.056   6.106
  651SOL    HW1 2852   1.927   0.035   6.113
  651SOL    HW2 2853   1.778   6.993   6.099
  652SOL     OW 2854   4.826   0.389   3.411
  652SOL    HW1 2855   4.912   0.347   3.441
  652SOL    HW2 2856   4.756   0.373   3.479
  653SOL     OW 2857   0.800   5.731   0.287
  653SOL    HW1 2858   0.762   5.672   0.358
  653SOL    HW2 2859   0.811   5.679   0.203
  654SOL     OW 2860   0.902   6.187   0.275
  654SOL    HW1 2861   0.993   6.154   0.301
  654SOL    HW2 2862   0.893   6.183   0.175
  655SOL     OW 2863   6.989   5.781   1.344
  655SOL    HW1 2864   7.016   5.784   1.440
  655SOL    HW2 2865   0.017   5.708   1.297
  656SOL     OW 2866   2.552   5.735   0.724
  656SOL    HW1 2867   2.559   5.834   0.720
  656SOL    HW2 2868   2.636   5.694   0.689
  657SOL     OW 2869   3.027   3.494   1.236
  657SOL    HW1 2870   3.011   3.466   1.141
  657SOL    HW2 2871   3.084   3.426   1.281
  658SOL     OW 2872   1.683   3.897   6.644
  658SOL    HW1 2873   1.588   3.924   6.658
  658SOL    HW2 2874   1.693   3.799   6.660
  659SOL     OW 2875   2.229   6.259   4.391
  659SOL    HW1 2876   2.279   6.345   4.383
  659SOL    HW2 2877   2.236   6.224   4.484
  660SOL     OW 2878   5.848   3.773   2.930
  660SOL    HW1 2879   5.757   3.804   2.958
  660SOL    HW2 2880   5.846   3.743   2.835
  661SOL     OW 2881   4.876   3.892   3.940
  661SOL    HW1 2882   4.906   3.873   3.846
  661SOL    HW2 2883   4.867   3.805   3.990
  662SOL     OW 2884   4.161   0.460   5.724
  662SOL    HW1 2885   4.191   0.550   5.695
  662SOL    HW2 2886   4.091   0.469   5.795
  663SOL     OW 2887   1.738   3.962   0.135
  663SOL    HW1 2888   1.721   4.017   0.053
  663SOL    HW2 2889   1.654   3.914   0.160
  664SOL     OW 2890   0.733   5.180   6.224
  664SOL    HW1 2891   0.823   5.138   6.215
  664SOL    HW2 2892   0.672   5.147   6.152
  665SOL     OW 2893   4.623   5.150   1.247
  665SOL    HW1 2894   4.624   5.106   1.158
  665SOL    HW2 2895   4.593   5.085   1.317
  666SOL     OW 2896   4.340   2.181   2.263
  666SOL    HW1 2897   4.258   2.140   2.224
  666SOL    HW2 2898   4.317   2.224   2.351
  667SOL     OW 2899   6.508   4.483   3.212
  667SOL    HW1 2900   6.573   4.407   3.216
  667SOL    HW2 2901   6.538   4.556   3.273
  668SOL     OW 2902   5.016   5.806   7.019
  668SOL    HW1 2903   5.004   5.887   6.962
  668SOL    HW2 2904   5.035   5.727   6.961
  669SOL     OW 2905   3.365   6.111   2.841
  669SOL    HW1 2906   3.285   6.126   2.783
  669SOL    HW2 2907   3.397   6.017   2.831
  670SOL     OW 2908   2.905   3.192   1.820
  670SOL    HW1 2909   2.855   3.270   1.858
  670SOL    HW2 2910   2.997   3.221   1.794
  671SOL     OW 2911   2.379   5.671   6.622
  671SOL    HW1 2912   2.296   5.690   6.675
  671SOL    HW2 2913   2.407   5.753   6.572
  672SOL     OW 2914   0.836   4.347   1.689
  672SOL    HW1 2915   0.768   4.274   1.681
  672SOL    HW2 2916   0.847   4.393   1.601
  673SOL     OW 2917   6.700   0.579   1.224
  673SOL    HW1 2918   6.739   0.577   1.316
  673SOL    HW2 2919   6.614   0.528   1.222
  674SOL     OW 2920   6.405   4.238   4.910
  674SOL    HW1 2921   6.463   4.284   4.843
  674SOL    HW2 2922   6.376   4.303   4.980
  675SOL     OW 2923   6.898   1.375   5.234
  675SOL    HW1 2924   6.811   1.344   5.196
  675SOL    HW2 2925   6.916   1.469   5.204
  676SOL     OW 2926   3.681   5.276   2.321
  676SOL    HW1 2927   3.687   5.199   2.386
  676SOL    HW2 2928   3.670   5.240   2.229
  677SOL     OW 2929   6.430   1.586   6.310
  677SOL    HW1 2930   6.337   1.577   6.346
  677SOL    HW2 2931   6.463   1.679   6.326
  678SOL     OW 2932   1.199   1.575   5.340
  678SOL    HW1 2933   1.296   1.578   5.363
  678SOL    HW2 2934   1.160   1.667   5.342
  679SOL     OW 2935   4.880   1.352   3.830
  679SOL    HW1 2936   4.944   1.402   3.773
  679SOL    HW2 2937   4.869   1.259   3.795
  680SOL     OW 2938   5.273   5.626   6.093
  680SOL    HW1 2939   5.333   5.640   6.014
  680SOL    HW2 2940   5.230   5.712   6.117
  681SOL     OW 2941   5.921   6.817   1.542
  681SOL    HW1 2942   5.916   6.718   1.538
  681SOL    HW2 2943   5.853   6.852   1.606
  682SOL     OW 2944   1.522   6.930   6.916
  682SOL    HW1 2945   1.468   6.848   6.931
  682SOL    HW2 2946   1.605   6.907   6.865
  683SOL     OW 2947   3.621   1.717   6.704
  683SOL    HW1 2948   3.582   1.796   6.656
  683SOL    HW2 2949   3.671   1.749   6.785
  684SOL     OW 2950   5.989   1.175   0.221
  684SOL    HW1 2951   5.963   1.241   0.151
  684SOL    HW2 2952   5.909   1.153   0.278
  685SOL     OW 2953   4.646   1.156   4.768
  685SOL    HW1 2954   4.691   1.072   4.735
  685SOL    HW2 2955   4.548   1.140   4.775
  686SOL     OW 2956   6.053   3.186   3.366
  686SOL    HW1 2957   6.143   3.185   3.409
  686SOL    HW2 2958   6.029   3.094   3.336
  687SOL     OW 2959   0.291   2.804   4.321
  687SOL    HW1 2960   0.357   2.771   4.254
  687SOL    HW2 2961   0.284   2.738   4.397
  688SOL     OW 2962   1.866   3.009   0.188
  688SOL    HW1 2963   1.771   2.977   0.186
  688SOL    HW2 2964   1.886   3.058   0.103
  689SOL     OW 2965   0.506   4.344   5.767
  689SOL    HW1 2966   0.506   4.377   5.862
  689SOL    HW2 2967   0.440   4.397   5.714
  690SOL     OW 2968   0.863   4.049   3.486
  690SOL    HW1 2969   0.779   4.068   3.537
  690SOL    HW2 2970   0.894   4.132   3.439
  691SOL     OW 2971   2.573   1.111   6.550
  691SOL    HW1 2972   2.482   1.088   6.514
  691SOL    HW2 2973   2.581   1.076   6.644
  692SOL     OW 2974   3.843   6.371   3.201
  692SOL    HW1 2975   3.789   6.448   3.233
  692SOL    HW2 2976   3.937   6.381   3.234
  693SOL     OW 2977   6.613   1.738   2.977
  693SOL    HW1 2978   6.700   1.784   2.960
  693SOL    HW2 2979   6.611   1.702   3.070
  694SOL     OW 2980   3.484   6.689   2.475
  694SOL    HW1 2981   3.568   6.704   2.527
  694SOL    HW2 2982   3.476   6.591   2.453
  695SOL     OW 2983   4.404   4.676   5.682
  695SOL    HW1 2984   4.401   4.776   5.680
  695SOL    HW2 2985   4.499   4.646   5.670
  696SOL     OW 2986   2.930   5.150   2.250
  696SOL    HW1 2987   2.843   5.114   2.282
  696SOL    HW2 2988   2.963   5.220   2.314
  697SOL     OW 2989   1.520   3.029   4.841
  697SOL    HW1 2990   1.588   2.980   4.896
  697SOL    HW2 2991   1.553   3.121   4.820
  698SOL     OW 2992   5.515   0.075   6.678
  698SOL    HW1 2993   5.594   0.049   6.733
  698SOL    HW2 2994   5.517   0.173   6.659
  699SOL     OW 2995   1.268   4.150   0.006
  699SOL    HW1 2996   1.238   4.106   0.090
  699SOL    HW2 2997   1.362   4.182   0.017
  700SOL     OW 2998   2.910   1.312   4.101
  700SOL    HW1 2999   2.858   1.256   4.166
  700SOL    HW2 3000   2.847   1.370   4.049
  701SOL     OW 3001   6.426   4.350   5.345
  701SOL    HW1 3002   6.518   4.387   5.354
  701SOL    HW2 3003   6.409   4.283   5.417
  702SOL     OW 3004   6.310   6.592   6.355
  702SOL    HW1 3005   6.271   6.512   6.309
  702SOL    HW2 3006   6.256   6.613   6.437
  703SOL     OW 3007   3.978   3.793   6.212
  703SOL    HW1 3008   3.978   3.694   6.231
  703SOL    HW2 3009   3.941   3.841   6.291
  704SOL     OW 3010   1.575   1.341   6.537
  704SOL    HW1 3011   1.485   1.358   6.575
  704SOL    HW2 3012   1.640   1.320   6.610
  705SOL     OW 3013   5.279   6.982   3.466
  705SOL    HW1 3014   5.273   6.944   3.559
  705SOL    HW2 3015   5.190   7.016   3.438
  706SOL     OW 3016   4.141   1.881   4.560
  706SOL    HW1 3017   4.049   1.915   4.576
  706SOL    HW2 3018   4.155   1.867   4.462
  707SOL     OW 3019   4.635   6.973   2.912
  707SOL    HW1 3020   4.537   6.984   2.927
  707SOL    HW2 3021   4.656   6.877   2.895
  708SOL     OW 3022   4.209   0.308   1.376
  708SOL    HW1 3023   4.199   0.321   1.277
  708SOL    HW2 3024   4.154   0.230   1.405
  709SOL     OW 3025   1.296   5.231   0.619
  709SOL    HW1 3026   1.220   5.256   0.559
  709SOL    HW2 3027   1.381   5.231   0.568
  710SOL     OW 3028   3.860   3.028   2.187
  710SOL    HW1 3029   3.830   3.088   2.261
  710SOL    HW2 3030   3.828   2.935   2.204
  711SOL     OW 3031   0.003   2.380   5.879
  711SOL    HW1 3032   0.010   2.468   5.925
  711SOL    HW2 3033   7.003   2.309   5.945
  712SOL     OW 3034   3.335   3.960   0.608
  712SOL    HW1 3035   3.340   3.879   0.550
  712SOL    HW2 3036   3.245   3.965   0.652
  713SOL     OW 3037   3.247   2.808   0.290
  713SOL    HW1 3038   3.206   2.850   0.370
  713SOL    HW2 3039   3.340   2.778   0.312
  714SOL     OW 3040   6.054   4.749   4.666
  714SOL    HW1 3041   6.045   4.845   4.639
  714SOL    HW2 3042   5.968   4.717   4.705
  715SOL     OW 3043   5.294   6.231   0.714
  715SOL    HW1 3044   5.196   6.216   0.699
  715SOL    HW2 3045   5.327   6.300   0.650
  716SOL     OW 3046   1.181   6.976   0.863
  716SOL    HW1 3047   1.172   0.047   0.830
  716SOL    HW2 3048   1.090   6.941   0.888
  717SOL     OW 3049   5.543   5.184   6.353
  717SOL    HW1 3050   5.589   5.187   6.265
  717SOL    HW2 3051   5.608   5.204   6.426
  718SOL     OW 3052   4.999   2.324   5.747
  718SOL    HW1 3053   5.054   2.241   5.747
  718SOL    HW2 3054   5.033   2.385   5.819
  719SOL     OW 3055   7.013   2.296   1.063
  719SOL    HW1 3056   6.935   2.328   1.008
  719SOL    HW2 3057   0.060   2.367   1.067
  720SOL     OW 3058   3.434   0.771   6.485
  720SOL    HW1 3059   3.525   0.787   6.523
  720SOL    HW2 3060   3.442   0.713   6.404
  721SOL     OW 3061   2.298   0.581   4.557
  721SOL    HW1 3062   2.309   0.482   4.568
  721SOL    HW2 3063   2.377   0.628   4.598
  722SOL     OW 3064   2.165   6.973   4.736
  722SOL    HW1 3065   2.233   7.020   4.791
  722SOL    HW2 3066   2.075   7.014   4.753
  723SOL     OW 3067   2.034   3.321   3.368
  723SOL    HW1 3068   1.937   3.301   3.377
  723SOL    HW2 3069   2.087   3.238   3.385
  724SOL     OW 3070   1.176   2.610   5.039
  724SOL    HW1 3071   1.212   2.689   5.090
  724SOL    HW2 3072   1.137   2.640   4.953
  725SOL     OW 3073   3.322   5.567   0.528
  725SOL    HW1 3074   3.286   5.582   0.436
  725SOL    HW2 3075   3.419   5.591   0.531
  726SOL     OW 3076   4.195   4.636   0.454
  726SOL    HW1 3077   4.142   4.707   0.500
  726SOL    HW2 3078   4.272   4.678   0.405
  727SOL     OW 3079   5.077   5.427   6.024
  727SOL    HW1 3080   5.013   5.468   5.959
  727SOL    HW2 3081   5.151   5.491   6.043
  728SOL     OW 3082   0.072   3.316   4.519
  728SOL    HW1 3083   6.998   3.312   4.492
  728SOL    HW2 3084   0.128   3.279   4.445
  729SOL     OW 3085   1.638   2.101   0.372
  729SOL    HW1 3086   1.700   2.138   0.441
  729SOL    HW2 3087   1.552   2.074   0.415
  730SOL     OW 3088   5.229   1.313   2.486
  730SOL    HW1 3089   5.210   1.410   2.498
  730SOL    HW2 3090   5.147   1.260   2.511
  731SOL     OW 3091   5.768   4.269   5.985
  731SOL    HW1 3092   5.812   4.341   6.038
  731SOL    HW2 3093   5.830   4.191   5.977
  732SOL     OW 3094   0.520   2.892   0.903
  732SOL    HW1 3095   0.603   2.844   0.931
  732SOL    HW2 3096   0.471   2.838   0.834
  733SOL     OW 3097   5.515   5.585   5.482
  733SOL    HW1 3098   5.589   5.572   5.548
  733SOL    HW2 3099   5.472   5.674   5.496
  734SOL     OW 3100   6.587   4.172   2.548
  734SOL    HW1 3101   6.545   4.251   2.593
  734SOL    HW2 3102   6.551   4.163   2.455
  735SOL     OW 3103   4.322   2.703   0.324
  735SOL    HW1 3104   4.285   2.699   0.232
  735SOL    HW2 3105   4.282   2.781   0.373
  736SOL     OW 3106   0.381   0.415   2.777
  736SOL    HW1 3107   0.359   0.494   2.721
  736SOL    HW2 3108   0.478   0.417   2.802
  737SOL     OW 3109   4.868   2.324   6.300
  737SOL    HW1 3110   4.848   2.382   6.221
  737SOL    HW2 3111   4.784   2.311   6.354
  738SOL     OW 3112   1.930   4.037   2.318
  738SOL    HW1 3113   1.926   4.034   2.218
  738SOL    HW2 3114   2.023   4.013   2.348
  739SOL     OW 3115   3.593   0.236   4.995
  739SOL    HW1 3116   3.520   0.202   4.937
  739SOL    HW2 3117   3.591   0.336   4.996
  740SOL     OW 3118   5.053   0.005   0.419
  740SOL    HW1 3119   5.041   0.046   0.509
  740SOL    HW2 3120   5.009   6.937   0.417
  741SOL     OW 3121   2.395   6.428   3.372
  741SOL    HW1 3122   2.335   6.364   3.421
  741SOL    HW2 3123   2.398   6.402   3.275
  742SOL     OW 3124   2.029   6.208   1.180
  742SOL    HW1 3125   1.958   6.213   1.250
  742SOL    HW2 3126   2.031   6.293   1.128
  743SOL     OW 3127   0.287   4.307   4.479
  743SOL    HW1 3128   0.219   4.319   4.551
  743SOL    HW2 3129   0.344   4.389   4.473
  744SOL     OW 3130   5.744   6.821   6.646
  744SOL    HW1 3131   5.756   6.887   6.721
  744SOL    HW2 3132   5.783   6.859   6.563
  745SOL     OW 3133   0.913   5.316   4.602
  745SOL    HW1 3134   0.983   5.386   4.588
  745SOL    HW2 3135   0.896   5.269   4.516
  746SOL     OW 3136   0.611   5.529   5.795
  746SOL    HW1 3137   0.612   5.535   5.695
  746SOL    HW2 3138   0.700   5.556   5.831
  747SOL     OW 3139   4.372   6.881   4.915
  747SOL    HW1 3140   4.274   6.864   4.900
  747SOL    HW2 3141   4.383   6.957   4.979
  748SOL     OW 3142   3.076   4.885   2.464
  748SOL    HW1 3143   3.003   4.823   2.433
  748SOL    HW2 3144   3.122   4.925   2.385
  749SOL     OW 3145   6.725   4.486   4.969
  749SOL    HW1 3146   6.758   4.548   5.040
  749SOL    HW2 3147   6.630   4.509   4.945
  750SOL     OW 3148   2.289   2.541   1.318
  750SOL    HW1 3149   2.260   2.549   1.223
  750SOL    HW2 3150   2.388   2.559   1.324
  751SOL     OW 3151   4.192   2.884   6.311
  751SOL    HW1 3152   4.110   2.897   6.255
  751SOL    HW2 3153   4.175   2.914   6.404
  752SOL     OW 3154   3.751   1.314   2.325
  752SOL    HW1 3155   3.802   1.400   2.334
  752SOL    HW2 3156   3.714   1.288   2.414
  753SOL     OW 3157   1.516   2.895   4.607
  753SOL    HW1 3158   1.553   2.803   4.618
  753SOL    HW2 3159   1.509   2.939   4.697
  754SOL     OW 3160   5.313   3.229   5.890
  754SOL    HW1 3161   5.280   3.284   5.967
  754SOL    HW2 3162   5.321   3.288   5.809
  755SOL     OW 3163   1.636   4.564   5.651
  755SOL    HW1 3164   1.637   4.638   5.583
  755SOL    HW2 3165   1.726   4.559   5.695
  756SOL     OW 3166   3.524   0.304   1.429
  756SOL    HW1 3167   3.539   0.336   1.523
  756SOL    HW2 3168   3.589   0.347   1.368
  757SOL     OW 3169   0.782   0.019   3.666
  757SOL    HW1 3170   0.850   0.036   3.737
  757SOL    HW2 3171   0.818   6.976   3.599
  758SOL     OW 3172   4.057   0.195   2.038
  758SOL    HW1 3173   4.109   0.227   1.959
  758SOL    HW2 3174   4.084   0.248   2.119
  759SOL     OW 3175   0.915   1.345   0.629
  759SOL    HW1 3176   0.959   1.259   0.603
  759SOL    HW2 3177   0.907   1.349   0.729
  760SOL     OW 3178   4.804   0.353   5.642
  760SOL    HW1 3179   4.736   0.295   5.598
  760SOL    HW2 3180   4.887   0.355   5.586
  761SOL     OW 3181   5.532   3.136   5.640
  761SOL    HW1 3182   5.524   3.069   5.714
  761SOL    HW2 3183   5.578   3.094   5.562
  762SOL     OW 3184   2.465   0.248   4.776
  762SOL    HW1 3185   2.432   0.249   4.681
  762SOL    HW2 3186   2.556   0.288   4.780
  763SOL     OW 3187   4.209   4.687   6.740
  763SOL    HW1 3188   4.165   4.669   6.828
  763SOL    HW2 3189   4.155   4.645   6.667
  764SOL     OW 3190   4.583   1.245   3.801
  764SOL    HW1 3191   4.501   1.300   3.815
  764SOL    HW2 3192   4.631   1.233   3.888
  765SOL     OW 3193   1.008   6.051   1.224
  765SOL    HW1 3194   1.025   6.067   1.126
  765SOL    HW2 3195   0.919   6.007   1.236
  766SOL     OW 3196   2.153   3.897   6.953
  766SOL    HW1 3197   2.112   3.980   6.915
  766SOL    HW2 3198   2.099   3.817   6.928
  767SOL     OW 3199   5.833   5.842   2.474
  767SOL    HW1 3200   5.906   5.778   2.452
  767SOL    HW2 3201   5.810   5.835   2.571
  768SOL     OW 3202   1.871   6.335   1.355
  768SOL    HW1 3203   1.902   6.430   1.346
  768SOL    HW2 3204   1.774   6.333   1.377
  769SOL     OW 3205   3.351   0.693   4.561
  769SOL    HW1 3206   3.409   0.774   4.550
  769SOL    HW2 3207   3.257   0.716   4.539
  770SOL     OW 3208   2.154   3.502   3.201
  770SOL    HW1 3209   2.105   3.445   3.267
  770SOL    HW2 3210   2.234   3.452   3.168
  771SOL     OW 3211   2.029   5.418   2.247
  771SOL    HW1 3212   2.021   5.443   2.344
  771SOL    HW2 3213   2.116   5.450   2.211
  772SOL     OW 3214   5.764   5.174   0.707
  772SOL    HW1 3215   5.802   5.152   0.617
  772SOL    HW2 3216   5.835   5.162   0.777
  773SOL     OW 3217   0.832   4.113   4.180
  773SOL    HW1 3218   0.752   4.167   4.207
  773SOL    HW2 3219   0.870   4.068   4.261
  774SOL     OW 3220   1.591   2.147   1.596
  774SOL    HW1 3221   1.679   2.119   1.557
  774SOL    HW2 3222   1.596   2.141   1.696
  775SOL     OW 3223   0.732   2.360   2.574
  775SOL    HW1 3224   0.644   2.361   2.622
  775SOL    HW2 3225   0.799   2.414   2.626
  776SOL     OW 3226   0.769   6.968   6.001
  776SOL    HW1 3227   0.722   6.945   5.916
  776SOL    HW2 3228   0.730   0.029   6.039
  777SOL     OW 3229   3.110   5.179   1.051
  777SOL    HW1 3230   3.013   5.197   1.036
  777SOL    HW2 3231   3.158   5.265   1.066
  778SOL     OW 3232   3.233   0.951   2.779
  778SOL    HW1 3233   3.232   1.037   2.727
  778SOL    HW2 3234   3.314   0.898   2.754
  779SOL     OW 3235   0.512   2.384   2.730
  779SOL    HW1 3236   0.540   2.395   2.826
  779SOL    HW2 3237   0.427   2.333   2.726
  780SOL     OW 3238   5.968   3.921   3.643
  780SOL    HW1 3239   6.059   3.895   3.675
  780SOL    HW2 3240   5.974   4.005   3.589
  781SOL     OW 3241   5.504   1.172   0.052
  781SOL    HW1 3242   5.560   1.171   6.992
  781SOL    HW2 3243   5.456   1.085   0.061
  782SOL     OW 3244   1.647   4.099   6.931
  782SOL    HW1 3245   1.714   4.167   6.903
  782SOL    HW2 3246   1.581   4.085   6.857
  783SOL     OW 3247   3.933   4.957   1.167
  783SOL    HW1 3248   3.895   4.996   1.083
  783SOL    HW2 3249   3.926   5.024   1.241
  784SOL     OW 3250   5.194   6.532   0.065
  784SOL    HW1 3251   5.117   6.580   0.023
  784SOL    HW2 3252   5.258   6.504   7.017
  785SOL     OW 3253   0.365   2.690   2.688
  785SOL    HW1 3254   0.318   2.777   2.677
  785SOL    HW2 3255   0.386   2.674   2.784
  786SOL     OW 3256   0.867   0.898   1.088
  786SOL    HW1 3257   0.838   0.938   1.001
  786SOL    HW2 3258   0.913   0.968   1.143
  787SOL     OW 3259   3.003   0.980   6.548
  787SOL    HW1 3260   2.968   0.973   6.454
  787SOL    HW2 3261   3.063   1.060   6.555
  788SOL     OW 3262   3.425   2.845   5.852
  788SOL    HW1 3263   3.379   2.768   5.807
  788SOL    HW2 3264   3.468   2.813   5.936
  789SOL     OW 3265   5.881   3.714   1.356
  789SOL    HW1 3266   5.949   3.764   1.410
  789SOL    HW2 3267   5.792   3.758   1.367
  790SOL     OW 3268   2.532   1.038   4.090
  790SOL    HW1 3269   2.501   0.971   4.023
  790SOL    HW2 3270   2.491   1.127   4.070
  791SOL     OW 3271   3.754   5.608   3.379
  791SOL    HW1 3272   3.686   5.647   3.316
  791SOL    HW2 3273   3.842   5.654   3.366
  792SOL     OW 3274   0.427   0.444   1.726
  792SOL    HW1 3275   0.428   0.426   1.825
  792SOL    HW2 3276   0.365   0.379   1.681
  793SOL     OW 3277   4.968   5.452   3.648
  793SOL    HW1 3278   5.020   5.537   3.648
  793SOL    HW2 3279   4.944   5.428   3.553
  794SOL     OW 3280   2.789   3.801   5.307
  794SOL    HW1 3281   2.883   3.792   5.273
  794SOL    HW2 3282   2.757   3.894   5.289
  795SOL     OW 3283   3.955   6.845   4.596
  795SOL    HW1 3284   3.916   6.876   4.509
  795SOL    HW2 3285   3.894   6.870   4.671
  796SOL     OW 3286   1.324   1.740   6.131
  796SOL    HW1 3287   1.291   1.800   6.204
  796SOL    HW2 3288   1.247   1.707   6.077
  797SOL     OW 3289   4.937   2.540   1.454
  797SOL    HW1 3290   4.912   2.636   1.439
  797SOL    HW2 3291   5.036   2.533   1.469
  798SOL     OW 3292   4.700   6.914   1.764
  798SOL    HW1 3293   4.643   6.995   1.747
  798SOL    HW2 3294   4.644   6.843   1.809
  799SOL     OW 3295   6.175   1.024   5.460
  799SOL    HW1 3296   6.241   1.092   5.425
  799SOL    HW2 3297   6.112   1.069   5.523
  800SOL     OW 3298   5.250   1.715   2.801
  800SOL    HW1 3299   5.275   1.638   2.859
  800SOL    HW2 3300   5.157   1.745   2.823
  801SOL     OW 3301   1.867   3.274   4.279
  801SOL    HW1 3302   1.946   3.256   4.220
  801SOL    HW2 3303   1.881   3.229   4.367
  802SOL     OW 3304   4.420   0.904   0.508
  802SOL    HW1 3305   4.460   0.830   0.454
  802SOL    HW2 3306   4.397   0.981   0.448
  803SOL     OW 3307   6.958   6.439   5.358
  803SOL    HW1 3308   0.019   6.433   5.414
  803SOL    HW2 3309   6.983   6.434   5.261
  804SOL     OW 3310   5.537   5.682   0.190
  804SOL    HW1 3311   5.567   5.657   0.282
  804SOL    HW2 3312   5.539   5.782   0.181
  805SOL     OW 3313   3.492   1.504   5.422
  805SOL    HW1 3314   3.484   1.588   5.368
  805SOL    HW2 3315   3.457   1.427   5.369
  806SOL     OW 3316   5.412   0.730   4.122
  806SOL    HW1 3317   5.504   0.749   4.087
  806SOL    HW2 3318   5.403   0.632   4.140
  807SOL     OW 3319   0.660   1.835   4.784
  807SOL    HW1 3320   0.613   1.755   4.747
  807SOL    HW2 3321   0.596   1.911   4.792
  808SOL     OW 3322   4.885   3.289   5.931
  808SOL    HW1 3323   4.910   3.225   6.003
  808SOL    HW2 3324   4.829   3.363   5.969
  809SOL     OW 3325   0.295   4.894   1.580
  809SOL    HW1 3326   0.204   4.851   1.578
  809SOL    HW2 3327   0.352   4.849   1.648
  810SOL     OW 3328   3.278   2.734   0.881
  810SOL    HW1 3329   3.179   2.739   0.870
  810SOL    HW2 3330   3.307   2.639   0.888
  811SOL     OW 3331   3.998   5.641   4.684
  811SOL    HW1 3332   4.034   5.733   4.700
  811SOL    HW2 3333   4.010   5.617   4.588
  812SOL     OW 3334   0.619   1.130   1.521
  812SOL    HW1 3335   0.558   1.167   1.591
  812SOL    HW2 3336   0.608   1.182   1.436
  813SOL     OW 3337   3.100   5.701   5.019
  813SOL    HW1 3338   3.125   5.657   5.105
  813SOL    HW2 3339   3.010   5.744   5.030
  814SOL     OW 3340   5.913   6.425   2.771
  814SOL    HW1 3341   5.819   6.391   2.773
  814SOL    HW2 3342   5.940   6.453   2.863
  815SOL     OW 3343   0.765   3.914   3.143
  815SOL    HW1 3344   0.714   3.875   3.220
  815SOL    HW2 3345   0.700   3.952   3.077
  816SOL     OW 3346   6.257   6.763   0.194
  816SOL    HW1 3347   6.320   6.730   0.264
  816SOL    HW2 3348   6.309   6.806   0.120
  817SOL     OW 3349   2.301   3.717   1.711
  817SOL    HW1 3350   2.303   3.783   1.787
  817SOL    HW2 3351   2.303   3.624   1.747
  818SOL     OW 3352   6.312   2.703   1.451
  818SOL    HW1 3353   6.364   2.755   1.382
  818SOL    HW2 3354   6.215   2.706   1.427
  819SOL     OW 3355   5.587   3.021   3.104
  819SOL    HW1 3356   5.597   3.081   3.184
  819SOL    HW2 3357   5.493   2.987   3.100
  820SOL     OW 3358   2.479   3.349   5.846
  820SOL    HW1 3359   2.493   3.252   5.868
  820SOL    HW2 3360   2.414   3.356   5.771
  821SOL     OW 3361   1.875   4.069   0.358
  821SOL    HW1 3362   1.932   3.999   0.403
  821SOL    HW2 3363   1.844   4.034   0.270
  822SOL     OW 3364   1.712   3.916   4.829
  822SOL    HW1 3365   1.752   4.008   4.822
  822SOL    HW2 3366   1.615   3.923   4.849
  823SOL     OW 3367   4.894   4.061   6.215
  823SOL    HW1 3368   4.899   4.068   6.115
  823SOL    HW2 3369   4.834   4.133   6.250
  824SOL     OW 3370   5.553   1.185   5.245
  824SOL    HW1 3371   5.612   1.147   5.317
  824SOL    HW2 3372   5.602   1.258   5.197
  825SOL     OW 3373   1.579   3.937   0.948
  825SOL    HW1 3374   1.635   4.013   0.915
  825SOL    HW2 3375   1.514   3.970   1.016
  826SOL     OW 3376   5.081   3.182   5.756
  826SOL    HW1 3377   5.165   3.180   5.811
  826SOL    HW2 3378   5.007   3.223   5.808
  827SOL     OW 3379   3.381   4.453   6.186
  827SOL    HW1 3380   3.350   4.457   6.091
  827SOL    HW2 3381   3.303   4.439   6.247
  828SOL     OW 3382   5.427   6.372   5.571
  828SOL    HW1 3383   5.342   6.330   5.540
  828SOL    HW2 3384   5.408   6.432   5.649
  829SOL     OW 3385   2.983   3.393   3.609
  829SOL    HW1 3386   3.052   3.465   3.622
  829SOL    HW2 3387   2.964   3.350   3.697
  830SOL     OW 3388   4.740   4.569   7.002
  830SOL    HW1 3389   4.788   4.509   0.043
  830SOL    HW2 3390   4.793   4.578   6.917
  831SOL     OW 3391   5.525   0.978   6.402
  831SOL    HW1 3392   5.460   1.004   6.473
  831SOL    HW2 3393   5.478   0.972   6.314
  832SOL     OW 3394   2.908   0.638   1.461
  832SOL    HW1 3395   2.873   0.546   1.447
  832SOL    HW2 3396   2.841   0.704   1.427
  833SOL     OW 3397   0.490   3.864   6.149
  833SOL    HW1 3398   0.586   3.833   6.148
  833SOL    HW2 3399   0.487   3.963   6.135
  834SOL     OW 3400   2.946   3.693   1.047
  834SOL    HW1 3401   2.992   3.687   0.958
  834SOL    HW2 3402   2.868   3.630   1.049
  835SOL     OW 3403   3.566   0.550   5.015
  835SOL    HW1 3404   3.470   0.567   5.034
  835SOL    HW2 3405   3.589   0.584   4.924
  836SOL     OW 3406   3.783   6.852   6.459
  836SOL    HW1 3407   3.695   6.807   6.477
  836SOL    HW2 3408   3.766   6.941   6.418
  837SOL     OW 3409   5.566   6.485   0.129
  837SOL    HW1 3410   5.501   6.470   0.055
  837SOL    HW2 3411   5.543   6.427   0.207
  838SOL     OW 3412   1.910   0.224   4.513
  838SOL    HW1 3413   1.965   0.159   4.460
  838SOL    HW2 3414   1.831   0.253   4.458
  839SOL     OW 3415   2.624   2.332   2.098
  839SOL    HW1 3416   2.718   2.341   2.063
  839SOL    HW2 3417   2.571   2.412   2.069
  840SOL     OW 3418   6.039   6.871   6.779
  840SOL    HW1 3419   6.024   6.964   6.815
  840SOL    HW2 3420   5.985   6.806   6.833
  841SOL     OW 3421   4.562   5.197   0.347
  841SOL    HW1 3422   4.633   5.159   0.288
  841SOL    HW2 3423   4.522   5.278   0.302
  842SOL     OW 3424   4.295   6.046   4.760
  842SOL    HW1 3425   4.308   6.075   4.665
  842SOL    HW2 3426   4.373   6.076   4.815
  843SOL     OW 3427   2.345   1.860   6.865
  843SOL    HW1 3428   2.313   1.941   6.816
  843SOL    HW2 3429   2.444   1.862   6.871
  844SOL     OW 3430   6.143   0.249   1.236
  844SOL    HW1 3431   6.139   0.301   1.151
  844SOL    HW2 3432   6.203   0.296   1.301
  845SOL     OW 3433   5.207   4.564   5.237
  845SOL    HW1 3434   5.182   4.484   5.183
  845SOL    HW2 3435   5.172   4.554   5.331
  846SOL     OW 3436   2.560   1.875   0.181
  846SOL    HW1 3437   2.572   1.776   0.187
  846SOL    HW2 3438   2.474   1.896   0.134
  847SOL     OW 3439   1.571   3.765   0.711
  847SOL    HW1 3440   1.506   3.809   0.650
  847SOL    HW2 3441   1.597   3.827   0.784
  848SOL     OW 3442   6.153   0.913   6.810
  848SOL    HW1 3443   6.086   0.895   6.738
  848SOL    HW2 3444   6.187   1.007   6.801
  849SOL     OW 3445   0.475   4.968   5.624
  849SOL    HW1 3446   0.474   4.951   5.526
  849SOL    HW2 3447   0.556   5.022   5.648
  850SOL     OW 3448   5.734   1.076   4.480
  850SOL    HW1 3449   5.755   1.146   4.549
  850SOL    HW2 3450   5.809   1.009   4.477
  851SOL     OW 3451   0.510   1.259   2.233
  851SOL    HW1 3452   0.489   1.216   2.320
  851SOL    HW2 3453   0.510   1.359   2.243
  852SOL     OW 3454   1.064   2.357   0.376
  852SOL    HW1 3455   1.026   2.338   0.466
  852SOL    HW2 3456   1.119   2.279   0.346
  853SOL     OW 3457   1.842   4.307   2.360
  853SOL    HW1 3458   1.899   4.226   2.373
  853SOL    HW2 3459   1.750   4.278   2.334
  854SOL     OW 3460   4.492   6.263   1.858
  854SOL    HW1 3461   4.466   6.167   1.875
  854SOL    HW2 3462   4.498   6.311   1.946
  855SOL     OW 3463   0.512   0.286   1.183
  855SOL    HW1 3464   0.417   0.277   1.214
  855SOL    HW2 3465   0.562   0.202   1.204
  856SOL     OW 3466   1.734   1.698   5.273
  856SOL    HW1 3467   1.756   1.734   5.364
  856SOL    HW2 3468   1.699   1.771   5.215
  857SOL     OW 3469   6.131   4.337   2.126
  857SOL    HW1 3470   6.063   4.349   2.198
  857SOL    HW2 3471   6.183   4.422   2.115
  858SOL     OW 3472   2.815   4.058   1.336
  858SOL    HW1 3473   2.798   4.147   1.378
  858SOL    HW2 3474   2.765   4.053   1.249
  859SOL     OW 3475   4.780   5.754   6.475
  859SOL    HW1 3476   4.743   5.692   6.544
  859SOL    HW2 3477   4.829   5.701   6.405
  860SOL     OW 3478   4.044   4.069   0.183
  860SOL    HW1 3479   3.979   4.127   0.232
  860SOL    HW2 3480   4.135   4.113   0.185
  861SOL     OW 3481   3.048   0.477   4.427
  861SOL    HW1 3482   3.123   0.509   4.485
  861SOL    HW2 3483   3.051   0.524   4.339
  862SOL     OW 3484   0.454   4.097   5.775
  862SOL    HW1 3485   0.487   4.192   5.778
  862SOL    HW2 3486   0.527   4.035   5.802
  863SOL     OW 3487   0.599   6.997   0.031
  863SOL    HW1 3488   0.676   0.024   0.072
  863SOL    HW2 3489   0.535   0.040   7.014
  864SOL     OW 3490   4.597   4.780   3.797
  864SOL    HW1 3491   4.639   4.694   3.770
  864SOL    HW2 3492   4.552   4.822   3.718
  865SOL     OW 3493   1.829   6.488   5.783
  865SOL    HW1 3494   1.797   6.521   5.872
  865SOL    HW2 3495   1.859   6.566   5.728
  866SOL     OW 3496   1.865   2.597   1.678
  866SOL    HW1 3497   1.840   2.511   1.635
  866SOL    HW2 3498   1.904   2.659   1.610
  867SOL     OW 3499   3.915   3.035   0.799
  867SOL    HW1 3500   3.964   2.949   0.788
  867SOL    HW2 3501   3.872   3.039   0.889
  868SOL     OW 3502   6.042   0.015   1.313
  868SOL    HW1 3503   5.943   0.008   1.316
  868SOL    HW2 3504   6.069   0.104   1.276
  869SOL     OW 3505   6.366   5.384   3.302
  869SOL    HW1 3506   6.273   5.348   3.310
  869SOL    HW2 3507   6.364   5.483   3.314
  870SOL     OW 3508   5.521   3.562   0.681
  870SOL    HW1 3509   5.488   3.592   0.771
  870SOL    HW2 3510   5.546   3.642   0.627
  871SOL     OW 3511   5.294   3.874   3.015
  871SOL    HW1 3512   5.316   3.859   3.112
  871SOL    HW2 3513   5.236   3.954   3.006
  872SOL     OW 3514   6.122   4.664   3.956
  872SOL    HW1 3515   6.037   4.715   3.969
  872SOL    HW2 3516   6.124   4.625   3.864
  873SOL     OW 3517   5.838   6.952   3.961
  873SOL    HW1 3518   5.797   0.021   3.956
  873SOL    HW2 3519   5.931   6.958   3.995
  874SOL     OW 3520   0.977   4.765   4.918
  874SOL    HW1 3521   1.006   4.801   5.007
  874SOL    HW2 3522   0.898   4.817   4.885
  875SOL     OW 3523   3.980   2.756   0.730
  875SOL    HW1 3524   3.893   2.720   0.697
  875SOL    HW2 3525   4.055   2.698   0.697
  876SOL     OW 3526   0.357   5.658   3.160
  876SOL    HW1 3527   0.457   5.661   3.168
  876SOL    HW2 3528   0.316   5.715   3.231
  877SOL     OW 3529   3.572   4.341   0.388
  877SOL    HW1 3530   3.559   4.255   0.437
  877SOL    HW2 3531   3.527   4.337   0.299
  878SOL     OW 3532   4.341   6.303   5.436
  878SOL    HW1 3533   4.424   6.255   5.465
  878SOL    HW2 3534   4.294   6.340   5.517
  879SOL     OW 3535   2.938   2.083   2.005
  879SOL    HW1 3536   2.899   2.041   1.924
  879SOL    HW2 3537   2.918   2.181   2.005
  880SOL     OW 3538   3.014   4.420   6.126
  880SOL    HW1 3539   2.932   4.450   6.175
  880SOL    HW2 3540   3.020   4.321   6.127
  881SOL     OW 3541   4.308   4.566   5.442
  881SOL    HW1 3542   4.298   4.467   5.441
  881SOL    HW2 3543   4.340   4.596   5.532
  882SOL     OW 3544   1.439   1.346   4.385
  882SOL    HW1 3545   1.459   1.382   4.294
  882SOL    HW2 3546   1.358   1.288   4.380
  883SOL     OW 3547   4.848   5.498   5.849
  883SOL    HW1 3548   4.847   5.458   5.757
  883SOL    HW2 3549   4.805   5.589   5.846
  884SOL     OW 3550   0.217   3.280   0.509
  884SOL    HW1 3551   0.272   3.282   0.425
  884SOL    HW2 3552   0.133   3.229   0.492
  885SOL     OW 3553   4.983   6.235   0.097
  885SOL    HW1 3554   4.946   6.147   0.066
  885SOL    HW2 3555   5.070   6.253   0.050
  886SOL     OW 3556   3.348   0.319   0.687
  886SOL    HW1 3557   3.273   0.382   0.668
  886SOL    HW2 3558   3.322   0.227   0.655
  887SOL     OW 3559   4.503   0.331   4.338
  887SOL    HW1 3560   4.456   0.249   4.371
  887SOL    HW2 3561   4.557   0.372   4.411
  888SOL     OW 3562   5.655   6.902   2.986
  888SOL    HW1 3563   5.616   6.897   3.078
  888SOL    HW2 3564   5.732   6.966   2.987
  889SOL     OW 3565   1.575   6.500   5.180
  889SOL    HW1 3566   1.513   6.427   5.151
  889SOL    HW2 3567   1.580   6.569   5.108
  890SOL     OW 3568   2.494   4.859   2.202
  890SOL    HW1 3569   2.400   4.839   2.230
  890SOL    HW2 3570   2.550   4.777   2.215
  891SOL     OW 3571   6.466   3.773   1.750
  891SOL    HW1 3572   6.383   3.782   1.806
  891SOL    HW2 3573   6.447   3.810   1.659
  892SOL     OW 3574   4.250   3.853   7.018
  892SOL    HW1 3575   4.184   3.924   6.993
  892SOL    HW2 3576   4.332   3.864   6.963
  893SOL     OW 3577   2.102   1.186   2.242
  893SOL    HW1 3578   2.048   1.198   2.324
  893SOL    HW2 3579   2.199   1.198   2.263
  894SOL     OW 3580   1.670   2.544   4.372
  894SOL    HW1 3581   1.703   2.450   4.366
  894SOL    HW2 3582   1.742   2.607   4.342
  895SOL     OW 3583   1.815   5.543   4.595
  895SOL    HW1 3584   1.787   5.447   4.603
  895SOL    HW2 3585   1.886   5.562   4.663
  896SOL     OW 3586   4.982   0.073   2.138
  896SOL    HW1 3587   4.885   0.090   2.124
  896SOL    HW2 3588   5.019   0.023   2.059
  897SOL     OW 3589   5.740   0.979   7.011
  897SOL    HW1 3590   5.688   1.006   6.930
  897SOL    HW2 3591   5.805   1.052   0.011
  898SOL     OW 3592   4.429   5.646   2.647
  898SOL    HW1 3593   4.365   5.570   2.657
  898SOL    HW2 3594   4.381   5.732   2.664
  899SOL     OW 3595   6.925   4.757   0.222
  899SOL    HW1 3596   6.968   4.836   0.265
  899SOL    HW2 3597   6.976   4.674   0.245
  900SOL     OW 3598   5.163   6.835   1.594
  900SOL    HW1 3599   5.105   6.810   1.672
  900SOL    HW2 3600   5.117   6.809   1.509
  901SOL     OW 3601   0.974   1.119   5.604
  901SOL    HW1 3602   1.024   1.046   5.557
  901SOL    HW2 3603   0.875   1.104   5.593
  902SOL     OW 3604   0.248   2.546   6.213
  902SOL    HW1 3605   0.234   2.450   6.189
  902SOL    HW2 3606   0.264   2.554   6.311
  903SOL     OW 3607   6.916   4.089   6.320
  903SOL    HW1 3608   6.860   4.023   6.370
  903SOL    HW2 3609   7.008   4.051   6.307
  904SOL     OW 3610   1.547   1.861   3.889
  904SOL    HW1 3611   1.448   1.871   3.881
  904SOL    HW2 3612   1.575   1.876   3.984
  905SOL     OW 3613   4.179   3.272   6.170
  905SOL    HW1 3614   4.108   3.290   6.103
  905SOL    HW2 3615   4.214   3.180   6.159
  906SOL     OW 3616   0.035   3.917   5.644
  906SOL    HW1 3617   0.132   3.913   5.619
  906SOL    HW2 3618   0.003   4.011   5.640
  907SOL     OW 3619   5.518   3.113   3.427
  907SOL    HW1 3620   5.563   3.167   3.355
  907SOL    HW2 3621   5.579   3.039   3.455
  908SOL     OW 3622   1.878   6.426   3.652
  908SOL    HW1 3623   1.856   6.486   3.729
  908SOL    HW2 3624   1.821   6.450   3.573
  909SOL     OW 3625   2.184   6.577   1.370
  909SOL    HW1 3626   2.187   6.580   1.270
  909SOL    HW2 3627   2.189   6.671   1.406
  910SOL     OW 3628   2.641   0.105   0.696
  910SOL    HW1 3629   2.700   0.163   0.640
  910SOL    HW2 3630   2.607   0.158   0.774
  911SOL     OW 3631   0.012   5.888   1.083
  911SOL    HW1 3632   6.975   5.966   1.064
  911SOL    HW2 3633   7.014   5.852   1.175
  912SOL     OW 3634   6.605   1.226   4.792
  912SOL    HW1 3635   6.607   1.288   4.713
  912SOL    HW2 3636   6.510   1.212   4.821
  913SOL     OW 3637   2.150   0.281   2.968
  913SOL    HW1 3638   2.224   0.345   2.992
  913SOL    HW2 3639   2.164   0.247   2.875
  914SOL     OW 3640   2.521   5.526   4.949
  914SOL    HW1 3641   2.500   5.608   4.896
  914SOL    HW2 3642   2.437   5.475   4.968
  915SOL     OW 3643   1.248   3.116   0.132
  915SOL    HW1 3644   1.313   3.184   0.166
  915SOL    HW2 3645   1.191   3.156   0.061
  916SOL     OW 3646   1.465   2.852   2.159
  916SOL    HW1 3647   1.368   2.859   2.182
  916SOL    HW2 3648   1.519   2.861   2.242
  917SOL     OW 3649   5.264   0.449   1.158
  917SOL    HW1 3650   5.284   0.355   1.186
  917SOL    HW2 3651   5.190   0.486   1.214
  918SOL     OW 3652   2.719   5.869   6.905
  918SOL    HW1 3653   2.789   5.797   6.908
  918SOL    HW2 3654   2.745   5.938   6.838
  919SOL     OW 3655   6.903   5.771   2.597
  919SOL    HW1 3656   6.917   5.801   2.502
  919SOL    HW2 3657   6.933   5.676   2.606
  920SOL     OW 3658   1.480   6.896   3.456
  920SOL    HW1 3659   1.499   6.969   3.390
  920SOL    HW2 3660   1.415   6.930   3.525
  921SOL     OW 3661   5.045   4.713   4.228
  921SOL    HW1 3662   5.099   4.646   4.177
  921SOL    HW2 3663   5.013   4.784   4.166
  922SOL     OW 3664   3.264   2.881   6.982
  922SOL    HW1 3665   3.237   2.802   0.013
  922SOL    HW2 3666   3.241   2.965   0.009
  923SOL     OW 3667   3.152   5.058   6.671
  923SOL    HW1 3668   3.088   5.130   6.641
  923SOL    HW2 3669   3.101   4.987   6.720
  924SOL     OW 3670   6.105   2.864   1.911
  924SOL    HW1 3671   6.073   2.919   1.987
  924SOL    HW2 3672   6.063   2.774   1.914
  925SOL     OW 3673   6.581   1.723   5.193
  925SOL    HW1 3674   6.550   1.661   5.265
  925SOL    HW2 3675   6.506   1.741   5.129
  926SOL     OW 3676   6.454   0.983   0.044
  926SOL    HW1 3677   6.542   0.957   0.085
  926SOL    HW2 3678   6.383   0.920   0.075
  927SOL     OW 3679   5.350   4.257   3.754
  927SOL    HW1 3680   5.366   4.189   3.681
  927SOL    HW2 3681   5.437   4.299   3.778
  928SOL     OW 3682   1.807   0.470   0.304
  928SOL    HW1 3683   1.822   0.452   0.401
  928SOL    HW2 3684   1.871   0.415   0.250
  929SOL     OW 3685   0.627   1.714   0.573
  929SOL    HW1 3686   0.609   1.754   0.663
  929SOL    HW2 3687   0.710   1.754   0.535
  930SOL     OW 3688   5.737   5.807   4.826
  930SOL    HW1 3689   5.722   5.716   4.865
  930SOL    HW2 3690   5.832   5.815   4.797
  931SOL     OW 3691   6.519   3.578   3.406
  931SOL    HW1 3692   6.437   3.601   3.352
  931SOL    HW2 3693   6.538   3.481   3.398
  932SOL     OW 3694   2.183   0.078   1.721
  932SOL    HW1 3695   2.108   0.137   1.690
  932SOL    HW2 3696   2.163   0.043   1.812
  933SOL     OW 3697   0.658   5.663   2.599
  933SOL    HW1 3698   0.705   5.574   2.596
  933SOL    HW2 3699   0.721   5.733   2.634
  934SOL     OW 3700   1.787   0.538   4.567
  934SOL    HW1 3701   1.775   0.485   4.483
  934SOL    HW2 3702   1.754   0.485   4.645
  935SOL     OW 3703   5.096   3.535   5.128
  935SOL    HW1 3704   5.013   3.583   5.099
  935SOL    HW2 3705   5.109   3.548   5.227
  936SOL     OW 3706   1.502   0.868   6.484
  936SOL    HW1 3707   1.529   0.918   6.567
  936SOL    HW2 3708   1.461   0.781   6.511
  937SOL     OW 3709   4.915   1.872   5.046
  937SOL    HW1 3710   4.872   1.814   5.115
  937SOL    HW2 3711   4.944   1.958   5.087
  938SOL     OW 3712   0.186   5.169   6.384
  938SOL    HW1 3713   0.265   5.214   6.426
  938SOL    HW2 3714   0.203   5.153   6.287
  939SOL     OW 3715   5.118   1.697   4.957
  939SOL    HW1 3716   5.061   1.769   4.998
  939SOL    HW2 3717   5.073   1.609   4.965
  940SOL     OW 3718   0.275   3.028   2.625
  940SOL    HW1 3719   0.363   3.003   2.666
  940SOL    HW2 3720   0.236   3.106   2.675
  941SOL     OW 3721   6.508   0.586   4.306
  941SOL    HW1 3722   6.589   0.541   4.266
  941SOL    HW2 3723   6.479   0.536   4.387
  942SOL     OW 3724   4.930   1.038   3.942
  942SOL    HW1 3725   4.988   1.111   3.977
  942SOL    HW2 3726   4.978   0.988   3.870
  943SOL     OW 3727   1.201   2.859   3.747
  943SOL    HW1 3728   1.212   2.927   3.675
  943SOL    HW2 3729   1.268   2.786   3.735
  944SOL     OW 3730   6.294   3.633   5.939
  944SOL    HW1 3731   6.292   3.537   5.967
  944SOL    HW2 3732   6.245   3.644   5.852
  945SOL     OW 3733   6.669   4.226   5.892
  945SOL    HW1 3734   6.726   4.195   5.968
  945SOL    HW2 3735   6.623   4.148   5.851
  946SOL     OW 3736   5.279   2.539   6.213
  946SOL    HW1 3737   5.219   2.478   6.265
  946SOL    HW2 3738   5.315   2.609   6.275
  947SOL     OW 3739   3.337   3.048   4.679
  947SOL    HW1 3740   3.310   3.001   4.763
  947SOL    HW2 3741   3.436   3.058   4.676
  948SOL     OW 3742   4.361   0.680   0.708
  948SOL    HW1 3743   4.388   0.749   0.642
  948SOL    HW2 3744   4.318   0.603   0.660
  949SOL     OW 3745   6.827   6.115   6.479
  949SOL    HW1 3746   6.926   6.126   6.480
  949SOL    HW2 3747   6.797   6.088   6.388
  950SOL     OW 3748   4.076   5.099   1.882
  950SOL    HW1 3749   4.113   5.106   1.790
  950SOL    HW2 3750   4.149   5.076   1.946
  951SOL     OW 3751   1.439   0.918   2.445
  951SOL    HW1 3752   1.349   0.918   2.487
  951SOL    HW2 3753   1.468   1.012   2.426
  952SOL     OW 3754   5.948   1.858   2.123
  952SOL    HW1 3755   5.917   1.884   2.215
  952SOL    HW2 3756   5.890   1.784   2.089
  953SOL     OW 3757   5.308   6.048   5.236
  953SOL    HW1 3758   5.339   5.953   5.242
  953SOL    HW2 3759   5.252   6.070   5.315
  954SOL     OW 3760   4.936   5.562   0.758
  954SOL    HW1 3761   4.960   5.526   0.669
  954SOL    HW2 3762   4.992   5.519   0.829
  955SOL     OW 3763   6.991   4.805   3.739
  955SOL    HW1 3764   6.959   4.848   3.823
  955SOL    HW2 3765   6.943   4.845   3.661
  956SOL     OW 3766   0.993   2.102   2.251
  956SOL    HW1 3767   1.042   2.154   2.180
  956SOL    HW2 3768   0.914   2.155   2.281
  957SOL     OW 3769   1.050   4.893   4.576
  957SOL    HW1 3770   0.963   4.910   4.623
  957SOL    HW2 3771   1.120   4.870   4.643
  958SOL     OW 3772   4.626   2.596   1.929
  958SOL    HW1 3773   4.539   2.548   1.930
  958SOL    HW2 3774   4.669   2.585   1.839
  959SOL     OW 3775   2.705   4.865   3.075
  959SOL    HW1 3776   2.699   4.822   2.984
  959SOL    HW2 3777   2.631   4.930   3.086
  960SOL     OW 3778   0.193   5.664   3.797
  960SOL    HW1 3779   0.172   5.643   3.702
  960SOL    HW2 3780   0.153   5.753   3.820
  961SOL     OW 3781   5.101   0.097   3.286
  961SOL    HW1 3782   5.171   0.104   3.215
  961SOL    HW2 3783   5.029   0.035   3.255
  962SOL     OW 3784   1.956   1.040   4.294
  962SOL    HW1 3785   2.010   1.103   4.239
  962SOL    HW2 3786   1.881   1.089   4.339
  963SOL     OW 3787   6.643   1.571   5.814
  963SOL    HW1 3788   6.676   1.477   5.818
  963SOL    HW2 3789   6.622   1.595   5.719
  964SOL     OW 3790   6.426   3.685   0.697
  964SOL    HW1 3791   6.359   3.653   0.630
  964SOL    HW2 3792   6.390   3.670   0.790
  965SOL     OW 3793   5.460   2.123   1.113
  965SOL    HW1 3794   5.508   2.193   1.165
  965SOL    HW2 3795   5.410   2.166   1.038
  966SOL     OW 3796   5.698   2.021   2.588
  966SOL    HW1 3797   5.616   2.073   2.614
  966SOL    HW2 3798   5.693   1.929   2.628
  967SOL     OW 3799   2.490   4.944   1.455
  967SOL    HW1 3800   2.572   4.990   1.420
  967SOL    HW2 3801   2.421   4.940   1.383
  968SOL     OW 3802   4.740   2.511   2.362
  968SOL    HW1 3803   4.835   2.485   2.379
  968SOL    HW2 3804   4.730   2.610   2.374
  969SOL     OW 3805   4.353   5.878   6.878
  969SOL    HW1 3806   4.392   5.943   6.943
  969SOL    HW2 3807   4.253   5.882   6.882
  970SOL     OW 3808   4.686   1.372   4.622
  970SOL    HW1 3809   4.677   1.292   4.681
  970SOL    HW2 3810   4.716   1.451   4.676
  971SOL     OW 3811   0.502   2.045   2.729
  971SOL    HW1 3812   0.564   2.047   2.651
  971SOL    HW2 3813   0.425   2.105   2.712
  972SOL     OW 3814   5.373   4.159   1.395
  972SOL    HW1 3815   5.323   4.075   1.416
  972SOL    HW2 3816   5.464   4.155   1.437
  973SOL     OW 3817   6.926   4.157   0.093
  973SOL    HW1 3818   6.869   4.130   0.015
  973SOL    HW2 3819   6.943   4.077   0.151
  974SOL     OW 3820   4.864   0.268   2.327
  974SOL    HW1 3821   4.898   0.220   2.408
  974SOL    HW2 3822   4.806   0.345   2.355
  975SOL     OW 3823   2.054   5.989   6.226
  975SOL    HW1 3824   2.033   6.038   6.142
  975SOL    HW2 3825   2.082   5.896   6.204
  976SOL     OW 3826   6.642   2.741   2.401
  976SOL    HW1 3827   6.566   2.717   2.461
  976SOL    HW2 3828   6.687   2.823   2.436
  977SOL     OW 3829   2.158   0.982   3.983
  977SOL    HW1 3830   2.157   1.070   4.030
  977SOL    HW2 3831   2.250   0.964   3.949
  978SOL     OW 3832   4.354   4.296   5.522
  978SOL    HW1 3833   4.335   4.249   5.608
  978SOL    HW2 3834   4.337   4.233   5.446
  979SOL     OW 3835   7.014   1.719   1.504
  979SOL    HW1 3836   6.942   1.653   1.482
  979SOL    HW2 3837   0.013   1.772   1.422
  980SOL     OW 3838   4.234   2.028   4.068
  980SOL    HW1 3839   4.334   2.029   4.075
  980SOL    HW2 3840   4.206   2.061   3.978
  981SOL     OW 3841   1.644   1.448   5.082
  981SOL    HW1 3842   1.700   1.456   5.000
  981SOL    HW2 3843   1.695   1.484   5.160
  982SOL     OW 3844   2.748   1.671   3.326
  982SOL    HW1 3845   2.792   1.638   3.410
  982SOL    HW2 3846   2.764   1.605   3.253
  983SOL     OW 3847   5.501   2.464   3.866
  983SOL    HW1 3848   5.500   2.391   3.935
  983SOL    HW2 3849   5.502   2.553   3.912
  984SOL     OW 3850   2.831   1.210   3.752
  984SOL    HW1 3851   2.768   1.133   3.763
  984SOL    HW2 3852   2.914   1.180   3.707
  985SOL     OW 3853   4.881   4.780   6.369
  985SOL    HW1 3854   4.822   4.738   6.300
  985SOL    HW2 3855   4.974   4.744   6.359
  986SOL     OW 3856   5.448   4.189   0.268
  986SOL    HW1 3857   5.420   4.130   0.343
  986SOL    HW2 3858   5.541   4.222   0.282
  987SOL     OW 3859   4.640   6.725   1.510
  987SOL    HW1 3860   4.680   6.816   1.498
  987SOL    HW2 3861   4.711   6.660   1.537
  988SOL     OW 3862   3.502   3.184   2.181
  988SOL    HW1 3863   3.460   3.139   2.259
  988SOL    HW2 3864   3.437   3.187   2.105
  989SOL     OW 3865   6.320   1.290   5.479
  989SOL    HW1 3866   6.243   1.354   5.483
  989SOL    HW2 3867   6.379   1.313   5.402
  990SOL     OW 3868   4.586   1.309   1.949
  990SOL    HW1 3869   4.628   1.263   2.027
  990SOL    HW2 3870   4.511   1.253   1.914
  991SOL     OW 3871   1.798   2.574   5.177
  991SOL    HW1 3872   1.886   2.556   5.220
  991SOL    HW2 3873   1.743   2.633   5.235
  992SOL     OW 3874   1.015   3.491   1.241
  992SOL    HW1 3875   1.080   3.426   1.200
  992SOL    HW2 3876   0.939   3.507   1.178
  993SOL     OW 3877   1.150   4.639   1.875
  993SOL    HW1 3878   1.051   4.627   1.868
  993SOL    HW2 3879   1.196   4.557   1.841
  994SOL     OW 3880   3.296   3.775   3.136
  994SOL    HW1 3881   3.347   3.818   3.210
  994SOL    HW2 3882   3.353   3.768   3.055
  995SOL     OW 3883   3.469   2.831   6.380
  995SOL    HW1 3884   3.566   2.815   6.361
  995SOL    HW2 3885   3.434   2.900   6.317
  996SOL     OW 3886   1.841   4.562   4.655
  996SOL    HW1 3887   1.883   4.646   4.689
  996SOL    HW2 3888   1.901   4.485   4.673
  997SOL     OW 3889   6.869   0.717   2.552
  997SOL    HW1 3890   6.824   0.702   2.464
  997SOL    HW2 3891   6.800   0.737   2.621
  998SOL     OW 3892   4.493   6.714   4.042
  998SOL    HW1 3893   4.581   6.726   4.086
  998SOL    HW2 3894   4.507   6.679   3.949
  999SOL     OW 3895   5.383   4.950   1.865
  999SOL    HW1 3896   5.395   5.000   1.950
  999SOL    HW2 3897   5.330   5.005   1.801
 1000SOL     OW 3898   1.126   1.080   2.061
 1000SOL    HW1 3899   1.037   1.108   2.095
 1000SOL    HW2 3900   1.166   1.012   2.123
 1001SOL     OW 3901   5.770   0.061   0.547
 1001SOL    HW1 3902   5.674   0.039   0.562
 1001SOL    HW2 3903   5.810   0.094   0.633
 1002SOL     OW 3904   6.400   2.290   6.760
 1002SOL    HW1 3905   6.475   2.349   6.788
 1002SOL    HW2 3906   6.317   2.345   6.748
 1003SOL     OW 3907   2.258   6.316   1.487
 1003SOL    HW1 3908   2.203   6.304   1.404
 1003SOL    HW2 3909   2.211   6.378   1.549
 1004SOL     OW 3910   0.309   0.248   1.591
 1004SOL    HW1 3911   0.341   0.155   1.578
 1004SOL    HW2 3912   0.209   0.250   1.587
 1005SOL     OW 3913   0.667   1.427   3.013
 1005SOL    HW1 3914   0.572   1.422   2.982
 1005SOL    HW2 3915   0.728   1.427   2.934
 1006SOL     OW 3916   1.570   5.111   1.066
 1006SOL    HW1 3917   1.495   5.172   1.043
 1006SOL    HW2 3918   1.619   5.147   1.145
 1007SOL     OW 3919   5.380   0.100   4.328
 1007SOL    HW1 3920   5.291   0.144   4.315
 1007SOL    HW2 3921   5.400   0.040   4.251
 1008SOL     OW 3922   2.101   3.112   5.139
 1008SOL    HW1 3923   2.138   3.139   5.228
 1008SOL    HW2 3924   2.171   3.062   5.088
 1009SOL     OW 3925   0.167   6.588   4.609
 1009SOL    HW1 3926   0.093   6.653   4.594
 1009SOL    HW2 3927   0.178   6.531   4.528
 1010SOL     OW 3928   3.565   2.307   6.019
 1010SOL    HW1 3929   3.529   2.389   5.973
 1010SOL    HW2 3930   3.499   2.277   6.088
 1011SOL     OW 3931   2.535   5.351   2.483
 1011SOL    HW1 3932   2.519   5.414   2.559
 1011SOL    HW2 3933   2.447   5.320   2.446
 1012SOL     OW 3934   6.399   6.940   0.516
 1012SOL    HW1 3935   6.422   6.845   0.495
 1012SOL    HW2 3936   6.300   6.949   0.526
 1013SOL     OW 3937   1.113   1.436   6.187
 1013SOL    HW1 3938   1.019   1.421   6.219
 1013SOL    HW2 3939   1.170   1.467   6.263
 1014SOL     OW 3940   4.929   6.038   6.889
 1014SOL    HW1 3941   4.956   6.107   6.822
 1014SOL    HW2 3942   4.830   6.033   6.895
 1015SOL     OW 3943   2.133   6.302   5.335
 1015SOL    HW1 3944   2.040   6.338   5.344
 1015SOL    HW2 3945   2.130   6.213   5.291
 1016SOL     OW 3946   3.343   3.226   0.176
 1016SOL    HW1 3947   3.428   3.214   0.124
 1016SOL    HW2 3948   3.356   3.190   0.269
 1017SOL     OW 3949   4.356   2.772   1.322
 1017SOL    HW1 3950   4.341   2.733   1.230
 1017SOL    HW2 3951   4.276   2.825   1.349
 1018SOL     OW 3952   1.498   3.304   4.536
 1018SOL    HW1 3953   1.563   3.351   4.476
 1018SOL    HW2 3954   1.539   3.289   4.625
 1019SOL     OW 3955   0.663   0.351   6.868
 1019SOL    HW1 3956   0.677   0.373   6.772
 1019SOL    HW2 3957   0.744   0.304   6.903
 1020SOL     OW 3958   1.087   6.728   1.047
 1020SOL    HW1 3959   1.096   6.822   1.080
 1020SOL    HW2 3960   1.120   6.665   1.117
 1021SOL     OW 3961   5.718   1.463   1.357
 1021SOL    HW1 3962   5.808   1.484   1.395
 1021SOL    HW2 3963   5.710   1.365   1.340
 1022SOL     OW 3964   3.869   4.312   6.206
 1022SOL    HW1 3965   3.859   4.287   6.110
 1022SOL    HW2 3966   3.960   4.284   6.238
 1023SOL     OW 3967   0.421   6.991   2.033
 1023SOL    HW1 3968   0.520   6.979   2.045
 1023SOL    HW2 3969   0.382   0.009   2.116
 1024SOL     OW 3970   6.075   3.713   4.022
 1024SOL    HW1 3971   6.010   3.640   4.042
 1024SOL    HW2 3972   6.109   3.702   3.928
 1025SOL     OW 3973   3.473   3.663   0.808
 1025SOL    HW1 3974   3.432   3.574   0.829
 1025SOL    HW2 3975   3.568   3.650   0.781
 1026SOL     OW 3976   2.307   2.560   1.648
 1026SOL    HW1 3977   2.253   2.624   1.703
 1026SOL    HW2 3978   2.249   2.520   1.577
 1027SOL     OW 3979   2.885   6.229   0.744
 1027SOL    HW1 3980   2.930   6.227   0.833
 1027SOL    HW2 3981   2.806   6.167   0.746
 1028SOL     OW 3982   3.884   5.835   0.212
 1028SOL    HW1 3983   3.841   5.747   0.189
 1028SOL    HW2 3984   3.815   5.897   0.249
 1029SOL     OW 3985   1.311   0.497   6.969
 1029SOL    HW1 3986   1.222   0.539   6.983
 1029SOL    HW2 3987   1.316   0.459   6.876
 1030SOL     OW 3988   3.616   3.912   1.648
 1030SOL    HW1 3989   3.550   3.982   1.676
 1030SOL    HW2 3990   3.703   3.955   1.625
 1031SOL     OW 3991   5.135   5.442   0.986
 1031SOL    HW1 3992   5.233   5.422   0.987
 1031SOL    HW2 3993   5.085   5.360   0.958
 1032SOL     OW 3994   1.831   1.856   4.756
 1032SOL    HW1 3995   1.801   1.764   4.733
 1032SOL    HW2 3996   1.776   1.923   4.706
 1033SOL     OW 3997   1.425   6.364   1.055
 1033SOL    HW1 3998   1.438   6.462   1.035
 1033SOL    HW2 3999   1.411   6.314   0.970
 1034SOL     OW 4000   0.669   5.834   4.865
 1034SOL    HW1 4001   0.661   5.923   4.910
 1034SOL    HW2 4002   0.760   5.796   4.884
 1035SOL     OW 4003   1.239   0.840   3.379
 1035SOL    HW1 4004   1.191   0.914   3.332
 1035SOL    HW2 4005   1.185   0.811   3.458
 1036SOL     OW 4006   2.973   0.870   1.900
 1036SOL    HW1 4007   3.006   0.784   1.861
 1036SOL    HW2 4008   2.873   0.871   1.898
 1037SOL     OW 4009   1.896   0.933   1.226
 1037SOL    HW1 4010   1.943   0.874   1.160
 1037SOL    HW2 4011   1.948   1.018   1.238
 1038SOL     OW 4012   0.983   0.551   5.579
 1038SOL    HW1 4013   0.949   0.633   5.624
 1038SOL    HW2 4014   0.908   0.485   5.568
 1039SOL     OW 4015   2.979   2.705   5.725
 1039SOL    HW1 4016   3.042   2.755   5.665
 1039SOL    HW2 4017   3.004   2.721   5.820
 1040SOL     OW 4018   4.729   2.774   2.348
 1040SOL    HW1 4019   4.714   2.869   2.372
 1040SOL    HW2 4020   4.750   2.766   2.251
 1041SOL     OW 4021   6.346   6.782   4.205
 1041SOL    HW1 4022   6.392   6.798   4.118
 1041SOL    HW2 4023   6.341   6.868   4.256
 1042SOL     OW 4024   3.548   4.880   2.231
 1042SOL    HW1 4025   3.467   4.937   2.224
 1042SOL    HW2 4026   3.574   4.847   2.141
 1043SOL     OW 4027   4.430   1.496   5.235
 1043SOL    HW1 4028   4.334   1.493   5.261
 1043SOL    HW2 4029   4.437   1.509   5.136
 1044SOL     OW 4030   4.785   4.406   1.991
 1044SOL    HW1 4031   4.808   4.448   2.079
 1044SOL    HW2 4032   4.696   4.361   1.999
 1045SOL     OW 4033   2.862   6.265   2.730
 1045SOL    HW1 4034   2.909   6.223   2.653
 1045SOL    HW2 4035   2.855   6.199   2.806
 1046SOL     OW 4036   1.132   6.762   0.617
 1046SOL    HW1 4037   1.172   6.722   0.700
 1046SOL    HW2 4038   1.051   6.816   0.641
 1047SOL     OW 4039   1.022   6.241   2.271
 1047SOL    HW1 4040   1.109   6.216   2.314
 1047SOL    HW2 4041   0.982   6.319   2.319
 1048SOL     OW 4042   5.164   6.200   5.815
 1048SOL    HW1 4043   5.096   6.250   5.762
 1048SOL    HW2 4044   5.119   6.132   5.872
 1049SOL     OW 4045   6.479   4.949   4.005
 1049SOL    HW1 4046   6.545   4.882   4.039
 1049SOL    HW2 4047   6.430   4.989   4.083
 1050SOL     OW 4048   3.543   5.487   0.343
 1050SOL    HW1 4049   3.474   5.522   0.280
 1050SOL    HW2 4050   3.593   5.564   0.384
 1051SOL     OW 4051   2.539   5.222   1.146
 1051SOL    HW1 4052   2.561   5.287   1.219
 1051SOL    HW2 4053   2.575   5.256   1.059
 1052SOL     OW 4054   4.002   0.267   4.242
 1052SOL    HW1 4055   4.066   0.343   4.258
 1052SOL    HW2 4056   3.983   0.222   4.330
 1053SOL     OW 4057   5.074   5.228   3.455
 1053SOL    HW1 4058   5.112   5.283   3.381
 1053SOL    HW2 4059   5.006   5.165   3.417
 1054SOL     OW 4060   2.153   3.831   5.829
 1054SOL    HW1 4061   2.073   3.847   5.771
 1054SOL    HW2 4062   2.182   3.736   5.820
 1055SOL     OW 4063   6.125   6.597   4.037
 1055SOL    HW1 4064   6.171   6.679   4.072
 1055SOL    HW2 4065   6.039   6.624   3.994
 1056SOL     OW 4066   1.273   5.262   5.962
 1056SOL    HW1 4067   1.278   5.199   6.039
 1056SOL    HW2 4068   1.244   5.213   5.880
 1057SOL     OW 4069   3.784   3.328   3.005
 1057SOL    HW1 4070   3.828   3.260   2.947
 1057SOL    HW2 4071   3.793   3.300   3.101
 1058SOL     OW 4072   5.059   1.517   2.023
 1058SOL    HW1 4073   5.123   1.499   2.098
 1058SOL    HW2 4074   5.107   1.560   1.947
 1059SOL     OW 4075   2.118   6.839   1.453
 1059SOL    HW1 4076   2.147   6.886   1.369
 1059SOL    HW2 4077   2.043   6.890   1.495
 1060SOL     OW 4078   0.277   3.548   4.137
 1060SOL    HW1 4079   0.291   3.610   4.060
 1060SOL    HW2 4080   0.241   3.600   4.215
 1061SOL     OW 4081   5.097   3.795   2.092
 1061SOL    HW1 4082   5.158   3.828   2.164
 1061SOL    HW2 4083   5.122   3.837   2.005
 1062SOL     OW 4084   5.851   4.946   5.481
 1062SOL    HW1 4085   5.773   4.985   5.432
 1062SOL    HW2 4086   5.908   4.895   5.417
 1063SOL     OW 4087   1.373   4.378   1.773
 1063SOL    HW1 4088   1.327   4.291   1.754
 1063SOL    HW2 4089   1.420   4.371   1.861
 1064SOL     OW 4090   1.500   3.847   2.239
 1064SOL    HW1 4091   1.436   3.891   2.303
 1064SOL    HW2 4092   1.531   3.915   2.172
 1065SOL     OW 4093   4.570   0.704   4.173
 1065SOL    HW1 4094   4.568   0.802   4.190
 1065SOL    HW2 4095   4.623   0.659   4.245
 1066SOL     OW 4096   5.086   0.411   4.178
 1066SOL    HW1 4097   5.023   0.487   4.164
 1066SOL    HW2 4098   5.060   0.360   4.260
 1067SOL     OW 4099   1.394   3.203   6.883
 1067SOL    HW1 4100   1.441   3.118   6.907
 1067SOL    HW2 4101   1.452   3.281   6.906
 1068SOL     OW 4102   4.888   4.544   2.517
 1068SOL    HW1 4103   4.960   4.612   2.532
 1068SOL    HW2 4104   4.805   4.590   2.484
 1069SOL     OW 4105   5.077   4.925   0.964
 1069SOL    HW1 4106   5.053   4.976   0.882
 1069SOL    HW2 4107   5.027   4.962   1.042
 1070SOL     OW 4108   1.520   1.251   1.546
 1070SOL    HW1 4109   1.431   1.206   1.546
 1070SOL    HW2 4110   1.586   1.194   1.593
 1071SOL     OW 4111   3.269   6.454   3.665
 1071SOL    HW1 4112   3.176   6.416   3.672
 1071SOL    HW2 4113   3.322   6.427   3.745
 1072SOL     OW 4114   1.677   6.331   0.843
 1072SOL    HW1 4115   1.592   6.381   0.854
 1072SOL    HW2 4116   1.668   6.239   0.881
 1073SOL     OW 4117   3.638   6.485   2.812
 1073SOL    HW1 4118   3.604   6.401   2.771
 1073SOL    HW2 4119   3.737   6.482   2.818
 1074SOL     OW 4120   2.674   4.963   0.442
 1074SOL    HW1 4121   2.773   4.957   0.430
 1074SOL    HW2 4122   2.654   4.993   0.535
 1075SOL     OW 4123   4.327   6.193   4.012
 1075SOL    HW1 4124   4.300   6.120   3.948
 1075SOL    HW2 4125   4.394   6.157   4.077
 1076SOL     OW 4126   7.014   4.692   5.266
 1076SOL    HW1 4127   6.918   4.707   5.289
 1076SOL    HW2 4128   0.006   4.597   5.241
 1077SOL     OW 4129   5.804   0.389   0.620
 1077SOL    HW1 4130   5.769   0.482   0.605
 1077SOL    HW2 4131   5.838   0.352   0.533
 1078SOL     OW 4132   1.226   1.257   2.514
 1078SOL    HW1 4133   1.184   1.168   2.498
 1078SOL    HW2 4134   1.215   1.314   2.433
 1079SOL     OW 4135   1.675   6.085   2.162
 1079SOL    HW1 4136   1.665   6.184   2.147
 1079SOL    HW2 4137   1.771   6.060   2.149
 1080SOL     OW 4138   1.820   4.660   3.877
 1080SOL    HW1 4139   1.839   4.616   3.965
 1080SOL    HW2 4140   1.895   4.721   3.853
 1081SOL     OW 4141   0.094   6.623   5.752
 1081SOL    HW1 4142   0.177   6.594   5.799
 1081SOL    HW2 4143   0.081   6.721   5.763
 1082SOL     OW 4144   3.081   1.393   6.078
 1082SOL    HW1 4145   3.026   1.322   6.034
 1082SOL    HW2 4146   3.167   1.355   6.109
 1083SOL     OW 4147   3.970   4.247   1.123
 1083SOL    HW1 4148   3.917   4.283   1.199
 1083SOL    HW2 4149   3.948   4.150   1.109
 1084SOL     OW 4150   6.680   6.213   0.836
 1084SOL    HW1 4151   6.581   6.227   0.834
 1084SOL    HW2 4152   6.720   6.268   0.910
 1085SOL     OW 4153   1.258   4.311   3.461
 1085SOL    HW1 4154   1.335   4.368   3.433
 1085SOL    HW2 4155   1.270   4.283   3.556
 1086SOL     OW 4156   6.938   5.853   2.342
 1086SOL    HW1 4157   0.003   5.862   2.295
 1086SOL    HW2 4158   6.872   5.918   2.303
 1087SOL     OW 4159   6.198   3.364   5.765
 1087SOL    HW1 4160   6.173   3.379   5.670
 1087SOL    HW2 4161   6.242   3.275   5.775
 1088SOL     OW 4162   6.201   4.621   3.397
 1088SOL    HW1 4163   6.240   4.712   3.385
 1088SOL    HW2 4164   6.115   4.628   3.446
 1089SOL     OW 4165   0.937   0.671   4.234
 1089SOL    HW1 4166   1.029   0.665   4.197
 1089SOL    HW2 4167   0.940   0.661   4.334
 1090SOL     OW 4168   2.389   1.553   3.270
 1090SOL    HW1 4169   2.316   1.617   3.297
 1090SOL    HW2 4170   2.433   1.517   3.352
 1091SOL     OW 4171   1.714   2.901   4.969
 1091SOL    HW1 4172   1.785   2.854   4.916
 1091SOL    HW2 4173   1.756   2.949   5.046
 1092SOL     OW 4174   2.200   3.556   0.523
 1092SOL    HW1 4175   2.296   3.561   0.551
 1092SOL    HW2 4176   2.142   3.589   0.597
 1093SOL     OW 4177   2.215   1.734   2.352
 1093SOL    HW1 4178   2.155   1.808   2.382
 1093SOL    HW2 4179   2.263   1.762   2.269
 1094SOL     OW 4180   1.177   6.157   3.238
 1094SOL    HW1 4181   1.242   6.082   3.252
 1094SOL    HW2 4182   1.227   6.243   3.231
 1095SOL     OW 4183   0.228   2.290   5.678
 1095SOL    HW1 4184   0.198   2.385   5.663
 1095SOL    HW2 4185   0.263   2.281   5.771
 1096SOL     OW 4186   3.466   4.763   1.598
 1096SOL    HW1 4187   3.522   4.709   1.661
 1096SOL    HW2 4188   3.391   4.707   1.562
 1097SOL     OW 4189   1.373   4.005   4.027
 1097SOL    HW1 4190   1.314   3.997   3.947
 1097SOL    HW2 4191   1.407   3.915   4.053
 1098SOL     OW 4192   5.857   3.420   0.806
 1098SOL    HW1 4193   5.769   3.460   0.780
 1098SOL    HW2 4194   5.864   3.328   0.768
 1099SOL     OW 4195   3.742   1.469   4.880
 1099SOL    HW1 4196   3.803   1.549   4.889
 1099SOL    HW2 4197   3.681   1.466   4.959
 1100SOL     OW 4198   3.074   1.739   6.938
 1100SOL    HW1 4199   3.045   1.802   7.009
 1100SOL    HW2 4200   3.039   1.648   6.958
 1101SOL     OW 4201   6.384   2.572   0.126
 1101SOL    HW1 4202   6.381   2.639   0.052
 1101SOL    HW2 4203   6.303   2.513   0.122
 1102SOL     OW 4204   0.907   5.888   3.931
 1102SOL    HW1 4205   0.914   5.804   3.985
 1102SOL    HW2 4206   0.834   5.877   3.862
 1103SOL     OW 4207   2.967   1.407   0.714
 1103SOL    HW1 4208   3.015   1.401   0.627
 1103SOL    HW2 4209   2.879   1.452   0.701
 1104SOL     OW 4210   2.375   3.339   5.574
 1104SOL    HW1 4211   2.314   3.416   5.555
 1104SOL    HW2 4212   2.469   3.364   5.554
 1105SOL     OW 4213   5.666   3.530   4.726
 1105SOL    HW1 4214   5.738   3.591   4.760
 1105SOL    HW2 4215   5.691   3.435   4.745
 1106SOL     OW 4216   0.700   1.980   0.188
 1106SOL    HW1 4217   0.729   1.885   0.175
 1106SOL    HW2 4218   0.642   1.986   0.269
 1107SOL     OW 4219   1.132   0.346   6.197
 1107SOL    HW1 4220   1.231   0.333   6.206
 1107SOL    HW2 4221   1.085   0.292   6.266
 1108SOL     OW 4222   2.923   0.300   6.122
 1108SOL    HW1 4223   2.957   0.291   6.216
 1108SOL    HW2 4224   2.953   0.222   6.068
 1109SOL     OW 4225   4.401   6.599   4.799
 1109SOL    HW1 4226   4.386   6.690   4.838
 1109SOL    HW2 4227   4.392   6.530   4.872
 1110SOL     OW 4228   2.563   1.186   2.781
 1110SOL    HW1 4229   2.512   1.104   2.756
 1110SOL    HW2 4230   2.650   1.160   2.822
 1111SOL     OW 4231   5.380   5.493   0.028
 1111SOL    HW1 4232   5.427   5.569   0.073
 1111SOL    HW2 4233   5.308   5.528   6.991
 1112SOL     OW 4234   6.003   1.317   2.657
 1112SOL    HW1 4235   6.042   1.310   2.749
 1112SOL    HW2 4236   5.904   1.304   2.661
 1113SOL     OW 4237   0.198   3.741   3.017
 1113SOL    HW1 4238   0.161   3.830   2.991
 1113SOL    HW2 4239   0.272   3.716   2.953
 1114SOL     OW 4240   4.381   1.410   6.657
 1114SOL    HW1 4241   4.383   1.329   6.715
 1114SOL    HW2 4242   4.473   1.450   6.653
 1115SOL     OW 4243   4.492   2.972   0.076
 1115SOL    HW1 4244   4.402   2.928   0.082
 1115SOL    HW2 4245   4.551   2.937   0.148
 1116SOL     OW 4246   5.699   6.058   4.914
 1116SOL    HW1 4247   5.691   6.065   5.014
 1116SOL    HW2 4248   5.720   5.964   4.889
 1117SOL     OW 4249   2.414   2.852   1.458
 1117SOL    HW1 4250   2.403   2.949   1.437
 1117SOL    HW2 4251   2.399   2.837   1.556
 1118SOL     OW 4252   2.184   4.290   1.502
 1118SOL    HW1 4253   2.231   4.357   1.559
 1118SOL    HW2 4254   2.096   4.328   1.472
 1119SOL     OW 4255   4.453   4.136   1.444
 1119SOL    HW1 4256   4.435   4.105   1.538
 1119SOL    HW2 4257   4.367   4.140   1.394
 1120SOL     OW 4258   5.381   0.129   5.689
 1120SOL    HW1 4259   5.369   0.228   5.682
 1120SOL    HW2 4260   5.469   0.103   5.650
 1121SOL     OW 4261   5.202   4.480   2.326
 1121SOL    HW1 4262   5.230   4.474   2.422
 1121SOL    HW2 4263   5.225   4.570   2.290
 1122SOL     OW 4264   4.596   3.177   6.306
 1122SOL    HW1 4265   4.552   3.093   6.338
 1122SOL    HW2 4266   4.590   3.181   6.206
 1123SOL     OW 4267   5.333   1.480   2.929
 1123SOL    HW1 4268   5.272   1.485   3.007
 1123SOL    HW2 4269   5.424   1.451   2.959
 1124SOL     OW 4270   5.958   4.368   5.330
 1124SOL    HW1 4271   5.907   4.290   5.364
 1124SOL    HW2 4272   6.018   4.339   5.255
 1125SOL     OW 4273   2.813   1.584   5.460
 1125SOL    HW1 4274   2.818   1.490   5.493
 1125SOL    HW2 4275   2.884   1.599   5.391
 1126SOL     OW 4276   5.718   6.472   0.585
 1126SOL    HW1 4277   5.737   6.385   0.540
 1126SOL    HW2 4278   5.619   6.489   0.587
 1127SOL     OW 4279   4.828   5.541   5.034
 1127SOL    HW1 4280   4.859   5.508   5.124
 1127SOL    HW2 4281   4.766   5.474   4.994
 1128SOL     OW 4282   5.657   2.463   5.135
 1128SOL    HW1 4283   5.592   2.536   5.155
 1128SOL    HW2 4284   5.686   2.420   5.220
 1129SOL     OW 4285   3.581   0.402   6.501
 1129SOL    HW1 4286   3.674   0.373   6.520
 1129SOL    HW2 4287   3.557   0.479   6.561
 1130SOL     OW 4288   1.728   4.168   0.934
 1130SOL    HW1 4289   1.823   4.193   0.951
 1130SOL    HW2 4290   1.675   4.177   1.018
 1131SOL     OW 4291   0.298   6.343   5.966
 1131SOL    HW1 4292   0.266   6.398   6.043
 1131SOL    HW2 4293   0.220   6.317   5.909
 1132SOL     OW 4294   5.493   0.275   0.329
 1132SOL    HW1 4295   5.403   0.236   0.310
 1132SOL    HW2 4296   5.502   0.363   0.283
 1133SOL     OW 4297   0.704   1.448   0.502
 1133SOL    HW1 4298   0.659   1.530   0.538
 1133SOL    HW2 4299   0.756   1.404   0.575
 1134SOL     OW 4300   5.032   1.676   1.528
 1134SOL    HW1 4301   5.017   1.675   1.429
 1134SOL    HW2 4302   4.956   1.631   1.574
 1135SOL     OW 4303   2.723   1.297   2.076
 1135SOL    HW1 4304   2.686   1.380   2.117
 1135SOL    HW2 4305   2.776   1.247   2.144
 1136SOL     OW 4306   3.660   5.343   4.869
 1136SOL    HW1 4307   3.601   5.285   4.926
 1136SOL    HW2 4308   3.620   5.434   4.862
 1137SOL     OW 4309   1.603   2.135   6.592
 1137SOL    HW1 4310   1.544   2.206   6.631
 1137SOL    HW2 4311   1.587   2.049   6.640
 1138SOL     OW 4312   0.472   1.436   6.209
 1138SOL    HW1 4313   0.490   1.355   6.265
 1138SOL    HW2 4314   0.552   1.495   6.210
 1139SOL     OW 4315   2.668   5.816   1.340
 1139SOL    HW1 4316   2.748   5.844   1.394
 1139SOL    HW2 4317   2.696   5.753   1.268
 1140SOL     OW 4318   3.382   0.773   2.052
 1140SOL    HW1 4319   3.340   0.744   1.966
 1140SOL    HW2 4320   3.467   0.721   2.066
 1141SOL     OW 4321   6.553   6.614   6.688
 1141SOL    HW1 4322   6.485   6.547   6.718
 1141SOL    HW2 4323   6.632   6.611   6.750
 1142SOL     OW 4324   4.153   0.482   4.351
 1142SOL    HW1 4325   4.137   0.581   4.353
 1142SOL    HW2 4326   4.160   0.448   4.444
 1143SOL     OW 4327   2.166   2.999   2.360
 1143SOL    HW1 4328   2.237   2.929   2.351
 1143SOL    HW2 4329   2.159   3.027   2.456
 1144SOL     OW 4330   6.182   4.524   5.450
 1144SOL    HW1 4331   6.239   4.484   5.379
 1144SOL    HW2 4332   6.092   4.480   5.450
 1145SOL     OW 4333   0.332   4.606   2.513
 1145SOL    HW1 4334   0.395   4.539   2.473
 1145SOL    HW2 4335   0.255   4.620   2.450
 1146SOL     OW 4336   5.687   0.763   1.366
 1146SOL    HW1 4337   5.608   0.729   1.314
 1146SOL    HW2 4338   5.674   0.740   1.463
 1147SOL     OW 4339   2.035   4.516   0.812
 1147SOL    HW1 4340   2.081   4.600   0.785
 1147SOL    HW2 4341   1.954   4.502   0.755
 1148SOL     OW 4342   4.577   6.772   6.814
 1148SOL    HW1 4343   4.606   6.681   6.784
 1148SOL    HW2 4344   4.527   6.766   6.900
 1149SOL     OW 4345   6.261   3.969   3.346
 1149SOL    HW1 4346   6.253   4.016   3.258
 1149SOL    HW2 4347   6.346   3.917   3.349
 1150SOL     OW 4348   2.604   4.249   1.081
 1150SOL    HW1 4349   2.590   4.314   1.007
 1150SOL    HW2 4350   2.645   4.165   1.045
 1151SOL     OW 4351   4.758   5.384   0.038
 1151SOL    HW1 4352   4.688   5.320   0.006
 1151SOL    HW2 4353   4.714   5.457   0.090
 1152SOL     OW 4354   0.461   5.874   5.772
 1152SOL    HW1 4355   0.417   5.790   5.804
 1152SOL    HW2 4356   0.524   5.851   5.697
 1153SOL     OW 4357   1.841   6.871   2.098
 1153SOL    HW1 4358   1.863   6.841   2.005
 1153SOL    HW2 4359   1.851   6.970   2.105
 1154SOL     OW 4360   0.685   3.956   2.206
 1154SOL    HW1 4361   0.749   3.928   2.134
 1154SOL    HW2 4362   0.676   3.881   2.272
 1155SOL     OW 4363   2.732   5.022   6.881
 1155SOL    HW1 4364   2.770   4.936   6.847
 1155SOL    HW2 4365   2.691   5.072   6.804
 1156SOL     OW 4366   1.933   0.691   4.938
 1156SOL    HW1 4367   1.842   0.652   4.922
 1156SOL    HW2 4368   1.946   0.708   5.035
 1157SOL     OW 4369   6.364   1.153   4.891
 1157SOL    HW1 4370   6.299   1.220   4.858
 1157SOL    HW2 4371   6.357   1.145   4.990
 1158SOL     OW 4372   0.372   5.631   5.848
 1158SOL    HW1 4373   0.458   5.580   5.846
 1158SOL    HW2 4374   0.301   5.580   5.799
 1159SOL     OW 4375   5.292   6.878   3.205
 1159SOL    HW1 4376   5.220   6.814   3.178
 1159SOL    HW2 4377   5.297   6.881   3.305
 1160SOL     OW 4378   3.887   3.572   1.540
 1160SOL    HW1 4379   3.861   3.482   1.576
 1160SOL    HW2 4380   3.814   3.608   1.482
 1161SOL     OW 4381   4.888   0.513   6.016
 1161SOL    HW1 4382   4.940   0.471   6.090
 1161SOL    HW2 4383   4.936   0.499   5.929
 1162SOL     OW 4384   3.556   2.301   0.387
 1162SOL    HW1 4385   3.527   2.315   0.292
 1162SOL    HW2 4386   3.640   2.248   0.389
 1163SOL     OW 4387   6.474   3.264   1.528
 1163SOL    HW1 4388   6.497   3.168   1.547
 1163SOL    HW2 4389   6.379   3.269   1.497
 1164SOL     OW 4390   5.872   2.665   4.333
 1164SOL    HW1 4391   5.852   2.759   4.308
 1164SOL    HW2 4392   5.842   2.604   4.259
 1165SOL     OW 4393   1.640   4.419   4.518
 1165SOL    HW1 4394   1.696   4.491   4.559
 1165SOL    HW2 4395   1.695   4.368   4.452
 1166SOL     OW 4396   3.643   0.875   0.269
 1166SOL    HW1 4397   3.652   0.947   0.337
 1166SOL    HW2 4398   3.639   0.786   0.315
 1167SOL     OW 4399   3.705   0.064   6.336
 1167SOL    HW1 4400   3.609   0.079   6.357
 1167SOL    HW2 4401   3.718   0.062   6.237
 1168SOL     OW 4402   6.879   1.234   3.342
 1168SOL    HW1 4403   6.875   1.224   3.242
 1168SOL    HW2 4404   6.790   1.264   3.376
 1169SOL     OW 4405   5.994   3.252   6.424
 1169SOL    HW1 4406   6.059   3.212   6.359
 1169SOL    HW2 4407   5.924   3.304   6.374
 1170SOL     OW 4408   5.018   0.883   1.838
 1170SOL    HW1 4409   5.019   0.833   1.925
 1170SOL    HW2 4410   4.941   0.947   1.837
 1171SOL     OW 4411   2.725   6.312   6.728
 1171SOL    HW1 4412   2.628   6.295   6.712
 1171SOL    HW2 4413   2.755   6.390   6.674
 1172SOL     OW 4414   3.768   4.042   2.718
 1172SOL    HW1 4415   3.733   4.079   2.804
 1172SOL    HW2 4416   3.713   3.963   2.691
 1173SOL     OW 4417   3.207   6.909   5.552
 1173SOL    HW1 4418   3.154   6.824   5.550
 1173SOL    HW2 4419   3.152   6.983   5.512
 1174SOL     OW 4420   3.737   4.823   0.351
 1174SOL    HW1 4421   3.721   4.730   0.385
 1174SOL    HW2 4422   3.663   4.882   0.382
 1175SOL     OW 4423   4.410   3.455   6.579
 1175SOL    HW1 4424   4.466   3.462   6.497
 1175SOL    HW2 4425   4.348   3.377   6.571
 1176SOL     OW 4426   5.586   4.353   1.027
 1176SOL    HW1 4427   5.547   4.425   1.085
 1176SOL    HW2 4428   5.662   4.309   1.076
 1177SOL     OW 4429   0.294   1.723   5.747
 1177SOL    HW1 4430   0.282   1.699   5.651
 1177SOL    HW2 4431   0.215   1.692   5.799
 1178SOL     OW 4432   3.878   3.048   1.427
 1178SOL    HW1 4433   3.803   3.051   1.360
 1178SOL    HW2 4434   3.840   3.036   1.519
 1179SOL     OW 4435   2.933   5.518   6.954
 1179SOL    HW1 4436   3.013   5.473   6.994
 1179SOL    HW2 4437   2.898   5.586   7.018
 1180SOL     OW 4438   2.543   6.558   4.003
 1180SOL    HW1 4439   2.596   6.619   4.062
 1180SOL    HW2 4440   2.539   6.597   3.911
 1181SOL     OW 4441   6.932   2.983   4.838
 1181SOL    HW1 4442   6.956   2.933   4.754
 1181SOL    HW2 4443   6.887   3.069   4.813
 1182SOL     OW 4444   2.349   5.196   3.490
 1182SOL    HW1 4445   2.358   5.289   3.527
 1182SOL    HW2 4446   2.254   5.180   3.465
 1183SOL     OW 4447   3.847   6.298   1.323
 1183SOL    HW1 4448   3.824   6.372   1.386
 1183SOL    HW2 4449   3.922   6.243   1.360
 1184SOL     OW 4450   4.334   0.986   5.826
 1184SOL    HW1 4451   4.303   1.018   5.915
 1184SOL    HW2 4452   4.296   1.046   5.755
 1185SOL     OW 4453   1.949   0.156   0.623
 1185SOL    HW1 4454   1.926   0.251   0.600
 1185SOL    HW2 4455   1.964   0.104   0.539
 1186SOL     OW 4456   5.979   6.061   6.533
 1186SOL    HW1 4457   5.953   6.134   6.470
 1186SOL    HW2 4458   5.950   5.973   6.495
 1187SOL     OW 4459   5.186   6.269   5.478
 1187SOL    HW1 4460   5.223   6.176   5.490
 1187SOL    HW2 4461   5.096   6.274   5.522
 1188SOL     OW 4462   3.403   6.077   6.616
 1188SOL    HW1 4463   3.423   5.993   6.567
 1188SOL    HW2 4464   3.485   6.107   6.666
 1189SOL     OW 4465   5.424   0.657   1.924
 1189SOL    HW1 4466   5.417   0.592   1.848
 1189SOL    HW2 4467   5.370   0.739   1.903
 1190SOL     OW 4468   4.076   4.963   4.327
 1190SOL    HW1 4469   4.059   4.905   4.248
 1190SOL    HW2 4470   4.012   4.940   4.400
 1191SOL     OW 4471   4.111   6.378   5.088
 1191SOL    HW1 4472   4.042   6.419   5.029
 1191SOL    HW2 4473   4.086   6.283   5.109
 1192SOL     OW 4474   5.394   5.481   3.069
 1192SOL    HW1 4475   5.454   5.449   3.143
 1192SOL    HW2 4476   5.333   5.552   3.103
 1193SOL     OW 4477   6.951   0.268   5.273
 1193SOL    HW1 4478   6.935   0.243   5.177
 1193SOL    HW2 4479   7.002   0.196   5.319
 1194SOL     OW 4480   6.768   1.706   0.800
 1194SOL    HW1 4481   6.673   1.738   0.801
 1194SOL    HW2 4482   6.773   1.615   0.839
 1195SOL     OW 4483   6.010   3.070   1.343
 1195SOL    HW1 4484   5.922   3.029   1.316
 1195SOL    HW2 4485   6.041   3.030   1.428
 1196SOL     OW 4486   6.850   4.393   1.757
 1196SOL    HW1 4487   6.873   4.418   1.662
 1196SOL    HW2 4488   6.927   4.415   1.816
 1197SOL     OW 4489   4.442   6.780   4.596
 1197SOL    HW1 4490   4.374   6.796   4.524
 1197SOL    HW2 4491   4.430   6.688   4.633
 1198SOL     OW 4492   1.558   2.915   2.831
 1198SOL    HW1 4493   1.641   2.870   2.798
 1198SOL    HW2 4494   1.487   2.846   2.848
 1199SOL     OW 4495   3.626   2.907   3.601
 1199SOL    HW1 4496   3.615   2.874   3.694
 1199SOL    HW2 4497   3.721   2.934   3.586
 1200SOL     OW 4498   3.783   4.187   4.913
 1200SOL    HW1 4499   3.758   4.138   4.829
 1200SOL    HW2 4500   3.814   4.279   4.890
 1201SOL     OW 4501   0.288   1.183   4.183
 1201SOL    HW1 4502   0.241   1.203   4.269
 1201SOL    HW2 4503   0.374   1.136   4.203
 1202SOL     OW 4504   5.692   1.188   6.370
 1202SOL    HW1 4505   5.691   1.205   6.272
 1202SOL    HW2 4506   5.621   1.122   6.393
 1203SOL     OW 4507   6.446   6.585   1.290
 1203SOL    HW1 4508   6.398   6.598   1.377
 1203SOL    HW2 4509   6.534   6.540   1.306
 1204SOL     OW 4510   4.254   1.341   1.546
 1204SOL    HW1 4511   4.175   1.382   1.592
 1204SOL    HW2 4512   4.271   1.388   1.459
 1205SOL     OW 4513   4.433   3.413   6.290
 1205SOL    HW1 4514   4.353   3.415   6.230
 1205SOL    HW2 4515   4.469   3.320   6.296
 1206SOL     OW 4516   0.965   2.335   4.735
 1206SOL    HW1 4517   1.048   2.281   4.748
 1206SOL    HW2 4518   0.922   2.353   4.824
 1207SOL     OW 4519   0.426   6.615   6.897
 1207SOL    HW1 4520   0.411   6.704   6.854
 1207SOL    HW2 4521   0.343   6.587   6.946
 1208SOL     OW 4522   3.151   4.012   2.470
 1208SOL    HW1 4523   3.084   3.959   2.523
 1208SOL    HW2 4524   3.123   4.015   2.374
 1209SOL     OW 4525   5.232   0.088   4.630
 1209SOL    HW1 4526   5.258   0.126   4.541
 1209SOL    HW2 4527   5.213   7.013   4.620
 1210SOL     OW 4528   4.344   6.639   3.617
 1210SOL    HW1 4529   4.388   6.591   3.692
 1210SOL    HW2 4530   4.377   6.734   3.613
 1211SOL     OW 4531   1.255   3.236   3.349
 1211SOL    HW1 4532   1.345   3.218   3.311
 1211SOL    HW2 4533   1.185   3.207   3.284
 1212SOL     OW 4534   6.945   1.305   5.685
 1212SOL    HW1 4535   6.909   1.214   5.701
 1212SOL    HW2 4536   6.890   1.351   5.614
 1213SOL     OW 4537   5.642   3.096   3.704
 1213SOL    HW1 4538   5.654   2.997   3.690
 1213SOL    HW2 4539   5.700   3.146   3.641
 1214SOL     OW 4540   0.952   2.504   5.560
 1214SOL    HW1 4541   0.899   2.565   5.618
 1214SOL    HW2 4542   1.044   2.542   5.547
 1215SOL     OW 4543   1.778   5.202   1.956
 1215SOL    HW1 4544   1.861   5.228   1.906
 1215SOL    HW2 4545   1.800   5.191   2.054
 1216SOL     OW 4546   0.128   0.702   0.616
 1216SOL    HW1 4547   0.124   0.800   0.595
 1216SOL    HW2 4548   0.156   0.652   0.535
 1217SOL     OW 4549   3.427   5.614   1.296
 1217SOL    HW1 4550   3.512   5.562   1.300
 1217SOL    HW2 4551   3.354   5.556   1.260
 1218SOL     OW 4552   0.835   3.466   5.910
 1218SOL    HW1 4553   0.857   3.541   5.847
 1218SOL    HW2 4554   0.737   3.466   5.930
 1219SOL     OW 4555   4.951   5.121   2.304
 1219SOL    HW1 4556   5.002   5.066   2.237
 1219SOL    HW2 4557   4.860   5.140   2.268
 1220SOL     OW 4558   6.250   3.862   2.832
 1220SOL    HW1 4559   6.346   3.883   2.850
 1220SOL    HW2 4560   6.206   3.832   2.917
 1221SOL     OW 4561   5.849   3.864   6.216
 1221SOL    HW1 4562   5.766   3.811   6.193
 1221SOL    HW2 4563   5.929   3.815   6.183
 1222SOL     OW 4564   0.613   0.586   6.982
 1222SOL    HW1 4565   0.516   0.593   7.006
 1222SOL    HW2 4566   0.628   0.502   6.929
 1223SOL     OW 4567   4.411   1.327   0.721
 1223SOL    HW1 4568   4.362   1.373   0.795
 1223SOL    HW2 4569   4.426   1.231   0.745
 1224SOL     OW 4570   3.006   5.621   6.714
 1224SOL    HW1 4571   2.982   5.576   6.628
 1224SOL    HW2 4572   2.976   5.564   6.790
 1225SOL     OW 4573   3.656   2.491   0.977
 1225SOL    HW1 4574   3.634   2.403   1.019
 1225SOL    HW2 4575   3.613   2.565   1.029
 1226SOL     OW 4576   5.137   6.449   0.913
 1226SOL    HW1 4577   5.230   6.414   0.901
 1226SOL    HW2 4578   5.073   6.373   0.905
 1227SOL     OW 4579   5.347   5.119   6.515
 1227SOL    HW1 4580   5.421   5.156   6.458
 1227SOL    HW2 4581   5.387   5.065   6.590
 1228SOL     OW 4582   3.913   2.360   0.631
 1228SOL    HW1 4583   3.852   2.434   0.602
 1228SOL    HW2 4584   3.882   2.324   0.719
 1229SOL     OW 4585   2.002   5.908   1.071
 1229SOL    HW1 4586   2.046   5.991   1.106
 1229SOL    HW2 4587   1.988   5.844   1.146
 1230SOL     OW 4588   5.664   5.249   2.563
 1230SOL    HW1 4589   5.671   5.349   2.563
 1230SOL    HW2 4590   5.736   5.210   2.506
 1231SOL     OW 4591   1.301   1.756   5.606
 1231SOL    HW1 4592   1.400   1.763   5.594
 1231SOL    HW2 4593   1.274   1.810   5.686
 1232SOL     OW 4594   5.551   1.406   5.480
 1232SOL    HW1 4595   5.637   1.406   5.428
 1232SOL    HW2 4596   5.540   1.319   5.527
 1233SOL     OW 4597   0.507   5.925   4.272
 1233SOL    HW1 4598   0.558   5.955   4.191
 1233SOL    HW2 4599   0.508   5.825   4.277
 1234SOL     OW 4600   6.198   2.890   5.536
 1234SOL    HW1 4601   6.295   2.883   5.515
 1234SOL    HW2 4602   6.152   2.944   5.466
 1235SOL     OW 4603   6.238   4.474   1.237
 1235SOL    HW1 4604   6.182   4.391   1.236
 1235SOL    HW2 4605   6.329   4.453   1.271
 1236SOL     OW 4606   4.033   1.414   1.903
 1236SOL    HW1 4607   3.991   1.360   1.976
 1236SOL    HW2 4608   4.025   1.511   1.926
 1237SOL     OW 4609   1.520   5.688   4.882
 1237SOL    HW1 4610   1.531   5.727   4.973
 1237SOL    HW2 4611   1.426   5.699   4.852
 1238SOL     OW 4612   0.490   0.580   5.052
 1238SOL    HW1 4613   0.530   0.620   4.970
 1238SOL    HW2 4614   0.425   0.644   5.092
 1239SOL     OW 4615   6.638   6.392   5.662
 1239SOL    HW1 4616   6.539   6.403   5.667
 1239SOL    HW2 4617   6.681   6.482   5.653
 1240SOL     OW 4618   6.131   5.461   2.249
 1240SOL    HW1 4619   6.111   5.537   2.187
 1240SOL    HW2 4620   6.181   5.390   2.199
 1241SOL     OW 4621   6.247   4.999   5.101
 1241SOL    HW1 4622   6.300   5.067   5.153
 1241SOL    HW2 4623   6.311   4.938   5.053
 1242SOL     OW 4624   2.119   3.322   0.368
 1242SOL    HW1 4625   2.125   3.409   0.417
 1242SOL    HW2 4626   2.198   3.265   0.393
 1243SOL     OW 4627   0.085   1.281   4.404
 1243SOL    HW1 4628   0.019   1.319   4.339
 1243SOL    HW2 4629   0.085   1.335   4.488
 1244SOL     OW 4630   5.106   6.565   4.829
 1244SOL    HW1 4631   5.016   6.524   4.842
 1244SOL    HW2 4632   5.108   6.656   4.869
 1245SOL     OW 4633   5.859   4.806   0.679
 1245SOL    HW1 4634   5.832   4.710   0.691
 1245SOL    HW2 4635   5.958   4.815   0.694
 1246SOL     OW 4636   3.493   0.982   2.186
 1246SOL    HW1 4637   3.447   0.913   2.131
 1246SOL    HW2 4638   3.582   1.003   2.145
 1247SOL     OW 4639   5.600   0.203   5.460
 1247SOL    HW1 4640   5.669   0.237   5.524
 1247SOL    HW2 4641   5.549   0.280   5.422
 1248SOL     OW 4642   1.112   6.560   3.847
 1248SOL    HW1 4643   1.096   6.471   3.803
 1248SOL    HW2 4644   1.038   6.623   3.822
 1249SOL     OW 4645   0.353   3.472   1.799
 1249SOL    HW1 4646   0.318   3.435   1.885
 1249SOL    HW2 4647   0.326   3.568   1.791
 1250SOL     OW 4648   6.281   4.377   4.029
 1250SOL    HW1 4649   6.307   4.358   3.934
 1250SOL    HW2 4650   6.276   4.475   4.043
 1251SOL     OW 4651   2.264   0.730   2.417
 1251SOL    HW1 4652   2.356   0.769   2.427
 1251SOL    HW2 4653   2.198   0.804   2.408
 1252SOL     OW 4654   3.831   4.520   6.377
 1252SOL    HW1 4655   3.802   4.607   6.338
 1252SOL    HW2 4656   3.843   4.452   6.304
 1253SOL     OW 4657   2.830   0.436   1.872
 1253SOL    HW1 4658   2.769   0.383   1.815
 1253SOL    HW2 4659   2.807   0.422   1.969
 1254SOL     OW 4660   6.799   2.572   3.686
 1254SOL    HW1 4661   6.877   2.617   3.642
 1254SOL    HW2 4662   6.795   2.597   3.782
 1255SOL     OW 4663   5.981   2.536   5.914
 1255SOL    HW1 4664   6.004   2.509   6.007
 1255SOL    HW2 4665   5.908   2.605   5.917
 1256SOL     OW 4666   0.318   6.380   4.110
 1256SOL    HW1 4667   0.255   6.317   4.155
 1256SOL    HW2 4668   0.349   6.340   4.024
 1257SOL     OW 4669   6.793   5.377   4.280
 1257SOL    HW1 4670   6.732   5.451   4.250
 1257SOL    HW2 4671   6.770   5.351   4.373
 1258SOL     OW 4672   2.068   5.001   2.939
 1258SOL    HW1 4673   2.107   4.938   3.007
 1258SOL    HW2 4674   2.109   5.092   2.951
 1259SOL     OW 4675   3.616   6.177   5.061
 1259SOL    HW1 4676   3.540   6.140   5.115
 1259SOL    HW2 4677   3.581   6.223   4.980
 1260SOL     OW 4678   2.929   1.267   1.442
 1260SOL    HW1 4679   2.896   1.206   1.514
 1260SOL    HW2 4680   2.975   1.346   1.483
 1261SOL     OW 4681   0.243   4.228   6.952
 1261SOL    HW1 4682   0.325   4.216   7.008
 1261SOL    HW2 4683   0.224   4.325   6.942
 1262SOL     OW 4684   5.070   5.647   1.718
 1262SOL    HW1 4685   5.151   5.706   1.721
 1262SOL    HW2 4686   5.097   5.554   1.693
 1263SOL     OW 4687   6.349   1.225   1.242
 1263SOL    HW1 4688   6.394   1.145   1.201
 1263SOL    HW2 4689   6.412   1.268   1.307
 1264SOL     OW 4690   0.648   3.919   1.349
 1264SOL    HW1 4691   0.685   3.882   1.434
 1264SOL    HW2 4692   0.548   3.909   1.349
 1265SOL     OW 4693   6.526   5.142   3.812
 1265SOL    HW1 4694   6.474   5.113   3.731
 1265SOL    HW2 4695   6.502   5.084   3.889
 1266SOL     OW 4696   1.174   1.253   4.077
 1266SOL    HW1 4697   1.176   1.154   4.063
 1266SOL    HW2 4698   1.233   1.276   4.154
 1267SOL     OW 4699   5.692   6.656   1.223
 1267SOL    HW1 4700   5.625   6.618   1.288
 1267SOL    HW2 4701   5.654   6.651   1.131
 1268SOL     OW 4702   4.928   2.209   0.314
 1268SOL    HW1 4703   4.860   2.255   0.371
 1268SOL    HW2 4704   4.896   2.117   0.290
 1269SOL     OW 4705   6.078   6.453   5.774
 1269SOL    HW1 4706   6.141   6.377   5.757
 1269SOL    HW2 4707   5.984   6.420   5.767
 1270SOL     OW 4708   2.254   3.017   4.843
 1270SOL    HW1 4709   2.285   3.015   4.938
 1270SOL    HW2 4710   2.289   2.936   4.795
 1271SOL     OW 4711   3.528   2.009   3.512
 1271SOL    HW1 4712   3.519   1.910   3.509
 1271SOL    HW2 4713   3.459   2.047   3.573
 1272SOL     OW 4714   6.003   5.687   0.585
 1272SOL    HW1 4715   6.097   5.714   0.600
 1272SOL    HW2 4716   6.001   5.599   0.536
 1273SOL     OW 4717   1.045   4.493   0.299
 1273SOL    HW1 4718   1.000   4.481   0.210
 1273SOL    HW2 4719   1.083   4.585   0.305
 1274SOL     OW 4720   6.281   2.827   1.170
 1274SOL    HW1 4721   6.236   2.904   1.124
 1274SOL    HW2 4722   6.359   2.861   1.224
 1275SOL     OW 4723   3.865   6.945   4.358
 1275SOL    HW1 4724   3.917   6.911   4.279
 1275SOL    HW2 4725   3.902   0.011   4.386
 1276SOL     OW 4726   6.973   0.683   4.611
 1276SOL    HW1 4727   6.914   0.699   4.533
 1276SOL    HW2 4728   6.923   0.630   4.680
 1277SOL     OW 4729   0.936   0.022   5.646
 1277SOL    HW1 4730   0.861   0.088   5.649
 1277SOL    HW2 4731   0.950   7.005   5.736
 1278SOL     OW 4732   1.064   0.755   5.078
 1278SOL    HW1 4733   1.122   0.799   5.009
 1278SOL    HW2 4734   1.110   0.759   5.167
 1279SOL     OW 4735   3.756   5.296   0.001
 1279SOL    HW1 4736   3.850   5.290   0.035
 1279SOL    HW2 4737   3.730   5.210   6.980
 1280SOL     OW 4738   3.512   5.712   4.101
 1280SOL    HW1 4739   3.449   5.779   4.061
 1280SOL    HW2 4740   3.592   5.759   4.137
 1281SOL     OW 4741   1.104   5.499   2.591
 1281SOL    HW1 4742   1.103   5.399   2.586
 1281SOL    HW2 4743   1.198   5.532   2.589
 1282SOL     OW 4744   0.336   1.016   6.467
 1282SOL    HW1 4745   0.384   0.935   6.499
 1282SOL    HW2 4746   0.264   0.990   6.402
 1283SOL     OW 4747   5.290   3.097   5.371
 1283SOL    HW1 4748   5.223   3.135   5.308
 1283SOL    HW2 4749   5.362   3.164   5.388
 1284SOL     OW 4750   4.621   2.124   2.313
 1284SOL    HW1 4751   4.645   2.036   2.355
 1284SOL    HW2 4752   4.522   2.128   2.300
 1285SOL     OW 4753   4.713   3.411   6.195
 1285SOL    HW1 4754   4.669   3.334   6.240
 1285SOL    HW2 4755   4.651   3.449   6.125
 1286SOL     OW 4756   5.275   3.416   2.585
 1286SOL    HW1 4757   5.373   3.423   2.566
 1286SOL    HW2 4758   5.260   3.430   2.683
 1287SOL     OW 4759   4.524   4.048   5.589
 1287SOL    HW1 4760   4.512   4.023   5.493
 1287SOL    HW2 4761   4.459   3.996   5.645
 1288SOL     OW 4762   5.794   3.373   0.195
 1288SOL    HW1 4763   5.732   3.306   0.235
 1288SOL    HW2 4764   5.816   3.347   0.101
 1289SOL     OW 4765   0.284   6.210   1.176
 1289SOL    HW1 4766   0.241   6.149   1.110
 1289SOL    HW2 4767   0.244   6.196   1.267
 1290SOL     OW 4768   0.927   0.284   6.910
 1290SOL    HW1 4769   0.914   0.365   6.854
 1290SOL    HW2 4770   0.914   0.202   6.854
 1291SOL     OW 4771   0.007   3.579   5.621
 1291SOL    HW1 4772   6.935   3.555   5.599
 1291SOL    HW2 4773   0.012   3.677   5.642
 1292SOL     OW 4774   6.570   6.059   2.498
 1292SOL    HW1 4775   6.610   6.114   2.424
 1292SOL    HW2 4776   6.597   6.098   2.586
 1293SOL     OW 4777   1.444   1.584   6.793
 1293SOL    HW1 4778   1.446   1.639   6.710
 1293SOL    HW2 4779   1.389   1.502   6.777
 1294SOL     OW 4780   1.679   3.668   0.017
 1294SOL    HW1 4781   1.763   3.713   7.008
 1294SOL    HW2 4782   1.603   3.697   6.982
 1295SOL     OW 4783   0.120   3.962   2.855
 1295SOL    HW1 4784   0.126   3.899   2.777
 1295SOL    HW2 4785   0.025   3.988   2.871
 1296SOL     OW 4786   3.495   0.367   6.025
 1296SOL    HW1 4787   3.435   0.387   6.103
 1296SOL    HW2 4788   3.464   0.283   5.981
 1297SOL     OW 4789   6.007   0.617   0.061
 1297SOL    HW1 4790   6.037   0.705   0.097
 1297SOL    HW2 4791   5.917   0.627   0.019
 1298SOL     OW 4792   6.576   4.849   3.003
 1298SOL    HW1 4793   6.640   4.913   3.045
 1298SOL    HW2 4794   6.482   4.876   3.026
 1299SOL     OW 4795   0.192   4.049   3.263
 1299SOL    HW1 4796   0.239   4.137   3.258
 1299SOL    HW2 4797   0.254   3.979   3.300
 1300SOL     OW 4798   3.544   3.914   2.117
 1300SOL    HW1 4799   3.481   3.990   2.130
 1300SOL    HW2 4800   3.494   3.836   2.079
 1301SOL     OW 4801   0.347   5.258   2.163
 1301SOL    HW1 4802   0.343   5.267   2.263
 1301SOL    HW2 4803   0.341   5.348   2.121
 1302SOL     OW 4804   3.592   0.028   5.347
 1302SOL    HW1 4805   3.673   0.023   5.406
 1302SOL    HW2 4806   3.564   0.123   5.336
 1303SOL     OW 4807   4.608   1.568   1.490
 1303SOL    HW1 4808   4.522   1.575   1.540
 1303SOL    HW2 4809   4.648   1.659   1.481
 1304SOL     OW 4810   1.036   1.151   6.978
 1304SOL    HW1 4811   0.976   1.144   0.036
 1304SOL    HW2 4812   0.987   1.196   6.904
 1305SOL     OW 4813   5.066   3.523   0.092
 1305SOL    HW1 4814   5.132   3.517   0.167
 1305SOL    HW2 4815   5.000   3.596   0.111
 1306SOL     OW 4816   0.877   4.026   5.550
 1306SOL    HW1 4817   0.929   4.032   5.464
 1306SOL    HW2 4818   0.941   4.013   5.626
 1307SOL     OW 4819   1.237   3.320   5.078
 1307SOL    HW1 4820   1.290   3.359   5.153
 1307SOL    HW2 4821   1.151   3.370   5.069
 1308SOL     OW 4822   4.244   5.538   4.857
 1308SOL    HW1 4823   4.211   5.631   4.875
 1308SOL    HW2 4824   4.171   5.472   4.875
 1309SOL     OW 4825   5.232   2.818   5.750
 1309SOL    HW1 4826   5.175   2.887   5.704
 1309SOL    HW2 4827   5.319   2.860   5.776
 1310SOL     OW 4828   0.202   4.266   5.230
 1310SOL    HW1 4829   0.283   4.209   5.244
 1310SOL    HW2 4830   0.154   4.235   5.148
 1311SOL     OW 4831   0.074   0.612   4.166
 1311SOL    HW1 4832   0.139   0.657   4.227
 1311SOL    HW2 4833   0.109   0.616   4.072
 1312SOL     OW 4834   0.825   0.146   6.410
 1312SOL    HW1 4835   0.823   0.206   6.330
 1312SOL    HW2 4836   0.920   0.127   6.434
 1313SOL     OW 4837   1.470   4.670   4.105
 1313SOL    HW1 4838   1.528   4.716   4.173
 1313SOL    HW2 4839   1.523   4.649   4.024
 1314SOL     OW 4840   3.787   1.421   5.527
 1314SOL    HW1 4841   3.690   1.444   5.532
 1314SOL    HW2 4842   3.807   1.349   5.593
 1315SOL     OW 4843   0.548   0.690   0.568
 1315SOL    HW1 4844   0.590   0.690   0.659
 1315SOL    HW2 4845   0.451   0.669   0.576
 1316SOL     OW 4846   2.662   6.532   4.378
 1316SOL    HW1 4847   2.649   6.570   4.469
 1316SOL    HW2 4848   2.735   6.580   4.331
 1317SOL     OW 4849   1.194   4.185   4.153
 1317SOL    HW1 4850   1.106   4.141   4.133
 1317SOL    HW2 4851   1.267   4.118   4.147
 1318SOL     OW 4852   0.524   1.223   0.731
 1318SOL    HW1 4853   0.489   1.134   0.761
 1318SOL    HW2 4854   0.560   1.216   0.638
 1319SOL     OW 4855   0.104   0.743   0.171
 1319SOL    HW1 4856   0.092   0.667   0.235
 1319SOL    HW2 4857   0.067   0.826   0.211
 1320SOL     OW 4858   5.715   4.227   0.597
 1320SOL    HW1 4859   5.733   4.153   0.662
 1320SOL    HW2 4860   5.696   4.188   0.507
 1321SOL     OW 4861   4.653   2.297   5.988
 1321SOL    HW1 4862   4.727   2.359   6.014
 1321SOL    HW2 4863   4.688   2.204   5.982
 1322SOL     OW 4864   4.122   0.533   3.869
 1322SOL    HW1 4865   4.048   0.600   3.878
 1322SOL    HW2 4866   4.091   0.445   3.904
 1323SOL     OW 4867   5.465   2.153   4.570
 1323SOL    HW1 4868   5.433   2.213   4.496
 1323SOL    HW2 4869   5.456   2.200   4.658
 1324SOL     OW 4870   0.847   2.711   0.608
 1324SOL    HW1 4871   0.887   2.639   0.666
 1324SOL    HW2 4872   0.914   2.785   0.597
 1325SOL     OW 4873   1.669   6.545   2.287
 1325SOL    HW1 4874   1.768   6.531   2.282
 1325SOL    HW2 4875   1.638   6.525   2.380
 1326SOL     OW 4876   4.566   2.839   5.085
 1326SOL    HW1 4877   4.647   2.888   5.051
 1326SOL    HW2 4878   4.545   2.763   5.024
 1327SOL     OW 4879   2.094   4.469   1.731
 1327SOL    HW1 4880   2.189   4.494   1.713
 1327SOL    HW2 4881   2.051   4.435   1.647
 1328SOL     OW 4882   1.571   2.869   1.007
 1328SOL    HW1 4883   1.596   2.791   0.950
 1328SOL    HW2 4884   1.495   2.919   0.964
 1329SOL     OW 4885   1.314   2.531   0.700
 1329SOL    HW1 4886   1.322   2.631   0.692
 1329SOL    HW2 4887   1.255   2.508   0.778
 1330SOL     OW 4888   6.719   1.314   1.718
 1330SOL    HW1 4889   6.689   1.252   1.790
 1330SOL    HW2 4890   6.698   1.275   1.629
 1331SOL     OW 4891   5.010   2.094   3.258
 1331SOL    HW1 4892   5.058   2.156   3.321
 1331SOL    HW2 4893   5.053   2.004   3.261
 1332SOL     OW 4894   3.148   7.022   0.180
 1332SOL    HW1 4895   3.167   6.935   0.225
 1332SOL    HW2 4896   3.110   7.006   0.089
 1333SOL     OW 4897   3.227   3.260   6.030
 1333SOL    HW1 4898   3.286   3.211   5.967
 1333SOL    HW2 4899   3.266   3.350   6.049
 1334SOL     OW 4900   7.003   2.609   4.660
 1334SOL    HW1 4901   6.958   2.534   4.611
 1334SOL    HW2 4902   6.955   2.694   4.641
 1335SOL     OW 4903   2.602   0.555   3.310
 1335SOL    HW1 4904   2.687   0.566   3.258
 1335SOL    HW2 4905   2.525   0.552   3.247
 1336SOL     OW 4906   2.048   1.040   6.820
 1336SOL    HW1 4907   2.042   0.969   6.749
 1336SOL    HW2 4908   1.956   1.069   6.845
 1337SOL     OW 4909   1.515   1.197   5.132
 1337SOL    HW1 4910   1.542   1.292   5.116
 1337SOL    HW2 4911   1.501   1.182   5.230
 1338SOL     OW 4912   5.864   2.865   6.109
 1338SOL    HW1 4913   5.875   2.911   6.197
 1338SOL    HW2 4914   5.767   2.854   6.089
 1339SOL     OW 4915   0.303   0.556   6.999
 1339SOL    HW1 4916   0.275   0.652   7.008
 1339SOL    HW2 4917   0.224   0.497   7.014
 1340SOL     OW 4918   0.448   1.726   1.821
 1340SOL    HW1 4919   0.448   1.825   1.829
 1340SOL    HW2 4920   0.382   1.698   1.751
 1341SOL     OW 4921   4.800   1.015   5.860
 1341SOL    HW1 4922   4.760   1.105   5.881
 1341SOL    HW2 4923   4.732   0.959   5.813
 1342SOL     OW 4924   1.449   4.828   6.127
 1342SOL    HW1 4925   1.369   4.771   6.110
 1342SOL    HW2 4926   1.513   4.780   6.187
 1343SOL     OW 4927   4.589   5.912   2.383
 1343SOL    HW1 4928   4.530   5.832   2.378
 1343SOL    HW2 4929   4.608   5.946   2.291
 1344SOL     OW 4930   6.795   4.494   4.037
 1344SOL    HW1 4931   6.884   4.539   4.033
 1344SOL    HW2 4932   6.803   4.400   4.004
 1345SOL     OW 4933   2.108   1.347   3.442
 1345SOL    HW1 4934   2.071   1.429   3.485
 1345SOL    HW2 4935   2.097   1.269   3.504
 1346SOL     OW 4936   0.870   6.706   3.822
 1346SOL    HW1 4937   0.773   6.710   3.798
 1346SOL    HW2 4938   0.892   6.780   3.885
 1347SOL     OW 4939   6.292   6.365   4.384
 1347SOL    HW1 4940   6.308   6.368   4.286
 1347SOL    HW2 4941   6.275   6.458   4.418
 1348SOL     OW 4942   5.190   4.688   3.071
 1348SOL    HW1 4943   5.267   4.750   3.078
 1348SOL    HW2 4944   5.222   4.598   3.041
 1349SOL     OW 4945   4.957   2.172   6.829
 1349SOL    HW1 4946   5.004   2.084   6.834
 1349SOL    HW2 4947   5.013   2.242   6.872
 1350SOL     OW 4948   4.660   4.254   6.105
 1350SOL    HW1 4949   4.712   4.311   6.169
 1350SOL    HW2 4950   4.703   4.258   6.015
 1351SOL     OW 4951   6.887   2.332   2.866
 1351SOL    HW1 4952   6.822   2.409   2.864
 1351SOL    HW2 4953   6.847   2.254   2.817
 1352SOL     OW 4954   6.604   0.324   3.143
 1352SOL    HW1 4955   6.546   0.343   3.064
 1352SOL    HW2 4956   6.700   0.333   3.116
 1353SOL     OW 4957   6.122   4.423   5.909
 1353SOL    HW1 4958   6.132   4.403   6.006
 1353SOL    HW2 4959   6.080   4.344   5.863
 1354SOL     OW 4960   0.923   2.110   0.289
 1354SOL    HW1 4961   0.899   2.207   0.294
 1354SOL    HW2 4962   0.841   2.057   0.265
 1355SOL     OW 4963   6.767   2.363   5.268
 1355SOL    HW1 4964   6.771   2.462   5.260
 1355SOL    HW2 4965   6.791   2.321   5.181
 1356SOL     OW 4966   3.000   3.170   3.812
 1356SOL    HW1 4967   2.998   3.170   3.912
 1356SOL    HW2 4968   3.093   3.190   3.781
 1357SOL     OW 4969   2.017   4.132   5.610
 1357SOL    HW1 4970   2.029   4.184   5.526
 1357SOL    HW2 4971   2.099   4.140   5.667
 1358SOL     OW 4972   4.482   1.427   5.932
 1358SOL    HW1 4973   4.548   1.502   5.936
 1358SOL    HW2 4974   4.393   1.463   5.902
 1359SOL     OW 4975   0.372   4.765   1.339
 1359SOL    HW1 4976   0.469   4.791   1.331
 1359SOL    HW2 4977   0.328   4.822   1.408
 1360SOL     OW 4978   4.118   3.867   1.673
 1360SOL    HW1 4979   4.041   3.916   1.631
 1360SOL    HW2 4980   4.128   3.897   1.768
 1361SOL     OW 4981   0.095   5.977   5.812
 1361SOL    HW1 4982   0.181   5.937   5.778
 1361SOL    HW2 4983   0.116   6.050   5.877
 1362SOL     OW 4984   2.990   3.847   3.955
 1362SOL    HW1 4985   3.058   3.838   4.027
 1362SOL    HW2 4986   2.957   3.942   3.952
 1363SOL     OW 4987   6.632   5.761   3.803
 1363SOL    HW1 4988   6.587   5.679   3.768
 1363SOL    HW2 4989   6.572   5.806   3.869
 1364SOL     OW 4990   0.415   2.339   0.021
 1364SOL    HW1 4991   0.497   2.286   0.042
 1364SOL    HW2 4992   0.377   2.377   0.105
 1365SOL     OW 4993   1.093   2.741   5.734
 1365SOL    HW1 4994   1.027   2.800   5.782
 1365SOL    HW2 4995   1.184   2.783   5.738
 1366SOL     OW 4996   1.226   4.238   0.331
 1366SOL    HW1 4997   1.175   4.317   0.295
 1366SOL    HW2 4998   1.238   4.249   0.430
 1367SOL     OW 4999   1.386   5.513   2.583
 1367SOL    HW1 5000   1.436   5.596   2.561
 1367SOL    HW2 5001   1.394   5.494   2.681
 1368SOL     OW 5002   6.864   6.939   3.354
 1368SOL    HW1 5003   6.939   6.880   3.385
 1368SOL    HW2 5004   6.866   6.946   3.254
 1369SOL     OW 5005   1.880   0.514   2.350
 1369SOL    HW1 5006   1.957   0.455   2.372
 1369SOL    HW2 5007   1.879   0.592   2.412
 1370SOL     OW 5008   4.708   1.730   3.719
 1370SOL    HW1 5009   4.688   1.777   3.805
 1370SOL    HW2 5010   4.729   1.797   3.648
 1371SOL     OW 5011   5.658   1.472   4.701
 1371SOL    HW1 5012   5.600   1.489   4.621
 1371SOL    HW2 5013   5.601   1.451   4.780
 1372SOL     OW 5014   1.228   2.251   0.913
 1372SOL    HW1 5015   1.144   2.236   0.964
 1372SOL    HW2 5016   1.244   2.174   0.851
 1373SOL     OW 5017   4.436   2.527   0.705
 1373SOL    HW1 5018   4.494   2.546   0.784
 1373SOL    HW2 5019   4.398   2.435   0.713
 1374SOL     OW 5020   4.384   2.052   1.299
 1374SOL    HW1 5021   4.422   2.043   1.391
 1374SOL    HW2 5022   4.323   1.974   1.281
 1375SOL     OW 5023   7.019   6.844   6.202
 1375SOL    HW1 5024   0.050   6.760   6.191
 1375SOL    HW2 5025   6.936   6.824   6.255
 1376SOL     OW 5026   4.475   4.786   5.040
 1376SOL    HW1 5027   4.433   4.842   4.968
 1376SOL    HW2 5028   4.478   4.691   5.010
 1377SOL     OW 5029   0.977   3.614   3.821
 1377SOL    HW1 5030   0.940   3.689   3.876
 1377SOL    HW2 5031   0.903   3.552   3.796
 1378SOL     OW 5032   6.120   2.363   4.390
 1378SOL    HW1 5033   6.097   2.393   4.483
 1378SOL    HW2 5034   6.138   2.442   4.332
 1379SOL     OW 5035   4.414   6.289   3.495
 1379SOL    HW1 5036   4.388   6.378   3.459
 1379SOL    HW2 5037   4.368   6.273   3.582
 1380SOL     OW 5038   0.443   6.550   3.323
 1380SOL    HW1 5039   0.491   6.470   3.359
 1380SOL    HW2 5040   0.492   6.585   3.243
 1381SOL     OW 5041   5.856   1.975   0.456
 1381SOL    HW1 5042   5.825   2.070   0.449
 1381SOL    HW2 5043   5.780   1.918   0.487
 1382SOL     OW 5044   5.779   3.322   1.227
 1382SOL    HW1 5045   5.866   3.308   1.180
 1382SOL    HW2 5046   5.727   3.394   1.180
 1383SOL     OW 5047   0.942   0.773   2.015
 1383SOL    HW1 5048   1.010   0.810   2.078
 1383SOL    HW2 5049   0.985   0.759   1.925
 1384SOL     OW 5050   4.394   0.959   1.961
 1384SOL    HW1 5051   4.449   0.966   1.878
 1384SOL    HW2 5052   4.455   0.960   2.041
 1385SOL     OW 5053   2.632   4.754   3.325
 1385SOL    HW1 5054   2.622   4.827   3.393
 1385SOL    HW2 5055   2.644   4.793   3.234
 1386SOL     OW 5056   3.035   1.118   4.440
 1386SOL    HW1 5057   3.079   1.060   4.371
 1386SOL    HW2 5058   3.073   1.210   4.436
 1387SOL     OW 5059   3.903   5.305   2.658
 1387SOL    HW1 5060   3.981   5.280   2.715
 1387SOL    HW2 5061   3.818   5.278   2.703
 1388SOL     OW 5062   6.782   0.420   2.781
 1388SOL    HW1 5063   6.719   0.493   2.754
 1388SOL    HW2 5064   6.857   0.415   2.716
 1389SOL     OW 5065   6.455   0.607   3.895
 1389SOL    HW1 5066   6.420   0.609   3.989
 1389SOL    HW2 5067   6.465   0.512   3.865
 1390SOL     OW 5068   6.604   2.898   6.111
 1390SOL    HW1 5069   6.697   2.864   6.115
 1390SOL    HW2 5070   6.588   2.940   6.022
 1391SOL     OW 5071   6.090   6.587   4.826
 1391SOL    HW1 5072   6.096   6.488   4.818
 1391SOL    HW2 5073   6.165   6.621   4.883
 1392SOL     OW 5074   6.105   6.581   5.487
 1392SOL    HW1 5075   6.096   6.573   5.587
 1392SOL    HW2 5076   6.097   6.677   5.461
 1393SOL     OW 5077   6.933   4.357   6.349
 1393SOL    HW1 5078   6.923   4.259   6.330
 1393SOL    HW2 5079   6.904   4.409   6.269
 1394SOL     OW 5080   3.863   5.406   5.648
 1394SOL    HW1 5081   3.783   5.448   5.690
 1394SOL    HW2 5082   3.835   5.345   5.575
 1395SOL     OW 5083   2.095   4.540   4.917
 1395SOL    HW1 5084   2.108   4.613   4.849
 1395SOL    HW2 5085   2.182   4.523   4.963
 1396SOL     OW 5086   0.459   1.715   5.144
 1396SOL    HW1 5087   0.481   1.689   5.238
 1396SOL    HW2 5088   0.527   1.674   5.082
 1397SOL     OW 5089   0.316   0.105   4.607
 1397SOL    HW1 5090   0.342   0.009   4.600
 1397SOL    HW2 5091   0.313   0.145   4.515
 1398SOL     OW 5092   3.033   1.313   6.774
 1398SOL    HW1 5093   2.952   1.271   6.735
 1398SOL    HW2 5094   3.074   1.375   6.707
 1399SOL     OW 5095   4.068   5.195   0.634
 1399SOL    HW1 5096   4.157   5.163   0.668
 1399SOL    HW2 5097   4.076   5.217   0.537
 1400SOL     OW 5098   0.020   1.638   4.125
 1400SOL    HW1 5099   0.062   1.685   4.048
 1400SOL    HW2 5100   0.089   1.618   4.194
 1401SOL     OW 5101   6.241   0.412   4.697
 1401SOL    HW1 5102   6.190   0.490   4.661
 1401SOL    HW2 5103   6.273   0.433   4.789
 1402SOL     OW 5104   5.712   3.659   6.460
 1402SOL    HW1 5105   5.741   3.742   6.506
 1402SOL    HW2 5106   5.667   3.682   6.374
 1403SOL     OW 5107   2.205   2.081   1.123
 1403SOL    HW1 5108   2.179   2.155   1.061
 1403SOL    HW2 5109   2.124   2.029   1.149
 1404SOL     OW 5110   6.789   0.228   6.849
 1404SOL    HW1 5111   6.711   0.281   6.881
 1404SOL    HW2 5112   6.764   0.131   6.844
 1405SOL     OW 5113   2.442   3.300   0.807
 1405SOL    HW1 5114   2.484   3.209   0.812
 1405SOL    HW2 5115   2.343   3.291   0.803
 1406SOL     OW 5116   0.729   5.520   0.429
 1406SOL    HW1 5117   0.652   5.533   0.491
 1406SOL    HW2 5118   0.699   5.469   0.349
 1407SOL     OW 5119   0.452   3.703   3.135
 1407SOL    HW1 5120   0.527   3.723   3.072
 1407SOL    HW2 5121   0.380   3.771   3.123
 1408SOL     OW 5122   5.279   1.511   5.526
 1408SOL    HW1 5123   5.372   1.501   5.490
 1408SOL    HW2 5124   5.214   1.483   5.455
 1409SOL     OW 5125   0.214   0.370   5.100
 1409SOL    HW1 5126   0.216   0.463   5.137
 1409SOL    HW2 5127   0.263   0.368   5.013
 1410SOL     OW 5128   1.677   4.451   6.434
 1410SOL    HW1 5129   1.688   4.353   6.452
 1410SOL    HW2 5130   1.582   4.477   6.449
 1411SOL     OW 5131   3.780   6.528   0.512
 1411SOL    HW1 5132   3.784   6.580   0.427
 1411SOL    HW2 5133   3.760   6.589   0.588
 1412SOL     OW 5134   1.011   2.399   1.209
 1412SOL    HW1 5135   1.080   2.471   1.206
 1412SOL    HW2 5136   1.016   2.345   1.125
 1413SOL     OW 5137   2.172   1.650   5.187
 1413SOL    HW1 5138   2.183   1.747   5.166
 1413SOL    HW2 5139   2.210   1.631   5.278
 1414SOL     OW 5140   2.638   1.714   1.947
 1414SOL    HW1 5141   2.645   1.791   1.883
 1414SOL    HW2 5142   2.564   1.731   2.011
 1415SOL     OW 5143   1.901   1.047   4.804
 1415SOL    HW1 5144   1.920   1.060   4.707
 1415SOL    HW2 5145   1.874   1.134   4.845
 1416SOL     OW 5146   4.281   5.135   4.309
 1416SOL    HW1 5147   4.287   5.180   4.398
 1416SOL    HW2 5148   4.212   5.063   4.312
 1417SOL     OW 5149   3.222   2.271   0.626
 1417SOL    HW1 5150   3.179   2.350   0.582
 1417SOL    HW2 5151   3.159   2.194   0.623
 1418SOL     OW 5152   3.253   4.131   2.940
 1418SOL    HW1 5153   3.281   4.150   2.846
 1418SOL    HW2 5154   3.331   4.142   3.001
 1419SOL     OW 5155   2.888   5.613   3.302
 1419SOL    HW1 5156   2.912   5.523   3.339
 1419SOL    HW2 5157   2.812   5.651   3.355
 1420SOL     OW 5158   1.771   6.418   1.898
 1420SOL    HW1 5159   1.721   6.469   1.828
 1420SOL    HW2 5160   1.829   6.481   1.950
 1421SOL     OW 5161   2.452   5.002   3.150
 1421SOL    HW1 5162   2.500   5.037   3.230
 1421SOL    HW2 5163   2.361   4.971   3.176
 1422SOL     OW 5164   1.073   4.138   6.839
 1422SOL    HW1 5165   1.150   4.152   6.901
 1422SOL    HW2 5166   1.104   4.088   6.758
 1423SOL     OW 5167   5.182   6.842   4.148
 1423SOL    HW1 5168   5.137   6.930   4.159
 1423SOL    HW2 5169   5.142   6.793   4.071
 1424SOL     OW 5170   6.671   4.172   6.984
 1424SOL    HW1 5171   6.606   4.178   6.908
 1424SOL    HW2 5172   6.626   4.129   0.040
 1425SOL     OW 5173   1.929   5.484   5.426
 1425SOL    HW1 5174   1.861   5.500   5.497
 1425SOL    HW2 5175   1.922   5.389   5.395
 1426SOL     OW 5176   2.246   3.198   6.580
 1426SOL    HW1 5177   2.293   3.274   6.534
 1426SOL    HW2 5178   2.301   3.167   6.657
 1427SOL     OW 5179   6.805   0.273   3.415
 1427SOL    HW1 5180   6.767   0.181   3.406
 1427SOL    HW2 5181   6.733   0.336   3.446
 1428SOL     OW 5182   0.662   2.126   6.717
 1428SOL    HW1 5183   0.692   2.037   6.750
 1428SOL    HW2 5184   0.731   2.163   6.654
 1429SOL     OW 5185   4.534   1.527   0.203
 1429SOL    HW1 5186   4.478   1.526   0.285
 1429SOL    HW2 5187   4.630   1.538   0.229
 1430SOL     OW 5188   1.861   5.222   4.118
 1430SOL    HW1 5189   1.909   5.238   4.204
 1430SOL    HW2 5190   1.846   5.124   4.104
 1431SOL     OW 5191   3.000   2.261   0.018
 1431SOL    HW1 5192   2.963   2.188   6.983
 1431SOL    HW2 5193   2.973   2.350   7.004
 1432SOL     OW 5194   2.770   1.902   1.457
 1432SOL    HW1 5195   2.854   1.861   1.420
 1432SOL    HW2 5196   2.691   1.856   1.418
 1433SOL     OW 5197   4.635   0.194   5.473
 1433SOL    HW1 5198   4.618   0.177   5.376
 1433SOL    HW2 5199   4.676   0.113   5.515
 1434SOL     OW 5200   1.199   0.697   5.928
 1434SOL    HW1 5201   1.167   0.689   6.023
 1434SOL    HW2 5202   1.125   0.732   5.871
 1435SOL     OW 5203   6.911   6.985   3.091
 1435SOL    HW1 5204   6.910   6.992   2.992
 1435SOL    HW2 5205   6.939   0.050   3.131
 1436SOL     OW 5206   5.222   3.809   6.174
 1436SOL    HW1 5207   5.140   3.802   6.230
 1436SOL    HW2 5208   5.224   3.897   6.128
 1437SOL     OW 5209   2.784   2.264   4.974
 1437SOL    HW1 5210   2.742   2.340   4.926
 1437SOL    HW2 5211   2.879   2.287   4.996
 1438SOL     OW 5212   2.448   6.517   1.797
 1438SOL    HW1 5213   2.496   6.530   1.711
 1438SOL    HW2 5214   2.464   6.596   1.856
 1439SOL     OW 5215   6.335   5.247   0.998
 1439SOL    HW1 5216   6.353   5.293   1.085
 1439SOL    HW2 5217   6.400   5.171   0.987
 1440SOL     OW 5218   3.298   3.054   6.502
 1440SOL    HW1 5219   3.340   3.015   6.420
 1440SOL    HW2 5220   3.219   3.110   6.475
 1441SOL     OW 5221   6.503   1.063   3.521
 1441SOL    HW1 5222   6.416   1.095   3.484
 1441SOL    HW2 5223   6.538   0.987   3.466
 1442SOL     OW 5224   6.454   5.942   6.621
 1442SOL    HW1 5225   6.408   5.862   6.583
 1442SOL    HW2 5226   6.401   6.024   6.600
 1443SOL     OW 5227   1.098   2.799   3.978
 1443SOL    HW1 5228   1.131   2.829   3.888
 1443SOL    HW2 5229   1.044   2.872   4.019
 1444SOL     OW 5230   4.877   5.289   0.898
 1444SOL    HW1 5231   4.783   5.311   0.874
 1444SOL    HW2 5232   4.895   5.193   0.878
 1445SOL     OW 5233   0.316   3.428   2.564
 1445SOL    HW1 5234   0.245   3.460   2.501
 1445SOL    HW2 5235   0.297   3.334   2.591
 1446SOL     OW 5236   5.249   2.691   0.375
 1446SOL    HW1 5237   5.183   2.757   0.340
 1446SOL    HW2 5238   5.293   2.728   0.457
 1447SOL     OW 5239   6.014   7.018   5.169
 1447SOL    HW1 5240   6.014   6.918   5.171
 1447SOL    HW2 5241   5.923   0.030   5.190
 1448SOL     OW 5242   0.092   2.051   5.549
 1448SOL    HW1 5243   0.045   2.137   5.531
 1448SOL    HW2 5244   0.056   1.980   5.488
 1449SOL     OW 5245   0.841   1.172   0.196
 1449SOL    HW1 5246   0.858   1.268   0.216
 1449SOL    HW2 5247   0.770   1.165   0.126
 1450SOL     OW 5248   0.571   2.158   1.186
 1450SOL    HW1 5249   0.511   2.230   1.151
 1450SOL    HW2 5250   0.526   2.112   1.263
 1451SOL     OW 5251   1.537   0.054   2.055
 1451SOL    HW1 5252   1.522   0.015   2.146
 1451SOL    HW2 5253   1.500   7.013   1.986
 1452SOL     OW 5254   4.528   0.978   4.429
 1452SOL    HW1 5255   4.481   0.891   4.418
 1452SOL    HW2 5256   4.502   1.040   4.355
 1453SOL     OW 5257   0.135   3.862   5.328
 1453SOL    HW1 5258   0.129   3.851   5.427
 1453SOL    HW2 5259   0.045   3.844   5.287
 1454SOL     OW 5260   0.277   3.035   1.985
 1454SOL    HW1 5261   0.326   3.073   2.064
 1454SOL    HW2 5262   0.221   3.106   1.943
 1455SOL     OW 5263   1.343   1.062   1.480
 1455SOL    HW1 5264   1.275   1.075   1.552
 1455SOL    HW2 5265   1.297   1.054   1.392
 1456SOL     OW 5266   6.734   6.270   5.439
 1456SOL    HW1 5267   6.668   6.323   5.492
 1456SOL    HW2 5268   6.817   6.325   5.425
 1457SOL     OW 5269   1.209   6.575   1.253
 1457SOL    HW1 5270   1.275   6.503   1.276
 1457SOL    HW2 5271   1.133   6.571   1.318
 1458SOL     OW 5272   5.367   5.467   3.486
 1458SOL    HW1 5273   5.365   5.367   3.478
 1458SOL    HW2 5274   5.417   5.493   3.568
 1459SOL     OW 5275   2.674   5.860   5.682
 1459SOL    HW1 5276   2.741   5.853   5.608
 1459SOL    HW2 5277   2.630   5.771   5.695
 1460SOL     OW 5278   0.711   6.089   4.976
 1460SOL    HW1 5279   0.761   6.154   4.919
 1460SOL    HW2 5280   0.740   6.101   5.072
 1461SOL     OW 5281   6.314   4.938   3.095
 1461SOL    HW1 5282   6.332   5.004   3.021
 1461SOL    HW2 5283   6.237   4.880   3.069
 1462SOL     OW 5284   1.385   0.237   6.574
 1462SOL    HW1 5285   1.411   0.194   6.488
 1462SOL    HW2 5286   1.352   0.167   6.637
 1463SOL     OW 5287   6.668   5.633   6.509
 1463SOL    HW1 5288   6.595   5.619   6.575
 1463SOL    HW2 5289   6.690   5.546   6.464
 1464SOL     OW 5290   7.012   6.379   1.343
 1464SOL    HW1 5291   0.064   6.443   1.324
 1464SOL    HW2 5292   6.926   6.417   1.311
 1465SOL     OW 5293   1.560   1.270   2.935
 1465SOL    HW1 5294   1.510   1.269   2.849
 1465SOL    HW2 5295   1.612   1.185   2.945
 1466SOL     OW 5296   1.759   2.222   2.122
 1466SOL    HW1 5297   1.802   2.188   2.038
 1466SOL    HW2 5298   1.763   2.322   2.124
 1467SOL     OW 5299   1.640   1.387   2.649
 1467SOL    HW1 5300   1.573   1.317   2.673
 1467SOL    HW2 5301   1.712   1.347   2.592
 1468SOL     OW 5302   3.840   5.975   2.039
 1468SOL    HW1 5303   3.775   6.052   2.032
 1468SOL    HW2 5304   3.899   5.975   1.958
 1469SOL     OW 5305   0.636   1.557   1.756
 1469SOL    HW1 5306   0.565   1.616   1.794
 1469SOL    HW2 5307   0.706   1.613   1.712
 1470SOL     OW 5308   1.059   2.183   2.547
 1470SOL    HW1 5309   0.996   2.114   2.511
 1470SOL    HW2 5310   1.079   2.250   2.476
 1471SOL     OW 5311   0.437   6.900   1.071
 1471SOL    HW1 5312   0.468   6.966   1.002
 1471SOL    HW2 5313   0.386   6.827   1.027
 1472SOL     OW 5314   3.623   5.268   5.607
 1472SOL    HW1 5315   3.616   5.183   5.659
 1472SOL    HW2 5316   3.602   5.346   5.666
 1473SOL     OW 5317   4.303   6.086   5.268
 1473SOL    HW1 5318   4.364   6.007   5.274
 1473SOL    HW2 5319   4.335   6.158   5.329
 1474SOL     OW 5320   5.650   5.381   2.239
 1474SOL    HW1 5321   5.667   5.300   2.183
 1474SOL    HW2 5322   5.705   5.376   2.323
 1475SOL     OW 5323   6.099   0.438   2.018
 1475SOL    HW1 5324   6.052   0.481   2.095
 1475SOL    HW2 5325   6.095   0.339   2.028
 1476SOL     OW 5326   3.208   0.774   0.965
 1476SOL    HW1 5327   3.134   0.781   1.032
 1476SOL    HW2 5328   3.296   0.779   1.012
 1477SOL     OW 5329   3.423   0.108   5.936
 1477SOL    HW1 5330   3.376   0.129   5.850
 1477SOL    HW2 5331   3.492   0.037   5.920
 1478SOL     OW 5332   5.918   5.812   6.451
 1478SOL    HW1 5333   5.821   5.797   6.468
 1478SOL    HW2 5334   5.971   5.761   6.519
 1479SOL     OW 5335   1.326   2.277   0.558
 1479SOL    HW1 5336   1.372   2.217   0.623
 1479SOL    HW2 5337   1.338   2.372   0.585
 1480SOL     OW 5338   3.162   1.086   5.025
 1480SOL    HW1 5339   3.201   1.051   5.110
 1480SOL    HW2 5340   3.229   1.143   4.978
 1481SOL     OW 5341   6.254   3.078   5.796
 1481SOL    HW1 5342   6.171   3.059   5.847
 1481SOL    HW2 5343   6.254   3.026   5.711
 1482SOL     OW 5344   4.826   1.530   1.661
 1482SOL    HW1 5345   4.866   1.441   1.680
 1482SOL    HW2 5346   4.736   1.518   1.617
 1483SOL     OW 5347   5.236   2.046   6.683
 1483SOL    HW1 5348   5.236   2.144   6.662
 1483SOL    HW2 5349   5.302   2.000   6.625
 1484SOL     OW 5350   5.474   4.003   5.008
 1484SOL    HW1 5351   5.425   4.009   5.095
 1484SOL    HW2 5352   5.449   3.918   4.961
 1485SOL     OW 5353   3.580   1.731   3.416
 1485SOL    HW1 5354   3.640   1.773   3.348
 1485SOL    HW2 5355   3.501   1.690   3.370
 1486SOL     OW 5356   5.004   1.520   2.538
 1486SOL    HW1 5357   5.071   1.574   2.488
 1486SOL    HW2 5358   4.960   1.455   2.476
 1487SOL     OW 5359   6.963   2.205   6.068
 1487SOL    HW1 5360   6.887   2.216   6.132
 1487SOL    HW2 5361   7.012   2.120   6.088
 1488SOL     OW 5362   5.271   1.054   3.535
 1488SOL    HW1 5363   5.310   0.965   3.560
 1488SOL    HW2 5364   5.174   1.043   3.513
 1489SOL     OW 5365   4.574   4.682   5.341
 1489SOL    HW1 5366   4.662   4.718   5.310
 1489SOL    HW2 5367   4.563   4.701   5.439
 1490SOL     OW 5368   0.536   3.039   2.322
 1490SOL    HW1 5369   0.536   3.042   2.422
 1490SOL    HW2 5370   0.465   2.976   2.290
 1491SOL     OW 5371   6.597   3.864   2.560
 1491SOL    HW1 5372   6.551   3.950   2.536
 1491SOL    HW2 5373   6.649   3.831   2.482
 1492SOL     OW 5374   5.756   1.048   2.760
 1492SOL    HW1 5375   5.670   1.001   2.742
 1492SOL    HW2 5376   5.744   1.147   2.748
 1493SOL     OW 5377   4.001   6.526   5.380
 1493SOL    HW1 5378   4.016   6.622   5.406
 1493SOL    HW2 5379   4.055   6.506   5.298
 1494SOL     OW 5380   4.840   1.927   0.005
 1494SOL    HW1 5381   4.881   1.851   6.976
 1494SOL    HW2 5382   4.904   2.004   0.007
 1495SOL     OW 5383   6.491   3.703   5.389
 1495SOL    HW1 5384   6.586   3.711   5.358
 1495SOL    HW2 5385   6.459   3.609   5.373
 1496SOL     OW 5386   0.287   1.781   1.540
 1496SOL    HW1 5387   0.285   1.875   1.574
 1496SOL    HW2 5388   0.199   1.737   1.560
 1497SOL     OW 5389   6.212   3.366   2.935
 1497SOL    HW1 5390   6.305   3.367   2.972
 1497SOL    HW2 5391   6.209   3.308   2.854
 1498SOL     OW 5392   2.618   5.194   6.690
 1498SOL    HW1 5393   2.565   5.254   6.630
 1498SOL    HW2 5394   2.658   5.247   6.764
 1499SOL     OW 5395   0.669   2.687   6.161
 1499SOL    HW1 5396   0.579   2.702   6.119
 1499SOL    HW2 5397   0.669   2.600   6.210
 1500SOL     OW 5398   0.198   0.080   0.374
 1500SOL    HW1 5399   0.218   7.021   0.319
 1500SOL    HW2 5400   0.099   0.097   0.374
 1501SOL     OW 5401   5.442   2.477   6.579
 1501SOL    HW1 5402   5.513   2.420   6.538
 1501SOL    HW2 5403   5.482   2.532   6.653
 1502SOL     OW 5404   4.288   0.444   0.205
 1502SOL    HW1 5405   4.190   0.430   0.221
 1502SOL    HW2 5406   4.300   0.511   0.132
 1503SOL     OW 5407   0.721   3.831   1.648
 1503SOL    HW1 5408   0.716   3.734   1.626
 1503SOL    HW2 5409   0.807   3.850   1.696
 1504SOL     OW 5410   0.381   0.310   5.314
 1504SOL    HW1 5411   0.298   0.314   5.259
 1504SOL    HW2 5412   0.461   0.307   5.253
 1505SOL     OW 5413   5.060   0.314   5.043
 1505SOL    HW1 5414   5.045   0.402   4.999
 1505SOL    HW2 5415   5.006   0.308   5.126
 1506SOL     OW 5416   0.699   6.161   0.622
 1506SOL    HW1 5417   0.677   6.218   0.542
 1506SOL    HW2 5418   0.642   6.190   0.699
 1507SOL     OW 5419   1.023   1.637   5.683
 1507SOL    HW1 5420   1.114   1.599   5.698
 1507SOL    HW2 5421   1.027   1.704   5.608
 1508SOL     OW 5422   6.589   1.469   2.217
 1508SOL    HW1 5423   6.530   1.389   2.210
 1508SOL    HW2 5424   6.683   1.443   2.195
 1509SOL     OW 5425   3.979   1.536   5.771
 1509SOL    HW1 5426   3.985   1.634   5.751
 1509SOL    HW2 5427   3.883   1.509   5.777
 1510SOL     OW 5428   5.139   1.823   4.706
 1510SOL    HW1 5429   5.161   1.762   4.781
 1510SOL    HW2 5430   5.041   1.844   4.707
 1511SOL     OW 5431   3.802   3.232   2.690
 1511SOL    HW1 5432   3.837   3.322   2.666
 1511SOL    HW2 5433   3.708   3.223   2.657
 1512SOL     OW 5434   0.379   5.445   1.323
 1512SOL    HW1 5435   0.307   5.390   1.365
 1512SOL    HW2 5436   0.429   5.389   1.256
 1513SOL     OW 5437   3.821   0.985   4.456
 1513SOL    HW1 5438   3.757   1.061   4.450
 1513SOL    HW2 5439   3.772   0.899   4.453
 1514SOL     OW 5440   4.029   2.020   5.580
 1514SOL    HW1 5441   3.952   2.075   5.612
 1514SOL    HW2 5442   4.113   2.075   5.585
 1515SOL     OW 5443   6.106   2.210   2.908
 1515SOL    HW1 5444   6.021   2.208   2.962
 1515SOL    HW2 5445   6.098   2.278   2.836
 1516SOL     OW 5446   6.739   6.236   0.169
 1516SOL    HW1 5447   6.722   6.286   0.085
 1516SOL    HW2 5448   6.724   6.296   0.248
 1517SOL     OW 5449   4.674   6.226   3.334
 1517SOL    HW1 5450   4.590   6.212   3.386
 1517SOL    HW2 5451   4.682   6.155   3.265
 1518SOL     OW 5452   1.597   2.395   7.008
 1518SOL    HW1 5453   1.559   2.427   6.921
 1518SOL    HW2 5454   1.669   2.457   0.015
 1519SOL     OW 5455   6.805   5.347   1.380
 1519SOL    HW1 5456   6.876   5.282   1.354
 1519SOL    HW2 5457   6.785   5.339   1.477
 1520SOL     OW 5458   0.468   3.937   1.787
 1520SOL    HW1 5459   0.558   3.910   1.754
 1520SOL    HW2 5460   0.405   3.860   1.778
 1521SOL     OW 5461   1.730   4.163   6.461
 1521SOL    HW1 5462   1.750   4.078   6.509
 1521SOL    HW2 5463   1.803   4.182   6.395
 1522SOL     OW 5464   6.157   6.545   5.127
 1522SOL    HW1 5465   6.080   6.492   5.161
 1522SOL    HW2 5466   6.217   6.486   5.074
 1523SOL     OW 5467   5.121   6.005   1.177
 1523SOL    HW1 5468   5.086   6.081   1.122
 1523SOL    HW2 5469   5.209   5.975   1.140
 1524SOL     OW 5470   2.347   2.050   2.202
 1524SOL    HW1 5471   2.418   2.029   2.135
 1524SOL    HW2 5472   2.387   2.099   2.280
 1525SOL     OW 5473   0.069   2.758   0.293
 1525SOL    HW1 5474   0.050   2.683   0.229
 1525SOL    HW2 5475   0.096   2.721   0.381
 1526SOL     OW 5476   6.530   0.166   6.495
 1526SOL    HW1 5477   6.509   0.240   6.559
 1526SOL    HW2 5478   6.577   0.203   6.415
 1527SOL     OW 5479   3.955   0.524   5.260
 1527SOL    HW1 5480   4.028   0.589   5.283
 1527SOL    HW2 5481   3.929   0.473   5.342
 1528SOL     OW 5482   4.419   5.272   2.225
 1528SOL    HW1 5483   4.454   5.301   2.136
 1528SOL    HW2 5484   4.408   5.352   2.284
 1529SOL     OW 5485   3.732   0.824   0.033
 1529SOL    HW1 5486   3.809   0.765   0.057
 1529SOL    HW2 5487   3.679   0.846   0.115
 1530SOL     OW 5488   3.355   1.799   1.877
 1530SOL    HW1 5489   3.435   1.860   1.882
 1530SOL    HW2 5490   3.279   1.841   1.926
 1531SOL     OW 5491   4.454   0.412   5.570
 1531SOL    HW1 5492   4.476   0.448   5.661
 1531SOL    HW2 5493   4.524   0.347   5.542
 1532SOL     OW 5494   3.089   3.321   6.749
 1532SOL    HW1 5495   3.011   3.266   6.717
 1532SOL    HW2 5496   3.071   3.417   6.731
 1533SOL     OW 5497   5.362   4.378   6.644
 1533SOL    HW1 5498   5.457   4.391   6.618
 1533SOL    HW2 5499   5.352   4.388   6.743
 1534SOL     OW 5500   2.313   4.740   6.413
 1534SOL    HW1 5501   2.243   4.806   6.388
 1534SOL    HW2 5502   2.276   4.647   6.404
 1535SOL     OW 5503   4.974   6.499   4.192
 1535SOL    HW1 5504   4.957   6.558   4.114
 1535SOL    HW2 5505   5.018   6.551   4.265
 1536SOL     OW 5506   3.759   4.844   5.244
 1536SOL    HW1 5507   3.774   4.891   5.330
 1536SOL    HW2 5508   3.785   4.748   5.254
 1537SOL     OW 5509   4.928   6.272   3.127
 1537SOL    HW1 5510   4.831   6.249   3.115
 1537SOL    HW2 5511   4.948   6.281   3.225
 1538SOL     OW 5512   4.130   5.753   6.355
 1538SOL    HW1 5513   4.166   5.665   6.322
 1538SOL    HW2 5514   4.096   5.807   6.278
 1539SOL     OW 5515   4.730   3.943   1.359
 1539SOL    HW1 5516   4.693   3.950   1.452
 1539SOL    HW2 5517   4.732   3.847   1.332
 1540SOL     OW 5518   1.469   5.953   5.980
 1540SOL    HW1 5519   1.549   5.966   5.922
 1540SOL    HW2 5520   1.388   5.990   5.934
 1541SOL     OW 5521   3.862   2.968   3.459
 1541SOL    HW1 5522   3.937   3.009   3.407
 1541SOL    HW2 5523   3.785   2.948   3.397
 1542SOL     OW 5524   5.895   6.089   2.371
 1542SOL    HW1 5525   5.880   5.999   2.413
 1542SOL    HW2 5526   5.857   6.160   2.430
 1543SOL     OW 5527   3.480   4.958   5.283
 1543SOL    HW1 5528   3.551   4.929   5.218
 1543SOL    HW2 5529   3.510   5.041   5.330
 1544SOL     OW 5530   3.349   3.424   2.871
 1544SOL    HW1 5531   3.291   3.443   2.951
 1544SOL    HW2 5532   3.441   3.400   2.902
 1545SOL     OW 5533   4.776   0.891   3.525
 1545SOL    HW1 5534   4.869   0.925   3.510
 1545SOL    HW2 5535   4.740   0.929   3.610
 1546SOL     OW 5536   4.158   6.628   5.778
 1546SOL    HW1 5537   4.200   6.649   5.866
 1546SOL    HW2 5538   4.059   6.616   5.791
 1547SOL     OW 5539   1.592   3.455   2.847
 1547SOL    HW1 5540   1.682   3.437   2.807
 1547SOL    HW2 5541   1.522   3.406   2.795
 1548SOL     OW 5542   5.187   3.798   5.701
 1548SOL    HW1 5543   5.244   3.716   5.706
 1548SOL    HW2 5544   5.239   3.872   5.658
 1549SOL     OW 5545   4.699   1.200   2.528
 1549SOL    HW1 5546   4.646   1.177   2.447
 1549SOL    HW2 5547   4.656   1.161   2.609
 1550SOL     OW 5548   3.251   4.034   6.752
 1550SOL    HW1 5549   3.249   4.043   6.652
 1550SOL    HW2 5550   3.344   4.051   6.784
 1551SOL     OW 5551   1.819   4.894   6.221
 1551SOL    HW1 5552   1.909   4.874   6.259
 1551SOL    HW2 5553   1.827   4.904   6.122
 1552SOL     OW 5554   0.332   5.833   6.916
 1552SOL    HW1 5555   0.403   5.781   6.963
 1552SOL    HW2 5556   0.278   5.883   6.982
 1553SOL     OW 5557   0.247   1.696   5.489
 1553SOL    HW1 5558   0.183   1.762   5.450
 1553SOL    HW2 5559   0.218   1.603   5.466
 1554SOL     OW 5560   4.000   1.823   2.981
 1554SOL    HW1 5561   3.999   1.756   3.055
 1554SOL    HW2 5562   3.934   1.797   2.911
 1555SOL     OW 5563   4.969   2.473   0.199
 1555SOL    HW1 5564   4.980   2.512   0.290
 1555SOL    HW2 5565   4.979   2.374   0.204
 1556SOL     OW 5566   3.331   1.019   0.909
 1556SOL    HW1 5567   3.274   0.939   0.926
 1556SOL    HW2 5568   3.276   1.093   0.871
 1557SOL     OW 5569   2.090   0.983   6.347
 1557SOL    HW1 5570   2.068   0.900   6.295
 1557SOL    HW2 5571   2.010   1.010   6.401
 1558SOL     OW 5572   4.841   0.411   4.385
 1558SOL    HW1 5573   4.867   0.381   4.477
 1558SOL    HW2 5574   4.826   0.510   4.385
 1559SOL     OW 5575   0.343   2.742   6.854
 1559SOL    HW1 5576   0.321   2.782   6.765
 1559SOL    HW2 5577   0.397   2.659   6.841
 1560SOL     OW 5578   1.710   1.385   5.776
 1560SOL    HW1 5579   1.624   1.335   5.773
 1560SOL    HW2 5580   1.714   1.439   5.860
 1561SOL     OW 5581   6.001   6.492   4.285
 1561SOL    HW1 5582   6.037   6.519   4.196
 1561SOL    HW2 5583   6.039   6.403   4.311
 1562SOL     OW 5584   4.263   5.882   2.697
 1562SOL    HW1 5585   4.214   5.892   2.784
 1562SOL    HW2 5586   4.230   5.952   2.633
 1563SOL     OW 5587   2.004   0.759   6.200
 1563SOL    HW1 5588   1.933   0.806   6.147
 1563SOL    HW2 5589   2.067   0.712   6.137
 1564SOL     OW 5590   1.062   3.084   3.189
 1564SOL    HW1 5591   1.060   3.139   3.105
 1564SOL    HW2 5592   0.975   3.035   3.198
 1565SOL     OW 5593   4.340   4.992   4.568
 1565SOL    HW1 5594   4.289   5.078   4.568
 1565SOL    HW2 5595   4.294   4.926   4.629
 1566SOL     OW 5596   5.032   4.947   3.466
 1566SOL    HW1 5597   4.991   4.977   3.552
 1566SOL    HW2 5598   4.986   4.993   3.390
 1567SOL     OW 5599   5.820   5.264   0.028
 1567SOL    HW1 5600   5.759   5.261   0.108
 1567SOL    HW2 5601   5.911   5.292   0.057
 1568SOL     OW 5602   1.607   5.877   1.275
 1568SOL    HW1 5603   1.697   5.898   1.314
 1568SOL    HW2 5604   1.537   5.891   1.345
 1569SOL     OW 5605   3.923   6.397   3.537
 1569SOL    HW1 5606   3.888   6.329   3.602
 1569SOL    HW2 5607   3.973   6.350   3.463
 1570SOL     OW 5608   2.031   6.738   0.665
 1570SOL    HW1 5609   2.020   6.665   0.733
 1570SOL    HW2 5610   1.990   6.710   0.579
 1571SOL     OW 5611   5.828   1.833   1.759
 1571SOL    HW1 5612   5.777   1.841   1.845
 1571SOL    HW2 5613   5.770   1.793   1.689
 1572SOL     OW 5614   0.673   6.819   0.469
 1572SOL    HW1 5615   0.682   6.793   0.565
 1572SOL    HW2 5616   0.663   6.919   0.462
 1573SOL     OW 5617   5.890   3.720   2.071
 1573SOL    HW1 5618   5.864   3.632   2.030
 1573SOL    HW2 5619   5.973   3.709   2.125
 1574SOL     OW 5620   0.067   0.924   2.471
 1574SOL    HW1 5621   7.022   0.868   2.519
 1574SOL    HW2 5622   0.020   0.983   2.405
 1575SOL     OW 5623   3.117   1.657   0.613
 1575SOL    HW1 5624   3.062   1.695   0.539
 1575SOL    HW2 5625   3.092   1.702   0.699
 1576SOL     OW 5626   1.583   0.578   3.220
 1576SOL    HW1 5627   1.547   0.603   3.310
 1576SOL    HW2 5628   1.659   0.513   3.231
 1577SOL     OW 5629   2.513   0.589   5.181
 1577SOL    HW1 5630   2.460   0.553   5.105
 1577SOL    HW2 5631   2.568   0.667   5.151
 1578SOL     OW 5632   5.859   2.900   5.655
 1578SOL    HW1 5633   5.906   2.836   5.594
 1578SOL    HW2 5634   5.874   2.993   5.623
 1579SOL     OW 5635   0.564   1.834   2.357
 1579SOL    HW1 5636   0.477   1.797   2.389
 1579SOL    HW2 5637   0.633   1.762   2.355
 1580SOL     OW 5638   3.215   3.895   4.466
 1580SOL    HW1 5639   3.160   3.826   4.418
 1580SOL    HW2 5640   3.161   3.934   4.541
 1581SOL     OW 5641   0.148   4.179   4.907
 1581SOL    HW1 5642   0.202   4.153   4.827
 1581SOL    HW2 5643   0.066   4.228   4.877
 1582SOL     OW 5644   1.954   0.158   3.975
 1582SOL    HW1 5645   1.932   0.139   3.879
 1582SOL    HW2 5646   1.926   0.251   3.997
 1583SOL     OW 5647   1.168   4.673   3.139
 1583SOL    HW1 5648   1.174   4.739   3.214
 1583SOL    HW2 5649   1.257   4.629   3.127
 1584SOL     OW 5650   1.444   6.360   5.865
 1584SOL    HW1 5651   1.397   6.382   5.950
 1584SOL    HW2 5652   1.398   6.282   5.821
 1585SOL     OW 5653   5.679   1.385   3.597
 1585SOL    HW1 5654   5.740   1.463   3.592
 1585SOL    HW2 5655   5.591   1.409   3.556
 1586SOL     OW 5656   3.309   5.020   2.169
 1586SOL    HW1 5657   3.278   5.095   2.110
 1586SOL    HW2 5658   3.257   4.938   2.148
 1587SOL     OW 5659   3.329   5.574   6.124
 1587SOL    HW1 5660   3.245   5.597   6.173
 1587SOL    HW2 5661   3.306   5.535   6.035
 1588SOL     OW 5662   4.523   1.422   3.268
 1588SOL    HW1 5663   4.541   1.398   3.364
 1588SOL    HW2 5664   4.477   1.510   3.264
 1589SOL     OW 5665   6.008   3.447   1.588
 1589SOL    HW1 5666   5.917   3.461   1.551
 1589SOL    HW2 5667   6.064   3.396   1.522
 1590SOL     OW 5668   3.658   6.137   6.091
 1590SOL    HW1 5669   3.666   6.138   5.991
 1590SOL    HW2 5670   3.564   6.159   6.117
 1591SOL     OW 5671   6.487   5.081   2.623
 1591SOL    HW1 5672   6.475   5.168   2.576
 1591SOL    HW2 5673   6.583   5.070   2.649
 1592SOL     OW 5674   2.265   4.525   6.787
 1592SOL    HW1 5675   2.173   4.488   6.798
 1592SOL    HW2 5676   2.311   4.479   6.711
 1593SOL     OW 5677   1.157   6.271   4.596
 1593SOL    HW1 5678   1.182   6.368   4.598
 1593SOL    HW2 5679   1.209   6.225   4.524
 1594SOL     OW 5680   0.573   6.019   2.172
 1594SOL    HW1 5681   0.633   5.948   2.208
 1594SOL    HW2 5682   0.569   6.011   2.072
 1595SOL     OW 5683   1.687   5.604   0.704
 1595SOL    HW1 5684   1.606   5.575   0.754
 1595SOL    HW2 5685   1.751   5.649   0.767
 1596SOL     OW 5686   0.430   2.446   3.652
 1596SOL    HW1 5687   0.391   2.412   3.567
 1596SOL    HW2 5688   0.526   2.472   3.638
 1597SOL     OW 5689   2.063   6.537   6.951
 1597SOL    HW1 5690   2.017   6.473   6.890
 1597SOL    HW2 5691   2.069   6.496   0.020
 1598SOL     OW 5692   1.018   4.049   6.250
 1598SOL    HW1 5693   1.030   4.125   6.187
 1598SOL    HW2 5694   0.974   4.081   6.334
 1599SOL     OW 5695   4.663   4.594   5.633
 1599SOL    HW1 5696   4.673   4.496   5.615
 1599SOL    HW2 5697   4.719   4.619   5.713
 1600SOL     OW 5698   4.780   1.822   4.043
 1600SOL    HW1 5699   4.733   1.908   4.064
 1600SOL    HW2 5700   4.745   1.749   4.101
 1601SOL     OW 5701   0.283   4.519   4.775
 1601SOL    HW1 5702   0.304   4.599   4.720
 1601SOL    HW2 5703   0.184   4.503   4.775
 1602SOL     OW 5704   2.827   4.785   3.563
 1602SOL    HW1 5705   2.913   4.814   3.522
 1602SOL    HW2 5706   2.772   4.737   3.495
 1603SOL     OW 5707   0.785   6.101   2.419
 1603SOL    HW1 5708   0.838   6.138   2.495
 1603SOL    HW2 5709   0.763   6.174   2.354
 1604SOL     OW 5710   5.634   5.168   1.831
 1604SOL    HW1 5711   5.630   5.088   1.772
 1604SOL    HW2 5712   5.642   5.139   1.927
 1605SOL     OW 5713   6.810   5.956   1.449
 1605SOL    HW1 5714   6.721   5.910   1.456
 1605SOL    HW2 5715   6.871   5.901   1.392
 1606SOL     OW 5716   3.372   0.834   4.846
 1606SOL    HW1 5717   3.372   0.905   4.917
 1606SOL    HW2 5718   3.286   0.783   4.849
 1607SOL     OW 5719   4.218   1.060   1.112
 1607SOL    HW1 5720   4.122   1.072   1.137
 1607SOL    HW2 5721   4.239   0.963   1.105
 1608SOL     OW 5722   0.702   0.729   3.857
 1608SOL    HW1 5723   0.759   0.655   3.891
 1608SOL    HW2 5724   0.623   0.692   3.809
 1609SOL     OW 5725   3.546   0.023   0.802
 1609SOL    HW1 5726   3.533   0.035   0.900
 1609SOL    HW2 5727   3.526   0.109   0.755
 1610SOL     OW 5728   5.713   4.599   6.969
 1610SOL    HW1 5729   5.681   4.580   6.876
 1610SOL    HW2 5730   5.688   4.693   6.994
 1611SOL     OW 5731   2.541   3.681   1.309
 1611SOL    HW1 5732   2.490   3.656   1.392
 1611SOL    HW2 5733   2.637   3.694   1.331
 1612SOL     OW 5734   2.826   0.776   5.637
 1612SOL    HW1 5735   2.748   0.806   5.693
 1612SOL    HW2 5736   2.808   0.798   5.541
 1613SOL     OW 5737   2.001   5.306   1.828
 1613SOL    HW1 5738   2.087   5.352   1.850
 1613SOL    HW2 5739   1.950   5.360   1.761
 1614SOL     OW 5740   5.770   3.690   6.899
 1614SOL    HW1 5741   5.807   3.604   6.865
 1614SOL    HW2 5742   5.671   3.692   6.886
 1615SOL     OW 5743   6.581   4.794   0.985
 1615SOL    HW1 5744   6.568   4.890   0.960
 1615SOL    HW2 5745   6.498   4.761   1.030
 1616SOL     OW 5746   2.994   1.510   4.987
 1616SOL    HW1 5747   3.046   1.589   5.020
 1616SOL    HW2 5748   2.984   1.444   5.061
 1617SOL     OW 5749   5.943   0.503   2.644
 1617SOL    HW1 5750   5.978   0.454   2.564
 1617SOL    HW2 5751   5.844   0.491   2.649
 1618SOL     OW 5752   1.905   4.212   1.933
 1618SOL    HW1 5753   1.853   4.247   1.855
 1618SOL    HW2 5754   1.881   4.117   1.950
 1619SOL     OW 5755   1.147   2.978   2.610
 1619SOL    HW1 5756   1.055   2.990   2.647
 1619SOL    HW2 5757   1.158   3.037   2.530
 1620SOL     OW 5758   2.523   4.860   1.724
 1620SOL    HW1 5759   2.468   4.784   1.759
 1620SOL    HW2 5760   2.508   4.869   1.626
 1621SOL     OW 5761   0.366   0.956   0.537
 1621SOL    HW1 5762   0.459   0.922   0.521
 1621SOL    HW2 5763   0.350   1.038   0.483
 1622SOL     OW 5764   0.431   2.596   4.739
 1622SOL    HW1 5765   0.497   2.645   4.796
 1622SOL    HW2 5766   0.423   2.501   4.771
 1623SOL     OW 5767   2.092   3.288   5.734
 1623SOL    HW1 5768   2.180   3.241   5.744
 1623SOL    HW2 5769   2.092   3.340   5.649
 1624SOL     OW 5770   2.714   0.779   5.138
 1624SOL    HW1 5771   2.664   0.849   5.086
 1624SOL    HW2 5772   2.767   0.723   5.074
 1625SOL     OW 5773   1.243   5.570   1.636
 1625SOL    HW1 5774   1.259   5.503   1.709
 1625SOL    HW2 5775   1.170   5.536   1.576
 1626SOL     OW 5776   4.210   2.029   6.548
 1626SOL    HW1 5777   4.142   1.973   6.596
 1626SOL    HW2 5778   4.166   2.111   6.511
 1627SOL     OW 5779   0.037   3.472   3.925
 1627SOL    HW1 5780   0.116   3.492   3.982
 1627SOL    HW2 5781   0.053   3.509   3.833
 1628SOL     OW 5782   4.322   5.074   0.366
 1628SOL    HW1 5783   4.405   5.130   0.366
 1628SOL    HW2 5784   4.346   4.979   0.350
 1629SOL     OW 5785   3.049   1.085   3.985
 1629SOL    HW1 5786   2.987   1.163   3.998
 1629SOL    HW2 5787   2.996   1.000   3.982
 1630SOL     OW 5788   1.699   5.759   5.924
 1630SOL    HW1 5789   1.758   5.690   5.966
 1630SOL    HW2 5790   1.605   5.748   5.958
 1631SOL     OW 5791   0.652   2.472   6.302
 1631SOL    HW1 5792   0.654   2.510   6.395
 1631SOL    HW2 5793   0.667   2.373   6.306
 1632SOL     OW 5794   0.103   1.879   6.986
 1632SOL    HW1 5795   0.011   1.855   7.019
 1632SOL    HW2 5796   0.165   1.888   0.041
 1633SOL     OW 5797   5.285   3.191   4.663
 1633SOL    HW1 5798   5.329   3.275   4.694
 1633SOL    HW2 5799   5.192   3.213   4.631
 1634SOL     OW 5800   3.936   5.359   6.397
 1634SOL    HW1 5801   4.021   5.339   6.445
 1634SOL    HW2 5802   3.945   5.331   6.301
 1635SOL     OW 5803   6.974   5.682   5.966
 1635SOL    HW1 5804   0.034   5.737   5.981
 1635SOL    HW2 5805   6.930   5.663   6.053
 1636SOL     OW 5806   3.158   4.360   1.702
 1636SOL    HW1 5807   3.073   4.378   1.751
 1636SOL    HW2 5808   3.212   4.294   1.753
 1637SOL     OW 5809   0.950   0.243   2.836
 1637SOL    HW1 5810   0.959   0.191   2.921
 1637SOL    HW2 5811   0.874   0.206   2.783
 1638SOL     OW 5812   0.229   4.300   3.399
 1638SOL    HW1 5813   0.321   4.314   3.435
 1638SOL    HW2 5814   0.179   4.235   3.457
 1639SOL     OW 5815   4.965   6.508   2.989
 1639SOL    HW1 5816   5.010   6.489   2.901
 1639SOL    HW2 5817   4.956   6.424   3.041
 1640SOL     OW 5818   6.067   1.306   0.494
 1640SOL    HW1 5819   6.074   1.314   0.395
 1640SOL    HW2 5820   6.085   1.395   0.536
 1641SOL     OW 5821   5.174   2.559   4.035
 1641SOL    HW1 5822   5.145   2.559   4.130
 1641SOL    HW2 5823   5.193   2.464   4.006
 1642SOL     OW 5824   5.768   3.872   6.660
 1642SOL    HW1 5825   5.696   3.939   6.681
 1642SOL    HW2 5826   5.785   3.816   6.741
 1643SOL     OW 5827   2.723   5.170   4.036
 1643SOL    HW1 5828   2.710   5.094   3.973
 1643SOL    HW2 5829   2.634   5.209   4.060
 1644SOL     OW 5830   0.152   2.925   0.914
 1644SOL    HW1 5831   0.194   3.008   0.876
 1644SOL    HW2 5832   0.214   2.885   0.982
 1645SOL     OW 5833   3.331   5.991   5.752
 1645SOL    HW1 5834   3.304   5.911   5.699
 1645SOL    HW2 5835   3.363   5.961   5.842
 1646SOL     OW 5836   3.021   5.852   0.444
 1646SOL    HW1 5837   3.067   5.821   0.527
 1646SOL    HW2 5838   3.089   5.889   0.380
 1647SOL     OW 5839   6.623   3.002   4.916
 1647SOL    HW1 5840   6.694   3.048   4.969
 1647SOL    HW2 5841   6.614   2.907   4.946
 1648SOL     OW 5842   5.727   5.472   1.021
 1648SOL    HW1 5843   5.789   5.440   1.092
 1648SOL    HW2 5844   5.729   5.571   1.017
 1649SOL     OW 5845   3.332   0.201   4.601
 1649SOL    HW1 5846   3.296   0.167   4.514
 1649SOL    HW2 5847   3.411   0.146   4.628
 1650SOL     OW 5848   2.055   5.920   5.242
 1650SOL    HW1 5849   2.067   5.821   5.247
 1650SOL    HW2 5850   1.980   5.947   5.302
 1651SOL     OW 5851   0.374   1.400   0.983
 1651SOL    HW1 5852   0.312   1.476   0.964
 1651SOL    HW2 5853   0.325   1.313   0.975
 1652SOL     OW 5854   0.819   3.362   2.514
 1652SOL    HW1 5855   0.871   3.438   2.554
 1652SOL    HW2 5856   0.723   3.369   2.541
 1653SOL     OW 5857   1.166   0.265   1.346
 1653SOL    HW1 5858   1.123   0.345   1.388
 1653SOL    HW2 5859   1.207   0.208   1.417
 1654SOL     OW 5860   6.624   3.281   1.307
 1654SOL    HW1 5861   6.714   3.266   1.265
 1654SOL    HW2 5862   6.633   3.286   1.406
 1655SOL     OW 5863   6.753   2.657   5.220
 1655SOL    HW1 5864   6.797   2.705   5.145
 1655SOL    HW2 5865   6.668   2.704   5.244
 1656SOL     OW 5866   2.279   4.749   1.836
 1656SOL    HW1 5867   2.221   4.813   1.886
 1656SOL    HW2 5868   2.224   4.673   1.802
 1657SOL     OW 5869   6.617   0.696   3.669
 1657SOL    HW1 5870   6.586   0.633   3.740
 1657SOL    HW2 5871   6.545   0.763   3.650
 1658SOL     OW 5872   0.913   6.976   1.134
 1658SOL    HW1 5873   0.904   0.014   1.055
 1658SOL    HW2 5874   1.002   6.990   1.177
 1659SOL     OW 5875   3.720   0.620   6.261
 1659SOL    HW1 5876   3.787   0.552   6.231
 1659SOL    HW2 5877   3.629   0.591   6.234
 1660SOL     OW 5878   1.013   5.059   3.817
 1660SOL    HW1 5879   0.998   5.112   3.901
 1660SOL    HW2 5880   1.064   4.976   3.840
 1661SOL     OW 5881   2.595   1.128   1.868
 1661SOL    HW1 5882   2.518   1.159   1.812
 1661SOL    HW2 5883   2.617   1.198   1.936
 1662SOL     OW 5884   6.834   6.803   3.673
 1662SOL    HW1 5885   6.748   6.755   3.655
 1662SOL    HW2 5886   6.880   6.760   3.751
 1663SOL     OW 5887   4.172   6.878   2.856
 1663SOL    HW1 5888   4.184   6.787   2.896
 1663SOL    HW2 5889   4.124   6.870   2.769
 1664SOL     OW 5890   2.125   6.508   4.641
 1664SOL    HW1 5891   2.044   6.546   4.687
 1664SOL    HW2 5892   2.158   6.574   4.574
 1665SOL     OW 5893   0.366   1.509   3.468
 1665SOL    HW1 5894   0.411   1.545   3.550
 1665SOL    HW2 5895   0.358   1.409   3.475
 1666SOL     OW 5896   5.503   2.990   0.001
 1666SOL    HW1 5897   5.413   3.028   0.019
 1666SOL    HW2 5898   5.511   2.900   0.044
 1667SOL     OW 5899   6.711   6.506   1.636
 1667SOL    HW1 5900   6.715   6.430   1.701
 1667SOL    HW2 5901   6.633   6.565   1.658
 1668SOL     OW 5902   5.590   6.516   5.400
 1668SOL    HW1 5903   5.542   6.458   5.465
 1668SOL    HW2 5904   5.616   6.602   5.445
 1669SOL     OW 5905   0.061   5.712   6.341
 1669SOL    HW1 5906   0.148   5.735   6.297
 1669SOL    HW2 5907   0.059   5.615   6.362
 1670SOL     OW 5908   0.393   4.105   6.247
 1670SOL    HW1 5909   0.488   4.136   6.243
 1670SOL    HW2 5910   0.334   4.173   6.204
 1671SOL     OW 5911   4.876   2.283   1.041
 1671SOL    HW1 5912   4.793   2.260   0.990
 1671SOL    HW2 5913   4.854   2.349   1.113
 1672SOL     OW 5914   1.873   2.886   0.745
 1672SOL    HW1 5915   1.958   2.861   0.791
 1672SOL    HW2 5916   1.800   2.822   0.773
 1673SOL     OW 5917   0.252   2.561   4.099
 1673SOL    HW1 5918   0.262   2.658   4.079
 1673SOL    HW2 5919   0.244   2.510   4.013
 1674SOL     OW 5920   0.145   4.096   2.255
 1674SOL    HW1 5921   0.236   4.064   2.227
 1674SOL    HW2 5922   0.098   4.136   2.176
 1675SOL     OW 5923   4.107   0.890   6.368
 1675SOL    HW1 5924   4.136   0.922   6.458
 1675SOL    HW2 5925   4.187   0.869   6.312
 1676SOL     OW 5926   2.155   1.984   1.970
 1676SOL    HW1 5927   2.210   1.945   2.044
 1676SOL    HW2 5928   2.143   2.082   1.985
 1677SOL     OW 5929   3.473   2.991   5.328
 1677SOL    HW1 5930   3.504   2.897   5.313
 1677SOL    HW2 5931   3.481   3.043   5.243
 1678SOL     OW 5932   4.635   4.730   4.694
 1678SOL    HW1 5933   4.638   4.793   4.617
 1678SOL    HW2 5934   4.540   4.715   4.722
 1679SOL     OW 5935   2.353   2.742   5.046
 1679SOL    HW1 5936   2.371   2.821   5.105
 1679SOL    HW2 5937   2.262   2.707   5.064
 1680SOL     OW 5938   0.590   3.054   4.782
 1680SOL    HW1 5939   0.577   3.146   4.747
 1680SOL    HW2 5940   0.670   3.013   4.739
 1681SOL     OW 5941   6.259   5.664   0.317
 1681SOL    HW1 5942   6.256   5.618   0.406
 1681SOL    HW2 5943   6.354   5.672   0.286
 1682SOL     OW 5944   0.014   1.654   4.891
 1682SOL    HW1 5945   0.061   1.567   4.903
 1682SOL    HW2 5946   0.013   1.678   4.794
 1683SOL     OW 5947   4.321   5.814   1.070
 1683SOL    HW1 5948   4.356   5.859   1.152
 1683SOL    HW2 5949   4.354   5.862   0.989
 1684SOL     OW 5950   1.491   6.086   2.685
 1684SOL    HW1 5951   1.395   6.073   2.660
 1684SOL    HW2 5952   1.531   6.156   2.626
 1685SOL     OW 5953   2.210   0.886   5.987
 1685SOL    HW1 5954   2.214   0.799   6.038
 1685SOL    HW2 5955   2.210   0.962   6.052
 1686SOL     OW 5956   2.352   5.019   4.734
 1686SOL    HW1 5957   2.282   5.017   4.805
 1686SOL    HW2 5958   2.441   4.997   4.774
 1687SOL     OW 5959   2.661   3.622   1.036
 1687SOL    HW1 5960   2.584   3.650   0.979
 1687SOL    HW2 5961   2.659   3.675   1.121
 1688SOL     OW 5962   1.769   2.304   4.319
 1688SOL    HW1 5963   1.836   2.268   4.384
 1688SOL    HW2 5964   1.786   2.265   4.228
 1689SOL     OW 5965   5.094   1.148   2.105
 1689SOL    HW1 5966   5.176   1.178   2.055
 1689SOL    HW2 5967   5.015   1.199   2.072
 1690SOL     OW 5968   1.479   2.869   3.523
 1690SOL    HW1 5969   1.410   2.939   3.505
 1690SOL    HW2 5970   1.564   2.914   3.552
 1691SOL     OW 5971   5.938   4.163   3.504
 1691SOL    HW1 5972   6.027   4.203   3.525
 1691SOL    HW2 5973   5.924   4.165   3.405
 1692SOL     OW 5974   5.794   0.589   1.729
 1692SOL    HW1 5975   5.879   0.607   1.679
 1692SOL    HW2 5976   5.803   0.620   1.824
 1693SOL     OW 5977   0.479   2.403   2.053
 1693SOL    HW1 5978   0.438   2.494   2.060
 1693SOL    HW2 5979   0.476   2.357   2.142
 1694SOL     OW 5980   5.620   0.545   3.759
 1694SOL    HW1 5981   5.558   0.473   3.793
 1694SOL    HW2 5982   5.693   0.502   3.706
 1695SOL     OW 5983   3.421   1.494   6.231
 1695SOL    HW1 5984   3.356   1.424   6.202
 1695SOL    HW2 5985   3.436   1.487   6.330
 1696SOL     OW 5986   4.992   4.318   0.567
 1696SOL    HW1 5987   4.988   4.326   0.468
 1696SOL    HW2 5988   5.043   4.395   0.605
 1697SOL     OW 5989   5.552   6.281   1.575
 1697SOL    HW1 5990   5.642   6.283   1.619
 1697SOL    HW2 5991   5.488   6.335   1.629
 1698SOL     OW 5992   4.405   0.915   0.140
 1698SOL    HW1 5993   4.386   0.964   0.055
 1698SOL    HW2 5994   4.415   0.980   0.214
 1699SOL     OW 5995   2.735   1.147   0.796
 1699SOL    HW1 5996   2.664   1.217   0.790
 1699SOL    HW2 5997   2.738   1.094   0.711
 1700SOL     OW 5998   5.794   2.047   3.453
 1700SOL    HW1 5999   5.707   2.080   3.490
 1700SOL    HW2 6000   5.790   1.948   3.443
 1701SOL     OW 6001   5.386   4.758   5.486
 1701SOL    HW1 6002   5.478   4.726   5.463
 1701SOL    HW2 6003   5.338   4.786   5.403
 1702SOL     OW 6004   6.913   2.890   7.000
 1702SOL    HW1 6005   7.006   2.907   6.967
 1702SOL    HW2 6006   6.898   2.942   0.062
 1703SOL     OW 6007   3.499   3.566   2.500
 1703SOL    HW1 6008   3.543   3.637   2.444
 1703SOL    HW2 6009   3.443   3.507   2.441
 1704SOL     OW 6010   1.014   2.234   1.426
 1704SOL    HW1 6011   1.048   2.299   1.358
 1704SOL    HW2 6012   0.967   2.159   1.380
 1705SOL     OW 6013   3.535   2.180   1.417
 1705SOL    HW1 6014   3.451   2.231   1.399
 1705SOL    HW2 6015   3.524   2.086   1.384
 1706SOL     OW 6016   5.068   1.080   1.549
 1706SOL    HW1 6017   5.078   0.984   1.572
 1706SOL    HW2 6018   4.971   1.101   1.533
 1707SOL     OW 6019   4.868   1.690   2.754
 1707SOL    HW1 6020   4.918   1.644   2.681
 1707SOL    HW2 6021   4.790   1.634   2.781
 1708SOL     OW 6022   5.142   5.136   2.498
 1708SOL    HW1 6023   5.164   5.230   2.525
 1708SOL    HW2 6024   5.067   5.138   2.432
 1709SOL     OW 6025   2.645   5.421   1.299
 1709SOL    HW1 6026   2.595   5.494   1.345
 1709SOL    HW2 6027   2.723   5.394   1.356
 1710SOL     OW 6028   5.768   4.933   3.734
 1710SOL    HW1 6029   5.709   4.875   3.679
 1710SOL    HW2 6030   5.824   4.991   3.675
 1711SOL     OW 6031   1.327   4.916   4.281
 1711SOL    HW1 6032   1.282   4.851   4.220
 1711SOL    HW2 6033   1.258   4.971   4.328
 1712SOL     OW 6034   0.057   3.479   6.064
 1712SOL    HW1 6035   0.062   3.379   6.069
 1712SOL    HW2 6036   0.088   3.509   5.974
 1713SOL     OW 6037   4.027   2.184   1.862
 1713SOL    HW1 6038   3.944   2.236   1.839
 1713SOL    HW2 6039   4.004   2.112   1.927
 1714SOL     OW 6040   4.006   1.920   5.326
 1714SOL    HW1 6041   3.957   1.836   5.350
 1714SOL    HW2 6042   4.041   1.963   5.409
 1715SOL     OW 6043   0.114   4.255   2.690
 1715SOL    HW1 6044   0.128   4.349   2.722
 1715SOL    HW2 6045   0.174   4.236   2.613
 1716SOL     OW 6046   4.380   6.987   3.015
 1716SOL    HW1 6047   4.406   6.938   3.099
 1716SOL    HW2 6048   4.287   6.963   2.990
 1717SOL     OW 6049   2.255   6.138   6.345
 1717SOL    HW1 6050   2.180   6.075   6.325
 1717SOL    HW2 6051   2.333   6.117   6.286
 1718SOL     OW 6052   2.131   2.258   2.086
 1718SOL    HW1 6053   2.200   2.228   2.152
 1718SOL    HW2 6054   2.112   2.355   2.100
 1719SOL     OW 6055   2.045   3.982   0.999
 1719SOL    HW1 6056   1.969   3.917   1.003
 1719SOL    HW2 6057   2.096   3.978   1.085
 1720SOL     OW 6058   0.693   2.535   0.267
 1720SOL    HW1 6059   0.724   2.618   0.221
 1720SOL    HW2 6060   0.726   2.455   0.218
 1721SOL     OW 6061   1.423   6.927   1.843
 1721SOL    HW1 6062   1.475   6.842   1.852
 1721SOL    HW2 6063   1.408   6.946   1.746
 1722SOL     OW 6064   4.466   2.425   4.611
 1722SOL    HW1 6065   4.402   2.368   4.559
 1722SOL    HW2 6066   4.448   2.415   4.709
 1723SOL     OW 6067   0.149   2.810   2.021
 1723SOL    HW1 6068   0.206   2.889   1.998
 1723SOL    HW2 6069   0.055   2.826   1.991
 1724SOL     OW 6070   6.226   2.418   0.500
 1724SOL    HW1 6071   6.226   2.497   0.439
 1724SOL    HW2 6072   6.285   2.436   0.579
 1725SOL     OW 6073   2.403   5.015   6.587
 1725SOL    HW1 6074   2.494   5.041   6.620
 1725SOL    HW2 6075   2.362   4.949   6.650
 1726SOL     OW 6076   4.759   4.901   5.593
 1726SOL    HW1 6077   4.831   4.867   5.531
 1726SOL    HW2 6078   4.689   4.948   5.540
 1727SOL     OW 6079   3.873   3.330   4.502
 1727SOL    HW1 6080   3.878   3.323   4.602
 1727SOL    HW2 6081   3.781   3.357   4.474
 1728SOL     OW 6082   5.075   5.091   5.290
 1728SOL    HW1 6083   5.048   5.116   5.197
 1728SOL    HW2 6084   5.008   5.028   5.329
 1729SOL     OW 6085   2.016   3.732   3.282
 1729SOL    HW1 6086   1.954   3.760   3.209
 1729SOL    HW2 6087   2.078   3.661   3.249
 1730SOL     OW 6088   0.490   0.085   5.866
 1730SOL    HW1 6089   0.583   0.104   5.835
 1730SOL    HW2 6090   0.444   0.025   5.801
 1731SOL     OW 6091   0.061   4.431   2.206
 1731SOL    HW1 6092   0.155   4.436   2.174
 1731SOL    HW2 6093   0.055   4.365   2.280
 1732SOL     OW 6094   2.719   4.608   5.585
 1732SOL    HW1 6095   2.656   4.678   5.620
 1732SOL    HW2 6096   2.732   4.622   5.487
 1733SOL     OW 6097   1.547   4.056   2.062
 1733SOL    HW1 6098   1.466   4.023   2.012
 1733SOL    HW2 6099   1.565   4.151   2.036
 1734SOL     OW 6100   4.632   3.240   1.644
 1734SOL    HW1 6101   4.639   3.199   1.553
 1734SOL    HW2 6102   4.622   3.168   1.712
 1735SOL     OW 6103   5.284   5.821   1.697
 1735SOL    HW1 6104   5.328   5.893   1.751
 1735SOL    HW2 6105   5.317   5.826   1.603
 1736SOL     OW 6106   3.655   3.073   0.999
 1736SOL    HW1 6107   3.695   2.984   0.977
 1736SOL    HW2 6108   3.582   3.094   0.935
 1737SOL     OW 6109   2.351   1.240   4.475
 1737SOL    HW1 6110   2.406   1.320   4.498
 1737SOL    HW2 6111   2.410   1.168   4.439
 1738SOL     OW 6112   2.380   1.745   3.904
 1738SOL    HW1 6113   2.474   1.772   3.882
 1738SOL    HW2 6114   2.380   1.689   3.987
 1739SOL     OW 6115   6.028   2.381   5.209
 1739SOL    HW1 6116   6.106   2.386   5.272
 1739SOL    HW2 6117   6.054   2.329   5.128
 1740SOL     OW 6118   6.700   2.008   5.636
 1740SOL    HW1 6119   6.773   2.026   5.701
 1740SOL    HW2 6120   6.648   2.092   5.620
 1741SOL     OW 6121   1.600   0.816   3.957
 1741SOL    HW1 6122   1.686   0.854   3.922
 1741SOL    HW2 6123   1.526   0.883   3.944
 1742SOL     OW 6124   5.187   0.233   6.043
 1742SOL    HW1 6125   5.141   0.293   5.978
 1742SOL    HW2 6126   5.246   0.286   6.103
 1743SOL     OW 6127   1.409   2.798   1.795
 1743SOL    HW1 6128   1.435   2.886   1.835
 1743SOL    HW2 6129   1.320   2.771   1.829
 1744SOL     OW 6130   0.478   0.969   2.210
 1744SOL    HW1 6131   0.445   0.944   2.119
 1744SOL    HW2 6132   0.577   0.954   2.214
 1745SOL     OW 6133   5.832   0.139   3.607
 1745SOL    HW1 6134   5.891   0.085   3.667
 1745SOL    HW2 6135   5.889   0.194   3.546
 1746SOL     OW 6136   2.348   4.787   5.239
 1746SOL    HW1 6137   2.293   4.731   5.301
 1746SOL    HW2 6138   2.288   4.844   5.183
 1747SOL     OW 6139   5.823   2.011   2.867
 1747SOL    HW1 6140   5.860   2.001   2.774
 1747SOL    HW2 6141   5.740   2.066   2.864
 1748SOL     OW 6142   1.034   0.999   4.036
 1748SOL    HW1 6143   0.990   1.017   4.124
 1748SOL    HW2 6144   0.964   0.978   3.968
 1749SOL     OW 6145   2.705   6.925   4.667
 1749SOL    HW1 6146   2.765   6.993   4.624
 1749SOL    HW2 6147   2.713   6.932   4.767
 1750SOL     OW 6148   6.560   0.109   4.232
 1750SOL    HW1 6149   6.475   0.069   4.267
 1750SOL    HW2 6150   6.572   0.201   4.271
 1751SOL     OW 6151   3.912   6.012   5.004
 1751SOL    HW1 6152   3.812   6.004   5.000
 1751SOL    HW2 6153   3.940   6.029   5.099
 1752SOL     OW 6154   0.164   2.369   1.629
 1752SOL    HW1 6155   0.229   2.333   1.561
 1752SOL    HW2 6156   0.202   2.357   1.721
 1753SOL     OW 6157   0.329   2.024   0.602
 1753SOL    HW1 6158   0.397   1.970   0.551
 1753SOL    HW2 6159   0.301   1.974   0.684
 1754SOL     OW 6160   2.364   3.814   0.667
 1754SOL    HW1 6161   2.292   3.882   0.677
 1754SOL    HW2 6162   2.391   3.779   0.757
 1755SOL     OW 6163   6.293   6.033   2.077
 1755SOL    HW1 6164   6.385   6.062   2.050
 1755SOL    HW2 6165   6.300   5.970   2.154
 1756SOL     OW 6166   4.027   5.016   6.110
 1756SOL    HW1 6167   3.952   4.972   6.061
 1756SOL    HW2 6168   4.115   4.986   6.072
 1757SOL     OW 6169   2.123   4.706   4.682
 1757SOL    HW1 6170   2.046   4.766   4.659
 1757SOL    HW2 6171   2.182   4.696   4.602
 1758SOL     OW 6172   1.872   0.422   3.992
 1758SOL    HW1 6173   1.776   0.409   3.965
 1758SOL    HW2 6174   1.877   0.491   4.065
 1759SOL     OW 6175   2.120   5.436   6.377
 1759SOL    HW1 6176   2.036   5.396   6.340
 1759SOL    HW2 6177   2.097   5.499   6.451
 1760SOL     OW 6178   5.705   1.732   2.665
 1760SOL    HW1 6179   5.805   1.727   2.672
 1760SOL    HW2 6180   5.676   1.696   2.576
 1761SOL     OW 6181   0.472   0.159   6.878
 1761SOL    HW1 6182   0.385   0.195   6.844
 1761SOL    HW2 6183   0.535   0.235   6.896
 1762SOL     OW 6184   0.225   1.894   4.773
 1762SOL    HW1 6185   0.248   1.978   4.724
 1762SOL    HW2 6186   0.129   1.899   4.803
 1763SOL     OW 6187   1.316   3.315   3.730
 1763SOL    HW1 6188   1.357   3.405   3.739
 1763SOL    HW2 6189   1.279   3.285   3.818
 1764SOL     OW 6190   2.114   3.661   2.216
 1764SOL    HW1 6191   2.131   3.757   2.191
 1764SOL    HW2 6192   2.150   3.601   2.144
 1765SOL     OW 6193   3.942   1.348   0.804
 1765SOL    HW1 6194   3.885   1.344   0.886
 1765SOL    HW2 6195   3.943   1.259   0.759
 1766SOL     OW 6196   4.910   3.046   2.704
 1766SOL    HW1 6197   4.903   3.087   2.613
 1766SOL    HW2 6198   4.853   2.964   2.707
 1767SOL     OW 6199   0.288   3.250   2.823
 1767SOL    HW1 6200   0.377   3.246   2.870
 1767SOL    HW2 6201   0.233   3.324   2.862
 1768SOL     OW 6202   4.165   1.527   5.274
 1768SOL    HW1 6203   4.182   1.623   5.295
 1768SOL    HW2 6204   4.159   1.475   5.360
 1769SOL     OW 6205   4.252   2.873   5.837
 1769SOL    HW1 6206   4.283   2.828   5.753
 1769SOL    HW2 6207   4.243   2.971   5.821
 1770SOL     OW 6208   6.705   5.070   4.909
 1770SOL    HW1 6209   6.654   5.074   4.824
 1770SOL    HW2 6210   6.778   5.138   4.907
 1771SOL     OW 6211   2.744   5.368   0.171
 1771SOL    HW1 6212   2.684   5.288   0.177
 1771SOL    HW2 6213   2.755   5.393   0.075
 1772SOL     OW 6214   3.566   6.591   3.066
 1772SOL    HW1 6215   3.600   6.547   2.983
 1772SOL    HW2 6216   3.635   6.654   3.101
 1773SOL     OW 6217   3.015   4.220   6.656
 1773SOL    HW1 6218   3.114   4.212   6.659
 1773SOL    HW2 6219   2.975   4.129   6.642
 1774SOL     OW 6220   4.087   6.949   1.709
 1774SOL    HW1 6221   4.182   6.958   1.678
 1774SOL    HW2 6222   4.044   6.873   1.661
 1775SOL     OW 6223   1.319   5.413   4.039
 1775SOL    HW1 6224   1.302   5.323   4.078
 1775SOL    HW2 6225   1.397   5.409   3.977
 1776SOL     OW 6226   3.552   0.619   5.925
 1776SOL    HW1 6227   3.522   0.530   5.957
 1776SOL    HW2 6228   3.508   0.691   5.979
 1777SOL     OW 6229   3.049   5.314   5.238
 1777SOL    HW1 6230   2.958   5.309   5.199
 1777SOL    HW2 6231   3.071   5.408   5.262
 1778SOL     OW 6232   4.608   2.155   4.843
 1778SOL    HW1 6233   4.604   2.123   4.937
 1778SOL    HW2 6234   4.527   2.210   4.823
 1779SOL     OW 6235   5.163   1.593   4.526
 1779SOL    HW1 6236   5.175   1.677   4.578
 1779SOL    HW2 6237   5.216   1.598   4.442
 1780SOL     OW 6238   2.471   4.763   5.969
 1780SOL    HW1 6239   2.401   4.696   5.943
 1780SOL    HW2 6240   2.514   4.801   5.887
 1781SOL     OW 6241   4.022   5.342   3.595
 1781SOL    HW1 6242   4.118   5.347   3.567
 1781SOL    HW2 6243   4.016   5.300   3.686
 1782SOL     OW 6244   3.047   1.472   3.027
 1782SOL    HW1 6245   3.060   1.460   3.125
 1782SOL    HW2 6246   3.116   1.419   2.977
 1783SOL     OW 6247   1.757   3.399   6.471
 1783SOL    HW1 6248   1.768   3.355   6.382
 1783SOL    HW2 6249   1.733   3.329   6.539
 1784SOL     OW 6250   3.160   0.399   3.852
 1784SOL    HW1 6251   3.150   0.350   3.766
 1784SOL    HW2 6252   3.095   0.362   3.919
 1785SOL     OW 6253   5.205   6.010   3.798
 1785SOL    HW1 6254   5.193   6.108   3.787
 1785SOL    HW2 6255   5.274   5.978   3.734
 1786SOL     OW 6256   1.129   3.208   0.899
 1786SOL    HW1 6257   1.196   3.161   0.956
 1786SOL    HW2 6258   1.155   3.304   0.891
 1787SOL     OW 6259   2.041   1.011   4.556
 1787SOL    HW1 6260   2.097   1.093   4.548
 1787SOL    HW2 6261   2.010   0.983   4.465
 1788SOL     OW 6262   3.160   2.970   0.510
 1788SOL    HW1 6263   3.131   3.059   0.474
 1788SOL    HW2 6264   3.089   2.934   0.571
 1789SOL     OW 6265   6.903   2.355   2.068
 1789SOL    HW1 6266   6.856   2.271   2.095
 1789SOL    HW2 6267   6.952   2.340   1.982
 1790SOL     OW 6268   4.225   6.459   4.424
 1790SOL    HW1 6269   4.233   6.513   4.340
 1790SOL    HW2 6270   4.313   6.457   4.470
 1791SOL     OW 6271   0.511   2.012   4.461
 1791SOL    HW1 6272   0.477   1.994   4.369
 1791SOL    HW2 6273   0.602   2.051   4.456
 1792SOL     OW 6274   0.934   2.473   3.807
 1792SOL    HW1 6275   0.940   2.563   3.763
 1792SOL    HW2 6276   1.012   2.461   3.868
 1793SOL     OW 6277   6.517   0.118   3.281
 1793SOL    HW1 6278   6.552   0.204   3.243
 1793SOL    HW2 6279   6.420   0.129   3.304
 1794SOL     OW 6280   5.042   6.290   6.667
 1794SOL    HW1 6281   5.094   6.300   6.751
 1794SOL    HW2 6282   5.105   6.289   6.589
 1795SOL     OW 6283   0.708   3.781   2.439
 1795SOL    HW1 6284   0.710   3.854   2.507
 1795SOL    HW2 6285   0.666   3.700   2.480
 1796SOL     OW 6286   1.812   1.272   4.887
 1796SOL    HW1 6287   1.898   1.322   4.891
 1796SOL    HW2 6288   1.774   1.263   4.979
 1797SOL     OW 6289   1.204   1.132   6.468
 1797SOL    HW1 6290   1.154   1.050   6.496
 1797SOL    HW2 6291   1.240   1.119   6.375
 1798SOL     OW 6292   4.584   2.534   5.653
 1798SOL    HW1 6293   4.622   2.625   5.636
 1798SOL    HW2 6294   4.659   2.468   5.657
 1799SOL     OW 6295   6.826   1.930   6.250
 1799SOL    HW1 6296   6.883   1.917   6.331
 1799SOL    HW2 6297   6.808   1.841   6.208
 1800SOL     OW 6298   4.369   5.414   3.336
 1800SOL    HW1 6299   4.430   5.455   3.405
 1800SOL    HW2 6300   4.342   5.484   3.270
 1801SOL     OW 6301   1.266   1.381   2.275
 1801SOL    HW1 6302   1.274   1.342   2.184
 1801SOL    HW2 6303   1.275   1.481   2.270
 1802SOL     OW 6304   5.794   5.153   2.342
 1802SOL    HW1 6305   5.892   5.167   2.355
 1802SOL    HW2 6306   5.765   5.069   2.388
 1803SOL     OW 6307   6.729   5.456   0.849
 1803SOL    HW1 6308   6.655   5.442   0.782
 1803SOL    HW2 6309   6.817   5.459   0.801
 1804SOL     OW 6310   2.038   3.444   6.180
 1804SOL    HW1 6311   2.061   3.352   6.212
 1804SOL    HW2 6312   2.086   3.463   6.094
 1805SOL     OW 6313   0.362   4.026   5.303
 1805SOL    HW1 6314   0.277   3.974   5.309
 1805SOL    HW2 6315   0.430   3.972   5.253
 1806SOL     OW 6316   1.201   0.978   1.233
 1806SOL    HW1 6317   1.211   0.894   1.287
 1806SOL    HW2 6318   1.272   0.981   1.163
 1807SOL     OW 6319   5.241   2.109   6.333
 1807SOL    HW1 6320   5.194   2.098   6.246
 1807SOL    HW2 6321   5.212   2.194   6.377
 1808SOL     OW 6322   6.101   3.491   4.982
 1808SOL    HW1 6323   6.191   3.456   4.956
 1808SOL    HW2 6324   6.111   3.578   5.030
 1809SOL     OW 6325   2.135   2.835   4.490
 1809SOL    HW1 6326   2.197   2.816   4.566
 1809SOL    HW2 6327   2.042   2.841   4.524
 1810SOL     OW 6328   2.574   0.488   5.813
 1810SOL    HW1 6329   2.532   0.574   5.785
 1810SOL    HW2 6330   2.650   0.466   5.752
 1811SOL     OW 6331   4.092   4.819   3.219
 1811SOL    HW1 6332   4.063   4.786   3.129
 1811SOL    HW2 6333   4.011   4.841   3.274
 1812SOL     OW 6334   4.361   0.181   6.570
 1812SOL    HW1 6335   4.396   0.103   6.622
 1812SOL    HW2 6336   4.388   0.266   6.616
 1813SOL     OW 6337   4.284   4.854   1.200
 1813SOL    HW1 6338   4.276   4.946   1.239
 1813SOL    HW2 6339   4.223   4.846   1.121
 1814SOL     OW 6340   6.824   0.563   0.044
 1814SOL    HW1 6341   6.870   0.528   0.126
 1814SOL    HW2 6342   6.746   0.504   0.022
 1815SOL     OW 6343   6.699   2.060   1.702
 1815SOL    HW1 6344   6.760   1.981   1.692
 1815SOL    HW2 6345   6.640   2.066   1.621
 1816SOL     OW 6346   1.868   4.037   1.233
 1816SOL    HW1 6347   1.936   4.110   1.235
 1816SOL    HW2 6348   1.862   3.999   1.141
 1817SOL     OW 6349   3.368   6.643   2.811
 1817SOL    HW1 6350   3.298   6.596   2.865
 1817SOL    HW2 6351   3.443   6.580   2.791
 1818SOL     OW 6352   2.632   5.940   2.324
 1818SOL    HW1 6353   2.666   6.018   2.271
 1818SOL    HW2 6354   2.616   5.862   2.263
 1819SOL     OW 6355   0.687   5.599   1.306
 1819SOL    HW1 6356   0.753   5.638   1.370
 1819SOL    HW2 6357   0.651   5.513   1.344
 1820SOL     OW 6358   2.779   0.979   2.542
 1820SOL    HW1 6359   2.794   0.939   2.632
 1820SOL    HW2 6360   2.867   0.995   2.498
 1821SOL     OW 6361   3.000   0.606   1.742
 1821SOL    HW1 6362   2.968   0.632   1.651
 1821SOL    HW2 6363   2.929   0.553   1.788
 1822SOL     OW 6364   2.070   3.253   1.245
 1822SOL    HW1 6365   2.006   3.318   1.206
 1822SOL    HW2 6366   2.131   3.300   1.309
 1823SOL     OW 6367   2.606   5.823   2.775
 1823SOL    HW1 6368   2.696   5.788   2.800
 1823SOL    HW2 6369   2.611   5.922   2.762
 1824SOL     OW 6370   3.488   4.154   1.713
 1824SOL    HW1 6371   3.538   4.239   1.729
 1824SOL    HW2 6372   3.408   4.150   1.773
 1825SOL     OW 6373   1.502   2.491   3.833
 1825SOL    HW1 6374   1.481   2.394   3.825
 1825SOL    HW2 6375   1.460   2.528   3.916
 1826SOL     OW 6376   3.580   0.686   1.327
 1826SOL    HW1 6377   3.668   0.724   1.356
 1826SOL    HW2 6378   3.596   0.616   1.256
 1827SOL     OW 6379   0.438   5.561   1.558
 1827SOL    HW1 6380   0.538   5.558   1.552
 1827SOL    HW2 6381   0.398   5.512   1.481
 1828SOL     OW 6382   1.304   2.855   0.642
 1828SOL    HW1 6383   1.394   2.813   0.628
 1828SOL    HW2 6384   1.244   2.830   0.566
 1829SOL     OW 6385   2.559   0.689   3.045
 1829SOL    HW1 6386   2.629   0.760   3.041
 1829SOL    HW2 6387   2.583   0.614   2.984
 1830SOL     OW 6388   6.066   6.748   3.720
 1830SOL    HW1 6389   6.088   6.763   3.623
 1830SOL    HW2 6390   6.018   6.661   3.729
 1831SOL     OW 6391   5.817   0.242   2.290
 1831SOL    HW1 6392   5.815   0.142   2.301
 1831SOL    HW2 6393   5.773   0.267   2.204
 1832SOL     OW 6394   4.609   1.287   1.367
 1832SOL    HW1 6395   4.519   1.279   1.325
 1832SOL    HW2 6396   4.613   1.370   1.424
 1833SOL     OW 6397   5.817   0.815   0.350
 1833SOL    HW1 6398   5.794   0.912   0.345
 1833SOL    HW2 6399   5.752   0.763   0.295
 1834SOL     OW 6400   2.941   3.492   0.832
 1834SOL    HW1 6401   2.980   3.572   0.787
 1834SOL    HW2 6402   3.008   3.452   0.894
 1835SOL     OW 6403   0.326   4.415   2.134
 1835SOL    HW1 6404   0.390   4.484   2.166
 1835SOL    HW2 6405   0.371   4.353   2.070
 1836SOL     OW 6406   4.870   2.019   1.603
 1836SOL    HW1 6407   4.815   1.957   1.659
 1836SOL    HW2 6408   4.947   2.053   1.657
 1837SOL     OW 6409   0.717   0.405   4.876
 1837SOL    HW1 6410   0.657   0.417   4.955
 1837SOL    HW2 6411   0.807   0.445   4.895
 1838SOL     OW 6412   7.006   1.236   4.821
 1838SOL    HW1 6413   6.923   1.196   4.782
 1838SOL    HW2 6414   0.033   1.286   4.751
 1839SOL     OW 6415   6.303   2.461   4.799
 1839SOL    HW1 6416   6.238   2.533   4.774
 1839SOL    HW2 6417   6.354   2.489   4.880
 1840SOL     OW 6418   3.746   6.943   1.487
 1840SOL    HW1 6419   3.770   6.880   1.560
 1840SOL    HW2 6420   3.729   0.011   1.525
 1841SOL     OW 6421   2.137   1.141   3.007
 1841SOL    HW1 6422   2.138   1.198   2.924
 1841SOL    HW2 6423   2.143   1.200   3.087
 1842SOL     OW 6424   1.786   5.829   0.206
 1842SOL    HW1 6425   1.784   5.923   0.240
 1842SOL    HW2 6426   1.701   5.809   0.158
 1843SOL     OW 6427   6.286   2.092   3.276
 1843SOL    HW1 6428   6.205   2.033   3.286
 1843SOL    HW2 6429   6.300   2.144   3.360
 1844SOL     OW 6430   3.204   6.355   5.498
 1844SOL    HW1 6431   3.105   6.361   5.514
 1844SOL    HW2 6432   3.229   6.421   5.427
 1845SOL     OW 6433   2.853   0.116   4.613
 1845SOL    HW1 6434   2.893   0.146   4.700
 1845SOL    HW2 6435   2.848   0.193   4.550
 1846SOL     OW 6436   3.307   1.900   1.640
 1846SOL    HW1 6437   3.277   1.821   1.587
 1846SOL    HW2 6438   3.334   1.871   1.732
 1847SOL     OW 6439   1.510   0.844   6.925
 1847SOL    HW1 6440   1.466   0.834   7.014
 1847SOL    HW2 6441   1.472   0.923   6.877
 1848SOL     OW 6442   1.589   5.955   3.441
 1848SOL    HW1 6443   1.570   5.904   3.525
 1848SOL    HW2 6444   1.511   5.950   3.380
 1849SOL     OW 6445   3.902   2.538   1.344
 1849SOL    HW1 6446   3.983   2.515   1.398
 1849SOL    HW2 6447   3.824   2.486   1.378
 1850SOL     OW 6448   0.636   2.920   1.393
 1850SOL    HW1 6449   0.613   2.946   1.487
 1850SOL    HW2 6450   0.736   2.916   1.384
 1851SOL     OW 6451   0.421   2.638   0.234
 1851SOL    HW1 6452   0.493   2.572   0.254
 1851SOL    HW2 6453   0.332   2.600   0.258
 1852SOL     OW 6454   6.102   4.505   2.593
 1852SOL    HW1 6455   6.133   4.566   2.520
 1852SOL    HW2 6456   6.154   4.419   2.590
 1853SOL     OW 6457   0.290   2.247   2.686
 1853SOL    HW1 6458   0.232   2.217   2.762
 1853SOL    HW2 6459   0.254   2.332   2.649
 1854SOL     OW 6460   2.309   5.873   3.061
 1854SOL    HW1 6461   2.233   5.827   3.107
 1854SOL    HW2 6462   2.296   5.972   3.065
 1855SOL     OW 6463   5.254   2.583   5.545
 1855SOL    HW1 6464   5.239   2.584   5.644
 1855SOL    HW2 6465   5.283   2.674   5.515
 1856SOL     OW 6466   5.988   4.251   5.754
 1856SOL    HW1 6467   5.917   4.308   5.711
 1856SOL    HW2 6468   6.054   4.222   5.685
 1857SOL     OW 6469   4.833   2.076   5.975
 1857SOL    HW1 6470   4.838   2.070   5.876
 1857SOL    HW2 6471   4.806   1.987   6.013
 1858SOL     OW 6472   6.018   4.161   3.971
 1858SOL    HW1 6473   5.984   4.070   3.993
 1858SOL    HW2 6474   5.969   4.229   4.026
 1859SOL     OW 6475   5.965   2.757   3.452
 1859SOL    HW1 6476   5.929   2.673   3.494
 1859SOL    HW2 6477   6.065   2.752   3.448
 1860SOL     OW 6478   6.624   0.500   5.627
 1860SOL    HW1 6479   6.724   0.492   5.628
 1860SOL    HW2 6480   6.594   0.533   5.537
 1861SOL     OW 6481   6.281   6.883   2.143
 1861SOL    HW1 6482   6.201   6.939   2.162
 1861SOL    HW2 6483   6.288   6.809   2.210
 1862SOL     OW 6484   3.013   0.072   6.000
 1862SOL    HW1 6485   2.996   7.012   5.946
 1862SOL    HW2 6486   3.096   0.061   6.053
 1863SOL     OW 6487   0.693   2.726   3.498
 1863SOL    HW1 6488   0.733   2.816   3.482
 1863SOL    HW2 6489   0.608   2.737   3.550
 1864SOL     OW 6490   1.619   6.715   4.728
 1864SOL    HW1 6491   1.683   6.643   4.756
 1864SOL    HW2 6492   1.666   6.803   4.726
 1865SOL     OW 6493   3.492   6.656   6.691
 1865SOL    HW1 6494   3.532   6.724   6.752
 1865SOL    HW2 6495   3.398   6.638   6.720
 1866SOL     OW 6496   5.039   5.022   2.772
 1866SOL    HW1 6497   4.940   5.028   2.764
 1866SOL    HW2 6498   5.082   5.048   2.686
 1867SOL     OW 6499   0.789   3.892   0.378
 1867SOL    HW1 6500   0.694   3.862   0.389
 1867SOL    HW2 6501   0.792   3.992   0.377
 1868SOL     OW 6502   5.003   3.129   6.147
 1868SOL    HW1 6503   5.032   3.086   6.232
 1868SOL    HW2 6504   5.058   3.094   6.071
 1869SOL     OW 6505   5.803   3.565   5.500
 1869SOL    HW1 6506   5.723   3.600   5.452
 1869SOL    HW2 6507   5.775   3.493   5.563
 1870SOL     OW 6508   1.072   3.055   5.121
 1870SOL    HW1 6509   1.018   3.130   5.159
 1870SOL    HW2 6510   1.161   3.090   5.090
 1871SOL     OW 6511   0.723   0.376   6.590
 1871SOL    HW1 6512   0.730   0.288   6.542
 1871SOL    HW2 6513   0.742   0.450   6.526
 1872SOL     OW 6514   4.145   1.671   6.810
 1872SOL    HW1 6515   4.232   1.622   6.798
 1872SOL    HW2 6516   4.156   1.742   6.879
 1873SOL     OW 6517   5.337   1.071   6.558
 1873SOL    HW1 6518   5.332   1.129   6.639
 1873SOL    HW2 6519   5.281   1.110   6.485
 1874SOL     OW 6520   2.694   0.860   0.891
 1874SOL    HW1 6521   2.691   0.948   0.843
 1874SOL    HW2 6522   2.787   0.824   0.889
 1875SOL     OW 6523   0.165   0.391   0.168
 1875SOL    HW1 6524   0.202   0.306   0.207
 1875SOL    HW2 6525   0.081   0.371   0.119
 1876SOL     OW 6526   3.802   5.923   6.387
 1876SOL    HW1 6527   3.860   5.974   6.323
 1876SOL    HW2 6528   3.843   5.835   6.407
 1877SOL     OW 6529   0.933   1.423   3.520
 1877SOL    HW1 6530   0.968   1.419   3.427
 1877SOL    HW2 6531   0.834   1.437   3.519
 1878SOL     OW 6532   0.133   3.270   4.265
 1878SOL    HW1 6533   0.154   3.185   4.217
 1878SOL    HW2 6534   0.190   3.344   4.228
 1879SOL     OW 6535   2.113   5.104   3.705
 1879SOL    HW1 6536   2.113   5.169   3.629
 1879SOL    HW2 6537   2.028   5.051   3.703
 1880SOL     OW 6538   6.516   0.358   3.833
 1880SOL    HW1 6539   6.443   0.293   3.850
 1880SOL    HW2 6540   6.603   0.320   3.865
 1881SOL     OW 6541   6.783   3.448   2.875
 1881SOL    HW1 6542   6.715   3.477   2.808
 1881SOL    HW2 6543   6.750   3.466   2.967
 1882SOL     OW 6544   1.220   3.771   6.984
 1882SOL    HW1 6545   1.144   3.732   6.932
 1882SOL    HW2 6546   1.184   3.834   0.031
 1883SOL     OW 6547   1.339   2.326   3.519
 1883SOL    HW1 6548   1.297   2.246   3.562
 1883SOL    HW2 6549   1.271   2.398   3.509
 1884SOL     OW 6550   6.437   3.135   0.027
 1884SOL    HW1 6551   6.498   3.123   0.106
 1884SOL    HW2 6552   6.357   3.188   0.055
 1885SOL     OW 6553   1.123   1.613   5.976
 1885SOL    HW1 6554   1.207   1.602   5.923
 1885SOL    HW2 6555   1.112   1.534   6.038
 1886SOL     OW 6556   2.275   0.159   1.213
 1886SOL    HW1 6557   2.275   0.206   1.301
 1886SOL    HW2 6558   2.263   0.061   1.228
 1887SOL     OW 6559   1.828   5.838   5.439
 1887SOL    HW1 6560   1.797   5.832   5.534
 1887SOL    HW2 6561   1.789   5.920   5.397
 1888SOL     OW 6562   3.354   2.580   7.017
 1888SOL    HW1 6563   3.256   2.577   0.010
 1888SOL    HW2 6564   3.379   2.516   6.944
 1889SOL     OW 6565   6.601   3.302   6.038
 1889SOL    HW1 6566   6.676   3.364   6.063
 1889SOL    HW2 6567   6.615   3.213   6.081
 1890SOL     OW 6568   1.873   6.375   4.445
 1890SOL    HW1 6569   1.810   6.451   4.431
 1890SOL    HW2 6570   1.900   6.337   4.356
 1891SOL     OW 6571   6.109   2.630   2.884
 1891SOL    HW1 6572   6.179   2.701   2.881
 1891SOL    HW2 6573   6.062   2.632   2.972
 1892SOL     OW 6574   2.959   1.155   0.959
 1892SOL    HW1 6575   2.887   1.140   0.891
 1892SOL    HW2 6576   3.040   1.191   0.914
 1893SOL     OW 6577   3.846   2.604   0.437
 1893SOL    HW1 6578   3.896   2.622   0.352
 1893SOL    HW2 6579   3.752   2.578   0.415
 1894SOL     OW 6580   3.988   3.619   3.737
 1894SOL    HW1 6581   3.893   3.618   3.708
 1894SOL    HW2 6582   4.042   3.674   3.674
 1895SOL     OW 6583   5.505   1.052   2.067
 1895SOL    HW1 6584   5.537   1.112   2.141
 1895SOL    HW2 6585   5.546   0.962   2.078
 1896SOL     OW 6586   6.401   0.537   1.624
 1896SOL    HW1 6587   6.337   0.611   1.602
 1896SOL    HW2 6588   6.373   0.492   1.708
 1897SOL     OW 6589   1.299   4.256   2.364
 1897SOL    HW1 6590   1.249   4.285   2.282
 1897SOL    HW2 6591   1.298   4.157   2.371
 1898SOL     OW 6592   2.787   4.832   2.653
 1898SOL    HW1 6593   2.696   4.812   2.618
 1898SOL    HW2 6594   2.819   4.918   2.612
 1899SOL     OW 6595   1.022   1.699   2.204
 1899SOL    HW1 6596   0.987   1.790   2.223
 1899SOL    HW2 6597   0.955   1.630   2.231
 1900SOL     OW 6598   1.391   0.611   6.509
 1900SOL    HW1 6599   1.293   0.629   6.517
 1900SOL    HW2 6600   1.432   0.605   6.600
 1901SOL     OW 6601   1.949   2.648   0.955
 1901SOL    HW1 6602   1.931   2.561   1.001
 1901SOL    HW2 6603   1.976   2.717   1.022
 1902SOL     OW 6604   2.530   1.688   5.069
 1902SOL    HW1 6605   2.499   1.778   5.041
 1902SOL    HW2 6606   2.572   1.693   5.160
 1903SOL     OW 6607   6.832   3.176   2.818
 1903SOL    HW1 6608   6.823   3.263   2.769
 1903SOL    HW2 6609   6.863   3.193   2.912
 1904SOL     OW 6610   6.005   6.228   4.122
 1904SOL    HW1 6611   5.945   6.150   4.107
 1904SOL    HW2 6612   5.963   6.311   4.084
 1905SOL     OW 6613   1.537   0.691   4.218
 1905SOL    HW1 6614   1.521   0.738   4.131
 1905SOL    HW2 6615   1.635   0.682   4.234
 1906SOL     OW 6616   1.906   0.262   4.983
 1906SOL    HW1 6617   1.922   0.203   4.904
 1906SOL    HW2 6618   1.994   0.290   5.022
 1907SOL     OW 6619   3.283   6.877   2.510
 1907SOL    HW1 6620   3.352   6.805   2.506
 1907SOL    HW2 6621   3.199   6.840   2.552
 1908SOL     OW 6622   3.870   6.894   4.876
 1908SOL    HW1 6623   3.870   6.968   4.944
 1908SOL    HW2 6624   3.783   6.844   4.880
 1909SOL     OW 6625   0.698   3.957   2.643
 1909SOL    HW1 6626   0.642   3.979   2.723
 1909SOL    HW2 6627   0.708   4.039   2.586
 1910SOL     OW 6628   0.065   2.884   6.508
 1910SOL    HW1 6629   0.079   2.817   6.436
 1910SOL    HW2 6630   7.001   2.932   6.493
 1911SOL     OW 6631   5.683   3.469   5.240
 1911SOL    HW1 6632   5.717   3.401   5.306
 1911SOL    HW2 6633   5.599   3.435   5.197
 1912SOL     OW 6634   3.545   6.101   0.689
 1912SOL    HW1 6635   3.573   6.193   0.663
 1912SOL    HW2 6636   3.478   6.107   0.763
 1913SOL     OW 6637   1.725   6.078   4.622
 1913SOL    HW1 6638   1.725   5.993   4.569
 1913SOL    HW2 6639   1.820   6.107   4.637
 1914SOL     OW 6640   3.971   2.616   6.197
 1914SOL    HW1 6641   4.063   2.647   6.221
 1914SOL    HW2 6642   3.918   2.600   6.281
 1915SOL     OW 6643   4.315   2.314   5.429
 1915SOL    HW1 6644   4.378   2.237   5.423
 1915SOL    HW2 6645   4.310   2.346   5.524
 1916SOL     OW 6646   4.038   5.918   1.091
 1916SOL    HW1 6647   4.129   5.881   1.113
 1916SOL    HW2 6648   3.984   5.848   1.045
 1917SOL     OW 6649   3.015   2.930   5.258
 1917SOL    HW1 6650   3.016   2.956   5.162
 1917SOL    HW2 6651   3.063   2.844   5.270
 1918SOL     OW 6652   0.627   1.257   5.010
 1918SOL    HW1 6653   0.601   1.212   5.095
 1918SOL    HW2 6654   0.715   1.304   5.022
 1919SOL     OW 6655   2.030   0.356   1.663
 1919SOL    HW1 6656   1.985   0.446   1.660
 1919SOL    HW2 6657   2.001   0.307   1.745
 1920SOL     OW 6658   1.392   4.443   2.574
 1920SOL    HW1 6659   1.347   4.364   2.534
 1920SOL    HW2 6660   1.468   4.472   2.516
 1921SOL     OW 6661   1.335   4.526   6.519
 1921SOL    HW1 6662   1.246   4.525   6.474
 1921SOL    HW2 6663   1.373   4.618   6.517
 1922SOL     OW 6664   2.165   3.932   1.241
 1922SOL    HW1 6665   2.200   3.839   1.250
 1922SOL    HW2 6666   2.162   3.976   1.331
 1923SOL     OW 6667   3.253   0.507   5.407
 1923SOL    HW1 6668   3.248   0.534   5.503
 1923SOL    HW2 6669   3.338   0.541   5.367
 1924SOL     OW 6670   4.636   5.577   1.227
 1924SOL    HW1 6671   4.577   5.506   1.265
 1924SOL    HW2 6672   4.619   5.663   1.275
 1925SOL     OW 6673   2.237   4.976   0.477
 1925SOL    HW1 6674   2.266   5.064   0.514
 1925SOL    HW2 6675   2.137   4.973   0.474
 1926SOL     OW 6676   2.015   6.705   3.474
 1926SOL    HW1 6677   2.085   6.748   3.531
 1926SOL    HW2 6678   1.925   6.734   3.505
 1927SOL     OW 6679   2.782   4.638   6.440
 1927SOL    HW1 6680   2.691   4.665   6.471
 1927SOL    HW2 6681   2.809   4.552   6.482
 1928SOL     OW 6682   6.866   4.537   5.897
 1928SOL    HW1 6683   6.796   4.493   5.841
 1928SOL    HW2 6684   6.845   4.634   5.908
 1929SOL     OW 6685   1.526   5.435   1.447
 1929SOL    HW1 6686   1.509   5.519   1.499
 1929SOL    HW2 6687   1.608   5.448   1.391
 1930SOL     OW 6688   3.329   4.246   6.408
 1930SOL    HW1 6689   3.334   4.203   6.318
 1930SOL    HW2 6690   3.267   4.324   6.404
 1931SOL     OW 6691   0.837   3.508   2.287
 1931SOL    HW1 6692   0.813   3.438   2.353
 1931SOL    HW2 6693   0.908   3.567   2.326
 1932SOL     OW 6694   4.856   2.965   3.161
 1932SOL    HW1 6695   4.867   3.012   3.073
 1932SOL    HW2 6696   4.882   3.028   3.235
 1933SOL     OW 6697   2.184   3.337   0.784
 1933SOL    HW1 6698   2.177   3.416   0.724
 1933SOL    HW2 6699   2.095   3.291   0.790
 1934SOL     OW 6700   0.235   6.968   5.393
 1934SOL    HW1 6701   0.192   6.877   5.389
 1934SOL    HW2 6702   0.244   7.004   5.300
 1935SOL     OW 6703   4.202   6.313   3.704
 1935SOL    HW1 6704   4.127   6.258   3.739
 1935SOL    HW2 6705   4.177   6.352   3.616
 1936SOL     OW 6706   5.782   3.707   3.709
 1936SOL    HW1 6707   5.748   3.692   3.802
 1936SOL    HW2 6708   5.834   3.792   3.707
 1937SOL     OW 6709   4.234   6.476   1.259
 1937SOL    HW1 6710   4.171   6.526   1.200
 1937SOL    HW2 6711   4.187   6.449   1.343
 1938SOL     OW 6712   2.426   1.634   1.435
 1938SOL    HW1 6713   2.345   1.637   1.376
 1938SOL    HW2 6714   2.504   1.672   1.386
 1939SOL     OW 6715   6.535   6.719   4.577
 1939SOL    HW1 6716   6.441   6.733   4.608
 1939SOL    HW2 6717   6.534   6.691   4.480
 1940SOL     OW 6718   5.622   4.921   0.759
 1940SOL    HW1 6719   5.697   4.866   0.722
 1940SOL    HW2 6720   5.644   5.018   0.748
 1941SOL     OW 6721   1.119   3.578   4.357
 1941SOL    HW1 6722   1.171   3.495   4.377
 1941SOL    HW2 6723   1.077   3.613   4.441
 1942SOL     OW 6724   5.127   1.882   1.345
 1942SOL    HW1 6725   5.089   1.935   1.421
 1942SOL    HW2 6726   5.053   1.839   1.294
 1943SOL     OW 6727   2.380   6.244   3.745
 1943SOL    HW1 6728   2.440   6.181   3.796
 1943SOL    HW2 6729   2.432   6.290   3.674
 1944SOL     OW 6730   6.440   2.875   6.946
 1944SOL    HW1 6731   6.407   2.962   6.982
 1944SOL    HW2 6732   6.510   2.893   6.876
 1945SOL     OW 6733   3.605   5.260   0.899
 1945SOL    HW1 6734   3.525   5.201   0.888
 1945SOL    HW2 6735   3.654   5.266   0.812
 1946SOL     OW 6736   6.108   6.605   0.954
 1946SOL    HW1 6737   6.190   6.653   0.921
 1946SOL    HW2 6738   6.048   6.585   0.876
 1947SOL     OW 6739   5.401   6.453   4.382
 1947SOL    HW1 6740   5.424   6.356   4.376
 1947SOL    HW2 6741   5.341   6.468   4.460
 1948SOL     OW 6742   5.883   5.214   3.481
 1948SOL    HW1 6743   5.954   5.272   3.522
 1948SOL    HW2 6744   5.805   5.208   3.543
 1949SOL     OW 6745   3.411   3.631   5.926
 1949SOL    HW1 6746   3.375   3.566   5.859
 1949SOL    HW2 6747   3.396   3.595   6.018
 1950SOL     OW 6748   4.183   3.027   0.535
 1950SOL    HW1 6749   4.108   2.960   0.531
 1950SOL    HW2 6750   4.222   3.039   0.443
 1951SOL     OW 6751   6.014   4.562   6.949
 1951SOL    HW1 6752   6.013   4.475   6.901
 1951SOL    HW2 6753   5.922   4.581   6.986
 1952SOL     OW 6754   4.838   3.422   1.567
 1952SOL    HW1 6755   4.914   3.381   1.517
 1952SOL    HW2 6756   4.763   3.357   1.573
 1953SOL     OW 6757   6.088   1.657   5.652
 1953SOL    HW1 6758   6.101   1.604   5.736
 1953SOL    HW2 6759   6.009   1.718   5.663
 1954SOL     OW 6760   6.745   0.680   2.310
 1954SOL    HW1 6761   6.695   0.593   2.305
 1954SOL    HW2 6762   6.775   0.705   2.218
 1955SOL     OW 6763   0.827   0.870   2.850
 1955SOL    HW1 6764   0.776   0.785   2.853
 1955SOL    HW2 6765   0.787   0.936   2.914
 1956SOL     OW 6766   4.697   0.162   2.093
 1956SOL    HW1 6767   4.603   0.158   2.127
 1956SOL    HW2 6768   4.749   0.226   2.149
 1957SOL     OW 6769   5.875   4.377   4.137
 1957SOL    HW1 6770   5.835   4.318   4.207
 1957SOL    HW2 6771   5.929   4.449   4.182
 1958SOL     OW 6772   4.688   1.681   1.899
 1958SOL    HW1 6773   4.697   1.781   1.897
 1958SOL    HW2 6774   4.737   1.642   1.822
 1959SOL     OW 6775   1.378   0.389   4.033
 1959SOL    HW1 6776   1.411   0.394   4.127
 1959SOL    HW2 6777   1.455   0.394   3.970
 1960SOL     OW 6778   0.336   4.500   1.613
 1960SOL    HW1 6779   0.357   4.459   1.702
 1960SOL    HW2 6780   0.413   4.556   1.584
 1961SOL     OW 6781   6.019   4.551   4.906
 1961SOL    HW1 6782   6.083   4.538   4.830
 1961SOL    HW2 6783   5.982   4.462   4.933
 1962SOL     OW 6784   1.042   6.461   2.847
 1962SOL    HW1 6785   1.076   6.522   2.919
 1962SOL    HW2 6786   1.040   6.509   2.760
 1963SOL     OW 6787   1.116   1.734   1.366
 1963SOL    HW1 6788   1.129   1.759   1.462
 1963SOL    HW2 6789   1.111   1.634   1.358
 1964SOL     OW 6790   4.792   4.405   1.155
 1964SOL    HW1 6791   4.750   4.487   1.195
 1964SOL    HW2 6792   4.751   4.324   1.195
 1965SOL     OW 6793   1.320   3.087   4.552
 1965SOL    HW1 6794   1.375   3.008   4.580
 1965SOL    HW2 6795   1.379   3.166   4.540
 1966SOL     OW 6796   0.292   6.081   0.748
 1966SOL    HW1 6797   0.373   6.082   0.807
 1966SOL    HW2 6798   0.253   5.989   0.747
 1967SOL     OW 6799   5.630   3.067   5.163
 1967SOL    HW1 6800   5.634   2.989   5.102
 1967SOL    HW2 6801   5.699   3.134   5.136
 1968SOL     OW 6802   1.236   6.738   5.382
 1968SOL    HW1 6803   1.166   6.808   5.397
 1968SOL    HW2 6804   1.326   6.781   5.380
 1969SOL     OW 6805   2.195   1.980   0.540
 1969SOL    HW1 6806   2.142   1.898   0.562
 1969SOL    HW2 6807   2.272   1.988   0.603
 1970SOL     OW 6808   3.055   6.055   6.401
 1970SOL    HW1 6809   2.993   6.124   6.364
 1970SOL    HW2 6810   3.014   6.012   6.481
 1971SOL     OW 6811   0.466   0.384   5.716
 1971SOL    HW1 6812   0.537   0.339   5.770
 1971SOL    HW2 6813   0.392   0.413   5.776
 1972SOL     OW 6814   5.050   1.878   2.038
 1972SOL    HW1 6815   4.987   1.956   2.031
 1972SOL    HW2 6816   5.056   1.849   2.134
 1973SOL     OW 6817   3.367   2.875   0.674
 1973SOL    HW1 6818   3.349   2.810   0.748
 1973SOL    HW2 6819   3.280   2.906   0.635
 1974SOL     OW 6820   5.743   0.126   4.864
 1974SOL    HW1 6821   5.754   0.153   4.769
 1974SOL    HW2 6822   5.686   0.044   4.870
 1975SOL     OW 6823   2.069   1.563   4.493
 1975SOL    HW1 6824   1.973   1.588   4.505
 1975SOL    HW2 6825   2.123   1.599   4.568
 1976SOL     OW 6826   6.130   0.041   0.530
 1976SOL    HW1 6827   6.114   7.018   0.443
 1976SOL    HW2 6828   6.074   7.021   0.601
 1977SOL     OW 6829   2.011   3.071   4.747
 1977SOL    HW1 6830   2.104   3.070   4.784
 1977SOL    HW2 6831   2.005   3.139   4.674
 1978SOL     OW 6832   1.988   6.258   3.141
 1978SOL    HW1 6833   2.011   6.267   3.045
 1978SOL    HW2 6834   1.990   6.348   3.185
 1979SOL     OW 6835   5.619   4.459   0.163
 1979SOL    HW1 6836   5.624   4.359   0.169
 1979SOL    HW2 6837   5.671   4.491   0.084
 1980SOL     OW 6838   3.131   6.974   4.219
 1980SOL    HW1 6839   3.140   6.989   4.121
 1980SOL    HW2 6840   3.049   7.022   4.252
 1981SOL     OW 6841   6.873   3.084   1.934
 1981SOL    HW1 6842   6.834   3.126   2.016
 1981SOL    HW2 6843   6.860   2.985   1.938
 1982SOL     OW 6844   0.969   4.125   4.504
 1982SOL    HW1 6845   0.946   4.222   4.505
 1982SOL    HW2 6846   1.063   4.113   4.472
 1983SOL     OW 6847   1.124   0.844   2.209
 1983SOL    HW1 6848   1.101   0.755   2.247
 1983SOL    HW2 6849   1.224   0.852   2.201
 1984SOL     OW 6850   5.264   2.266   5.059
 1984SOL    HW1 6851   5.228   2.360   5.061
 1984SOL    HW2 6852   5.205   2.210   5.002
 1985SOL     OW 6853   0.843   6.454   2.299
 1985SOL    HW1 6854   0.815   6.385   2.231
 1985SOL    HW2 6855   0.773   6.461   2.370
 1986SOL     OW 6856   3.105   1.228   0.046
 1986SOL    HW1 6857   3.025   1.223   0.105
 1986SOL    HW2 6858   3.077   1.230   6.973
 1987SOL     OW 6859   2.278   1.761   2.874
 1987SOL    HW1 6860   2.310   1.748   2.780
 1987SOL    HW2 6861   2.345   1.723   2.938
 1988SOL     OW 6862   5.938   3.597   0.549
 1988SOL    HW1 6863   5.895   3.652   0.478
 1988SOL    HW2 6864   5.938   3.501   0.523
 1989SOL     OW 6865   1.982   5.638   4.784
 1989SOL    HW1 6866   2.041   5.622   4.863
 1989SOL    HW2 6867   1.985   5.735   4.760
 1990SOL     OW 6868   3.766   5.593   0.705
 1990SOL    HW1 6869   3.720   5.681   0.701
 1990SOL    HW2 6870   3.858   5.601   0.666
 1991SOL     OW 6871   3.036   4.740   6.418
 1991SOL    HW1 6872   2.938   4.727   6.408
 1991SOL    HW2 6873   3.083   4.652   6.408
 1992SOL     OW 6874   0.419   0.754   0.202
 1992SOL    HW1 6875   0.451   0.661   0.221
 1992SOL    HW2 6876   0.335   0.771   0.253
 1993SOL     OW 6877   3.758   2.468   5.632
 1993SOL    HW1 6878   3.686   2.515   5.581
 1993SOL    HW2 6879   3.847   2.504   5.604
 1994SOL     OW 6880   0.537   1.316   0.316
 1994SOL    HW1 6881   0.596   1.323   0.397
 1994SOL    HW2 6882   0.554   1.229   0.270
 1995SOL     OW 6883   5.269   2.387   3.683
 1995SOL    HW1 6884   5.205   2.462   3.703
 1995SOL    HW2 6885   5.355   2.426   3.649
 1996SOL     OW 6886   2.431   2.809   0.413
 1996SOL    HW1 6887   2.374   2.845   0.339
 1996SOL    HW2 6888   2.525   2.843   0.402
 1997SOL     OW 6889   2.933   2.261   4.694
 1997SOL    HW1 6890   2.999   2.186   4.695
 1997SOL    HW2 6891   2.977   2.346   4.724
 1998SOL     OW 6892   2.888   3.894   0.352
 1998SOL    HW1 6893   2.881   3.797   0.328
 1998SOL    HW2 6894   2.897   3.949   0.269
 1999SOL     OW 6895   2.159   6.298   6.092
 1999SOL    HW1 6896   2.228   6.250   6.147
 1999SOL    HW2 6897   2.085   6.235   6.070
 2000SOL     OW 6898   4.128   2.733   5.374
 2000SOL    HW1 6899   4.153   2.665   5.305
 2000SOL    HW2 6900   4.135   2.824   5.334
 2001SOL     OW 6901   2.637   0.071   1.524
 2001SOL    HW1 6902   2.548   0.047   1.485
 2001SOL    HW2 6903   2.631   0.162   1.566
 2002SOL     OW 6904   0.582   4.285   0.009
 2002SOL    HW1 6905   0.587   4.306   0.107
 2002SOL    HW2 6906   0.667   4.242   7.002
 2003SOL     OW 6907   6.326   5.555   2.584
 2003SOL    HW1 6908   6.406   5.501   2.559
 2003SOL    HW2 6909   6.246   5.495   2.591
 2004SOL     OW 6910   5.177   1.195   3.968
 2004SOL    HW1 6911   5.162   1.289   3.935
 2004SOL    HW2 6912   5.270   1.188   4.006
 2005SOL     OW 6913   0.117   4.553   0.428
 2005SOL    HW1 6914   0.181   4.610   0.481
 2005SOL    HW2 6915   0.148   4.548   0.333
 2006SOL     OW 6916   5.493   6.965   2.520
 2006SOL    HW1 6917   5.438   0.012   2.472
 2006SOL    HW2 6918   5.451   6.947   2.610
 2007SOL     OW 6919   4.546   4.487   0.516
 2007SOL    HW1 6920   4.570   4.542   0.435
 2007SOL    HW2 6921   4.623   4.487   0.579
 2008SOL     OW 6922   1.853   4.245   4.112
 2008SOL    HW1 6923   1.950   4.228   4.130
 2008SOL    HW2 6924   1.812   4.163   4.070
 2009SOL     OW 6925   5.220   0.343   2.793
 2009SOL    HW1 6926   5.167   0.258   2.800
 2009SOL    HW2 6927   5.315   0.321   2.771
 2010SOL     OW 6928   3.153   1.948   2.016
 2010SOL    HW1 6929   3.142   1.889   2.096
 2010SOL    HW2 6930   3.078   2.015   2.013
 2011SOL     OW 6931   0.027   0.590   4.930
 2011SOL    HW1 6932   0.084   0.639   4.864
 2011SOL    HW2 6933   6.987   0.529   4.882
 2012SOL     OW 6934   0.969   4.396   2.301
 2012SOL    HW1 6935   1.060   4.435   2.286
 2012SOL    HW2 6936   0.968   4.301   2.268
 2013SOL     OW 6937   6.588   2.801   2.777
 2013SOL    HW1 6938   6.656   2.731   2.755
 2013SOL    HW2 6939   6.621   2.858   2.852
 2014SOL     OW 6940   2.579   6.495   3.579
 2014SOL    HW1 6941   2.631   6.413   3.555
 2014SOL    HW2 6942   2.495   6.497   3.524
 2015SOL     OW 6943   2.050   0.457   0.059
 2015SOL    HW1 6944   2.087   0.402   7.006
 2015SOL    HW2 6945   2.106   0.539   0.071
 2016SOL     OW 6946   1.654   6.324   5.486
 2016SOL    HW1 6947   1.730   6.347   5.548
 2016SOL    HW2 6948   1.598   6.405   5.470
 2017SOL     OW 6949   3.809   0.484   3.736
 2017SOL    HW1 6950   3.710   0.481   3.723
 2017SOL    HW2 6951   3.855   0.444   3.657
 2018SOL     OW 6952   5.502   2.564   4.282
 2018SOL    HW1 6953   5.586   2.543   4.232
 2018SOL    HW2 6954   5.457   2.643   4.239
 2019SOL     OW 6955   5.039   3.852   5.911
 2019SOL    HW1 6956   5.087   3.819   5.830
 2019SOL    HW2 6957   5.095   3.921   5.957
 2020SOL     OW 6958   2.191   6.855   5.236
 2020SOL    HW1 6959   2.106   6.803   5.246
 2020SOL    HW2 6960   2.174   6.937   5.181
 2021SOL     OW 6961   0.079   6.967   4.691
 2021SOL    HW1 6962   0.166   6.952   4.644
 2021SOL    HW2 6963   0.027   0.015   4.642
 2022SOL     OW 6964   1.223   5.291   3.432
 2022SOL    HW1 6965   1.199   5.202   3.394
 2022SOL    HW2 6966   1.167   5.309   3.512
 2023SOL     OW 6967   0.175   0.545   6.526
 2023SOL    HW1 6968   0.236   0.547   6.606
 2023SOL    HW2 6969   0.231   0.540   6.443
 2024SOL     OW 6970   6.839   5.766   3.046
 2024SOL    HW1 6971   6.743   5.748   3.068
 2024SOL    HW2 6972   6.851   5.864   3.028
 2025SOL     OW 6973   3.329   1.000   3.900
 2025SOL    HW1 6974   3.237   1.012   3.937
 2025SOL    HW2 6975   3.332   1.038   3.807
 2026SOL     OW 6976   6.135   3.305   5.513
 2026SOL    HW1 6977   6.104   3.386   5.463
 2026SOL    HW2 6978   6.234   3.299   5.508
 2027SOL     OW 6979   1.142   0.187   0.030
 2027SOL    HW1 6980   1.066   0.220   6.996
 2027SOL    HW2 6981   1.149   0.243   0.113
 2028SOL     OW 6982   2.668   5.341   4.425
 2028SOL    HW1 6983   2.680   5.309   4.519
 2028SOL    HW2 6984   2.714   5.429   4.413
 2029SOL     OW 6985   6.475   1.998   0.025
 2029SOL    HW1 6986   6.458   1.972   0.121
 2029SOL    HW2 6987   6.554   2.059   0.021
 2030SOL     OW 6988   2.944   0.636   3.858
 2030SOL    HW1 6989   3.038   0.635   3.825
 2030SOL    HW2 6990   2.910   0.542   3.864
 2031SOL     OW 6991   6.994   5.789   1.620
 2031SOL    HW1 6992   6.912   5.800   1.678
 2031SOL    HW2 6993   0.005   5.695   1.627
 2032SOL     OW 6994   4.475   0.428   1.788
 2032SOL    HW1 6995   4.435   0.454   1.700
 2032SOL    HW2 6996   4.574   0.426   1.780
 2033SOL     OW 6997   2.914   3.074   6.849
 2033SOL    HW1 6998   2.996   3.054   6.903
 2033SOL    HW2 6999   2.839   3.015   6.879
 2034SOL     OW 7000   2.163   5.021   5.162
 2034SOL    HW1 7001   2.066   5.032   5.140
 2034SOL    HW2 7002   2.192   5.095   5.223
 2035SOL     OW 7003   6.534   6.786   3.557
 2035SOL    HW1 7004   6.554   6.882   3.538
 2035SOL    HW2 7005   6.496   6.777   3.650
 2036SOL     OW 7006   0.872   3.578   2.667
 2036SOL    HW1 7007   0.901   3.512   2.736
 2036SOL    HW2 7008   0.920   3.665   2.681
 2037SOL     OW 7009   6.414   3.363   5.512
 2037SOL    HW1 7010   6.475   3.317   5.448
 2037SOL    HW2 7011   6.449   3.353   5.605
 2038SOL     OW 7012   1.993   1.552   0.355
 2038SOL    HW1 7013   1.951   1.507   0.435
 2038SOL    HW2 7014   1.940   1.530   0.273
 2039SOL     OW 7015   6.828   5.663   3.518
 2039SOL    HW1 7016   6.807   5.753   3.556
 2039SOL    HW2 7017   6.762   5.641   3.446
 2040SOL     OW 7018   1.786   2.819   6.320
 2040SOL    HW1 7019   1.855   2.865   6.376
 2040SOL    HW2 7020   1.831   2.764   6.250
 2041SOL     OW 7021   0.854   6.526   5.692
 2041SOL    HW1 7022   0.926   6.524   5.761
 2041SOL    HW2 7023   0.884   6.580   5.613
 2042SOL     OW 7024   4.668   6.064   6.917
 2042SOL    HW1 7025   4.694   6.006   6.994
 2042SOL    HW2 7026   4.568   6.072   6.913
 2043SOL     OW 7027   6.492   3.808   3.544
 2043SOL    HW1 7028   6.521   3.733   3.484
 2043SOL    HW2 7029   6.517   3.787   3.638
 2044SOL     OW 7030   6.935   0.869   1.646
 2044SOL    HW1 7031   0.004   0.908   1.649
 2044SOL    HW2 7032   6.937   0.786   1.589
 2045SOL     OW 7033   1.545   5.317   4.373
 2045SOL    HW1 7034   1.466   5.370   4.343
 2045SOL    HW2 7035   1.552   5.234   4.319
 2046SOL     OW 7036   0.078   1.944   4.301
 2046SOL    HW1 7037   0.172   1.975   4.283
 2046SOL    HW2 7038   0.061   1.858   4.253
 2047SOL     OW 7039   6.943   3.133   0.445
 2047SOL    HW1 7040   6.900   3.222   0.463
 2047SOL    HW2 7041   6.943   3.079   0.530
 2048SOL     OW 7042   1.174   6.743   5.833
 2048SOL    HW1 7043   1.113   6.800   5.889
 2048SOL    HW2 7044   1.248   6.800   5.797
 2049SOL     OW 7045   5.839   1.436   3.974
 2049SOL    HW1 7046   5.900   1.492   4.030
 2049SOL    HW2 7047   5.841   1.342   4.007
 2050SOL     OW 7048   6.266   2.753   3.822
 2050SOL    HW1 7049   6.320   2.828   3.859
 2050SOL    HW2 7050   6.288   2.668   3.871
 2051SOL     OW 7051   1.307   5.752   6.709
 2051SOL    HW1 7052   1.376   5.681   6.722
 2051SOL    HW2 7053   1.352   5.838   6.686
 2052SOL     OW 7054   2.055   3.060   1.436
 2052SOL    HW1 7055   2.147   3.042   1.471
 2052SOL    HW2 7056   2.061   3.116   1.353
 2053SOL     OW 7057   6.421   6.046   4.504
 2053SOL    HW1 7058   6.352   6.118   4.513
 2053SOL    HW2 7059   6.425   5.993   4.588
 2054SOL     OW 7060   3.468   4.118   3.482
 2054SOL    HW1 7061   3.372   4.091   3.474
 2054SOL    HW2 7062   3.486   4.150   3.575
 2055SOL     OW 7063   5.681   3.542   4.187
 2055SOL    HW1 7064   5.704   3.460   4.240
 2055SOL    HW2 7065   5.656   3.616   4.249
 2056SOL     OW 7066   4.341   5.485   0.861
 2056SOL    HW1 7067   4.343   5.468   0.763
 2056SOL    HW2 7068   4.433   5.475   0.898
 2057SOL     OW 7069   5.118   4.268   5.894
 2057SOL    HW1 7070   5.174   4.249   5.813
 2057SOL    HW2 7071   5.137   4.360   5.926
 2058SOL     OW 7072   0.624   6.694   3.186
 2058SOL    HW1 7073   0.678   6.611   3.171
 2058SOL    HW2 7074   0.611   6.741   3.099
 2059SOL     OW 7075   1.933   6.142   6.023
 2059SOL    HW1 7076   1.864   6.208   6.053
 2059SOL    HW2 7077   1.952   6.156   5.926
 2060SOL     OW 7078   0.643   3.770   1.100
 2060SOL    HW1 7079   0.658   3.804   1.192
 2060SOL    HW2 7080   0.564   3.708   1.100
 2061SOL     OW 7081   1.672   1.825   2.013
 2061SOL    HW1 7082   1.629   1.782   1.934
 2061SOL    HW2 7083   1.769   1.839   1.995
 2062SOL     OW 7084   0.060   5.530   5.780
 2062SOL    HW1 7085   0.003   5.502   5.702
 2062SOL    HW2 7086   0.005   5.582   5.845
 2063SOL     OW 7087   1.095   7.003   5.023
 2063SOL    HW1 7088   1.010   6.980   4.975
 2063SOL    HW2 7089   1.083   0.068   5.071
 2064SOL     OW 7090   0.162   2.395   4.740
 2064SOL    HW1 7091   0.171   2.363   4.646
 2064SOL    HW2 7092   0.093   2.467   4.745
 2065SOL     OW 7093   5.847   2.510   5.603
 2065SOL    HW1 7094   5.894   2.503   5.691
 2065SOL    HW2 7095   5.893   2.577   5.545
 2066SOL     OW 7096   6.964   4.398   5.279
 2066SOL    HW1 7097   0.010   4.391   5.352
 2066SOL    HW2 7098   6.963   4.313   5.226
 2067SOL     OW 7099   0.149   4.918   0.741
 2067SOL    HW1 7100   0.215   4.993   0.735
 2067SOL    HW2 7101   0.141   4.890   0.837
 2068SOL     OW 7102   2.419   0.282   4.486
 2068SOL    HW1 7103   2.464   0.358   4.441
 2068SOL    HW2 7104   2.446   0.196   4.443
 2069SOL     OW 7105   6.549   2.757   4.162
 2069SOL    HW1 7106   6.490   2.677   4.152
 2069SOL    HW2 7107   6.637   2.740   4.119
 2070SOL     OW 7108   1.259   1.474   0.841
 2070SOL    HW1 7109   1.205   1.489   0.759
 2070SOL    HW2 7110   1.325   1.549   0.852
 2071SOL     OW 7111   5.739   0.589   5.884
 2071SOL    HW1 7112   5.780   0.556   5.799
 2071SOL    HW2 7113   5.641   0.570   5.884
 2072SOL     OW 7114   4.601   5.391   4.617
 2072SOL    HW1 7115   4.650   5.367   4.701
 2072SOL    HW2 7116   4.509   5.352   4.619
 2073SOL     OW 7117   4.649   6.786   4.944
 2073SOL    HW1 7118   4.560   6.824   4.917
 2073SOL    HW2 7119   4.719   6.817   4.879
 2074SOL     OW 7120   2.216   2.539   6.011
 2074SOL    HW1 7121   2.262   2.581   6.089
 2074SOL    HW2 7122   2.141   2.482   6.043
 2075SOL     OW 7123   6.824   2.597   3.050
 2075SOL    HW1 7124   6.822   2.504   3.086
 2075SOL    HW2 7125   6.747   2.611   2.988
 2076SOL     OW 7126   5.264   6.627   6.241
 2076SOL    HW1 7127   5.234   6.666   6.328
 2076SOL    HW2 7128   5.354   6.665   6.217
 2077SOL     OW 7129   6.965   1.907   1.933
 2077SOL    HW1 7130   7.000   1.944   1.847
 2077SOL    HW2 7131   6.966   1.807   1.929
 2078SOL     OW 7132   1.890   5.314   6.264
 2078SOL    HW1 7133   1.795   5.298   6.239
 2078SOL    HW2 7134   1.945   5.324   6.181
 2079SOL     OW 7135   0.100   1.657   2.908
 2079SOL    HW1 7136   0.135   1.734   2.962
 2079SOL    HW2 7137   0.009   1.679   2.873
 2080SOL     OW 7138   2.410   0.390   5.018
 2080SOL    HW1 7139   2.322   0.356   5.054
 2080SOL    HW2 7140   2.434   0.340   4.935
 2081SOL     OW 7141   0.881   6.592   4.405
 2081SOL    HW1 7142   0.864   6.690   4.416
 2081SOL    HW2 7143   0.815   6.540   4.460
 2082SOL     OW 7144   0.768   6.481   3.112
 2082SOL    HW1 7145   0.788   6.395   3.160
 2082SOL    HW2 7146   0.853   6.528   3.091
 2083SOL     OW 7147   1.322   5.698   5.359
 2083SOL    HW1 7148   1.242   5.716   5.302
 2083SOL    HW2 7149   1.335   5.774   5.423
 2084SOL     OW 7150   0.576   3.757   2.895
 2084SOL    HW1 7151   0.575   3.857   2.905
 2084SOL    HW2 7152   0.518   3.731   2.818
 2085SOL     OW 7153   4.948   0.474   1.030
 2085SOL    HW1 7154   4.907   0.533   0.960
 2085SOL    HW2 7155   5.038   0.443   0.998
 2086SOL     OW 7156   3.321   6.421   6.891
 2086SOL    HW1 7157   3.401   6.423   6.832
 2086SOL    HW2 7158   3.254   6.489   6.860
 2087SOL     OW 7159   5.030   1.325   1.748
 2087SOL    HW1 7160   5.089   1.383   1.804
 2087SOL    HW2 7161   5.086   1.261   1.696
 2088SOL     OW 7162   0.979   6.054   6.762
 2088SOL    HW1 7163   1.033   6.068   6.679
 2088SOL    HW2 7164   1.017   5.978   6.815
 2089SOL     OW 7165   4.952   2.845   6.054
 2089SOL    HW1 7166   5.042   2.863   6.013
 2089SOL    HW2 7167   4.964   2.807   6.146
 2090SOL     OW 7168   4.451   3.317   5.641
 2090SOL    HW1 7169   4.401   3.392   5.683
 2090SOL    HW2 7170   4.535   3.300   5.694
 2091SOL     OW 7171   7.014   5.008   1.149
 2091SOL    HW1 7172   6.947   5.006   1.223
 2091SOL    HW2 7173   6.980   4.953   1.072
 2092SOL     OW 7174   5.325   3.398   0.567
 2092SOL    HW1 7175   5.238   3.412   0.616
 2092SOL    HW2 7176   5.393   3.462   0.603
 2093SOL     OW 7177   3.117   2.244   1.743
 2093SOL    HW1 7178   3.206   2.228   1.786
 2093SOL    HW2 7179   3.071   2.320   1.788
 2094SOL     OW 7180   5.670   1.706   1.577
 2094SOL    HW1 7181   5.700   1.619   1.537
 2094SOL    HW2 7182   5.570   1.705   1.587
 2095SOL     OW 7183   6.061   6.427   4.563
 2095SOL    HW1 7184   6.052   6.479   4.648
 2095SOL    HW2 7185   6.057   6.491   4.485
 2096SOL     OW 7186   4.717   5.344   3.480
 2096SOL    HW1 7187   4.648   5.398   3.528
 2096SOL    HW2 7188   4.751   5.272   3.541
 2097SOL     OW 7189   3.163   2.823   6.661
 2097SOL    HW1 7190   3.182   2.813   6.758
 2097SOL    HW2 7191   3.210   2.904   6.626
 2098SOL     OW 7192   4.458   5.966   1.875
 2098SOL    HW1 7193   4.395   5.890   1.889
 2098SOL    HW2 7194   4.473   5.980   1.778
 2099SOL     OW 7195   3.607   1.546   0.228
 2099SOL    HW1 7196   3.518   1.590   0.236
 2099SOL    HW2 7197   3.608   1.486   0.148
 2100SOL     OW 7198   6.120   1.553   0.617
 2100SOL    HW1 7199   6.083   1.566   0.709
 2100SOL    HW2 7200   6.113   1.638   0.566
 2101SOL     OW 7201   0.343   6.651   0.979
 2101SOL    HW1 7202   0.336   6.672   0.882
 2101SOL    HW2 7203   0.301   6.562   0.996
 2102SOL     OW 7204   5.089   3.520   2.105
 2102SOL    HW1 7205   5.119   3.615   2.114
 2102SOL    HW2 7206   4.994   3.512   2.135
 2103SOL     OW 7207   3.145   3.160   7.017
 2103SOL    HW1 7208   3.159   3.231   6.947
 2103SOL    HW2 7209   3.211   3.174   0.069
 2104SOL     OW 7210   1.601   4.517   2.389
 2104SOL    HW1 7211   1.688   4.512   2.438
 2104SOL    HW2 7212   1.618   4.521   2.291
 2105SOL     OW 7213   4.703   5.106   6.392
 2105SOL    HW1 7214   4.638   5.049   6.442
 2105SOL    HW2 7215   4.749   5.051   6.322
 2106SOL     OW 7216   5.093   3.899   1.831
 2106SOL    HW1 7217   5.101   3.964   1.755
 2106SOL    HW2 7218   5.001   3.862   1.835
 2107SOL     OW 7219   5.825   2.337   5.381
 2107SOL    HW1 7220   5.904   2.350   5.321
 2107SOL    HW2 7221   5.838   2.388   5.466
 2108SOL     OW 7222   6.338   5.478   5.264
 2108SOL    HW1 7223   6.419   5.535   5.251
 2108SOL    HW2 7224   6.288   5.508   5.344
 2109SOL     OW 7225   3.679   5.890   2.512
 2109SOL    HW1 7226   3.641   5.802   2.542
 2109SOL    HW2 7227   3.713   5.882   2.419
 2110SOL     OW 7228   3.094   0.981   0.536
 2110SOL    HW1 7229   3.043   0.931   0.465
 2110SOL    HW2 7230   3.162   0.921   0.577
 2111SOL     OW 7231   2.141   3.580   6.487
 2111SOL    HW1 7232   2.048   3.589   6.452
 2111SOL    HW2 7233   2.158   3.649   6.558
 2112SOL     OW 7234   4.862   1.895   0.595
 2112SOL    HW1 7235   4.917   1.813   0.610
 2112SOL    HW2 7236   4.861   1.917   0.498
 2113SOL     OW 7237   2.314   1.080   5.080
 2113SOL    HW1 7238   2.230   1.031   5.103
 2113SOL    HW2 7239   2.291   1.162   5.027
 2114SOL     OW 7240   2.768   1.893   6.444
 2114SOL    HW1 7241   2.730   1.945   6.367
 2114SOL    HW2 7242   2.701   1.825   6.474
 2115SOL     OW 7243   0.676   4.212   2.097
 2115SOL    HW1 7244   0.584   4.213   2.057
 2115SOL    HW2 7245   0.688   4.127   2.149
 2116SOL     OW 7246   1.030   3.237   2.388
 2116SOL    HW1 7247   0.944   3.265   2.430
 2116SOL    HW2 7248   1.012   3.163   2.322
 2117SOL     OW 7249   5.924   4.048   1.528
 2117SOL    HW1 7250   5.996   4.105   1.568
 2117SOL    HW2 7251   5.867   4.009   1.601
 2118SOL     OW 7252   6.687   3.170   3.600
 2118SOL    HW1 7253   6.629   3.130   3.529
 2118SOL    HW2 7254   6.770   3.207   3.558
 2119SOL     OW 7255   2.054   0.912   0.973
 2119SOL    HW1 7256   2.025   0.997   0.929
 2119SOL    HW2 7257   2.141   0.927   1.020
 2120SOL     OW 7258   0.334   3.704   2.730
 2120SOL    HW1 7259   0.330   3.607   2.708
 2120SOL    HW2 7260   0.282   3.756   2.662
 2121SOL     OW 7261   1.614   2.480   5.684
 2121SOL    HW1 7262   1.618   2.478   5.784
 2121SOL    HW2 7263   1.692   2.430   5.647
 2122SOL     OW 7264   5.332   6.000   6.937
 2122SOL    HW1 7265   5.431   6.007   6.927
 2122SOL    HW2 7266   5.311   5.962   0.005
 2123SOL     OW 7267   6.548   5.850   1.425
 2123SOL    HW1 7268   6.553   5.838   1.326
 2123SOL    HW2 7269   6.452   5.856   1.453
 2124SOL     OW 7270   2.756   1.662   6.970
 2124SOL    HW1 7271   2.747   1.684   0.045
 2124SOL    HW2 7272   2.832   1.598   6.956
 2125SOL     OW 7273   0.938   6.004   1.863
 2125SOL    HW1 7274   0.982   5.984   1.950
 2125SOL    HW2 7275   0.990   5.961   1.789
 2126SOL     OW 7276   3.477   2.560   6.767
 2126SOL    HW1 7277   3.543   2.588   6.698
 2126SOL    HW2 7278   3.456   2.638   6.826
 2127SOL     OW 7279   0.788   1.735   5.239
 2127SOL    HW1 7280   0.787   1.735   5.139
 2127SOL    HW2 7281   0.743   1.653   5.273
 2128SOL     OW 7282   6.350   2.375   2.242
 2128SOL    HW1 7283   6.326   2.472   2.247
 2128SOL    HW2 7284   6.272   2.323   2.205
 2129SOL     OW 7285   4.623   4.472   5.103
 2129SOL    HW1 7286   4.530   4.459   5.070
 2129SOL    HW2 7287   4.656   4.563   5.075
 2130SOL     OW 7288   2.823   0.273   2.100
 2130SOL    HW1 7289   2.881   0.263   2.019
 2130SOL    HW2 7290   2.864   0.340   2.162
 2131SOL     OW 7291   5.220   0.987   0.632
 2131SOL    HW1 7292   5.281   1.047   0.685
 2131SOL    HW2 7293   5.240   0.998   0.535
 2132SOL     OW 7294   3.175   1.767   6.673
 2132SOL    HW1 7295   3.122   1.735   6.750
 2132SOL    HW2 7296   3.122   1.756   6.589
 2133SOL     OW 7297   3.521   2.685   1.128
 2133SOL    HW1 7298   3.563   2.698   1.218
 2133SOL    HW2 7299   3.422   2.680   1.137
 2134SOL     OW 7300   0.901   1.068   4.729
 2134SOL    HW1 7301   0.967   1.128   4.776
 2134SOL    HW2 7302   0.950   1.000   4.676
 2135SOL     OW 7303   0.795   1.425   4.421
 2135SOL    HW1 7304   0.883   1.464   4.394
 2135SOL    HW2 7305   0.796   1.408   4.520
 2136SOL     OW 7306   1.446   4.102   4.786
 2136SOL    HW1 7307   1.352   4.071   4.799
 2136SOL    HW2 7308   1.471   4.095   4.689
 2137SOL     OW 7309   6.960   6.531   4.161
 2137SOL    HW1 7310   6.907   6.616   4.161
 2137SOL    HW2 7311   0.020   6.544   4.106
 2138SOL     OW 7312   6.615   1.704   2.032
 2138SOL    HW1 7313   6.641   1.666   1.944
 2138SOL    HW2 7314   6.593   1.631   2.096
 2139SOL     OW 7315   4.109   0.714   2.646
 2139SOL    HW1 7316   4.120   0.807   2.613
 2139SOL    HW2 7317   4.063   0.714   2.734
 2140SOL     OW 7318   3.057   5.833   3.344
 2140SOL    HW1 7319   3.128   5.822   3.274
 2140SOL    HW2 7320   2.996   5.754   3.341
 2141SOL     OW 7321   0.124   3.672   1.142
 2141SOL    HW1 7322   0.043   3.675   1.201
 2141SOL    HW2 7323   0.163   3.764   1.134
 2142SOL     OW 7324   1.264   1.998   2.714
 2142SOL    HW1 7325   1.206   2.020   2.636
 2142SOL    HW2 7326   1.325   1.922   2.691
 2143SOL     OW 7327   3.227   4.975   0.896
 2143SOL    HW1 7328   3.209   4.901   0.960
 2143SOL    HW2 7329   3.178   5.057   0.926
 2144SOL     OW 7330   1.261   0.209   2.753
 2144SOL    HW1 7331   1.237   0.265   2.832
 2144SOL    HW2 7332   1.208   0.240   2.673
 2145SOL     OW 7333   3.709   5.663   3.711
 2145SOL    HW1 7334   3.612   5.668   3.689
 2145SOL    HW2 7335   3.750   5.754   3.705
 2146SOL     OW 7336   3.078   3.817   2.184
 2146SOL    HW1 7337   3.075   3.846   2.089
 2146SOL    HW2 7338   3.169   3.785   2.207
 2147SOL     OW 7339   0.027   0.350   6.904
 2147SOL    HW1 7340   7.020   0.445   6.910
 2147SOL    HW2 7341   6.982   0.297   6.852
 2148SOL     OW 7342   5.261   2.836   4.502
 2148SOL    HW1 7343   5.211   2.837   4.588
 2148SOL    HW2 7344   5.334   2.768   4.507
 2149SOL     OW 7345   3.801   0.810   1.451
 2149SOL    HW1 7346   3.722   0.854   1.493
 2149SOL    HW2 7347   3.828   0.860   1.369
 2150SOL     OW 7348   2.154   2.385   2.692
 2150SOL    HW1 7349   2.145   2.484   2.683
 2150SOL    HW2 7350   2.063   2.344   2.699
 2151SOL     OW 7351   2.187   1.412   3.904
 2151SOL    HW1 7352   2.225   1.444   3.817
 2151SOL    HW2 7353   2.095   1.449   3.915
 2152SOL     OW 7354   3.676   6.142   1.174
 2152SOL    HW1 7355   3.729   6.205   1.231
 2152SOL    HW2 7356   3.711   6.049   1.185
 2153SOL     OW 7357   3.774   0.050   3.308
 2153SOL    HW1 7358   3.714   0.033   3.230
 2153SOL    HW2 7359   3.811   0.143   3.302
 2154SOL     OW 7360   4.499   0.491   4.618
 2154SOL    HW1 7361   4.525   0.571   4.565
 2154SOL    HW2 7362   4.399   0.489   4.628
 2155SOL     OW 7363   1.670   5.413   0.052
 2155SOL    HW1 7364   1.583   5.450   0.020
 2155SOL    HW2 7365   1.743   5.443   7.013
 2156SOL     OW 7366   2.587   0.197   2.199
 2156SOL    HW1 7367   2.680   0.225   2.175
 2156SOL    HW2 7368   2.540   0.273   2.244
 2157SOL     OW 7369   6.131   1.644   3.449
 2157SOL    HW1 7370   6.117   1.550   3.480
 2157SOL    HW2 7371   6.044   1.694   3.457
 2158SOL     OW 7372   4.505   6.274   0.977
 2158SOL    HW1 7373   4.576   6.254   0.910
 2158SOL    HW2 7374   4.419   6.233   0.946
 2159SOL     OW 7375   1.764   5.641   5.677
 2159SOL    HW1 7376   1.722   5.719   5.723
 2159SOL    HW2 7377   1.692   5.580   5.643
 2160SOL     OW 7378   4.274   3.145   1.505
 2160SOL    HW1 7379   4.305   3.111   1.594
 2160SOL    HW2 7380   4.351   3.184   1.455
 2161SOL     OW 7381   5.452   2.456   3.483
 2161SOL    HW1 7382   5.506   2.423   3.406
 2161SOL    HW2 7383   5.400   2.537   3.455
 2162SOL     OW 7384   3.134   0.494   6.896
 2162SOL    HW1 7385   3.123   0.590   6.921
 2162SOL    HW2 7386   3.216   0.458   6.941
 2163SOL     OW 7387   0.056   5.430   6.317
 2163SOL    HW1 7388   0.142   5.390   6.349
 2163SOL    HW2 7389   0.040   5.402   6.222
 2164SOL     OW 7390   1.378   2.311   0.148
 2164SOL    HW1 7391   1.461   2.306   0.092
 2164SOL    HW2 7392   1.336   2.220   0.153
 2165SOL     OW 7393   0.948   1.475   2.547
 2165SOL    HW1 7394   0.935   1.570   2.521
 2165SOL    HW2 7395   1.041   1.446   2.524
 2166SOL     OW 7396   2.164   2.300   5.432
 2166SOL    HW1 7397   2.256   2.274   5.461
 2166SOL    HW2 7398   2.099   2.279   5.506
 2167SOL     OW 7399   1.864   1.138   3.535
 2167SOL    HW1 7400   1.857   1.233   3.504
 2167SOL    HW2 7401   1.961   1.113   3.545
 2168SOL     OW 7402   6.882   2.278   3.687
 2168SOL    HW1 7403   6.855   2.373   3.670
 2168SOL    HW2 7404   6.806   2.229   3.728
 2169SOL     OW 7405   5.773   2.340   5.863
 2169SOL    HW1 7406   5.828   2.310   5.785
 2169SOL    HW2 7407   5.831   2.393   5.926
 2170SOL     OW 7408   6.052   5.053   6.028
 2170SOL    HW1 7409   6.093   5.033   6.117
 2170SOL    HW2 7410   6.095   4.995   5.958
 2171SOL     OW 7411   6.138   3.389   0.774
 2171SOL    HW1 7412   6.038   3.386   0.771
 2171SOL    HW2 7413   6.172   3.312   0.828
 2172SOL     OW 7414   2.299   1.434   0.413
 2172SOL    HW1 7415   2.206   1.409   0.439
 2172SOL    HW2 7416   2.296   1.512   0.350
 2173SOL     OW 7417   3.765   0.006   5.568
 2173SOL    HW1 7418   3.839   6.977   5.612
 2173SOL    HW2 7419   3.766   0.100   5.601
 2174SOL     OW 7420   6.010   5.321   5.990
 2174SOL    HW1 7421   5.944   5.306   5.916
 2174SOL    HW2 7422   6.029   5.234   6.036
 2175SOL     OW 7423   3.379   2.119   3.189
 2175SOL    HW1 7424   3.385   2.121   3.089
 2175SOL    HW2 7425   3.471   2.130   3.228
 2176SOL     OW 7426   0.756   2.568   1.117
 2176SOL    HW1 7427   0.842   2.531   1.153
 2176SOL    HW2 7428   0.684   2.557   1.185
 2177SOL     OW 7429   6.106   0.634   2.809
 2177SOL    HW1 7430   6.192   0.641   2.758
 2177SOL    HW2 7431   6.036   0.593   2.751
 2178SOL     OW 7432   2.162   4.358   0.450
 2178SOL    HW1 7433   2.175   4.263   0.422
 2178SOL    HW2 7434   2.247   4.393   0.491
 2179SOL     OW 7435   2.060   5.321   4.954
 2179SOL    HW1 7436   2.005   5.253   5.003
 2179SOL    HW2 7437   2.032   5.324   4.858
 2180SOL     OW 7438   2.884   3.620   2.023
 2180SOL    HW1 7439   2.968   3.626   1.968
 2180SOL    HW2 7440   2.870   3.705   2.072
 2181SOL     OW 7441   5.021   4.641   5.807
 2181SOL    HW1 7442   5.084   4.596   5.871
 2181SOL    HW2 7443   4.937   4.587   5.799
 2182SOL     OW 7444   6.572   3.092   4.627
 2182SOL    HW1 7445   6.494   3.153   4.642
 2182SOL    HW2 7446   6.596   3.048   4.714
 2183SOL     OW 7447   3.478   3.664   6.402
 2183SOL    HW1 7448   3.552   3.631   6.343
 2183SOL    HW2 7449   3.470   3.763   6.392
 2184SOL     OW 7450   3.895   1.261   5.172
 2184SOL    HW1 7451   3.911   1.350   5.214
 2184SOL    HW2 7452   3.835   1.207   5.231
 2185SOL     OW 7453   1.588   2.435   0.777
 2185SOL    HW1 7454   1.492   2.445   0.750
 2185SOL    HW2 7455   1.638   2.386   0.706
 2186SOL     OW 7456   6.925   4.825   2.584
 2186SOL    HW1 7457   6.985   4.798   2.509
 2186SOL    HW2 7458   6.954   4.781   2.668
 2187SOL     OW 7459   0.780   1.766   1.597
 2187SOL    HW1 7460   0.769   1.837   1.666
 2187SOL    HW2 7461   0.736   1.794   1.511
 2188SOL     OW 7462   5.455   5.820   3.895
 2188SOL    HW1 7463   5.547   5.843   3.926
 2188SOL    HW2 7464   5.435   5.724   3.919
 2189SOL     OW 7465   1.652   6.222   6.527
 2189SOL    HW1 7466   1.688   6.309   6.494
 2189SOL    HW2 7467   1.555   6.215   6.504
 2190SOL     OW 7468   6.970   2.308   1.809
 2190SOL    HW1 7469   7.016   2.343   1.728
 2190SOL    HW2 7470   6.957   2.209   1.800
 2191SOL     OW 7471   3.054   1.653   5.943
 2191SOL    HW1 7472   3.079   1.573   5.997
 2191SOL    HW2 7473   2.954   1.662   5.940
 2192SOL     OW 7474   3.535   0.014   3.921
 2192SOL    HW1 7475   3.478   6.955   3.936
 2192SOL    HW2 7476   3.476   0.093   3.904
 2193SOL     OW 7477   6.967   6.376   6.086
 2193SOL    HW1 7478   6.871   6.404   6.080
 2193SOL    HW2 7479   7.004   6.364   5.995
 2194SOL     OW 7480   2.454   4.244   6.872
 2194SOL    HW1 7481   2.368   4.209   6.834
 2194SOL    HW2 7482   2.531   4.195   6.832
 2195SOL     OW 7483   0.606   6.443   2.456
 2195SOL    HW1 7484   0.601   6.398   2.545
 2195SOL    HW2 7485   0.558   6.388   2.388
 2196SOL     OW 7486   3.013   0.576   5.811
 2196SOL    HW1 7487   2.925   0.603   5.774
 2196SOL    HW2 7488   3.012   0.584   5.910
 2197SOL     OW 7489   4.715   3.678   1.602
 2197SOL    HW1 7490   4.783   3.608   1.579
 2197SOL    HW2 7491   4.623   3.639   1.593
 2198SOL     OW 7492   6.562   1.912   6.810
 2198SOL    HW1 7493   6.531   1.903   6.904
 2198SOL    HW2 7494   6.647   1.964   6.807
 2199SOL     OW 7495   5.486   0.974   1.677
 2199SOL    HW1 7496   5.433   0.967   1.761
 2199SOL    HW2 7497   5.519   0.883   1.651
 2200SOL     OW 7498   4.072   0.497   4.826
 2200SOL    HW1 7499   4.098   0.592   4.844
 2200SOL    HW2 7500   4.060   0.449   4.913
 2201SOL     OW 7501   6.710   2.822   2.118
 2201SOL    HW1 7502   6.734   2.767   2.197
 2201SOL    HW2 7503   6.611   2.822   2.106
 2202SOL     OW 7504   3.599   5.109   4.410
 2202SOL    HW1 7505   3.662   5.046   4.363
 2202SOL    HW2 7506   3.647   5.153   4.486
 2203SOL     OW 7507   2.159   2.505   2.257
 2203SOL    HW1 7508   2.223   2.441   2.299
 2203SOL    HW2 7509   2.072   2.502   2.307
 2204SOL     OW 7510   3.365   1.351   6.939
 2204SOL    HW1 7511   3.432   1.310   7.000
 2204SOL    HW2 7512   3.353   1.448   6.963
 2205SOL     OW 7513   1.498   6.889   6.438
 2205SOL    HW1 7514   1.541   6.909   6.526
 2205SOL    HW2 7515   1.472   6.974   6.393
 2206SOL     OW 7516   3.104   4.444   5.295
 2206SOL    HW1 7517   3.016   4.487   5.273
 2206SOL    HW2 7518   3.102   4.348   5.266
 2207SOL     OW 7519   1.935   4.168   6.276
 2207SOL    HW1 7520   1.960   4.073   6.295
 2207SOL    HW2 7521   1.874   4.170   6.196
 2208SOL     OW 7522   1.677   4.553   2.111
 2208SOL    HW1 7523   1.643   4.627   2.053
 2208SOL    HW2 7524   1.776   4.546   2.102
 2209SOL     OW 7525   1.307   5.865   5.614
 2209SOL    HW1 7526   1.235   5.920   5.656
 2209SOL    HW2 7527   1.389   5.922   5.602
 2210SOL     OW 7528   0.268   5.109   3.923
 2210SOL    HW1 7529   0.246   5.037   3.857
 2210SOL    HW2 7530   0.246   5.199   3.884
 2211SOL     OW 7531   5.658   1.425   6.963
 2211SOL    HW1 7532   5.575   1.448   7.013
 2211SOL    HW2 7533   5.690   1.507   6.914
 2212SOL     OW 7534   1.732   6.322   0.556
 2212SOL    HW1 7535   1.734   6.319   0.656
 2212SOL    HW2 7536   1.673   6.249   0.521
 2213SOL     OW 7537   4.276   2.712   5.613
 2213SOL    HW1 7538   4.192   2.697   5.560
 2213SOL    HW2 7539   4.346   2.647   5.584
 2214SOL     OW 7540   4.889   0.999   5.276
 2214SOL    HW1 7541   4.858   1.047   5.359
 2214SOL    HW2 7542   4.989   1.001   5.273
 2215SOL     OW 7543   6.855   1.988   5.853
 2215SOL    HW1 7544   6.832   2.022   5.944
 2215SOL    HW2 7545   6.953   2.002   5.836
 2216SOL     OW 7546   1.567   0.374   6.970
 2216SOL    HW1 7547   1.640   0.396   0.012
 2216SOL    HW2 7548   1.481   0.412   7.002
 2217SOL     OW 7549   3.041   0.124   1.720
 2217SOL    HW1 7550   3.121   0.082   1.764
 2217SOL    HW2 7551   2.986   0.052   1.676
 2218SOL     OW 7552   1.257   6.645   0.854
 2218SOL    HW1 7553   1.206   6.684   0.931
 2218SOL    HW2 7554   1.351   6.626   0.883
 2219SOL     OW 7555   0.995   4.352   3.442
 2219SOL    HW1 7556   1.093   4.337   3.458
 2219SOL    HW2 7557   0.982   4.435   3.388
 2220SOL     OW 7558   0.414   1.063   4.399
 2220SOL    HW1 7559   0.433   0.973   4.358
 2220SOL    HW2 7560   0.400   1.052   4.497
 2221SOL     OW 7561   6.796   1.027   6.847
 2221SOL    HW1 7562   6.762   0.938   6.879
 2221SOL    HW2 7563   6.894   1.034   6.867
 2222SOL     OW 7564   3.676   0.313   0.567
 2222SOL    HW1 7565   3.684   0.213   0.567
 2222SOL    HW2 7566   3.580   0.339   0.555
 2223SOL     OW 7567   5.440   6.705   3.707
 2223SOL    HW1 7568   5.534   6.678   3.725
 2223SOL    HW2 7569   5.409   6.667   3.620
 2224SOL     OW 7570   2.366   4.496   1.678
 2224SOL    HW1 7571   2.434   4.489   1.752
 2224SOL    HW2 7572   2.407   4.542   1.600
 2225SOL     OW 7573   6.051   5.640   3.281
 2225SOL    HW1 7574   6.048   5.551   3.236
 2225SOL    HW2 7575   6.084   5.709   3.215
 2226SOL     OW 7576   4.248   3.268   0.638
 2226SOL    HW1 7577   4.185   3.293   0.712
 2226SOL    HW2 7578   4.232   3.173   0.612
 2227SOL     OW 7579   5.879   4.438   0.396
 2227SOL    HW1 7580   5.824   4.520   0.382
 2227SOL    HW2 7581   5.828   4.371   0.450
 2228SOL     OW 7582   3.160   5.742   0.688
 2228SOL    HW1 7583   3.188   5.667   0.628
 2228SOL    HW2 7584   3.230   5.757   0.757
 2229SOL     OW 7585   4.122   1.442   4.171
 2229SOL    HW1 7586   4.117   1.416   4.268
 2229SOL    HW2 7587   4.155   1.536   4.164
 2230SOL     OW 7588   0.740   6.449   4.571
 2230SOL    HW1 7589   0.698   6.440   4.661
 2230SOL    HW2 7590   0.680   6.406   4.503
 2231SOL     OW 7591   1.774   1.930   1.512
 2231SOL    HW1 7592   1.697   1.870   1.489
 2231SOL    HW2 7593   1.858   1.876   1.515
 2232SOL     OW 7594   0.939   2.701   3.681
 2232SOL    HW1 7595   1.011   2.766   3.658
 2232SOL    HW2 7596   0.867   2.704   3.612
 2233SOL     OW 7597   3.166   4.587   0.580
 2233SOL    HW1 7598   3.205   4.678   0.570
 2233SOL    HW2 7599   3.069   4.589   0.557
 2234SOL     OW 7600   4.664   2.169   1.468
 2234SOL    HW1 7601   4.584   2.153   1.526
 2234SOL    HW2 7602   4.745   2.127   1.510
 2235SOL     OW 7603   1.458   0.324   0.295
 2235SOL    HW1 7604   1.489   0.336   0.390
 2235SOL    HW2 7605   1.503   0.245   0.255
 2236SOL     OW 7606   1.267   4.684   0.563
 2236SOL    HW1 7607   1.255   4.762   0.624
 2236SOL    HW2 7608   1.282   4.601   0.616
 2237SOL     OW 7609   5.943   4.138   4.314
 2237SOL    HW1 7610   5.867   4.119   4.252
 2237SOL    HW2 7611   5.949   4.067   4.384
 2238SOL     OW 7612   6.449   5.542   2.957
 2238SOL    HW1 7613   6.441   5.605   2.880
 2238SOL    HW2 7614   6.468   5.595   3.041
 2239SOL     OW 7615   3.878   5.060   3.579
 2239SOL    HW1 7616   3.781   5.066   3.604
 2239SOL    HW2 7617   3.934   5.099   3.652
 2240SOL     OW 7618   5.558   5.452   3.694
 2240SOL    HW1 7619   5.644   5.484   3.735
 2240SOL    HW2 7620   5.548   5.354   3.708
 2241SOL     OW 7621   0.170   6.747   2.327
 2241SOL    HW1 7622   0.163   6.783   2.234
 2241SOL    HW2 7623   0.241   6.677   2.330
 2242SOL     OW 7624   5.395   2.106   3.305
 2242SOL    HW1 7625   5.410   2.085   3.208
 2242SOL    HW2 7626   5.453   2.047   3.361
 2243SOL     OW 7627   2.928   6.053   5.312
 2243SOL    HW1 7628   2.855   6.108   5.353
 2243SOL    HW2 7629   2.927   6.064   5.213
 2244SOL     OW 7630   3.546   0.554   2.782
 2244SOL    HW1 7631   3.482   0.484   2.750
 2244SOL    HW2 7632   3.633   0.545   2.733
 2245SOL     OW 7633   0.344   2.054   1.374
 2245SOL    HW1 7634   0.360   1.955   1.366
 2245SOL    HW2 7635   0.258   2.077   1.328
 2246SOL     OW 7636   1.508   1.693   5.080
 2246SOL    HW1 7637   1.557   1.780   5.083
 2246SOL    HW2 7638   1.570   1.621   5.051
 2247SOL     OW 7639   2.152   2.611   6.575
 2247SOL    HW1 7640   2.156   2.684   6.643
 2247SOL    HW2 7641   2.146   2.651   6.483
 2248SOL     OW 7642   4.810   3.642   5.879
 2248SOL    HW1 7643   4.829   3.735   5.913
 2248SOL    HW2 7644   4.716   3.617   5.900
 2249SOL     OW 7645   5.635   6.433   2.812
 2249SOL    HW1 7646   5.562   6.394   2.869
 2249SOL    HW2 7647   5.678   6.508   2.861
 2250SOL     OW 7648   5.298   3.724   1.209
 2250SOL    HW1 7649   5.211   3.714   1.161
 2250SOL    HW2 7650   5.330   3.635   1.240
 2251SOL     OW 7651   5.860   1.745   0.129
 2251SOL    HW1 7652   5.901   1.700   0.050
 2251SOL    HW2 7653   5.918   1.730   0.210
 2252SOL     OW 7654   6.386   2.587   4.347
 2252SOL    HW1 7655   6.333   2.619   4.426
 2252SOL    HW2 7656   6.324   2.567   4.271
 2253SOL     OW 7657   0.965   2.984   6.359
 2253SOL    HW1 7658   0.894   2.988   6.429
 2253SOL    HW2 7659   1.050   3.022   6.396
 2254SOL     OW 7660   2.569   3.074   5.782
 2254SOL    HW1 7661   2.542   3.097   5.688
 2254SOL    HW2 7662   2.621   2.989   5.781
 2255SOL     OW 7663   6.343   2.489   0.749
 2255SOL    HW1 7664   6.271   2.530   0.804
 2255SOL    HW2 7665   6.403   2.561   0.713
 2256SOL     OW 7666   4.164   5.889   1.481
 2256SOL    HW1 7667   4.221   5.919   1.404
 2256SOL    HW2 7668   4.123   5.801   1.459
 2257SOL     OW 7669   0.861   2.950   4.685
 2257SOL    HW1 7670   0.937   3.013   4.702
 2257SOL    HW2 7671   0.886   2.858   4.716
 2258SOL     OW 7672   1.266   6.109   4.864
 2258SOL    HW1 7673   1.229   6.117   4.772
 2258SOL    HW2 7674   1.239   6.189   4.918
 2259SOL     OW 7675   4.533   3.578   6.014
 2259SOL    HW1 7676   4.533   3.678   6.012
 2259SOL    HW2 7677   4.450   3.546   6.058
 2260SOL     OW 7678   4.373   4.657   3.107
 2260SOL    HW1 7679   4.402   4.753   3.096
 2260SOL    HW2 7680   4.419   4.619   3.187
 2261SOL     OW 7681   6.040   6.984   1.011
 2261SOL    HW1 7682   5.976   6.977   1.087
 2261SOL    HW2 7683   6.120   6.927   1.030
 2262SOL     OW 7684   5.931   2.701   2.513
 2262SOL    HW1 7685   5.950   2.603   2.507
 2262SOL    HW2 7686   5.906   2.736   2.423
 2263SOL     OW 7687   2.688   5.692   6.087
 2263SOL    HW1 7688   2.662   5.746   6.167
 2263SOL    HW2 7689   2.704   5.597   6.115
 2264SOL     OW 7690   3.383   4.079   2.654
 2264SOL    HW1 7691   3.320   4.092   2.577
 2264SOL    HW2 7692   3.460   4.022   2.626
 2265SOL     OW 7693   0.011   0.593   3.331
 2265SOL    HW1 7694   0.047   0.628   3.244
 2265SOL    HW2 7695   6.983   0.665   3.377
 2266SOL     OW 7696   6.703   1.419   0.905
 2266SOL    HW1 7697   6.733   1.329   0.874
 2266SOL    HW2 7698   6.605   1.430   0.886
 2267SOL     OW 7699   5.537   2.653   4.883
 2267SOL    HW1 7700   5.613   2.675   4.822
 2267SOL    HW2 7701   5.492   2.738   4.912
 2268SOL     OW 7702   6.647   4.589   0.519
 2268SOL    HW1 7703   6.584   4.664   0.536
 2268SOL    HW2 7704   6.666   4.582   0.421
 2269SOL     OW 7705   6.253   5.841   5.424
 2269SOL    HW1 7706   6.160   5.851   5.387
 2269SOL    HW2 7707   6.316   5.897   5.370
 2270SOL     OW 7708   3.979   3.783   0.238
 2270SOL    HW1 7709   3.973   3.876   0.199
 2270SOL    HW2 7710   4.073   3.750   0.230
 2271SOL     OW 7711   6.348   4.044   1.350
 2271SOL    HW1 7712   6.254   4.014   1.335
 2271SOL    HW2 7713   6.391   4.064   1.262
 2272SOL     OW 7714   6.374   1.990   4.868
 2272SOL    HW1 7715   6.329   2.066   4.915
 2272SOL    HW2 7716   6.472   2.009   4.861
 2273SOL     OW 7717   1.571   1.704   1.801
 2273SOL    HW1 7718   1.505   1.774   1.774
 2273SOL    HW2 7719   1.565   1.626   1.739
 2274SOL     OW 7720   1.160   3.039   5.987
 2274SOL    HW1 7721   1.240   3.076   5.940
 2274SOL    HW2 7722   1.083   3.101   5.974
 2275SOL     OW 7723   4.981   6.871   4.918
 2275SOL    HW1 7724   5.006   6.968   4.922
 2275SOL    HW2 7725   4.911   6.857   4.848
 2276SOL     OW 7726   3.344   5.204   1.414
 2276SOL    HW1 7727   3.255   5.246   1.399
 2276SOL    HW2 7728   3.334   5.104   1.416
 2277SOL     OW 7729   2.981   3.774   4.807
 2277SOL    HW1 7730   2.941   3.701   4.863
 2277SOL    HW2 7731   3.078   3.756   4.793
 2278SOL     OW 7732   4.888   6.566   3.780
 2278SOL    HW1 7733   4.947   6.569   3.699
 2278SOL    HW2 7734   4.900   6.479   3.826
 2279SOL     OW 7735   5.385   5.269   4.312
 2279SOL    HW1 7736   5.457   5.290   4.378
 2279SOL    HW2 7737   5.310   5.334   4.323
 2280SOL     OW 7738   6.050   6.218   4.959
 2280SOL    HW1 7739   6.027   6.149   5.028
 2280SOL    HW2 7740   6.069   6.173   4.872
 2281SOL     OW 7741   3.912   1.143   1.928
 2281SOL    HW1 7742   3.852   1.135   1.849
 2281SOL    HW2 7743   3.993   1.085   1.914
 2282SOL     OW 7744   5.661   6.303   5.191
 2282SOL    HW1 7745   5.637   6.375   5.256
 2282SOL    HW2 7746   5.593   6.300   5.118
 2283SOL     OW 7747   6.854   4.006   1.459
 2283SOL    HW1 7748   6.781   3.947   1.492
 2283SOL    HW2 7749   6.926   4.013   1.528
 2284SOL     OW 7750   2.088   1.726   0.644
 2284SOL    HW1 7751   2.109   1.758   0.736
 2284SOL    HW2 7752   2.142   1.644   0.624
 2285SOL     OW 7753   2.338   3.496   6.921
 2285SOL    HW1 7754   2.239   3.487   6.927
 2285SOL    HW2 7755   2.364   3.590   6.943
 2286SOL     OW 7756   6.432   6.498   4.737
 2286SOL    HW1 7757   6.492   6.428   4.700
 2286SOL    HW2 7758   6.379   6.460   4.814
 2287SOL     OW 7759   2.428   2.550   2.092
 2287SOL    HW1 7760   2.446   2.629   2.150
 2287SOL    HW2 7761   2.330   2.548   2.069
 2288SOL     OW 7762   6.627   5.622   4.349
 2288SOL    HW1 7763   6.666   5.647   4.437
 2288SOL    HW2 7764   6.654   5.690   4.280
 2289SOL     OW 7765   6.146   3.682   2.661
 2289SOL    HW1 7766   6.059   3.711   2.621
 2289SOL    HW2 7767   6.179   3.753   2.723
 2290SOL     OW 7768   2.084   3.917   2.073
 2290SOL    HW1 7769   2.140   3.999   2.057
 2290SOL    HW2 7770   2.087   3.859   1.992
 2291SOL     OW 7771   2.161   2.351   0.644
 2291SOL    HW1 7772   2.158   2.298   0.559
 2291SOL    HW2 7773   2.249   2.399   0.650
 2292SOL     OW 7774   5.060   2.889   3.817
 2292SOL    HW1 7775   5.061   2.988   3.800
 2292SOL    HW2 7776   5.006   2.870   3.899
 2293SOL     OW 7777   6.402   0.534   1.109
 2293SOL    HW1 7778   6.338   0.503   1.180
 2293SOL    HW2 7779   6.394   0.634   1.100
 2294SOL     OW 7780   3.257   1.822   5.994
 2294SOL    HW1 7781   3.294   1.864   5.911
 2294SOL    HW2 7782   3.179   1.764   5.970
 2295SOL     OW 7783   0.039   1.027   3.020
 2295SOL    HW1 7784   0.010   0.976   2.938
 2295SOL    HW2 7785   7.009   0.995   3.099
 2296SOL     OW 7786   2.390   5.249   3.087
 2296SOL    HW1 7787   2.393   5.285   2.993
 2296SOL    HW2 7788   2.430   5.158   3.089
 2297SOL     OW 7789   4.761   4.691   6.149
 2297SOL    HW1 7790   4.835   4.723   6.091
 2297SOL    HW2 7791   4.677   4.739   6.126
 2298SOL     OW 7792   3.691   3.497   3.369
 2298SOL    HW1 7793   3.747   3.546   3.303
 2298SOL    HW2 7794   3.692   3.399   3.348
 2299SOL     OW 7795   4.815   4.334   4.949
 2299SOL    HW1 7796   4.738   4.377   4.998
 2299SOL    HW2 7797   4.891   4.398   4.945
 2300SOL     OW 7798   3.037   6.957   3.535
 2300SOL    HW1 7799   3.051   6.994   3.443
 2300SOL    HW2 7800   2.942   6.930   3.546
 2301SOL     OW 7801   3.577   2.928   3.863
 2301SOL    HW1 7802   3.525   2.881   3.934
 2301SOL    HW2 7803   3.663   2.960   3.900
 2302SOL     OW 7804   3.280   0.399   1.376
 2302SOL    HW1 7805   3.348   0.332   1.403
 2302SOL    HW2 7806   3.294   0.424   1.280
 2303SOL     OW 7807   2.463   3.120   1.388
 2303SOL    HW1 7808   2.547   3.085   1.428
 2303SOL    HW2 7809   2.478   3.139   1.291
 2304SOL     OW 7810   5.392   5.538   3.971
 2304SOL    HW1 7811   5.312   5.501   3.924
 2304SOL    HW2 7812   5.451   5.464   4.002
 2305SOL     OW 7813   2.039   0.495   3.777
 2305SOL    HW1 7814   1.981   0.481   3.856
 2305SOL    HW2 7815   2.117   0.551   3.802
 2306SOL     OW 7816   1.540   5.336   2.017
 2306SOL    HW1 7817   1.517   5.280   2.097
 2306SOL    HW2 7818   1.616   5.294   1.968
 2307SOL     OW 7819   0.637   3.375   5.614
 2307SOL    HW1 7820   0.594   3.366   5.704
 2307SOL    HW2 7821   0.623   3.290   5.563
 2308SOL     OW 7822   2.960   4.610   0.988
 2308SOL    HW1 7823   2.901   4.624   0.908
 2308SOL    HW2 7824   2.903   4.609   1.071
 2309SOL     OW 7825   1.786   0.793   4.611
 2309SOL    HW1 7826   1.696   0.835   4.601
 2309SOL    HW2 7827   1.778   0.694   4.609
 2310SOL     OW 7828   5.870   6.040   2.720
 2310SOL    HW1 7829   5.802   6.084   2.661
 2310SOL    HW2 7830   5.961   6.072   2.697
 2311SOL     OW 7831   2.484   5.661   0.065
 2311SOL    HW1 7832   2.504   5.745   0.015
 2311SOL    HW2 7833   2.512   5.671   0.161
 2312SOL     OW 7834   4.003   5.861   3.441
 2312SOL    HW1 7835   4.073   5.902   3.500
 2312SOL    HW2 7836   3.966   5.932   3.381
 2313SOL     OW 7837   4.919   4.847   1.899
 2313SOL    HW1 7838   4.880   4.933   1.867
 2313SOL    HW2 7839   5.002   4.825   1.847
 2314SOL     OW 7840   3.829   6.845   2.885
 2314SOL    HW1 7841   3.810   6.816   2.978
 2314SOL    HW2 7842   3.909   6.906   2.885
 2315SOL     OW 7843   5.419   3.631   5.694
 2315SOL    HW1 7844   5.414   3.531   5.691
 2315SOL    HW2 7845   5.513   3.659   5.713
 2316SOL     OW 7846   5.159   2.238   3.453
 2316SOL    HW1 7847   5.235   2.213   3.393
 2316SOL    HW2 7848   5.189   2.307   3.519
 2317SOL     OW 7849   0.000   5.296   3.317
 2317SOL    HW1 7850   0.082   5.354   3.322
 2317SOL    HW2 7851   7.009   5.248   3.403
 2318SOL     OW 7852   0.456   2.752   3.640
 2318SOL    HW1 7853   0.471   2.802   3.725
 2318SOL    HW2 7854   0.358   2.748   3.621
 2319SOL     OW 7855   1.262   4.577   4.641
 2319SOL    HW1 7856   1.265   4.674   4.614
 2319SOL    HW2 7857   1.184   4.562   4.702
 2320SOL     OW 7858   0.656   2.743   4.549
 2320SOL    HW1 7859   0.715   2.714   4.624
 2320SOL    HW2 7860   0.578   2.794   4.585
 2321SOL     OW 7861   3.391   1.027   5.255
 2321SOL    HW1 7862   3.449   1.012   5.335
 2321SOL    HW2 7863   3.447   1.024   5.172
 2322SOL     OW 7864   2.033   1.894   5.512
 2322SOL    HW1 7865   2.032   1.798   5.483
 2322SOL    HW2 7866   1.965   1.945   5.460
 2323SOL     OW 7867   2.527   4.842   2.550
 2323SOL    HW1 7868   2.475   4.848   2.635
 2323SOL    HW2 7869   2.473   4.882   2.475
 2324SOL     OW 7870   0.328   5.855   2.690
 2324SOL    HW1 7871   0.407   5.912   2.668
 2324SOL    HW2 7872   0.307   5.864   2.787
 2325SOL     OW 7873   1.218   3.717   1.946
 2325SOL    HW1 7874   1.279   3.678   1.878
 2325SOL    HW2 7875   1.146   3.652   1.968
 2326SOL     OW 7876   2.314   3.826   6.368
 2326SOL    HW1 7877   2.255   3.749   6.343
 2326SOL    HW2 7878   2.399   3.792   6.407
 2327SOL     OW 7879   4.896   2.493   4.835
 2327SOL    HW1 7880   4.974   2.489   4.773
 2327SOL    HW2 7881   4.909   2.567   4.901
 2328SOL     OW 7882   5.145   1.371   3.751
 2328SOL    HW1 7883   5.216   1.419   3.803
 2328SOL    HW2 7884   5.186   1.331   3.669
 2329SOL     OW 7885   1.171   5.494   4.664
 2329SOL    HW1 7886   1.181   5.548   4.581
 2329SOL    HW2 7887   1.248   5.431   4.672
 2330SOL     OW 7888   0.428   4.436   1.844
 2330SOL    HW1 7889   0.438   4.345   1.883
 2330SOL    HW2 7890   0.507   4.493   1.869
 2331SOL     OW 7891   6.091   4.963   6.921
 2331SOL    HW1 7892   6.170   5.024   6.919
 2331SOL    HW2 7893   6.067   4.936   6.828
 2332SOL     OW 7894   5.052   2.053   5.166
 2332SOL    HW1 7895   5.066   2.150   5.187
 2332SOL    HW2 7896   5.137   2.003   5.182
 2333SOL     OW 7897   0.202   4.763   2.724
 2333SOL    HW1 7898   0.264   4.726   2.654
 2333SOL    HW2 7899   0.251   4.830   2.780
 2334SOL     OW 7900   2.873   6.821   6.544
 2334SOL    HW1 7901   2.929   6.808   6.627
 2334SOL    HW2 7902   2.837   6.914   6.543
 2335SOL     OW 7903   6.337   1.325   3.455
 2335SOL    HW1 7904   6.351   1.332   3.357
 2335SOL    HW2 7905   6.389   1.396   3.502
 2336SOL     OW 7906   4.838   1.296   5.238
 2336SOL    HW1 7907   4.845   1.285   5.139
 2336SOL    HW2 7908   4.742   1.302   5.264
 2337SOL     OW 7909   4.974   0.672   3.579
 2337SOL    HW1 7910   4.880   0.645   3.601
 2337SOL    HW2 7911   4.978   0.704   3.484
 2338SOL     OW 7912   1.131   0.169   6.417
 2338SOL    HW1 7913   1.170   0.210   6.500
 2338SOL    HW2 7914   1.204   0.132   6.360
 2339SOL     OW 7915   3.275   3.842   5.375
 2339SOL    HW1 7916   3.237   3.924   5.418
 2339SOL    HW2 7917   3.345   3.869   5.309
 2340SOL     OW 7918   4.667   6.782   5.660
 2340SOL    HW1 7919   4.572   6.805   5.679
 2340SOL    HW2 7920   4.671   6.727   5.576
 2341SOL     OW 7921   5.304   3.874   0.320
 2341SOL    HW1 7922   5.332   3.934   0.394
 2341SOL    HW2 7923   5.218   3.830   0.343
 2342SOL     OW 7924   0.122   6.059   5.175
 2342SOL    HW1 7925   0.139   5.999   5.253
 2342SOL    HW2 7926   0.164   6.020   5.093
 2343SOL     OW 7927   1.392   6.987   1.331
 2343SOL    HW1 7928   1.395   6.938   1.244
 2343SOL    HW2 7929   1.480   0.006   1.350
 2344SOL     OW 7930   2.217   1.939   1.710
 2344SOL    HW1 7931   2.188   1.946   1.805
 2344SOL    HW2 7932   2.292   1.873   1.703
 2345SOL     OW 7933   1.688   0.040   5.237
 2345SOL    HW1 7934   1.670   6.976   5.190
 2345SOL    HW2 7935   1.762   0.028   5.302
 2346SOL     OW 7936   4.679   2.863   5.330
 2346SOL    HW1 7937   4.646   2.858   5.235
 2346SOL    HW2 7938   4.707   2.772   5.360
 2347SOL     OW 7939   1.576   4.197   2.328
 2347SOL    HW1 7940   1.491   4.248   2.346
 2347SOL    HW2 7941   1.561   4.134   2.251
 2348SOL     OW 7942   2.397   6.042   3.384
 2348SOL    HW1 7943   2.377   5.963   3.442
 2348SOL    HW2 7944   2.495   6.058   3.382
 2349SOL     OW 7945   1.250   6.253   6.721
 2349SOL    HW1 7946   1.231   6.351   6.732
 2349SOL    HW2 7947   1.310   6.222   6.794
 2350SOL     OW 7948   3.546   6.872   5.643
 2350SOL    HW1 7949   3.468   6.883   5.581
 2350SOL    HW2 7950   3.621   6.930   5.611
 2351SOL     OW 7951   3.479   5.215   3.560
 2351SOL    HW1 7952   3.383   5.216   3.589
 2351SOL    HW2 7953   3.513   5.309   3.555
 2352SOL     OW 7954   0.393   4.400   3.021
 2352SOL    HW1 7955   0.447   4.336   3.075
 2352SOL    HW2 7956   0.301   4.407   3.060
 2353SOL     OW 7957   2.267   4.271   4.869
 2353SOL    HW1 7958   2.296   4.187   4.915
 2353SOL    HW2 7959   2.288   4.350   4.926
 2354SOL     OW 7960   3.747   2.248   6.665
 2354SOL    HW1 7961   3.713   2.204   6.582
 2354SOL    HW2 7962   3.687   2.224   6.742
 2355SOL     OW 7963   0.467   6.315   0.170
 2355SOL    HW1 7964   0.439   6.246   0.103
 2355SOL    HW2 7965   0.385   6.355   0.211
 2356SOL     OW 7966   2.383   4.018   1.745
 2356SOL    HW1 7967   2.479   4.045   1.734
 2356SOL    HW2 7968   2.335   4.027   1.658
 2357SOL     OW 7969   4.529   4.993   3.949
 2357SOL    HW1 7970   4.561   4.911   3.902
 2357SOL    HW2 7971   4.507   4.970   4.044
 2358SOL     OW 7972   3.262   6.591   4.042
 2358SOL    HW1 7973   3.305   6.506   4.010
 2358SOL    HW2 7974   3.272   6.598   4.141
 2359SOL     OW 7975   2.242   1.101   6.152
 2359SOL    HW1 7976   2.175   1.077   6.221
 2359SOL    HW2 7977   2.199   1.156   6.080
 2360SOL     OW 7978   4.598   4.972   6.748
 2360SOL    HW1 7979   4.503   4.949   6.728
 2360SOL    HW2 7980   4.617   5.064   6.714
 2361SOL     OW 7981   2.801   6.738   3.729
 2361SOL    HW1 7982   2.726   6.694   3.779
 2361SOL    HW2 7983   2.778   6.741   3.631
 2362SOL     OW 7984   4.645   6.361   5.246
 2362SOL    HW1 7985   4.564   6.301   5.253
 2362SOL    HW2 7986   4.658   6.388   5.151
 2363SOL     OW 7987   4.785   2.513   5.370
 2363SOL    HW1 7988   4.811   2.545   5.279
 2363SOL    HW2 7989   4.868   2.494   5.424
 2364SOL     OW 7990   5.768   2.105   2.160
 2364SOL    HW1 7991   5.826   2.027   2.139
 2364SOL    HW2 7992   5.723   2.137   2.077
 2365SOL     OW 7993   5.783   4.777   5.664
 2365SOL    HW1 7994   5.809   4.863   5.621
 2365SOL    HW2 7995   5.846   4.756   5.738
 2366SOL     OW 7996   0.605   3.881   5.850
 2366SOL    HW1 7997   0.633   3.868   5.945
 2366SOL    HW2 7998   0.672   3.837   5.789
 2367SOL     OW 7999   0.794   2.811   5.961
 2367SOL    HW1 8000   0.761   2.742   6.026
 2367SOL    HW2 8001   0.721   2.835   5.898
 2368SOL     OW 8002   4.419   1.068   5.429
 2368SOL    HW1 8003   4.494   1.103   5.373
 2368SOL    HW2 8004   4.389   0.980   5.393
 2369SOL     OW 8005   2.674   1.843   3.839
 2369SOL    HW1 8006   2.764   1.825   3.879
 2369SOL    HW2 8007   2.667   1.795   3.751
 2370SOL     OW 8008   4.462   2.963   0.578
 2370SOL    HW1 8009   4.510   2.969   0.490
 2370SOL    HW2 8010   4.364   2.973   0.563
 2371SOL     OW 8011   1.334   5.775   2.427
 2371SOL    HW1 8012   1.386   5.859   2.417
 2371SOL    HW2 8013   1.280   5.758   2.344
 2372SOL     OW 8014   0.070   1.068   6.883
 2372SOL    HW1 8015   0.124   1.114   6.813
 2372SOL    HW2 8016   0.116   0.983   6.909
 2373SOL     OW 8017   6.539   1.155   6.303
 2373SOL    HW1 8018   6.573   1.062   6.290
 2373SOL    HW2 8019   6.556   1.184   6.398
 2374SOL     OW 8020   6.232   5.980   3.220
 2374SOL    HW1 8021   6.144   5.995   3.265
 2374SOL    HW2 8022   6.305   5.979   3.288
 2375SOL     OW 8023   0.643   0.837   4.276
 2375SOL    HW1 8024   0.613   0.793   4.360
 2375SOL    HW2 8025   0.743   0.843   4.275
 2376SOL     OW 8026   6.371   2.587   3.182
 2376SOL    HW1 8027   6.383   2.589   3.083
 2376SOL    HW2 8028   6.461   2.579   3.226
 2377SOL     OW 8029   3.246   3.742   4.757
 2377SOL    HW1 8030   3.270   3.654   4.715
 2377SOL    HW2 8031   3.300   3.814   4.715
 2378SOL     OW 8032   5.418   1.871   7.015
 2378SOL    HW1 8033   5.352   1.902   0.061
 2378SOL    HW2 8034   5.484   1.943   6.997
 2379SOL     OW 8035   6.312   3.943   6.945
 2379SOL    HW1 8036   6.238   3.893   6.900
 2379SOL    HW2 8037   6.319   3.913   0.018
 2380SOL     OW 8038   5.938   1.121   5.616
 2380SOL    HW1 8039   5.853   1.127   5.668
 2380SOL    HW2 8040   6.012   1.166   5.668
 2381SOL     OW 8041   1.239   4.705   5.340
 2381SOL    HW1 8042   1.288   4.758   5.271
 2381SOL    HW2 8043   1.228   4.761   5.423
 2382SOL     OW 8044   2.215   5.681   2.424
 2382SOL    HW1 8045   2.261   5.770   2.424
 2382SOL    HW2 8046   2.125   5.690   2.467
 2383SOL     OW 8047   5.362   6.067   6.653
 2383SOL    HW1 8048   5.455   6.092   6.627
 2383SOL    HW2 8049   5.360   6.041   6.750
 2384SOL     OW 8050   1.148   2.697   0.914
 2384SOL    HW1 8051   1.161   2.795   0.898
 2384SOL    HW2 8052   1.095   2.657   0.839
 2385SOL     OW 8053   0.601   0.977   0.304
 2385SOL    HW1 8054   0.668   1.018   0.242
 2385SOL    HW2 8055   0.594   0.879   0.287
 2386SOL     OW 8056   3.449   5.278   4.191
 2386SOL    HW1 8057   3.514   5.233   4.251
 2386SOL    HW2 8058   3.381   5.327   4.246
 2387SOL     OW 8059   0.200   3.697   4.347
 2387SOL    HW1 8060   0.220   3.794   4.357
 2387SOL    HW2 8061   0.251   3.645   4.415
 2388SOL     OW 8062   0.816   1.381   5.529
 2388SOL    HW1 8063   0.857   1.296   5.563
 2388SOL    HW2 8064   0.785   1.436   5.606
 2389SOL     OW 8065   4.442   4.550   3.363
 2389SOL    HW1 8066   4.528   4.559   3.311
 2389SOL    HW2 8067   4.457   4.488   3.440
 2390SOL     OW 8068   3.631   3.811   4.764
 2390SOL    HW1 8069   3.690   3.891   4.773
 2390SOL    HW2 8070   3.560   3.829   4.696
 2391SOL     OW 8071   3.601   4.165   5.949
 2391SOL    HW1 8072   3.507   4.187   5.922
 2391SOL    HW2 8073   3.617   4.195   6.042
 2392SOL     OW 8074   2.543   3.655   6.385
 2392SOL    HW1 8075   2.550   3.694   6.477
 2392SOL    HW2 8076   2.576   3.561   6.387
 2393SOL     OW 8077   3.924   5.124   1.386
 2393SOL    HW1 8078   3.886   5.059   1.453
 2393SOL    HW2 8079   3.860   5.200   1.375
 2394SOL     OW 8080   0.685   3.867   4.155
 2394SOL    HW1 8081   0.652   3.805   4.226
 2394SOL    HW2 8082   0.664   3.961   4.180
 2395SOL     OW 8083   0.207   3.133   6.767
 2395SOL    HW1 8084   0.164   3.048   6.795
 2395SOL    HW2 8085   0.302   3.115   6.740
 2396SOL     OW 8086   5.915   6.517   0.781
 2396SOL    HW1 8087   5.858   6.516   0.699
 2396SOL    HW2 8088   5.952   6.425   0.797
 2397SOL     OW 8089   6.918   4.637   0.626
 2397SOL    HW1 8090   6.972   4.604   0.548
 2397SOL    HW2 8091   6.821   4.635   0.602
 2398SOL     OW 8092   2.778   4.789   4.784
 2398SOL    HW1 8093   2.865   4.838   4.776
 2398SOL    HW2 8094   2.788   4.713   4.849
 2399SOL     OW 8095   3.639   2.121   3.283
 2399SOL    HW1 8096   3.591   2.098   3.368
 2399SOL    HW2 8097   3.736   2.100   3.293
 2400SOL     OW 8098   2.468   3.808   0.409
 2400SOL    HW1 8099   2.411   3.740   0.364
 2400SOL    HW2 8100   2.435   3.822   0.503
 2401SOL     OW 8101   3.691   0.263   4.342
 2401SOL    HW1 8102   3.680   0.256   4.441
 2401SOL    HW2 8103   3.783   0.233   4.316
 2402SOL     OW 8104   6.810   1.528   3.910
 2402SOL    HW1 8105   6.795   1.429   3.914
 2402SOL    HW2 8106   6.908   1.547   3.924
 2403SOL     OW 8107   3.388   3.361   0.789
 2403SOL    HW1 8108   3.293   3.349   0.820
 2403SOL    HW2 8109   3.434   3.273   0.789
 2404SOL     OW 8110   6.007   2.041   1.692
 2404SOL    HW1 8111   6.082   2.045   1.759
 2404SOL    HW2 8112   5.954   1.958   1.707
 2405SOL     OW 8113   3.249   4.324   5.958
 2405SOL    HW1 8114   3.182   4.391   5.924
 2405SOL    HW2 8115   3.270   4.259   5.885
 2406SOL     OW 8116   2.344   0.085   4.237
 2406SOL    HW1 8117   2.267   0.044   4.286
 2406SOL    HW2 8118   2.417   0.018   4.227
 2407SOL     OW 8119   4.196   2.241   2.800
 2407SOL    HW1 8120   4.195   2.142   2.791
 2407SOL    HW2 8121   4.215   2.283   2.711
 2408SOL     OW 8122   2.972   4.924   3.109
 2408SOL    HW1 8123   3.000   4.966   3.023
 2408SOL    HW2 8124   2.875   4.900   3.105
 2409SOL     OW 8125   2.814   3.179   1.269
 2409SOL    HW1 8126   2.808   3.153   1.365
 2409SOL    HW2 8127   2.753   3.256   1.250
 2410SOL     OW 8128   6.047   3.539   5.368
 2410SOL    HW1 8129   6.076   3.606   5.300
 2410SOL    HW2 8130   5.962   3.569   5.410
 2411SOL     OW 8131   2.968   3.505   5.696
 2411SOL    HW1 8132   2.932   3.513   5.789
 2411SOL    HW2 8133   2.944   3.415   5.659
 2412SOL     OW 8134   2.996   2.738   0.837
 2412SOL    HW1 8135   2.936   2.662   0.863
 2412SOL    HW2 8136   2.970   2.820   0.889
 2413SOL     OW 8137   5.608   3.703   6.199
 2413SOL    HW1 8138   5.555   3.641   6.140
 2413SOL    HW2 8139   5.545   3.762   6.250
 2414SOL     OW 8140   5.686   3.456   3.566
 2414SOL    HW1 8141   5.731   3.536   3.607
 2414SOL    HW2 8142   5.599   3.440   3.612
 2415SOL     OW 8143   1.942   7.011   1.522
 2415SOL    HW1 8144   1.929   0.039   1.437
 2415SOL    HW2 8145   1.884   0.028   1.593
 2416SOL     OW 8146   1.655   2.100   4.690
 2416SOL    HW1 8147   1.741   2.151   4.694
 2416SOL    HW2 8148   1.619   2.102   4.597
 2417SOL     OW 8149   5.152   2.240   0.526
 2417SOL    HW1 8150   5.111   2.300   0.595
 2417SOL    HW2 8151   5.090   2.231   0.448
 2418SOL     OW 8152   3.279   3.312   4.798
 2418SOL    HW1 8153   3.260   3.286   4.893
 2418SOL    HW2 8154   3.350   3.253   4.761
 2419SOL     OW 8155   1.453   0.070   4.519
 2419SOL    HW1 8156   1.427   7.002   4.553
 2419SOL    HW2 8157   1.551   0.071   4.499
 2420SOL     OW 8158   3.804   6.049   1.601
 2420SOL    HW1 8159   3.723   5.997   1.629
 2420SOL    HW2 8160   3.814   6.129   1.660
 2421SOL     OW 8161   3.651   6.642   3.717
 2421SOL    HW1 8162   3.555   6.623   3.737
 2421SOL    HW2 8163   3.698   6.670   3.801
 2422SOL     OW 8164   4.699   6.927   0.630
 2422SOL    HW1 8165   4.652   6.955   0.714
 2422SOL    HW2 8166   4.636   6.934   0.553
 2423SOL     OW 8167   1.740   5.214   1.250
 2423SOL    HW1 8168   1.752   5.169   1.339
 2423SOL    HW2 8169   1.830   5.235   1.211
 2424SOL     OW 8170   5.414   6.451   6.912
 2424SOL    HW1 8171   5.480   6.512   6.868
 2424SOL    HW2 8172   5.451   6.358   6.913
 2425SOL     OW 8173   5.731   6.828   5.816
 2425SOL    HW1 8174   5.701   6.770   5.891
 2425SOL    HW2 8175   5.781   6.907   5.852
 2426SOL     OW 8176   1.188   5.638   4.433
 2426SOL    HW1 8177   1.275   5.630   4.385
 2426SOL    HW2 8178   1.113   5.622   4.369
 2427SOL     OW 8179   4.920   5.825   0.636
 2427SOL    HW1 8180   4.901   5.739   0.682
 2427SOL    HW2 8181   4.997   5.813   0.573
 2428SOL     OW 8182   0.414   0.329   3.217
 2428SOL    HW1 8183   0.473   0.248   3.215
 2428SOL    HW2 8184   0.411   0.366   3.310
 2429SOL     OW 8185   5.966   4.947   3.306
 2429SOL    HW1 8186   5.969   5.006   3.387
 2429SOL    HW2 8187   5.877   4.901   3.302
 2430SOL     OW 8188   5.597   3.207   0.244
 2430SOL    HW1 8189   5.624   3.112   0.263
 2430SOL    HW2 8190   5.524   3.207   0.175
 2431SOL     OW 8191   4.492   1.059   0.896
 2431SOL    HW1 8192   4.581   1.090   0.863
 2431SOL    HW2 8193   4.505   0.991   0.968
 2432SOL     OW 8194   2.891   6.504   2.305
 2432SOL    HW1 8195   2.814   6.466   2.255
 2432SOL    HW2 8196   2.960   6.536   2.239
 2433SOL     OW 8197   1.357   6.956   0.598
 2433SOL    HW1 8198   1.259   6.936   0.599
 2433SOL    HW2 8199   1.403   6.905   0.671
 2434SOL     OW 8200   5.823   2.137   3.105
 2434SOL    HW1 8201   5.826   2.081   3.023
 2434SOL    HW2 8202   5.818   2.078   3.186
 2435SOL     OW 8203   5.289   4.987   0.229
 2435SOL    HW1 8204   5.198   4.969   0.192
 2435SOL    HW2 8205   5.302   5.086   0.239
 2436SOL     OW 8206   1.839   0.125   1.259
 2436SOL    HW1 8207   1.758   0.179   1.236
 2436SOL    HW2 8208   1.891   0.107   1.176
 2437SOL     OW 8209   5.019   6.716   1.376
 2437SOL    HW1 8210   5.001   6.637   1.319
 2437SOL    HW2 8211   5.067   6.786   1.322
 2438SOL     OW 8212   3.677   1.183   4.298
 2438SOL    HW1 8213   3.617   1.112   4.262
 2438SOL    HW2 8214   3.758   1.190   4.239
 2439SOL     OW 8215   0.961   4.198   0.558
 2439SOL    HW1 8216   1.054   4.162   0.564
 2439SOL    HW2 8217   0.909   4.173   0.640
 2440SOL     OW 8218   4.070   0.037   6.137
 2440SOL    HW1 8219   4.165   0.004   6.136
 2440SOL    HW2 8220   4.051   0.086   6.052
 2441SOL     OW 8221   5.913   1.319   0.007
 2441SOL    HW1 8222   5.817   1.330   7.002
 2441SOL    HW2 8223   5.971   1.325   6.948
 2442SOL     OW 8224   5.248   5.296   2.942
 2442SOL    HW1 8225   5.298   5.254   2.866
 2442SOL    HW2 8226   5.280   5.390   2.954
 2443SOL     OW 8227   3.388   0.183   6.652
 2443SOL    HW1 8228   3.423   0.265   6.608
 2443SOL    HW2 8229   3.445   0.161   6.732
 2444SOL     OW 8230   4.058   3.476   0.348
 2444SOL    HW1 8231   4.019   3.393   0.388
 2444SOL    HW2 8232   3.987   3.526   0.299
 2445SOL     OW 8233   6.009   1.631   1.733
 2445SOL    HW1 8234   6.097   1.648   1.777
 2445SOL    HW2 8235   5.950   1.711   1.742
 2446SOL     OW 8236   1.080   2.798   4.851
 2446SOL    HW1 8237   0.996   2.781   4.903
 2446SOL    HW2 8238   1.092   2.896   4.837
 2447SOL     OW 8239   2.789   0.966   1.152
 2447SOL    HW1 8240   2.773   0.985   1.055
 2447SOL    HW2 8241   2.879   1.000   1.178
 2448SOL     OW 8242   6.380   0.877   3.893
 2448SOL    HW1 8243   6.390   0.933   3.975
 2448SOL    HW2 8244   6.430   0.791   3.904
 2449SOL     OW 8245   0.956   3.603   1.919
 2449SOL    HW1 8246   0.866   3.575   1.886
 2449SOL    HW2 8247   0.983   3.545   1.996
 2450SOL     OW 8248   3.658   4.570   6.109
 2450SOL    HW1 8249   3.580   4.550   6.049
 2450SOL    HW2 8250   3.725   4.624   6.060
 2451SOL     OW 8251   1.600   0.189   3.733
 2451SOL    HW1 8252   1.672   0.256   3.750
 2451SOL    HW2 8253   1.569   0.196   3.638
 2452SOL     OW 8254   2.931   2.071   3.986
 2452SOL    HW1 8255   2.865   2.147   3.986
 2452SOL    HW2 8256   2.899   2.000   3.923
 2453SOL     OW 8257   0.763   3.625   0.491
 2453SOL    HW1 8258   0.767   3.641   0.392
 2453SOL    HW2 8259   0.829   3.554   0.516
 2454SOL     OW 8260   3.040   7.016   6.966
 2454SOL    HW1 8261   2.992   0.072   6.926
 2454SOL    HW2 8262   3.113   6.986   6.904
 2455SOL     OW 8263   3.777   0.461   0.271
 2455SOL    HW1 8264   3.738   0.548   0.302
 2455SOL    HW2 8265   3.757   0.389   0.339
 2456SOL     OW 8266   6.770   2.690   6.828
 2456SOL    HW1 8267   6.748   2.678   6.732
 2456SOL    HW2 8268   6.798   2.784   6.845
 2457SOL     OW 8269   6.816   0.701   6.307
 2457SOL    HW1 8270   6.849   0.738   6.220
 2457SOL    HW2 8271   6.805   0.602   6.299
 2458SOL     OW 8272   1.708   6.573   3.892
 2458SOL    HW1 8273   1.638   6.644   3.889
 2458SOL    HW2 8274   1.664   6.483   3.885
 2459SOL     OW 8275   2.908   6.391   5.589
 2459SOL    HW1 8276   2.862   6.332   5.523
 2459SOL    HW2 8277   2.914   6.344   5.678
 2460SOL     OW 8278   1.453   1.411   1.298
 2460SOL    HW1 8279   1.454   1.335   1.233
 2460SOL    HW2 8280   1.483   1.380   1.388
 2461SOL     OW 8281   5.188   0.373   3.915
 2461SOL    HW1 8282   5.141   0.383   4.002
 2461SOL    HW2 8283   5.231   0.460   3.890
 2462SOL     OW 8284   2.082   5.411   6.937
 2462SOL    HW1 8285   2.164   5.354   6.935
 2462SOL    HW2 8286   2.049   5.420   0.008
 2463SOL     OW 8287   5.995   2.209   6.645
 2463SOL    HW1 8288   5.927   2.142   6.677
 2463SOL    HW2 8289   6.054   2.165   6.577
 2464SOL     OW 8290   2.066   3.940   2.938
 2464SOL    HW1 8291   2.151   3.978   2.975
 2464SOL    HW2 8292   2.083   3.898   2.849
 2465SOL     OW 8293   1.232   6.530   6.753
 2465SOL    HW1 8294   1.262   6.580   6.672
 2465SOL    HW2 8295   1.139   6.558   6.777
 2466SOL     OW 8296   2.366   2.037   2.970
 2466SOL    HW1 8297   2.322   1.948   2.955
 2466SOL    HW2 8298   2.407   2.039   3.061
 2467SOL     OW 8299   5.234   1.962   4.482
 2467SOL    HW1 8300   5.201   1.934   4.572
 2467SOL    HW2 8301   5.308   2.029   4.493
 2468SOL     OW 8302   4.445   6.878   1.221
 2468SOL    HW1 8303   4.447   6.969   1.180
 2468SOL    HW2 8304   4.535   6.856   1.258
 2469SOL     OW 8305   4.116   3.728   5.012
 2469SOL    HW1 8306   4.154   3.644   4.973
 2469SOL    HW2 8307   4.017   3.731   4.995
 2470SOL     OW 8308   4.428   4.467   6.012
 2470SOL    HW1 8309   4.331   4.457   6.031
 2470SOL    HW2 8310   4.482   4.428   6.087
 2471SOL     OW 8311   3.162   6.229   0.623
 2471SOL    HW1 8312   3.157   6.129   0.632
 2471SOL    HW2 8313   3.072   6.269   0.638
 2472SOL     OW 8314   4.436   2.009   3.286
 2472SOL    HW1 8315   4.521   2.038   3.243
 2472SOL    HW2 8316   4.454   1.982   3.381
 2473SOL     OW 8317   1.654   3.643   4.939
 2473SOL    HW1 8318   1.748   3.634   4.905
 2473SOL    HW2 8319   1.592   3.654   4.861
 2474SOL     OW 8320   0.333   5.798   1.471
 2474SOL    HW1 8321   0.376   5.725   1.524
 2474SOL    HW2 8322   0.383   5.884   1.484
 2475SOL     OW 8323   3.849   0.297   2.491
 2475SOL    HW1 8324   3.852   0.382   2.544
 2475SOL    HW2 8325   3.755   0.278   2.465
 2476SOL     OW 8326   6.471   1.299   2.624
 2476SOL    HW1 8327   6.396   1.250   2.668
 2476SOL    HW2 8328   6.501   1.374   2.684
 2477SOL     OW 8329   4.447   0.977   2.528
 2477SOL    HW1 8330   4.501   0.976   2.444
 2477SOL    HW2 8331   4.351   0.995   2.506
 2478SOL     OW 8332   5.911   1.381   1.879
 2478SOL    HW1 8333   5.955   1.317   1.942
 2478SOL    HW2 8334   5.981   1.436   1.833
 2479SOL     OW 8335   0.896   3.081   1.953
 2479SOL    HW1 8336   0.834   3.098   2.030
 2479SOL    HW2 8337   0.990   3.082   1.986
 2480SOL     OW 8338   4.777   3.979   0.306
 2480SOL    HW1 8339   4.741   3.899   0.354
 2480SOL    HW2 8340   4.746   4.063   0.351
 2481SOL     OW 8341   3.790   6.306   6.968
 2481SOL    HW1 8342   3.822   6.344   6.881
 2481SOL    HW2 8343   3.710   6.358   6.999
 2482SOL     OW 8344   5.498   3.891   5.870
 2482SOL    HW1 8345   5.449   3.805   5.857
 2482SOL    HW2 8346   5.547   3.915   5.786
 2483SOL     OW 8347   1.664   1.270   0.334
 2483SOL    HW1 8348   1.753   1.245   0.371
 2483SOL    HW2 8349   1.624   1.191   0.286
 2484SOL     OW 8350   3.292   1.075   6.871
 2484SOL    HW1 8351   3.284   1.011   6.948
 2484SOL    HW2 8352   3.312   1.166   6.906
 2485SOL     OW 8353   6.413   3.195   1.161
 2485SOL    HW1 8354   6.428   3.206   1.062
 2485SOL    HW2 8355   6.487   3.241   1.211
 2486SOL     OW 8356   2.013   4.612   4.319
 2486SOL    HW1 8357   2.100   4.618   4.368
 2486SOL    HW2 8358   1.955   4.542   4.361
 2487SOL     OW 8359   4.267   6.103   0.552
 2487SOL    HW1 8360   4.194   6.103   0.484
 2487SOL    HW2 8361   4.252   6.029   0.618
 2488SOL     OW 8362   1.544   4.769   2.662
 2488SOL    HW1 8363   1.595   4.839   2.713
 2488SOL    HW2 8364   1.523   4.804   2.571
 2489SOL     OW 8365   1.370   6.152   3.584
 2489SOL    HW1 8366   1.360   6.162   3.683
 2489SOL    HW2 8367   1.280   6.160   3.541
 2490SOL     OW 8368   6.858   4.875   1.350
 2490SOL    HW1 8369   6.899   4.856   1.439
 2490SOL    HW2 8370   6.836   4.789   1.305
 2491SOL     OW 8371   2.435   5.315   0.403
 2491SOL    HW1 8372   2.341   5.320   0.369
 2491SOL    HW2 8373   2.489   5.389   0.362
 2492SOL     OW 8374   4.565   2.877   0.813
 2492SOL    HW1 8375   4.562   2.957   0.873
 2492SOL    HW2 8376   4.514   2.897   0.729
 2493SOL     OW 8377   5.897   0.681   1.961
 2493SOL    HW1 8378   5.909   0.623   2.042
 2493SOL    HW2 8379   5.982   0.729   1.942
 2494SOL     OW 8380   5.175   4.045   2.737
 2494SOL    HW1 8381   5.097   3.998   2.778
 2494SOL    HW2 8382   5.157   4.061   2.639
 2495SOL     OW 8383   5.077   7.009   4.375
 2495SOL    HW1 8384   5.033   0.026   4.295
 2495SOL    HW2 8385   5.084   6.910   4.364
 2496SOL     OW 8386   6.598   3.345   5.739
 2496SOL    HW1 8387   6.637   3.323   5.828
 2496SOL    HW2 8388   6.660   3.408   5.690
 2497SOL     OW 8389   0.456   0.339   0.615
 2497SOL    HW1 8390   0.420   0.419   0.664
 2497SOL    HW2 8391   0.539   0.307   0.661
 2498SOL     OW 8392   2.604   1.470   4.176
 2498SOL    HW1 8393   2.686   1.527   4.170
 2498SOL    HW2 8394   2.621   1.391   4.234
 2499SOL     OW 8395   6.322   2.592   1.973
 2499SOL    HW1 8396   6.270   2.510   1.949
 2499SOL    HW2 8397   6.355   2.636   1.890
 2500SOL     OW 8398   4.210   3.168   6.769
 2500SOL    HW1 8399   4.167   3.104   6.705
 2500SOL    HW2 8400   4.139   3.220   6.817
 2501SOL     OW 8401   6.029   4.857   0.935
 2501SOL    HW1 8402   5.956   4.789   0.946
 2501SOL    HW2 8403   6.081   4.836   0.853
 2502SOL     OW 8404   1.337   6.375   3.244
 2502SOL    HW1 8405   1.301   6.441   3.311
 2502SOL    HW2 8406   1.433   6.358   3.264
 2503SOL     OW 8407   2.518   6.098   3.988
 2503SOL    HW1 8408   2.480   6.183   4.026
 2503SOL    HW2 8409   2.552   6.040   4.062
 2504SOL     OW 8410   3.890   5.244   4.374
 2504SOL    HW1 8411   3.834   5.169   4.410
 2504SOL    HW2 8412   3.830   5.317   4.341
 2505SOL     OW 8413   1.121   6.208   2.879
 2505SOL    HW1 8414   1.066   6.169   2.953
 2505SOL    HW2 8415   1.097   6.304   2.867
 2506SOL     OW 8416   6.131   4.220   5.161
 2506SOL    HW1 8417   6.220   4.258   5.135
 2506SOL    HW2 8418   6.060   4.255   5.101
 2507SOL     OW 8419   1.222   4.108   0.597
 2507SOL    HW1 8420   1.255   4.108   0.691
 2507SOL    HW2 8421   1.277   4.044   0.543
 2508SOL     OW 8422   2.119   1.397   2.779
 2508SOL    HW1 8423   2.119   1.476   2.717
 2508SOL    HW2 8424   2.030   1.352   2.775
 2509SOL     OW 8425   6.753   2.742   1.066
 2509SOL    HW1 8426   6.828   2.726   1.001
 2509SOL    HW2 8427   6.670   2.763   1.015
 2510SOL     OW 8428   2.769   4.306   1.464
 2510SOL    HW1 8429   2.751   4.363   1.544
 2510SOL    HW2 8430   2.863   4.321   1.433
 2511SOL     OW 8431   3.206   2.099   4.610
 2511SOL    HW1 8432   3.266   2.092   4.530
 2511SOL    HW2 8433   3.136   2.028   4.606
 2512SOL     OW 8434   5.480   4.427   5.478
 2512SOL    HW1 8435   5.521   4.475   5.400
 2512SOL    HW2 8436   5.470   4.490   5.555
 2513SOL     OW 8437   1.231   4.412   5.416
 2513SOL    HW1 8438   1.299   4.385   5.485
 2513SOL    HW2 8439   1.240   4.509   5.396
 2514SOL     OW 8440   6.221   3.368   4.502
 2514SOL    HW1 8441   6.273   3.453   4.497
 2514SOL    HW2 8442   6.250   3.315   4.582
 2515SOL     OW 8443   2.224   6.858   0.491
 2515SOL    HW1 8444   2.290   6.908   0.548
 2515SOL    HW2 8445   2.155   6.817   0.550
 2516SOL     OW 8446   5.989   1.330   3.161
 2516SOL    HW1 8447   6.008   1.287   3.250
 2516SOL    HW2 8448   6.076   1.346   3.113
 2517SOL     OW 8449   1.075   6.147   5.371
 2517SOL    HW1 8450   1.034   6.060   5.396
 2517SOL    HW2 8451   1.112   6.192   5.453
 2518SOL     OW 8452   1.237   4.546   6.919
 2518SOL    HW1 8453   1.162   4.497   6.873
 2518SOL    HW2 8454   1.305   4.480   6.950
 2519SOL     OW 8455   4.388   6.414   3.072
 2519SOL    HW1 8456   4.446   6.481   3.120
 2519SOL    HW2 8457   4.422   6.322   3.090
 2520SOL     OW 8458   2.446   2.057   0.655
 2520SOL    HW1 8459   2.477   2.071   0.749
 2520SOL    HW2 8460   2.453   2.143   0.604
 2521SOL     OW 8461   1.090   0.723   5.342
 2521SOL    HW1 8462   1.163   0.755   5.403
 2521SOL    HW2 8463   1.023   0.671   5.395
 2522SOL     OW 8464   0.553   3.885   5.154
 2522SOL    HW1 8465   0.608   3.801   5.148
 2522SOL    HW2 8466   0.607   3.962   5.120
 2523SOL     OW 8467   0.142   3.482   0.955
 2523SOL    HW1 8468   0.237   3.470   0.927
 2523SOL    HW2 8469   0.136   3.556   1.022
 2524SOL     OW 8470   0.666   6.579   5.057
 2524SOL    HW1 8471   0.753   6.592   5.104
 2524SOL    HW2 8472   0.624   6.668   5.038
 2525SOL     OW 8473   1.251   1.873   5.365
 2525SOL    HW1 8474   1.231   1.836   5.456
 2525SOL    HW2 8475   1.349   1.873   5.349
 2526SOL     OW 8476   1.480   4.090   6.072
 2526SOL    HW1 8477   1.427   4.077   6.156
 2526SOL    HW2 8478   1.450   4.025   6.003
 2527SOL     OW 8479   4.993   5.952   5.194
 2527SOL    HW1 8480   4.950   6.031   5.237
 2527SOL    HW2 8481   5.026   5.978   5.103
 2528SOL     OW 8482   5.597   5.011   1.158
 2528SOL    HW1 8483   5.668   5.061   1.208
 2528SOL    HW2 8484   5.632   4.921   1.131
 2529SOL     OW 8485   6.748   6.858   6.073
 2529SOL    HW1 8486   6.671   6.916   6.098
 2529SOL    HW2 8487   6.803   6.837   6.154
 2530SOL     OW 8488   2.543   0.062   5.551
 2530SOL    HW1 8489   2.522   0.101   5.640
 2530SOL    HW2 8490   2.570   6.989   5.562
 2531SOL     OW 8491   5.105   5.957   4.345
 2531SOL    HW1 8492   5.147   5.883   4.398
 2531SOL    HW2 8493   5.150   5.963   4.256
 2532SOL     OW 8494   0.546   6.586   1.246
 2532SOL    HW1 8495   0.480   6.519   1.279
 2532SOL    HW2 8496   0.498   6.660   1.199
 2533SOL     OW 8497   3.662   6.548   3.428
 2533SOL    HW1 8498   3.743   6.514   3.476
 2533SOL    HW2 8499   3.645   6.643   3.454
 2534SOL     OW 8500   3.393   0.541   3.106
 2534SOL    HW1 8501   3.442   0.550   3.019
 2534SOL    HW2 8502   3.295   0.531   3.089
 2535SOL     OW 8503   3.652   1.971   5.270
 2535SOL    HW1 8504   3.689   2.043   5.327
 2535SOL    HW2 8505   3.599   2.011   5.195
 2536SOL     OW 8506   0.855   1.998   4.645
 2536SOL    HW1 8507   0.813   1.921   4.598
 2536SOL    HW2 8508   0.785   2.053   4.691
 2537SOL     OW 8509   3.854   0.431   6.544
 2537SOL    HW1 8510   3.920   0.401   6.475
 2537SOL    HW2 8511   3.860   0.530   6.555
 2538SOL     OW 8512   0.984   4.901   5.171
 2538SOL    HW1 8513   1.037   4.986   5.170
 2538SOL    HW2 8514   1.026   4.838   5.236
 2539SOL     OW 8515   5.318   1.148   5.430
 2539SOL    HW1 8516   5.392   1.143   5.363
 2539SOL    HW2 8517   5.293   1.244   5.444
 2540SOL     OW 8518   4.130   1.006   2.583
 2540SOL    HW1 8519   4.073   1.030   2.662
 2540SOL    HW2 8520   4.079   1.021   2.499
 2541SOL     OW 8521   2.310   6.780   5.461
 2541SOL    HW1 8522   2.297   6.873   5.496
 2541SOL    HW2 8523   2.280   6.776   5.366
 2542SOL     OW 8524   4.665   1.868   6.331
 2542SOL    HW1 8525   4.587   1.927   6.350
 2542SOL    HW2 8526   4.740   1.890   6.394
 2543SOL     OW 8527   0.927   1.269   2.991
 2543SOL    HW1 8528   1.018   1.307   3.008
 2543SOL    HW2 8529   0.863   1.304   3.058
 2544SOL     OW 8530   0.268   5.935   1.060
 2544SOL    HW1 8531   0.321   5.911   1.141
 2544SOL    HW2 8532   0.174   5.900   1.069
 2545SOL     OW 8533   1.886   0.728   1.434
 2545SOL    HW1 8534   1.982   0.701   1.445
 2545SOL    HW2 8535   1.882   0.819   1.394
 2546SOL     OW 8536   0.063   1.519   1.157
 2546SOL    HW1 8537   7.006   1.571   1.187
 2546SOL    HW2 8538   0.038   1.423   1.145
 2547SOL     OW 8539   6.368   4.425   0.383
 2547SOL    HW1 8540   6.276   4.448   0.350
 2547SOL    HW2 8541   6.405   4.500   0.437
 2548SOL     OW 8542   2.411   6.460   6.054
 2548SOL    HW1 8543   2.456   6.489   5.969
 2548SOL    HW2 8544   2.344   6.389   6.033
 2549SOL     OW 8545   2.351   1.079   0.964
 2549SOL    HW1 8546   2.403   1.029   1.033
 2549SOL    HW2 8547   2.371   1.041   0.873
 2550SOL     OW 8548   6.914   0.061   5.738
 2550SOL    HW1 8549   6.972   0.134   5.701
 2550SOL    HW2 8550   6.919   0.062   5.838
 2551SOL     OW 8551   3.569   4.992   0.483
 2551SOL    HW1 8552   3.560   5.091   0.478
 2551SOL    HW2 8553   3.654   4.969   0.530
 2552SOL     OW 8554   1.964   5.917   5.729
 2552SOL    HW1 8555   1.989   5.885   5.638
 2552SOL    HW2 8556   2.045   5.951   5.776
 2553SOL     OW 8557   4.276   3.013   6.092
 2553SOL    HW1 8558   4.238   2.977   6.007
 2553SOL    HW2 8559   4.245   2.957   6.169
 2554SOL     OW 8560   1.955   6.191   0.800
 2554SOL    HW1 8561   1.895   6.123   0.758
 2554SOL    HW2 8562   1.936   6.197   0.898
 2555SOL     OW 8563   5.838   6.946   6.429
 2555SOL    HW1 8564   5.761   6.915   6.372
 2555SOL    HW2 8565   5.921   6.896   6.403
 2556SOL     OW 8566   4.457   5.982   0.358
 2556SOL    HW1 8567   4.419   6.014   0.445
 2556SOL    HW2 8568   4.557   5.983   0.364
 2557SOL     OW 8569   2.720   3.435   6.345
 2557SOL    HW1 8570   2.669   3.422   6.260
 2557SOL    HW2 8571   2.817   3.415   6.330
 2558SOL     OW 8572   4.730   2.317   5.720
 2558SOL    HW1 8573   4.830   2.328   5.720
 2558SOL    HW2 8574   4.696   2.325   5.813
 2559SOL     OW 8575   6.708   4.213   3.960
 2559SOL    HW1 8576   6.672   4.121   3.978
 2559SOL    HW2 8577   6.639   4.267   3.912
 2560SOL     OW 8578   5.923   3.471   4.046
 2560SOL    HW1 8579   5.858   3.479   4.121
 2560SOL    HW2 8580   5.883   3.418   3.972
 2561SOL     OW 8581   2.864   6.424   4.638
 2561SOL    HW1 8582   2.826   6.331   4.632
 2561SOL    HW2 8583   2.799   6.482   4.686
 2562SOL     OW 8584   1.072   5.364   1.854
 2562SOL    HW1 8585   1.132   5.390   1.929
 2562SOL    HW2 8586   1.125   5.316   1.784
 2563SOL     OW 8587   4.048   2.031   0.925
 2563SOL    HW1 8588   4.028   1.970   1.002
 2563SOL    HW2 8589   3.964   2.050   0.875
 2564SOL     OW 8590   1.973   6.248   5.789
 2564SOL    HW1 8591   2.047   6.261   5.724
 2564SOL    HW2 8592   1.905   6.320   5.778
 2565SOL     OW 8593   0.359   6.859   6.805
 2565SOL    HW1 8594   0.395   6.938   6.854
 2565SOL    HW2 8595   0.366   6.876   6.706
 2566SOL     OW 8596   2.292   0.142   0.645
 2566SOL    HW1 8597   2.382   0.131   0.603
 2566SOL    HW2 8598   2.221   0.112   0.581
 2567SOL     OW 8599   0.616   1.390   1.134
 2567SOL    HW1 8600   0.545   1.396   1.065
 2567SOL    HW2 8601   0.698   1.437   1.103
 2568SOL     OW 8602   3.470   6.715   0.284
 2568SOL    HW1 8603   3.499   6.621   0.266
 2568SOL    HW2 8604   3.372   6.724   0.265
 2569SOL     OW 8605   2.939   1.404   1.929
 2569SOL    HW1 8606   2.861   1.369   1.981
 2569SOL    HW2 8607   3.012   1.335   1.930
 2570SOL     OW 8608   5.580   0.027   6.132
 2570SOL    HW1 8609   5.503   0.075   6.174
 2570SOL    HW2 8610   5.642   0.094   6.090
 2571SOL     OW 8611   2.332   4.482   5.054
 2571SOL    HW1 8612   2.342   4.468   5.153
 2571SOL    HW2 8613   2.411   4.533   5.020
 2572SOL     OW 8614   2.183   5.822   6.988
 2572SOL    HW1 8615   2.274   5.862   6.997
 2572SOL    HW2 8616   2.178   5.770   6.903
 2573SOL     OW 8617   6.619   2.357   1.709
 2573SOL    HW1 8618   6.587   2.298   1.783
 2573SOL    HW2 8619   6.655   2.301   1.635
 2574SOL     OW 8620   6.035   3.820   6.897
 2574SOL    HW1 8621   5.945   3.834   6.938
 2574SOL    HW2 8622   6.069   3.729   6.920
 2575SOL     OW 8623   5.287   5.458   0.524
 2575SOL    HW1 8624   5.268   5.510   0.607
 2575SOL    HW2 8625   5.298   5.521   0.447
 2576SOL     OW 8626   3.572   6.930   4.235
 2576SOL    HW1 8627   3.580   6.954   4.138
 2576SOL    HW2 8628   3.661   6.938   4.279
 2577SOL     OW 8629   3.430   0.071   1.566
 2577SOL    HW1 8630   3.452   0.146   1.504
 2577SOL    HW2 8631   3.411   0.107   1.657
 2578SOL     OW 8632   4.552   1.548   3.950
 2578SOL    HW1 8633   4.634   1.524   3.898
 2578SOL    HW2 8634   4.533   1.645   3.938
 2579SOL     OW 8635   1.265   6.152   2.376
 2579SOL    HW1 8636   1.329   6.075   2.368
 2579SOL    HW2 8637   1.242   6.165   2.472
 2580SOL     OW 8638   2.601   2.893   6.664
 2580SOL    HW1 8639   2.579   2.802   6.630
 2580SOL    HW2 8640   2.686   2.925   6.622
 2581SOL     OW 8641   0.881   4.560   0.937
 2581SOL    HW1 8642   0.926   4.647   0.957
 2581SOL    HW2 8643   0.937   4.485   0.973
 2582SOL     OW 8644   0.560   4.571   2.241
 2582SOL    HW1 8645   0.646   4.557   2.191
 2582SOL    HW2 8646   0.534   4.667   2.234
 2583SOL     OW 8647   0.930   1.065   0.575
 2583SOL    HW1 8648   0.940   1.044   0.477
 2583SOL    HW2 8649   1.017   1.051   0.621
 2584SOL     OW 8650   4.083   5.965   0.072
 2584SOL    HW1 8651   4.008   5.918   0.117
 2584SOL    HW2 8652   4.071   5.960   6.995
 2585SOL     OW 8653   5.021   2.376   0.699
 2585SOL    HW1 8654   5.035   2.421   0.788
 2585SOL    HW2 8655   4.924   2.352   0.690
 2586SOL     OW 8656   3.311   1.079   3.638
 2586SOL    HW1 8657   3.368   1.028   3.574
 2586SOL    HW2 8658   3.332   1.176   3.632
 2587SOL     OW 8659   0.279   0.731   3.611
 2587SOL    HW1 8660   0.350   0.736   3.682
 2587SOL    HW2 8661   0.215   0.806   3.624
 2588SOL     OW 8662   4.363   0.901   6.737
 2588SOL    HW1 8663   4.392   0.906   6.641
 2588SOL    HW2 8664   4.276   0.852   6.742
 2589SOL     OW 8665   0.475   5.755   6.495
 2589SOL    HW1 8666   0.517   5.768   6.405
 2589SOL    HW2 8667   0.547   5.746   6.564
 2590SOL     OW 8668   3.617   5.844   0.785
 2590SOL    HW1 8669   3.588   5.850   0.880
 2590SOL    HW2 8670   3.620   5.935   0.744
 2591SOL     OW 8671   6.954   5.190   2.644
 2591SOL    HW1 8672   6.976   5.138   2.561
 2591SOL    HW2 8673   6.930   5.284   2.620
 2592SOL     OW 8674   3.413   5.051   0.212
 2592SOL    HW1 8675   3.338   5.065   0.148
 2592SOL    HW2 8676   3.382   5.067   0.306
 2593SOL     OW 8677   3.498   5.254   0.529
 2593SOL    HW1 8678   3.578   5.277   0.585
 2593SOL    HW2 8679   3.496   5.312   0.447
 2594SOL     OW 8680   1.093   4.927   6.295
 2594SOL    HW1 8681   1.143   4.848   6.259
 2594SOL    HW2 8682   1.135   4.956   6.381
 2595SOL     OW 8683   6.300   1.163   4.114
 2595SOL    HW1 8684   6.262   1.211   4.193
 2595SOL    HW2 8685   6.291   1.064   4.127
 2596SOL     OW 8686   3.031   1.645   2.083
 2596SOL    HW1 8687   3.059   1.557   2.045
 2596SOL    HW2 8688   2.989   1.701   2.011
 2597SOL     OW 8689   1.342   5.048   5.482
 2597SOL    HW1 8690   1.320   5.036   5.385
 2597SOL    HW2 8691   1.294   4.979   5.536
 2598SOL     OW 8692   6.906   1.276   3.051
 2598SOL    HW1 8693   6.974   1.205   3.068
 2598SOL    HW2 8694   6.882   1.276   2.954
 2599SOL     OW 8695   2.077   6.420   1.055
 2599SOL    HW1 8696   2.177   6.427   1.061
 2599SOL    HW2 8697   2.041   6.505   1.017
 2600SOL     OW 8698   5.478   3.372   5.077
 2600SOL    HW1 8699   5.384   3.341   5.089
 2600SOL    HW2 8700   5.528   3.308   5.019
 2601SOL     OW 8701   2.408   1.300   1.724
 2601SOL    HW1 8702   2.377   1.395   1.734
 2601SOL    HW2 8703   2.415   1.278   1.627
 2602SOL     OW 8704   1.409   4.134   4.500
 2602SOL    HW1 8705   1.320   4.099   4.472
 2602SOL    HW2 8706   1.406   4.233   4.506
 2603SOL     OW 8707   2.416   0.898   3.862
 2603SOL    HW1 8708   2.433   0.799   3.861
 2603SOL    HW2 8709   2.446   0.937   3.775
 2604SOL     OW 8710   4.428   1.540   2.660
 2604SOL    HW1 8711   4.368   1.553   2.739
 2604SOL    HW2 8712   4.404   1.454   2.615
 2605SOL     OW 8713   2.014   3.013   3.275
 2605SOL    HW1 8714   1.919   2.991   3.254
 2605SOL    HW2 8715   2.073   2.986   3.199
 2606SOL     OW 8716   5.224   4.332   2.052
 2606SOL    HW1 8717   5.228   4.424   2.090
 2606SOL    HW2 8718   5.196   4.337   1.956
 2607SOL     OW 8719   1.455   1.767   1.167
 2607SOL    HW1 8720   1.476   1.848   1.221
 2607SOL    HW2 8721   1.414   1.697   1.225
 2608SOL     OW 8722   4.862   5.282   1.203
 2608SOL    HW1 8723   4.889   5.310   1.111
 2608SOL    HW2 8724   4.764   5.263   1.203
 2609SOL     OW 8725   6.089   1.191   1.276
 2609SOL    HW1 8726   6.186   1.207   1.258
 2609SOL    HW2 8727   6.035   1.231   1.203
 2610SOL     OW 8728   1.076   4.525   4.843
 2610SOL    HW1 8729   1.066   4.606   4.901
 2610SOL    HW2 8730   1.006   4.526   4.772
 2611SOL     OW 8731   4.194   6.947   0.850
 2611SOL    HW1 8732   4.109   6.964   0.901
 2611SOL    HW2 8733   4.235   6.862   0.882
 2612SOL     OW 8734   6.325   0.027   5.709
 2612SOL    HW1 8735   6.418   0.048   5.736
 2612SOL    HW2 8736   6.324   7.014   5.615
 2613SOL     OW 8737   2.959   5.717   6.064
 2613SOL    HW1 8738   2.867   5.722   6.104
 2613SOL    HW2 8739   3.026   5.697   6.135
 2614SOL     OW 8740   6.335   1.461   6.064
 2614SOL    HW1 8741   6.291   1.388   6.117
 2614SOL    HW2 8742   6.391   1.517   6.125
 2615SOL     OW 8743   0.137   3.263   2.277
 2615SOL    HW1 8744   0.116   3.180   2.328
 2615SOL    HW2 8745   0.116   3.343   2.333
 2616SOL     OW 8746   3.048   2.760   5.988
 2616SOL    HW1 8747   3.128   2.709   6.018
 2616SOL    HW2 8748   3.066   2.858   5.995
 2617SOL     OW 8749   3.912   6.719   0.316
 2617SOL    HW1 8750   3.989   6.725   0.379
 2617SOL    HW2 8751   3.946   6.694   0.225
 2618SOL     OW 8752   6.743   0.474   3.983
 2618SOL    HW1 8753   6.677   0.541   3.949
 2618SOL    HW2 8754   6.753   0.400   3.917
 2619SOL     OW 8755   3.682   1.996   2.985
 2619SOL    HW1 8756   3.728   2.032   2.904
 2619SOL    HW2 8757   3.608   2.058   3.011
 2620SOL     OW 8758   6.930   6.526   3.463
 2620SOL    HW1 8759   6.891   6.524   3.555
 2620SOL    HW2 8760   0.004   6.503   3.467
 2621SOL     OW 8761   0.631   5.062   2.419
 2621SOL    HW1 8762   0.629   5.162   2.420
 2621SOL    HW2 8763   0.675   5.030   2.335
 2622SOL     OW 8764   1.893   3.507   4.874
 2622SOL    HW1 8765   1.875   3.410   4.890
 2622SOL    HW2 8766   1.987   3.529   4.899
 2623SOL     OW 8767   0.932   1.074   5.918
 2623SOL    HW1 8768   0.880   1.157   5.899
 2623SOL    HW2 8769   0.997   1.092   5.993
 2624SOL     OW 8770   6.567   0.931   5.042
 2624SOL    HW1 8771   6.659   0.928   5.002
 2624SOL    HW2 8772   6.507   0.867   4.994
 2625SOL     OW 8773   2.339   3.628   5.809
 2625SOL    HW1 8774   2.352   3.642   5.711
 2625SOL    HW2 8775   2.425   3.644   5.857
 2626SOL     OW 8776   0.167   0.641   5.868
 2626SOL    HW1 8777   0.181   0.550   5.905
 2626SOL    HW2 8778   0.256   0.682   5.845
 2627SOL     OW 8779   0.892   1.031   6.292
 2627SOL    HW1 8780   0.978   1.044   6.243
 2627SOL    HW2 8781   0.825   1.099   6.261
 2628SOL     OW 8782   1.884   4.564   5.751
 2628SOL    HW1 8783   1.918   4.529   5.838
 2628SOL    HW2 8784   1.961   4.577   5.688
 2629SOL     OW 8785   3.539   3.204   2.592
 2629SOL    HW1 8786   3.474   3.160   2.655
 2629SOL    HW2 8787   3.511   3.298   2.575
 2630SOL     OW 8788   3.196   1.833   2.681
 2630SOL    HW1 8789   3.201   1.933   2.686
 2630SOL    HW2 8790   3.237   1.802   2.595
 2631SOL     OW 8791   5.164   0.797   6.042
 2631SOL    HW1 8792   5.095   0.769   5.975
 2631SOL    HW2 8793   5.126   0.792   6.134
 2632SOL     OW 8794   5.431   3.331   6.391
 2632SOL    HW1 8795   5.346   3.346   6.340
 2632SOL    HW2 8796   5.436   3.397   6.466
 2633SOL     OW 8797   0.754   1.922   4.272
 2633SOL    HW1 8798   0.787   2.006   4.230
 2633SOL    HW2 8799   0.677   1.887   4.220
 2634SOL     OW 8800   0.502   4.641   3.432
 2634SOL    HW1 8801   0.564   4.719   3.436
 2634SOL    HW2 8802   0.476   4.624   3.337
 2635SOL     OW 8803   6.753   5.960   5.482
 2635SOL    HW1 8804   6.735   6.058   5.473
 2635SOL    HW2 8805   6.848   5.942   5.456
 2636SOL     OW 8806   4.002   0.964   5.287
 2636SOL    HW1 8807   3.928   1.022   5.321
 2636SOL    HW2 8808   4.017   0.983   5.190
 2637SOL     OW 8809   5.851   1.766   3.413
 2637SOL    HW1 8810   5.847   1.705   3.492
 2637SOL    HW2 8811   5.778   1.744   3.350
 2638SOL     OW 8812   7.021   6.987   3.633
 2638SOL    HW1 8813   6.940   6.941   3.670
 2638SOL    HW2 8814   0.036   6.934   3.558
 2639SOL     OW 8815   0.692   5.988   0.323
 2639SOL    HW1 8816   0.734   5.897   0.328
 2639SOL    HW2 8817   0.762   6.055   0.299
 2640SOL     OW 8818   0.222   6.009   5.434
 2640SOL    HW1 8819   0.301   6.066   5.456
 2640SOL    HW2 8820   0.235   5.917   5.470
 2641SOL     OW 8821   6.002   3.022   2.116
 2641SOL    HW1 8822   6.027   3.045   2.210
 2641SOL    HW2 8823   5.945   3.095   2.078
 2642SOL     OW 8824   5.196   0.672   3.953
 2642SOL    HW1 8825   5.261   0.709   4.019
 2642SOL    HW2 8826   5.108   0.719   3.963
 2643SOL     OW 8827   0.646   3.773   3.346
 2643SOL    HW1 8828   0.642   3.767   3.446
 2643SOL    HW2 8829   0.566   3.727   3.307
 2644SOL     OW 8830   5.472   5.811   5.217
 2644SOL    HW1 8831   5.569   5.832   5.199
 2644SOL    HW2 8832   5.453   5.716   5.193
 2645SOL     OW 8833   3.996   5.760   3.867
 2645SOL    HW1 8834   4.012   5.731   3.773
 2645SOL    HW2 8835   3.925   5.703   3.908
 2646SOL     OW 8836   6.500   1.618   0.061
 2646SOL    HW1 8837   6.552   1.612   0.146
 2646SOL    HW2 8838   6.415   1.668   0.077
 2647SOL     OW 8839   6.691   0.201   1.936
 2647SOL    HW1 8840   6.667   0.104   1.937
 2647SOL    HW2 8841   6.744   0.221   1.853
 2648SOL     OW 8842   1.043   6.515   3.271
 2648SOL    HW1 8843   0.952   6.497   3.309
 2648SOL    HW2 8844   1.108   6.530   3.345
 2649SOL     OW 8845   6.809   3.578   0.221
 2649SOL    HW1 8846   6.734   3.644   0.225
 2649SOL    HW2 8847   6.797   3.520   0.140
 2650SOL     OW 8848   0.697   4.767   3.974
 2650SOL    HW1 8849   0.712   4.723   3.886
 2650SOL    HW2 8850   0.665   4.699   4.040
 2651SOL     OW 8851   2.355   1.524   1.081
 2651SOL    HW1 8852   2.352   1.603   1.142
 2651SOL    HW2 8853   2.440   1.527   1.027
 2652SOL     OW 8854   4.199   3.242   5.235
 2652SOL    HW1 8855   4.172   3.339   5.240
 2652SOL    HW2 8856   4.298   3.235   5.234
 2653SOL     OW 8857   4.732   6.673   5.906
 2653SOL    HW1 8858   4.642   6.670   5.951
 2653SOL    HW2 8859   4.720   6.704   5.812
 2654SOL     OW 8860   4.496   0.095   1.756
 2654SOL    HW1 8861   4.428   0.111   1.827
 2654SOL    HW2 8862   4.451   0.067   1.671
 2655SOL     OW 8863   5.549   6.871   4.405
 2655SOL    HW1 8864   5.506   6.959   4.386
 2655SOL    HW2 8865   5.530   6.844   4.500
 2656SOL     OW 8866   3.356   5.147   4.553
 2656SOL    HW1 8867   3.422   5.091   4.501
 2656SOL    HW2 8868   3.271   5.155   4.501
 2657SOL     OW 8869   0.827   4.177   7.013
 2657SOL    HW1 8870   0.798   4.095   0.040
 2657SOL    HW2 8871   0.905   4.154   6.955
 2658SOL     OW 8872   5.052   4.565   0.633
 2658SOL    HW1 8873   5.036   4.627   0.710
 2658SOL    HW2 8874   5.150   4.546   0.626
 2659SOL     OW 8875   5.098   2.963   4.962
 2659SOL    HW1 8876   5.139   3.053   4.950
 2659SOL    HW2 8877   4.999   2.970   4.964
 2660SOL     OW 8878   1.853   6.879   1.830
 2660SOL    HW1 8879   1.931   6.834   1.785
 2660SOL    HW2 8880   1.805   6.936   1.764
 2661SOL     OW 8881   2.334   0.028   1.480
 2661SOL    HW1 8882   2.261   0.035   1.548
 2661SOL    HW2 8883   2.363   6.955   1.472
 2662SOL     OW 8884   4.293   6.501   5.273
 2662SOL    HW1 8885   4.255   6.464   5.188
 2662SOL    HW2 8886   4.317   6.426   5.335
 2663SOL     OW 8887   3.531   4.258   6.572
 2663SOL    HW1 8888   3.441   4.239   6.531
 2663SOL    HW2 8889   3.558   4.352   6.550
 2664SOL     OW 8890   4.700   3.338   5.294
 2664SOL    HW1 8891   4.689   3.433   5.264
 2664SOL    HW2 8892   4.613   3.304   5.329
 2665SOL     OW 8893   2.760   2.888   5.427
 2665SOL    HW1 8894   2.685   2.872   5.363
 2665SOL    HW2 8895   2.847   2.890   5.377
 2666SOL     OW 8896   0.416   5.055   1.950
 2666SOL    HW1 8897   0.399   5.087   1.857
 2666SOL    HW2 8898   0.393   5.127   2.016
 2667SOL     OW 8899   0.833   5.703   4.447
 2667SOL    HW1 8900   0.904   5.773   4.454
 2667SOL    HW2 8901   0.761   5.724   4.513
 2668SOL     OW 8902   0.409   2.880   4.945
 2668SOL    HW1 8903   0.470   2.866   5.022
 2668SOL    HW2 8904   0.454   2.938   4.877
 2669SOL     OW 8905   2.910   4.811   6.039
 2669SOL    HW1 8906   3.000   4.768   6.032
 2669SOL    HW2 8907   2.845   4.764   5.980
 2670SOL     OW 8908   5.564   3.982   5.611
 2670SOL    HW1 8909   5.589   4.078   5.608
 2670SOL    HW2 8910   5.647   3.926   5.602
 2671SOL     OW 8911   4.262   5.536   6.847
 2671SOL    HW1 8912   4.171   5.503   6.819
 2671SOL    HW2 8913   4.263   5.636   6.847
 2672SOL     OW 8914   2.164   5.055   0.779
 2672SOL    HW1 8915   2.263   5.060   0.771
 2672SOL    HW2 8916   2.125   5.145   0.759
 2673SOL     OW 8917   6.642   1.570   1.800
 2673SOL    HW1 8918   6.683   1.483   1.770
 2673SOL    HW2 8919   6.556   1.585   1.750
 2674SOL     OW 8920   1.439   4.706   3.552
 2674SOL    HW1 8921   1.510   4.646   3.588
 2674SOL    HW2 8922   1.395   4.755   3.628
 2675SOL     OW 8923   5.982   5.613   3.964
 2675SOL    HW1 8924   5.982   5.529   4.019
 2675SOL    HW2 8925   6.001   5.692   4.023
 2676SOL     OW 8926   3.688   2.741   1.335
 2676SOL    HW1 8927   3.675   2.839   1.317
 2676SOL    HW2 8928   3.784   2.718   1.323
 2677SOL     OW 8929   2.741   4.178   6.886
 2677SOL    HW1 8930   2.776   4.142   6.972
 2677SOL    HW2 8931   2.773   4.272   6.874
 2678SOL     OW 8932   0.024   2.588   1.755
 2678SOL    HW1 8933   0.000   2.638   1.838
 2678SOL    HW2 8934   0.040   2.492   1.777
 2679SOL     OW 8935   1.828   4.726   1.729
 2679SOL    HW1 8936   1.917   4.708   1.772
 2679SOL    HW2 8937   1.758   4.733   1.801
 2680SOL     OW 8938   0.890   1.769   1.233
 2680SOL    HW1 8939   0.856   1.676   1.216
 2680SOL    HW2 8940   0.979   1.764   1.277
 2681SOL     OW 8941   1.343   2.150   5.402
 2681SOL    HW1 8942   1.331   2.237   5.450
 2681SOL    HW2 8943   1.258   2.097   5.406
 2682SOL     OW 8944   4.671   4.215   3.516
 2682SOL    HW1 8945   4.697   4.209   3.612
 2682SOL    HW2 8946   4.709   4.298   3.476
 2683SOL     OW 8947   2.848   5.602   1.747
 2683SOL    HW1 8948   2.818   5.507   1.739
 2683SOL    HW2 8949   2.919   5.620   1.680
 2684SOL     OW 8950   4.972   6.318   1.602
 2684SOL    HW1 8951   4.907   6.246   1.627
 2684SOL    HW2 8952   5.065   6.287   1.621
 2685SOL     OW 8953   6.133   6.113   6.265
 2685SOL    HW1 8954   6.100   6.147   6.354
 2685SOL    HW2 8955   6.195   6.036   6.280
 2686SOL     OW 8956   1.977   1.240   6.116
 2686SOL    HW1 8957   2.005   1.242   6.020
 2686SOL    HW2 8958   2.014   1.320   6.163
 2687SOL     OW 8959   5.249   5.419   1.243
 2687SOL    HW1 8960   5.254   5.331   1.290
 2687SOL    HW2 8961   5.308   5.417   1.163
 2688SOL     OW 8962   3.328   3.718   0.481
 2688SOL    HW1 8963   3.235   3.685   0.472
 2688SOL    HW2 8964   3.392   3.641   0.481
 2689SOL     OW 8965   1.223   3.990   2.668
 2689SOL    HW1 8966   1.186   3.907   2.709
 2689SOL    HW2 8967   1.149   4.044   2.629
 2690SOL     OW 8968   3.596   3.269   5.301
 2690SOL    HW1 8969   3.556   3.360   5.289
 2690SOL    HW2 8970   3.543   3.219   5.370
 2691SOL     OW 8971   0.854   5.023   3.578
 2691SOL    HW1 8972   0.917   5.008   3.654
 2691SOL    HW2 8973   0.760   5.008   3.608
 2692SOL     OW 8974   2.783   6.012   3.220
 2692SOL    HW1 8975   2.789   6.111   3.216
 2692SOL    HW2 8976   2.726   5.985   3.298
 2693SOL     OW 8977   2.235   4.798   3.360
 2693SOL    HW1 8978   2.334   4.787   3.355
 2693SOL    HW2 8979   2.208   4.805   3.456
 2694SOL     OW 8980   4.233   6.620   2.977
 2694SOL    HW1 8981   4.160   6.664   3.030
 2694SOL    HW2 8982   4.257   6.533   3.020
 2695SOL     OW 8983   5.899   1.445   2.336
 2695SOL    HW1 8984   5.954   1.491   2.406
 2695SOL    HW2 8985   5.922   1.348   2.335
 2696SOL     OW 8986   3.692   3.305   6.005
 2696SOL    HW1 8987   3.671   3.213   5.973
 2696SOL    HW2 8988   3.681   3.371   5.931
 2697SOL     OW 8989   3.133   0.888   3.366
 2697SOL    HW1 8990   3.156   0.971   3.316
 2697SOL    HW2 8991   3.206   0.821   3.355
 2698SOL     OW 8992   2.150   4.771   0.781
 2698SOL    HW1 8993   2.134   4.869   0.778
 2698SOL    HW2 8994   2.177   4.744   0.874
 2699SOL     OW 8995   2.505   5.612   0.956
 2699SOL    HW1 8996   2.508   5.686   0.890
 2699SOL    HW2 8997   2.416   5.610   1.000
 2700SOL     OW 8998   2.821   2.851   0.118
 2700SOL    HW1 8999   2.887   2.925   0.130
 2700SOL    HW2 9000   2.757   2.875   0.045
 2701SOL     OW 9001   5.430   1.704   6.023
 2701SOL    HW1 9002   5.443   1.664   5.932
 2701SOL    HW2 9003   5.515   1.750   6.051
 2702SOL     OW 9004   0.292   2.342   3.417
 2702SOL    HW1 9005   0.200   2.314   3.388
 2702SOL    HW2 9006   0.357   2.268   3.398
 2703SOL     OW 9007   0.867   0.146   0.946
 2703SOL    HW1 9008   0.782   0.186   0.912
 2703SOL    HW2 9009   0.943   0.171   0.886
 2704SOL     OW 9010   6.654   5.754   2.130
 2704SOL    HW1 9011   6.672   5.845   2.168
 2704SOL    HW2 9012   6.555   5.735   2.136
 2705SOL     OW 9013   6.701   6.645   4.791
 2705SOL    HW1 9014   6.623   6.613   4.737
 2705SOL    HW2 9015   6.764   6.695   4.731
 2706SOL     OW 9016   6.323   5.052   2.835
 2706SOL    HW1 9017   6.397   5.057   2.767
 2706SOL    HW2 9018   6.303   5.144   2.868
 2707SOL     OW 9019   4.030   0.911   4.636
 2707SOL    HW1 9020   3.945   0.925   4.584
 2707SOL    HW2 9021   4.050   0.992   4.690
 2708SOL     OW 9022   7.019   2.714   0.931
 2708SOL    HW1 9023   0.035   2.642   0.988
 2708SOL    HW2 9024   0.045   2.799   0.948
 2709SOL     OW 9025   4.746   0.291   0.220
 2709SOL    HW1 9026   4.781   0.385   0.228
 2709SOL    HW2 9027   4.822   0.228   0.204
 2710SOL     OW 9028   1.058   3.101   4.304
 2710SOL    HW1 9029   1.098   3.016   4.338
 2710SOL    HW2 9030   0.962   3.106   4.331
 2711SOL     OW 9031   2.705   0.761   3.719
 2711SOL    HW1 9032   2.623   0.716   3.753
 2711SOL    HW2 9033   2.783   0.734   3.776
 2712SOL     OW 9034   2.596   4.424   1.285
 2712SOL    HW1 9035   2.628   4.369   1.208
 2712SOL    HW2 9036   2.631   4.387   1.370
 2713SOL     OW 9037   2.515   3.064   5.508
 2713SOL    HW1 9038   2.498   2.982   5.453
 2713SOL    HW2 9039   2.585   3.120   5.464
 2714SOL     OW 9040   4.043   2.316   0.232
 2714SOL    HW1 9041   4.097   2.336   0.314
 2714SOL    HW2 9042   3.991   2.397   0.206
 2715SOL     OW 9043   5.238   2.413   1.084
 2715SOL    HW1 9044   5.164   2.465   1.041
 2715SOL    HW2 9045   5.271   2.343   1.021
 2716SOL     OW 9046   5.273   3.187   3.318
 2716SOL    HW1 9047   5.345   3.198   3.386
 2716SOL    HW2 9048   5.285   3.101   3.269
 2717SOL     OW 9049   0.169   0.253   2.805
 2717SOL    HW1 9050   0.172   0.228   2.902
 2717SOL    HW2 9051   0.249   0.310   2.783
 2718SOL     OW 9052   1.426   1.041   4.945
 2718SOL    HW1 9053   1.504   0.999   4.899
 2718SOL    HW2 9054   1.459   1.109   5.011
 2719SOL     OW 9055   0.623   5.007   1.379
 2719SOL    HW1 9056   0.580   5.057   1.304
 2719SOL    HW2 9057   0.706   4.962   1.347
 2720SOL     OW 9058   1.655   6.166   1.846
 2720SOL    HW1 9059   1.621   6.136   1.936
 2720SOL    HW2 9060   1.689   6.260   1.853
 2721SOL     OW 9061   3.454   6.363   3.158
 2721SOL    HW1 9062   3.420   6.377   3.251
 2721SOL    HW2 9063   3.506   6.442   3.129
 2722SOL     OW 9064   6.472   4.781   0.720
 2722SOL    HW1 9065   6.405   4.707   0.721
 2722SOL    HW2 9066   6.517   4.786   0.809
 2723SOL     OW 9067   0.879   6.065   6.223
 2723SOL    HW1 9068   0.838   6.011   6.298
 2723SOL    HW2 9069   0.977   6.073   6.238
 2724SOL     OW 9070   1.815   5.618   6.894
 2724SOL    HW1 9071   1.894   5.663   6.934
 2724SOL    HW2 9072   1.756   5.686   6.851
 2725SOL     OW 9073   4.937   4.741   5.087
 2725SOL    HW1 9074   5.009   4.772   5.026
 2725SOL    HW2 9075   4.857   4.799   5.076
 2726SOL     OW 9076   0.123   1.809   1.094
 2726SOL    HW1 9077   0.077   1.836   1.010
 2726SOL    HW2 9078   0.217   1.844   1.094
 2727SOL     OW 9079   0.988   4.611   3.762
 2727SOL    HW1 9080   0.987   4.641   3.667
 2727SOL    HW2 9081   1.025   4.518   3.768
 2728SOL     OW 9082   4.636   6.843   5.232
 2728SOL    HW1 9083   4.653   6.769   5.297
 2728SOL    HW2 9084   4.653   6.810   5.139
 2729SOL     OW 9085   7.002   6.023   0.486
 2729SOL    HW1 9086   6.993   6.065   0.396
 2729SOL    HW2 9087   6.938   6.065   0.550
 2730SOL     OW 9088   1.804   5.549   1.689
 2730SOL    HW1 9089   1.852   5.632   1.661
 2730SOL    HW2 9090   1.808   5.539   1.788
 2731SOL     OW 9091   3.169   3.533   3.394
 2731SOL    HW1 9092   3.230   3.612   3.395
 2731SOL    HW2 9093   3.074   3.564   3.391
 2732SOL     OW 9094   5.362   2.576   1.805
 2732SOL    HW1 9095   5.313   2.490   1.791
 2732SOL    HW2 9096   5.415   2.570   1.889
 2733SOL     OW 9097   6.659   2.115   4.609
 2733SOL    HW1 9098   6.612   2.035   4.647
 2733SOL    HW2 9099   6.621   2.198   4.649
 2734SOL     OW 9100   3.533   5.531   0.855
 2734SOL    HW1 9101   3.548   5.433   0.864
 2734SOL    HW2 9102   3.604   5.571   0.798
 2735SOL     OW 9103   1.871   3.211   1.561
 2735SOL    HW1 9104   1.836   3.262   1.482
 2735SOL    HW2 9105   1.951   3.157   1.534
 2736SOL     OW 9106   5.612   6.190   4.696
 2736SOL    HW1 9107   5.633   6.148   4.784
 2736SOL    HW2 9108   5.687   6.250   4.668
 2737SOL     OW 9109   2.685   4.334   5.314
 2737SOL    HW1 9110   2.596   4.375   5.296
 2737SOL    HW2 9111   2.757   4.390   5.273
 2738SOL     OW 9112   5.109   6.352   2.043
 2738SOL    HW1 9113   5.157   6.408   2.110
 2738SOL    HW2 9114   5.061   6.411   1.978
 2739SOL     OW 9115   1.166   4.609   1.091
 2739SOL    HW1 9116   1.193   4.688   1.037
 2739SOL    HW2 9117   1.212   4.527   1.057
 2740SOL     OW 9118   6.559   4.046   2.261
 2740SOL    HW1 9119   6.637   4.062   2.199
 2740SOL    HW2 9120   6.513   3.961   2.236
 2741SOL     OW 9121   6.449   0.450   4.521
 2741SOL    HW1 9122   6.515   0.377   4.541
 2741SOL    HW2 9123   6.363   0.431   4.569
 2742SOL     OW 9124   1.886   5.142   0.288
 2742SOL    HW1 9125   1.786   5.131   0.280
 2742SOL    HW2 9126   1.910   5.236   0.265
 2743SOL     OW 9127   6.279   4.628   2.387
 2743SOL    HW1 9128   6.312   4.708   2.438
 2743SOL    HW2 9129   6.358   4.575   2.356
 2744SOL     OW 9130   4.748   2.320   0.716
 2744SOL    HW1 9131   4.676   2.295   0.651
 2744SOL    HW2 9132   4.710   2.328   0.808
 2745SOL     OW 9133   6.859   0.734   5.093
 2745SOL    HW1 9134   6.930   0.664   5.081
 2745SOL    HW2 9135   6.771   0.689   5.109
 2746SOL     OW 9136   1.573   2.437   4.782
 2746SOL    HW1 9137   1.516   2.466   4.860
 2746SOL    HW2 9138   1.535   2.353   4.743
 2747SOL     OW 9139   4.526   4.910   6.481
 2747SOL    HW1 9140   4.445   4.909   6.422
 2747SOL    HW2 9141   4.521   4.834   6.546
 2748SOL     OW 9142   4.610   1.286   2.259
 2748SOL    HW1 9143   4.709   1.299   2.271
 2748SOL    HW2 9144   4.566   1.375   2.250
 2749SOL     OW 9145   0.291   4.333   0.940
 2749SOL    HW1 9146   0.286   4.233   0.933
 2749SOL    HW2 9147   0.229   4.363   1.013
 2750SOL     OW 9148   1.444   3.523   0.762
 2750SOL    HW1 9149   1.397   3.558   0.843
 2750SOL    HW2 9150   1.488   3.599   0.714
 2751SOL     OW 9151   1.223   3.380   1.702
 2751SOL    HW1 9152   1.245   3.287   1.670
 2751SOL    HW2 9153   1.139   3.411   1.659
 2752SOL     OW 9154   4.021   5.090   5.183
 2752SOL    HW1 9155   4.015   5.079   5.282
 2752SOL    HW2 9156   3.938   5.055   5.140
 2753SOL     OW 9157   0.208   6.589   5.134
 2753SOL    HW1 9158   0.239   6.646   5.210
 2753SOL    HW2 9159   0.158   6.645   5.068
 2754SOL     OW 9160   0.923   0.791   1.487
 2754SOL    HW1 9161   0.872   0.760   1.406
 2754SOL    HW2 9162   0.858   0.822   1.557
 2755SOL     OW 9163   2.230   0.154   2.734
 2755SOL    HW1 9164   2.199   0.059   2.744
 2755SOL    HW2 9165   2.253   0.171   2.638
 2756SOL     OW 9166   5.892   5.174   6.800
 2756SOL    HW1 9167   5.845   5.202   6.884
 2756SOL    HW2 9168   5.990   5.189   6.811
 2757SOL     OW 9169   2.504   7.022   6.903
 2757SOL    HW1 9170   2.581   0.049   6.944
 2757SOL    HW2 9171   2.464   0.055   6.829
 2758SOL     OW 9172   3.675   6.124   4.121
 2758SOL    HW1 9173   3.651   6.184   4.197
 2758SOL    HW2 9174   3.750   6.063   4.149
 2759SOL     OW 9175   5.180   0.015   5.905
 2759SOL    HW1 9176   5.180   0.104   5.950
 2759SOL    HW2 9177   5.183   0.028   5.806
 2760SOL     OW 9178   0.563   6.024   1.908
 2760SOL    HW1 9179   0.632   6.000   1.839
 2760SOL    HW2 9180   0.497   6.087   1.868
 2761SOL     OW 9181   2.222   5.652   4.582
 2761SOL    HW1 9182   2.296   5.708   4.619
 2761SOL    HW2 9183   2.138   5.669   4.635
 2762SOL     OW 9184   1.297   1.433   5.091
 2762SOL    HW1 9185   1.372   1.493   5.119
 2762SOL    HW2 9186   1.211   1.467   5.129
 2763SOL     OW 9187   5.171   1.449   3.158
 2763SOL    HW1 9188   5.079   1.445   3.197
 2763SOL    HW2 9189   5.238   1.449   3.232
 2764SOL     OW 9190   5.807   1.193   0.927
 2764SOL    HW1 9191   5.786   1.234   0.838
 2764SOL    HW2 9192   5.723   1.157   0.968
 2765SOL     OW 9193   5.686   0.065   1.505
 2765SOL    HW1 9194   5.725   0.154   1.486
 2765SOL    HW2 9195   5.713   0.000   1.433
 2766SOL     OW 9196   5.236   2.055   0.706
 2766SOL    HW1 9197   5.156   2.006   0.739
 2766SOL    HW2 9198   5.211   2.113   0.628
 2767SOL     OW 9199   6.755   5.421   0.255
 2767SOL    HW1 9200   6.726   5.448   0.163
 2767SOL    HW2 9201   6.678   5.428   0.318
 2768SOL     OW 9202   4.558   0.883   1.127
 2768SOL    HW1 9203   4.520   0.920   1.212
 2768SOL    HW2 9204   4.656   0.903   1.122
 2769SOL     OW 9205   1.958   4.126   4.809
 2769SOL    HW1 9206   2.018   4.070   4.751
 2769SOL    HW2 9207   1.967   4.222   4.783
 2770SOL     OW 9208   4.407   5.977   5.675
 2770SOL    HW1 9209   4.403   5.953   5.772
 2770SOL    HW2 9210   4.320   6.016   5.646
 2771SOL     OW 9211   6.852   0.837   3.676
 2771SOL    HW1 9212   6.856   0.902   3.752
 2771SOL    HW2 9213   6.769   0.781   3.685
 2772SOL     OW 9214   3.990   1.112   0.700
 2772SOL    HW1 9215   4.079   1.082   0.734
 2772SOL    HW2 9216   3.993   1.120   0.600
 2773SOL     OW 9217   6.067   2.178   4.944
 2773SOL    HW1 9218   6.096   2.193   4.850
 2773SOL    HW2 9219   5.970   2.152   4.945
 2774SOL     OW 9220   5.625   3.286   3.222
 2774SOL    HW1 9221   5.698   3.300   3.155
 2774SOL    HW2 9222   5.544   3.338   3.195
 2775SOL     OW 9223   6.820   5.721   6.241
 2775SOL    HW1 9224   6.910   5.715   6.284
 2775SOL    HW2 9225   6.775   5.806   6.268
 2776SOL     OW 9226   4.071   5.013   5.487
 2776SOL    HW1 9227   4.106   5.072   5.560
 2776SOL    HW2 9228   4.078   4.918   5.516
 2777SOL     OW 9229   2.898   0.863   2.250
 2777SOL    HW1 9230   2.934   0.901   2.336
 2777SOL    HW2 9231   2.925   0.922   2.174
 2778SOL     OW 9232   1.503   6.830   5.449
 2778SOL    HW1 9233   1.453   6.854   5.532
 2778SOL    HW2 9234   1.567   6.904   5.426
 2779SOL     OW 9235   5.051   6.312   1.341
 2779SOL    HW1 9236   5.023   6.342   1.432
 2779SOL    HW2 9237   5.151   6.309   1.336
 2780SOL     OW 9238   6.267   6.637   6.871
 2780SOL    HW1 9239   6.307   6.707   6.930
 2780SOL    HW2 9240   6.324   6.554   6.876
 2781SOL     OW 9241   5.506   6.490   2.214
 2781SOL    HW1 9242   5.407   6.500   2.226
 2781SOL    HW2 9243   5.551   6.576   2.237
 2782SOL     OW 9244   4.358   2.501   6.309
 2782SOL    HW1 9245   4.400   2.587   6.281
 2782SOL    HW2 9246   4.398   2.426   6.256
 2783SOL     OW 9247   5.380   4.058   3.576
 2783SOL    HW1 9248   5.437   4.038   3.496
 2783SOL    HW2 9249   5.299   3.999   3.575
 2784SOL     OW 9250   3.284   1.111   2.325
 2784SOL    HW1 9251   3.372   1.082   2.288
 2784SOL    HW2 9252   3.244   1.181   2.266
 2785SOL     OW 9253   4.908   1.317   0.745
 2785SOL    HW1 9254   4.940   1.355   0.832
 2785SOL    HW2 9255   4.865   1.228   0.761
 2786SOL     OW 9256   4.797   0.125   1.840
 2786SOL    HW1 9257   4.791   0.025   1.848
 2786SOL    HW2 9258   4.750   0.167   1.918
 2787SOL     OW 9259   4.892   1.459   6.446
 2787SOL    HW1 9260   4.969   1.397   6.431
 2787SOL    HW2 9261   4.925   1.553   6.454
 2788SOL     OW 9262   1.999   5.274   5.785
 2788SOL    HW1 9263   2.050   5.351   5.747
 2788SOL    HW2 9264   1.933   5.307   5.852
 2789SOL     OW 9265   1.751   1.968   4.124
 2789SOL    HW1 9266   1.804   1.961   4.039
 2789SOL    HW2 9267   1.686   2.044   4.117
 2790SOL     OW 9268   3.208   5.885   1.916
 2790SOL    HW1 9269   3.155   5.970   1.909
 2790SOL    HW2 9270   3.145   5.807   1.918
 2791SOL     OW 9271   0.767   2.992   3.491
 2791SOL    HW1 9272   0.670   3.007   3.506
 2791SOL    HW2 9273   0.819   3.036   3.564
 2792SOL     OW 9274   2.210   6.778   3.679
 2792SOL    HW1 9275   2.237   6.872   3.660
 2792SOL    HW2 9276   2.179   6.771   3.774
 2793SOL     OW 9277   5.582   4.051   2.888
 2793SOL    HW1 9278   5.595   3.968   2.833
 2793SOL    HW2 9279   5.664   4.108   2.881
 2794SOL     OW 9280   0.314   2.514   6.504
 2794SOL    HW1 9281   0.411   2.534   6.517
 2794SOL    HW2 9282   0.260   2.584   6.551
 2795SOL     OW 9283   1.067   3.134   0.378
 2795SOL    HW1 9284   1.134   3.088   0.320
 2795SOL    HW2 9285   1.021   3.206   0.326
 2796SOL     OW 9286   6.915   6.012   3.069
 2796SOL    HW1 9287   6.869   6.094   3.035
 2796SOL    HW2 9288   7.014   6.022   3.057
 2797SOL     OW 9289   4.983   5.313   4.311
 2797SOL    HW1 9290   4.992   5.298   4.212
 2797SOL    HW2 9291   5.006   5.229   4.360
 2798SOL     OW 9292   0.124   4.972   2.102
 2798SOL    HW1 9293   0.186   4.898   2.074
 2798SOL    HW2 9294   0.161   5.060   2.071
 2799SOL     OW 9295   6.050   5.543   6.817
 2799SOL    HW1 9296   6.118   5.472   6.830
 2799SOL    HW2 9297   6.015   5.573   6.906
 2800SOL     OW 9298   4.778   6.284   0.466
 2800SOL    HW1 9299   4.864   6.324   0.436
 2800SOL    HW2 9300   4.702   6.331   0.421
 2801SOL     OW 9301   6.345   5.945   6.281
 2801SOL    HW1 9302   6.359   5.963   6.183
 2801SOL    HW2 9303   6.434   5.944   6.327
 2802SOL     OW 9304   5.169   1.427   5.138
 2802SOL    HW1 9305   5.136   1.353   5.196
 2802SOL    HW2 9306   5.092   1.467   5.088
 2803SOL     OW 9307   4.015   5.733   6.617
 2803SOL    HW1 9308   4.006   5.634   6.625
 2803SOL    HW2 9309   4.047   5.757   6.525
 2804SOL     OW 9310   0.207   5.229   5.182
 2804SOL    HW1 9311   0.130   5.284   5.150
 2804SOL    HW2 9312   0.222   5.246   5.280
 2805SOL     OW 9313   5.648   3.395   1.759
 2805SOL    HW1 9314   5.552   3.414   1.780
 2805SOL    HW2 9315   5.675   3.447   1.678
 2806SOL     OW 9316   6.839   4.800   5.935
 2806SOL    HW1 9317   6.856   4.895   5.909
 2806SOL    HW2 9318   6.892   4.777   6.016
 2807SOL     OW 9319   5.001   6.391   4.495
 2807SOL    HW1 9320   5.008   6.340   4.581
 2807SOL    HW2 9321   4.924   6.355   4.442
 2808SOL     OW 9322   5.750   4.370   2.018
 2808SOL    HW1 9323   5.739   4.445   2.083
 2808SOL    HW2 9324   5.756   4.284   2.067
 2809SOL     OW 9325   5.884   3.129   1.003
 2809SOL    HW1 9326   5.870   3.143   0.905
 2809SOL    HW2 9327   5.805   3.082   1.041
 2810SOL     OW 9328   3.636   4.891   3.740
 2810SOL    HW1 9329   3.596   4.901   3.831
 2810SOL    HW2 9330   3.567   4.911   3.671
 2811SOL     OW 9331   1.262   1.906   3.332
 2811SOL    HW1 9332   1.175   1.953   3.346
 2811SOL    HW2 9333   1.247   1.807   3.330
 2812SOL     OW 9334   5.054   4.112   6.508
 2812SOL    HW1 9335   5.049   4.017   6.478
 2812SOL    HW2 9336   4.981   4.165   6.464
 2813SOL     OW 9337   0.101   6.802   6.477
 2813SOL    HW1 9338   0.188   6.807   6.526
 2813SOL    HW2 9339   0.115   6.761   6.387
 2814SOL     OW 9340   4.170   3.516   5.228
 2814SOL    HW1 9341   4.178   3.602   5.178
 2814SOL    HW2 9342   4.143   3.535   5.323
 2815SOL     OW 9343   6.093   0.299   5.504
 2815SOL    HW1 9344   6.118   0.395   5.516
 2815SOL    HW2 9345   6.003   0.283   5.544
 2816SOL     OW 9346   6.621   5.557   3.364
 2816SOL    HW1 9347   6.523   5.537   3.369
 2816SOL    HW2 9348   6.669   5.477   3.329
 2817SOL     OW 9349   2.767   7.007   1.304
 2817SOL    HW1 9350   2.730   0.021   1.389
 2817SOL    HW2 9351   2.795   6.912   1.316
 2818SOL     OW 9352   0.720   0.578   1.008
 2818SOL    HW1 9353   0.786   0.533   0.948
 2818SOL    HW2 9354   0.636   0.523   1.012
 2819SOL     OW 9355   0.965   1.093   1.294
 2819SOL    HW1 9356   1.052   1.048   1.276
 2819SOL    HW2 9357   0.964   1.128   1.388
 2820SOL     OW 9358   0.865   2.632   3.247
 2820SOL    HW1 9359   0.827   2.578   3.322
 2820SOL    HW2 9360   0.953   2.594   3.219
 2821SOL     OW 9361   4.045   3.325   6.939
 2821SOL    HW1 9362   4.011   3.301   0.008
 2821SOL    HW2 9363   4.098   3.410   6.945
 2822SOL     OW 9364   4.037   1.448   0.191
 2822SOL    HW1 9365   4.098   1.524   0.166
 2822SOL    HW2 9366   4.059   1.418   0.284
 2823SOL     OW 9367   4.491   0.702   0.344
 2823SOL    HW1 9368   4.417   0.722   0.280
 2823SOL    HW2 9369   4.579   0.723   0.300
 2824SOL     OW 9370   2.522   1.425   3.478
 2824SOL    HW1 9371   2.605   1.370   3.484
 2824SOL    HW2 9372   2.446   1.374   3.520
 2825SOL     OW 9373   6.025   0.597   6.513
 2825SOL    HW1 9374   5.991   0.605   6.419
 2825SOL    HW2 9375   6.123   0.577   6.511
 2826SOL     OW 9376   4.957   1.163   6.497
 2826SOL    HW1 9377   4.874   1.110   6.482
 2826SOL    HW2 9378   5.001   1.181   6.409
 2827SOL     OW 9379   6.881   0.976   5.521
 2827SOL    HW1 9380   6.810   0.998   5.589
 2827SOL    HW2 9381   6.963   0.944   5.569
 2828SOL     OW 9382   2.572   1.416   0.420
 2828SOL    HW1 9383   2.602   1.326   0.449
 2828SOL    HW2 9384   2.472   1.418   0.416
 2829SOL     OW 9385   3.366   3.621   4.994
 2829SOL    HW1 9386   3.303   3.556   5.036
 2829SOL    HW2 9387   3.321   3.665   4.916
 2830SOL     OW 9388   1.613   2.850   5.935
 2830SOL    HW1 9389   1.657   2.777   5.987
 2830SOL    HW2 9390   1.644   2.847   5.840
 2831SOL     OW 9391   0.479   4.855   3.620
 2831SOL    HW1 9392   0.507   4.761   3.638
 2831SOL    HW2 9393   0.542   4.918   3.666
 2832SOL     OW 9394   0.655   2.934   1.908
 2832SOL    HW1 9395   0.605   2.892   1.984
 2832SOL    HW2 9396   0.750   2.952   1.936
 2833SOL     OW 9397   3.233   2.159   2.502
 2833SOL    HW1 9398   3.318   2.211   2.508
 2833SOL    HW2 9399   3.230   2.110   2.415
 2834SOL     OW 9400   4.019   5.379   5.878
 2834SOL    HW1 9401   4.070   5.464   5.887
 2834SOL    HW2 9402   3.963   5.383   5.795
 2835SOL     OW 9403   0.321   0.142   2.218
 2835SOL    HW1 9404   0.253   0.079   2.256
 2835SOL    HW2 9405   0.381   0.174   2.291
 2836SOL     OW 9406   6.576   6.733   2.462
 2836SOL    HW1 9407   6.600   6.793   2.386
 2836SOL    HW2 9408   6.598   6.639   2.438
 2837SOL     OW 9409   5.536   4.774   2.312
 2837SOL    HW1 9410   5.543   4.872   2.328
 2837SOL    HW2 9411   5.479   4.758   2.232
 2838SOL     OW 9412   2.723   3.924   1.034
 2838SOL    HW1 9413   2.714   3.924   0.935
 2838SOL    HW2 9414   2.775   3.844   1.063
 2839SOL     OW 9415   6.921   1.940   2.355
 2839SOL    HW1 9416   6.853   1.908   2.289
 2839SOL    HW2 9417   6.967   2.021   2.320
 2840SOL     OW 9418   1.468   0.350   3.093
 2840SOL    HW1 9419   1.372   0.356   3.065
 2840SOL    HW2 9420   1.499   0.439   3.126
 2841SOL     OW 9421   0.751   0.808   6.274
 2841SOL    HW1 9422   0.796   0.893   6.248
 2841SOL    HW2 9423   0.652   0.822   6.277
 2842SOL     OW 9424   0.378   4.269   4.220
 2842SOL    HW1 9425   0.356   4.342   4.155
 2842SOL    HW2 9426   0.339   4.291   4.309
 2843SOL     OW 9427   2.402   2.253   2.769
 2843SOL    HW1 9428   2.382   2.187   2.842
 2843SOL    HW2 9429   2.319   2.271   2.716
 2844SOL     OW 9430   6.946   5.069   0.647
 2844SOL    HW1 9431   7.011   5.002   0.682
 2844SOL    HW2 9432   6.881   5.093   0.720
 2845SOL     OW 9433   6.122   2.995   1.025
 2845SOL    HW1 9434   6.102   2.912   0.972
 2845SOL    HW2 9435   6.037   3.037   1.055
 2846SOL     OW 9436   3.785   1.212   0.219
 2846SOL    HW1 9437   3.824   1.261   0.141
 2846SOL    HW2 9438   3.756   1.277   0.289
 2847SOL     OW 9439   5.047   3.372   3.531
 2847SOL    HW1 9440   5.030   3.446   3.467
 2847SOL    HW2 9441   5.142   3.342   3.524
 2848SOL     OW 9442   1.813   2.244   5.020
 2848SOL    HW1 9443   1.728   2.268   5.068
 2848SOL    HW2 9444   1.812   2.282   4.928
 2849SOL     OW 9445   4.352   6.493   0.923
 2849SOL    HW1 9446   4.349   6.456   0.830
 2849SOL    HW2 9447   4.409   6.434   0.981
 2850SOL     OW 9448   1.690   0.041   2.520
 2850SOL    HW1 9449   1.789   0.052   2.526
 2850SOL    HW2 9450   1.646   0.095   2.592
 2851SOL     OW 9451   6.257   1.263   6.238
 2851SOL    HW1 9452   6.343   1.219   6.264
 2851SOL    HW2 9453   6.210   1.295   6.320
 2852SOL     OW 9454   5.679   4.444   6.739
 2852SOL    HW1 9455   5.659   4.456   6.642
 2852SOL    HW2 9456   5.760   4.385   6.748
 2853SOL     OW 9457   1.633   1.837   6.672
 2853SOL    HW1 9458   1.695   1.773   6.627
 2853SOL    HW2 9459   1.668   1.858   6.763
 2854SOL     OW 9460   4.285   1.506   4.814
 2854SOL    HW1 9461   4.292   1.476   4.909
 2854SOL    HW2 9462   4.320   1.600   4.807
 2855SOL     OW 9463   2.400   1.166   0.087
 2855SOL    HW1 9464   2.484   1.218   0.069
 2855SOL    HW2 9465   2.341   1.170   0.006
 2856SOL     OW 9466   0.769   2.620   5.724
 2856SOL    HW1 9467   0.754   2.553   5.797
 2856SOL    HW2 9468   0.771   2.712   5.764
 2857SOL     OW 9469   2.314   2.359   2.416
 2857SOL    HW1 9470   2.369   2.276   2.421
 2857SOL    HW2 9471   2.366   2.436   2.454
 2858SOL     OW 9472   4.749   4.204   2.280
 2858SOL    HW1 9473   4.723   4.166   2.191
 2858SOL    HW2 9474   4.804   4.286   2.266
 2859SOL     OW 9475   5.791   1.122   6.601
 2859SOL    HW1 9476   5.747   1.158   6.519
 2859SOL    HW2 9477   5.888   1.107   6.584
 2860SOL     OW 9478   3.193   1.275   1.870
 2860SOL    HW1 9479   3.181   1.200   1.805
 2860SOL    HW2 9480   3.282   1.319   1.852
 2861SOL     OW 9481   3.620   3.813   5.581
 2861SOL    HW1 9482   3.694   3.771   5.635
 2861SOL    HW2 9483   3.651   3.826   5.487
 2862SOL     OW 9484   5.995   1.678   2.615
 2862SOL    HW1 9485   6.071   1.740   2.637
 2862SOL    HW2 9486   5.987   1.609   2.686
 2863SOL     OW 9487   4.939   1.214   6.756
 2863SOL    HW1 9488   4.941   1.204   6.656
 2863SOL    HW2 9489   4.848   1.188   6.790
 2864SOL     OW 9490   4.256   1.546   2.117
 2864SOL    HW1 9491   4.330   1.560   2.051
 2864SOL    HW2 9492   4.169   1.571   2.075
 2865SOL     OW 9493   4.082   4.314   6.561
 2865SOL    HW1 9494   4.134   4.251   6.618
 2865SOL    HW2 9495   4.009   4.356   6.615
 2866SOL     OW 9496   6.534   5.451   0.403
 2866SOL    HW1 9497   6.539   5.442   0.502
 2866SOL    HW2 9498   6.445   5.419   0.371
 2867SOL     OW 9499   6.892   5.516   2.925
 2867SOL    HW1 9500   6.938   5.554   2.845
 2867SOL    HW2 9501   6.854   5.591   2.980
 2868SOL     OW 9502   0.940   1.846   5.474
 2868SOL    HW1 9503   0.881   1.799   5.540
 2868SOL    HW2 9504   0.925   1.808   5.383
 2869SOL     OW 9505   6.708   1.256   3.767
 2869SOL    HW1 9506   6.694   1.313   3.686
 2869SOL    HW2 9507   6.619   1.226   3.802
 2870SOL     OW 9508   0.269   1.586   4.726
 2870SOL    HW1 9509   0.249   1.684   4.728
 2870SOL    HW2 9510   0.368   1.572   4.727
 2871SOL     OW 9511   0.286   2.106   6.993
 2871SOL    HW1 9512   0.287   2.205   7.003
 2871SOL    HW2 9513   0.196   2.077   6.960
 2872SOL     OW 9514   2.474   2.120   2.496
 2872SOL    HW1 9515   2.562   2.158   2.466
 2872SOL    HW2 9516   2.489   2.060   2.575
 2873SOL     OW 9517   0.252   5.177   2.732
 2873SOL    HW1 9518   0.299   5.264   2.748
 2873SOL    HW2 9519   0.153   5.190   2.743
 2874SOL     OW 9520   4.041   6.723   3.131
 2874SOL    HW1 9521   4.082   6.671   3.205
 2874SOL    HW2 9522   4.052   6.821   3.149
 2875SOL     OW 9523   4.324   6.913   0.609
 2875SOL    HW1 9524   4.377   6.998   0.604
 2875SOL    HW2 9525   4.257   6.919   0.682
 2876SOL     OW 9526   1.496   0.466   2.009
 2876SOL    HW1 9527   1.404   0.507   2.007
 2876SOL    HW2 9528   1.540   0.488   2.096
 2877SOL     OW 9529   3.257   2.525   5.389
 2877SOL    HW1 9530   3.217   2.463   5.322
 2877SOL    HW2 9531   3.309   2.473   5.456
 2878SOL     OW 9532   3.733   4.918   4.714
 2878SOL    HW1 9533   3.757   4.946   4.807
 2878SOL    HW2 9534   3.659   4.851   4.717
 2879SOL     OW 9535   5.662   5.212   0.258
 2879SOL    HW1 9536   5.602   5.213   0.338
 2879SOL    HW2 9537   5.638   5.136   0.198
 2880SOL     OW 9538   6.792   0.537   1.875
 2880SOL    HW1 9539   6.759   0.467   1.939
 2880SOL    HW2 9540   6.751   0.625   1.898
 2881SOL     OW 9541   5.209   5.925   0.195
 2881SOL    HW1 9542   5.182   5.873   0.276
 2881SOL    HW2 9543   5.144   5.906   0.121
 2882SOL     OW 9544   0.811   4.533   2.474
 2882SOL    HW1 9545   0.777   4.475   2.548
 2882SOL    HW2 9546   0.852   4.477   2.403
 2883SOL     OW 9547   5.445   0.238   3.158
 2883SOL    HW1 9548   5.376   0.182   3.112
 2883SOL    HW2 9549   5.452   0.327   3.112
 2884SOL     OW 9550   1.094   0.232   2.536
 2884SOL    HW1 9551   1.045   0.146   2.519
 2884SOL    HW2 9552   1.032   0.309   2.523
 2885SOL     OW 9553   0.844   3.307   3.368
 2885SOL    HW1 9554   0.750   3.288   3.339
 2885SOL    HW2 9555   0.893   3.356   3.296
 2886SOL     OW 9556   1.700   4.276   6.081
 2886SOL    HW1 9557   1.662   4.367   6.070
 2886SOL    HW2 9558   1.629   4.207   6.062
 2887SOL     OW 9559   0.197   0.627   5.161
 2887SOL    HW1 9560   0.258   0.695   5.202
 2887SOL    HW2 9561   0.161   0.661   5.074
 2888SOL     OW 9562   0.556   4.377   0.264
 2888SOL    HW1 9563   0.463   4.363   0.298
 2888SOL    HW2 9564   0.594   4.461   0.304
 2889SOL     OW 9565   1.827   6.215   2.406
 2889SOL    HW1 9566   1.853   6.125   2.441
 2889SOL    HW2 9567   1.893   6.245   2.337
 2890SOL     OW 9568   2.202   6.002   0.473
 2890SOL    HW1 9569   2.145   5.982   0.554
 2890SOL    HW2 9570   2.250   5.919   0.446
 2891SOL     OW 9571   0.690   4.042   3.846
 2891SOL    HW1 9572   0.697   3.944   3.865
 2891SOL    HW2 9573   0.633   4.056   3.764
 2892SOL     OW 9574   5.401   3.329   0.039
 2892SOL    HW1 9575   5.421   3.347   6.965
 2892SOL    HW2 9576   5.425   3.409   0.094
 2893SOL     OW 9577   6.933   6.432   4.760
 2893SOL    HW1 9578   0.009   6.449   4.769
 2893SOL    HW2 9579   6.886   6.518   4.745
 2894SOL     OW 9580   0.967   2.975   2.304
 2894SOL    HW1 9581   1.057   2.954   2.267
 2894SOL    HW2 9582   0.940   2.905   2.369
 2895SOL     OW 9583   4.869   2.511   6.021
 2895SOL    HW1 9584   4.836   2.594   6.066
 2895SOL    HW2 9585   4.962   2.526   5.987
 2896SOL     OW 9586   4.652   5.805   6.146
 2896SOL    HW1 9587   4.711   5.730   6.178
 2896SOL    HW2 9588   4.584   5.825   6.217
 2897SOL     OW 9589   3.859   5.090   2.957
 2897SOL    HW1 9590   3.913   5.173   2.972
 2897SOL    HW2 9591   3.786   5.110   2.891
 2898SOL     OW 9592   4.631   4.917   4.498
 2898SOL    HW1 9593   4.695   4.973   4.445
 2898SOL    HW2 9594   4.547   4.968   4.514
 2899SOL     OW 9595   1.206   1.679   0.613
 2899SOL    HW1 9596   1.284   1.647   0.559
 2899SOL    HW2 9597   1.227   1.767   0.654
 2900SOL     OW 9598   1.773   4.243   5.695
 2900SOL    HW1 9599   1.810   4.329   5.730
 2900SOL    HW2 9600   1.844   4.194   5.645
 2901SOL     OW 9601   2.621   5.498   3.624
 2901SOL    HW1 9602   2.529   5.503   3.665
 2901SOL    HW2 9603   2.668   5.416   3.656
 2902SOL     OW 9604   4.799   6.774   2.698
 2902SOL    HW1 9605   4.760   6.805   2.611
 2902SOL    HW2 9606   4.878   6.829   2.722
 2903SOL     OW 9607   3.223   0.783   0.676
 2903SOL    HW1 9608   3.241   0.811   0.770
 2903SOL    HW2 9609   3.310   0.765   0.629
 2904SOL     OW 9610   2.141   3.835   4.903
 2904SOL    HW1 9611   2.154   3.754   4.960
 2904SOL    HW2 9612   2.208   3.905   4.928
 2905SOL     OW 9613   1.590   2.655   4.621
 2905SOL    HW1 9614   1.571   2.587   4.692
 2905SOL    HW2 9615   1.608   2.608   4.535
 2906SOL     OW 9616   4.088   5.359   1.657
 2906SOL    HW1 9617   3.992   5.344   1.680
 2906SOL    HW2 9618   4.099   5.357   1.557
 2907SOL     OW 9619   0.676   1.222   3.732
 2907SOL    HW1 9620   0.673   1.276   3.648
 2907SOL    HW2 9621   0.633   1.274   3.807
 2908SOL     OW 9622   5.079   6.271   4.086
 2908SOL    HW1 9623   5.082   6.200   4.156
 2908SOL    HW2 9624   5.043   6.356   4.126
 2909SOL     OW 9625   1.567   5.787   3.676
 2909SOL    HW1 9626   1.661   5.786   3.709
 2909SOL    HW2 9627   1.504   5.792   3.754
 2910SOL     OW 9628   4.640   0.010   4.096
 2910SOL    HW1 9629   4.676   0.103   4.105
 2910SOL    HW2 9630   4.541   0.012   4.107
 2911SOL     OW 9631   0.738   5.491   3.362
 2911SOL    HW1 9632   0.665   5.548   3.399
 2911SOL    HW2 9633   0.699   5.415   3.310
 2912SOL     OW 9634   4.697   0.773   0.165
 2912SOL    HW1 9635   4.773   0.822   0.122
 2912SOL    HW2 9636   4.612   0.826   0.154
 2913SOL     OW 9637   2.748   4.698   2.870
 2913SOL    HW1 9638   2.830   4.697   2.928
 2913SOL    HW2 9639   2.769   4.745   2.784
 2914SOL     OW 9640   6.409   6.440   0.235
 2914SOL    HW1 9641   6.418   6.353   0.284
 2914SOL    HW2 9642   6.497   6.464   0.194
 2915SOL     OW 9643   5.664   1.869   3.753
 2915SOL    HW1 9644   5.583   1.874   3.695
 2915SOL    HW2 9645   5.637   1.880   3.849
 2916SOL     OW 9646   1.270   6.526   0.164
 2916SOL    HW1 9647   1.185   6.509   0.114
 2916SOL    HW2 9648   1.248   6.561   0.255
 2917SOL     OW 9649   2.740   6.876   3.191
 2917SOL    HW1 9650   2.811   6.846   3.127
 2917SOL    HW2 9651   2.734   6.811   3.267
 2918SOL     OW 9652   6.110   5.369   5.093
 2918SOL    HW1 9653   6.192   5.380   5.151
 2918SOL    HW2 9654   6.070   5.459   5.075
 2919SOL     OW 9655   6.652   1.199   2.069
 2919SOL    HW1 9656   6.731   1.261   2.080
 2919SOL    HW2 9657   6.668   1.140   1.990
 2920SOL     OW 9658   2.418   1.603   1.712
 2920SOL    HW1 9659   2.409   1.618   1.614
 2920SOL    HW2 9660   2.474   1.674   1.753
 2921SOL     OW 9661   0.964   0.089   3.853
 2921SOL    HW1 9662   0.950   0.022   3.926
 2921SOL    HW2 9663   1.039   0.150   3.878
 2922SOL     OW 9664   4.928   0.694   0.390
 2922SOL    HW1 9665   4.851   0.757   0.400
 2922SOL    HW2 9666   4.992   0.708   0.467
 2923SOL     OW 9667   6.309   5.243   2.168
 2923SOL    HW1 9668   6.245   5.222   2.094
 2923SOL    HW2 9669   6.367   5.164   2.185
 2924SOL     OW 9670   6.479   2.220   5.464
 2924SOL    HW1 9671   6.544   2.191   5.394
 2924SOL    HW2 9672   6.389   2.180   5.444
 2925SOL     OW 9673   4.734   0.744   2.041
 2925SOL    HW1 9674   4.755   0.647   2.050
 2925SOL    HW2 9675   4.644   0.762   2.081
 2926SOL     OW 9676   6.731   1.631   4.228
 2926SOL    HW1 9677   6.660   1.662   4.164
 2926SOL    HW2 9678   6.820   1.662   4.196
 2927SOL     OW 9679   1.059   2.944   1.656
 2927SOL    HW1 9680   0.968   2.984   1.662
 2927SOL    HW2 9681   1.123   3.013   1.623
 2928SOL     OW 9682   0.213   1.307   6.426
 2928SOL    HW1 9683   0.277   1.335   6.497
 2928SOL    HW2 9684   0.232   1.355   6.341
 2929SOL     OW 9685   7.008   2.201   6.784
 2929SOL    HW1 9686   0.018   2.129   6.723
 2929SOL    HW2 9687   0.057   2.270   6.795
 2930SOL     OW 9688   4.583   0.653   4.985
 2930SOL    HW1 9689   4.566   0.556   4.968
 2930SOL    HW2 9690   4.641   0.690   4.912
 2931SOL     OW 9691   5.393   4.757   0.676
 2931SOL    HW1 9692   5.484   4.798   0.669
 2931SOL    HW2 9693   5.325   4.822   0.643
 2932SOL     OW 9694   0.878   5.034   1.111
 2932SOL    HW1 9695   0.831   5.096   1.048
 2932SOL    HW2 9696   0.957   5.082   1.150
 2933SOL     OW 9697   6.719   5.003   3.215
 2933SOL    HW1 9698   6.694   5.035   3.306
 2933SOL    HW2 9699   6.709   5.077   3.149
 2934SOL     OW 9700   4.778   1.108   0.181
 2934SOL    HW1 9701   4.697   1.152   0.141
 2934SOL    HW2 9702   4.823   1.052   0.111
 2935SOL     OW 9703   6.082   3.017   0.093
 2935SOL    HW1 9704   6.086   3.030   7.016
 2935SOL    HW2 9705   5.997   2.969   0.117
 2936SOL     OW 9706   4.250   6.188   1.210
 2936SOL    HW1 9707   4.231   6.186   1.111
 2936SOL    HW2 9708   4.311   6.265   1.230
 2937SOL     OW 9709   4.551   4.841   0.599
 2937SOL    HW1 9710   4.456   4.845   0.569
 2937SOL    HW2 9711   4.600   4.922   0.568
 2938SOL     OW 9712   4.596   5.164   6.993
 2938SOL    HW1 9713   4.507   5.207   6.975
 2938SOL    HW2 9714   4.639   5.140   6.906
 2939SOL     OW 9715   1.173   1.031   3.178
 2939SOL    HW1 9716   1.237   1.033   3.101
 2939SOL    HW2 9717   1.159   1.124   3.212
 2940SOL     OW 9718   5.717   5.230   6.121
 2940SOL    HW1 9719   5.685   5.148   6.073
 2940SOL    HW2 9720   5.679   5.311   6.077
 2941SOL     OW 9721   1.898   2.685   4.641
 2941SOL    HW1 9722   1.845   2.625   4.701
 2941SOL    HW2 9723   1.928   2.635   4.561
 2942SOL     OW 9724   3.130   2.448   1.024
 2942SOL    HW1 9725   3.222   2.460   0.988
 2942SOL    HW2 9726   3.110   2.521   1.089
 2943SOL     OW 9727   4.706   4.735   3.432
 2943SOL    HW1 9728   4.623   4.775   3.472
 2943SOL    HW2 9729   4.716   4.768   3.338
 2944SOL     OW 9730   3.107   6.289   4.572
 2944SOL    HW1 9731   3.125   6.333   4.483
 2944SOL    HW2 9732   3.044   6.346   4.625
 2945SOL     OW 9733   3.639   4.157   3.939
 2945SOL    HW1 9734   3.556   4.152   3.995
 2945SOL    HW2 9735   3.719   4.150   3.998
 2946SOL     OW 9736   0.628   5.077   6.011
 2946SOL    HW1 9737   0.547   5.022   5.991
 2946SOL    HW2 9738   0.658   5.124   5.927
 2947SOL     OW 9739   0.285   3.578   0.507
 2947SOL    HW1 9740   0.280   3.603   0.603
 2947SOL    HW2 9741   0.252   3.484   0.495
 2948SOL     OW 9742   0.823   4.576   5.671
 2948SOL    HW1 9743   0.754   4.517   5.629
 2948SOL    HW2 9744   0.914   4.542   5.646
 2949SOL     OW 9745   2.859   5.352   0.990
 2949SOL    HW1 9746   2.886   5.448   0.976
 2949SOL    HW2 9747   2.770   5.336   0.948
 2950SOL     OW 9748   5.246   4.019   4.424
 2950SOL    HW1 9749   5.196   4.068   4.495
 2950SOL    HW2 9750   5.237   3.921   4.438
 2951SOL     OW 9751   5.777   1.568   0.874
 2951SOL    HW1 9752   5.750   1.496   0.810
 2951SOL    HW2 9753   5.848   1.625   0.832
 2952SOL     OW 9754   1.041   5.652   5.303
 2952SOL    HW1 9755   1.009   5.658   5.398
 2952SOL    HW2 9756   0.964   5.636   5.242
 2953SOL     OW 9757   5.205   2.757   2.590
 2953SOL    HW1 9758   5.185   2.828   2.658
 2953SOL    HW2 9759   5.122   2.705   2.571
 2954SOL     OW 9760   0.355   5.502   1.814
 2954SOL    HW1 9761   0.396   5.560   1.885
 2954SOL    HW2 9762   0.402   5.516   1.728
 2955SOL     OW 9763   0.899   3.857   2.027
 2955SOL    HW1 9764   0.897   3.785   1.958
 2955SOL    HW2 9765   0.902   3.946   1.982
 2956SOL     OW 9766   5.869   6.332   3.177
 2956SOL    HW1 9767   5.920   6.296   3.255
 2956SOL    HW2 9768   5.900   6.425   3.157
 2957SOL     OW 9769   6.074   2.965   1.587
 2957SOL    HW1 9770   6.078   2.867   1.606
 2957SOL    HW2 9771   6.152   3.010   1.630
 2958SOL     OW 9772   2.356   4.969   3.855
 2958SOL    HW1 9773   2.276   5.028   3.847
 2958SOL    HW2 9774   2.366   4.939   3.950
 2959SOL     OW 9775   4.561   4.098   0.462
 2959SOL    HW1 9776   4.554   4.155   0.543
 2959SOL    HW2 9777   4.476   4.106   0.408
 2960SOL     OW 9778   3.401   0.599   6.688
 2960SOL    HW1 9779   3.404   0.669   6.617
 2960SOL    HW2 9780   3.343   0.524   6.659
 2961SOL     OW 9781   4.921   3.144   2.970
 2961SOL    HW1 9782   4.996   3.201   3.003
 2961SOL    HW2 9783   4.939   3.114   2.876
 2962SOL     OW 9784   4.034   0.450   3.282
 2962SOL    HW1 9785   4.003   0.418   3.371
 2962SOL    HW2 9786   4.134   0.461   3.283
 2963SOL     OW 9787   1.908   0.104   6.534
 2963SOL    HW1 9788   1.896   0.141   6.442
 2963SOL    HW2 9789   1.819   0.087   6.575
 2964SOL     OW 9790   0.889   0.588   2.971
 2964SOL    HW1 9791   0.933   0.660   3.025
 2964SOL    HW2 9792   0.822   0.540   3.028
 2965SOL     OW 9793   6.663   2.211   4.331
 2965SOL    HW1 9794   6.655   2.164   4.419
 2965SOL    HW2 9795   6.633   2.149   4.258
 2966SOL     OW 9796   5.824   6.040   4.081
 2966SOL    HW1 9797   5.776   6.007   4.000
 2966SOL    HW2 9798   5.759   6.084   4.143
 2967SOL     OW 9799   5.915   0.779   4.835
 2967SOL    HW1 9800   5.976   0.817   4.905
 2967SOL    HW2 9801   5.921   0.679   4.837
 2968SOL     OW 9802   0.921   3.430   6.199
 2968SOL    HW1 9803   1.018   3.449   6.213
 2968SOL    HW2 9804   0.900   3.431   6.101
 2969SOL     OW 9805   5.358   1.430   3.904
 2969SOL    HW1 9806   5.351   1.430   4.004
 2969SOL    HW2 9807   5.453   1.444   3.877
 2970SOL     OW 9808   1.849   4.866   5.912
 2970SOL    HW1 9809   1.861   4.831   5.820
 2970SOL    HW2 9810   1.939   4.884   5.953
 2971SOL     OW 9811   4.890   4.171   0.095
 2971SOL    HW1 9812   4.914   4.135   0.005
 2971SOL    HW2 9813   4.866   4.096   0.156
 2972SOL     OW 9814   6.350   4.672   6.493
 2972SOL    HW1 9815   6.281   4.614   6.536
 2972SOL    HW2 9816   6.358   4.648   6.397
 2973SOL     OW 9817   5.247   0.074   3.002
 2973SOL    HW1 9818   5.280   7.008   2.971
 2973SOL    HW2 9819   5.149   0.083   2.982
 2974SOL     OW 9820   0.714   4.603   2.788
 2974SOL    HW1 9821   0.682   4.667   2.718
 2974SOL    HW2 9822   0.672   4.514   2.773
 2975SOL     OW 9823   5.965   3.265   4.539
 2975SOL    HW1 9824   6.050   3.312   4.515
 2975SOL    HW2 9825   5.977   3.167   4.526
 2976SOL     OW 9826   3.990   2.106   3.597
 2976SOL    HW1 9827   3.901   2.130   3.635
 2976SOL    HW2 9828   3.979   2.068   3.505
 2977SOL     OW 9829   2.518   6.873   3.487
 2977SOL    HW1 9830   2.494   6.954   3.434
 2977SOL    HW2 9831   2.436   6.833   3.526
 2978SOL     OW 9832   4.825   4.415   0.183
 2978SOL    HW1 9833   4.824   4.321   0.148
 2978SOL    HW2 9834   4.908   4.429   0.236
 2979SOL     OW 9835   4.438   0.950   4.144
 2979SOL    HW1 9836   4.443   1.050   4.153
 2979SOL    HW2 9837   4.345   0.920   4.164
 2980SOL     OW 9838   1.441   6.292   4.094
 2980SOL    HW1 9839   1.418   6.376   4.045
 2980SOL    HW2 9840   1.357   6.251   4.131
 2981SOL     OW 9841   2.028   0.949   5.783
 2981SOL    HW1 9842   2.062   0.909   5.698
 2981SOL    HW2 9843   2.067   0.900   5.861
 2982SOL     OW 9844   4.105   5.299   2.849
 2982SOL    HW1 9845   4.108   5.303   2.949
 2982SOL    HW2 9846   4.179   5.355   2.811
 2983SOL     OW 9847   0.749   1.511   3.287
 2983SOL    HW1 9848   0.838   1.535   3.248
 2983SOL    HW2 9849   0.685   1.489   3.213
 2984SOL     OW 9850   5.430   5.533   1.475
 2984SOL    HW1 9851   5.337   5.513   1.507
 2984SOL    HW2 9852   5.456   5.466   1.405
 2985SOL     OW 9853   1.158   2.502   5.841
 2985SOL    HW1 9854   1.156   2.593   5.801
 2985SOL    HW2 9855   1.232   2.497   5.908
 2986SOL     OW 9856   3.459   3.866   5.148
 2986SOL    HW1 9857   3.453   3.779   5.099
 2986SOL    HW2 9858   3.417   3.938   5.093
 2987SOL     OW 9859   6.106   1.324   4.237
 2987SOL    HW1 9860   6.111   1.276   4.325
 2987SOL    HW2 9861   6.031   1.287   4.183
 2988SOL     OW 9862   0.946   5.776   2.487
 2988SOL    HW1 9863   1.044   5.795   2.500
 2988SOL    HW2 9864   0.935   5.686   2.445
 2989SOL     OW 9865   6.323   6.175   6.570
 2989SOL    HW1 9866   6.417   6.182   6.538
 2989SOL    HW2 9867   6.273   6.257   6.543
 2990SOL     OW 9868   4.307   1.790   4.799
 2990SOL    HW1 9869   4.401   1.797   4.767
 2990SOL    HW2 9870   4.245   1.817   4.726
 2991SOL     OW 9871   6.500   4.613   5.731
 2991SOL    HW1 9872   6.473   4.672   5.807
 2991SOL    HW2 9873   6.427   4.547   5.713
 2992SOL     OW 9874   2.705   5.837   4.787
 2992SOL    HW1 9875   2.736   5.743   4.800
 2992SOL    HW2 9876   2.723   5.865   4.693
 2993SOL     OW 9877   0.447   5.548   1.037
 2993SOL    HW1 9878   0.418   5.610   0.964
 2993SOL    HW2 9879   0.459   5.599   1.122
 2994SOL     OW 9880   4.071   6.963   0.121
 2994SOL    HW1 9881   4.128   6.988   0.200
 2994SOL    HW2 9882   4.061   6.864   0.117
 2995SOL     OW 9883   2.942   2.378   6.459
 2995SOL    HW1 9884   2.849   2.396   6.426
 2995SOL    HW2 9885   2.943   2.376   6.559
 2996SOL     OW 9886   2.027   0.887   3.149
 2996SOL    HW1 9887   2.100   0.955   3.160
 2996SOL    HW2 9888   1.976   0.878   3.234
 2997SOL     OW 9889   5.644   0.729   2.840
 2997SOL    HW1 9890   5.569   0.789   2.810
 2997SOL    HW2 9891   5.659   0.741   2.938
 2998SOL     OW 9892   4.314   0.367   4.144
 2998SOL    HW1 9893   4.386   0.346   4.210
 2998SOL    HW2 9894   4.254   0.437   4.181
 2999SOL     OW 9895   2.967   4.987   4.731
 2999SOL    HW1 9896   3.056   5.034   4.734
 2999SOL    HW2 9897   2.897   5.051   4.700
 3000SOL     OW 9898   2.821   3.302   6.976
 3000SOL    HW1 9899   2.867   3.225   6.933
 3000SOL    HW2 9900   2.724   3.281   6.987
 3001SOL     OW 9901   5.433   6.943   6.479
 3001SOL    HW1 9902   5.394   7.005   6.411
 3001SOL    HW2 9903   5.463   6.995   6.558
 3002SOL     OW 9904   3.808   1.085   6.960
 3002SOL    HW1 9905   3.778   0.999   7.000
 3002SOL    HW2 9906   3.735   1.153   6.969
 3003SOL     OW 9907   1.709   6.292   0.187
 3003SOL    HW1 9908   1.674   6.384   0.174
 3003SOL    HW2 9909   1.747   6.283   0.279
 3004SOL     OW 9910   0.931   4.584   3.260
 3004SOL    HW1 9911   0.894   4.667   3.301
 3004SOL    HW2 9912   0.998   4.608   3.190
 3005SOL     OW 9913   3.379   2.065   0.381
 3005SOL    HW1 9914   3.398   2.160   0.408
 3005SOL    HW2 9915   3.457   2.030   0.329
 3006SOL     OW 9916   5.266   1.572   5.786
 3006SOL    HW1 9917   5.221   1.661   5.800
 3006SOL    HW2 9918   5.295   1.564   5.691
 3007SOL     OW 9919   5.888   5.367   1.197
 3007SOL    HW1 9920   5.854   5.275   1.219
 3007SOL    HW2 9921   5.988   5.369   1.209
 3008SOL     OW 9922   3.921   2.083   6.216
 3008SOL    HW1 9923   3.949   2.131   6.299
 3008SOL    HW2 9924   3.824   2.059   6.223
 3009SOL     OW 9925   0.322   1.388   2.462
 3009SOL    HW1 9926   0.224   1.396   2.482
 3009SOL    HW2 9927   0.364   1.322   2.523
 3010SOL     OW 9928   3.767   5.752   2.885
 3010SOL    HW1 9929   3.822   5.835   2.878
 3010SOL    HW2 9930   3.823   5.673   2.863
 3011SOL     OW 9931   5.488   1.497   1.178
 3011SOL    HW1 9932   5.512   1.415   1.126
 3011SOL    HW2 9933   5.549   1.505   1.257
 3012SOL     OW 9934   1.128   3.950   5.844
 3012SOL    HW1 9935   1.125   3.907   5.754
 3012SOL    HW2 9936   1.127   4.050   5.833
 3013SOL     OW 9937   5.702   6.098   5.371
 3013SOL    HW1 9938   5.681   6.169   5.304
 3013SOL    HW2 9939   5.712   6.139   5.462
 3014SOL     OW 9940   4.884   2.404   4.561
 3014SOL    HW1 9941   4.964   2.446   4.604
 3014SOL    HW2 9942   4.838   2.471   4.502
 3015SOL     OW 9943   3.486   1.809   0.532
 3015SOL    HW1 9944   3.431   1.735   0.494
 3015SOL    HW2 9945   3.504   1.876   0.460
 3016SOL     OW 9946   2.242   5.996   3.978
 3016SOL    HW1 9947   2.309   6.067   3.958
 3016SOL    HW2 9948   2.219   5.947   3.894
 3017SOL     OW 9949   6.336   4.877   2.484
 3017SOL    HW1 9950   6.392   4.954   2.515
 3017SOL    HW2 9951   6.340   4.871   2.384
 3018SOL     OW 9952   3.210   6.186   5.867
 3018SOL    HW1 9953   3.249   6.130   5.793
 3018SOL    HW2 9954   3.111   6.175   5.868
 3019SOL     OW 9955   0.393   6.872   6.501
 3019SOL    HW1 9956   0.442   6.789   6.474
 3019SOL    HW2 9957   0.458   6.948   6.508
 3020SOL     OW 9958   4.072   2.994   1.786
 3020SOL    HW1 9959   4.049   2.938   1.706
 3020SOL    HW2 9960   4.171   3.005   1.792
 3021SOL     OW 9961   2.972   6.768   6.907
 3021SOL    HW1 9962   2.983   6.859   6.947
 3021SOL    HW2 9963   2.966   6.700   6.980
 3022SOL     OW 9964   3.618   5.308   3.960
 3022SOL    HW1 9965   3.629   5.227   3.901
 3022SOL    HW2 9966   3.535   5.298   4.014
 3023SOL     OW 9967   4.334   0.380   2.765
 3023SOL    HW1 9968   4.433   0.378   2.754
 3023SOL    HW2 9969   4.307   0.318   2.838
 3024SOL     OW 9970   4.303   6.686   5.465
 3024SOL    HW1 9971   4.354   6.768   5.440
 3024SOL    HW2 9972   4.311   6.619   5.391
 3025SOL     OW 9973   3.161   1.230   0.510
 3025SOL    HW1 9974   3.095   1.284   0.457
 3025SOL    HW2 9975   3.129   1.135   0.516
 3026SOL     OW 9976   1.332   0.394   0.802
 3026SOL    HW1 9977   1.356   0.421   0.709
 3026SOL    HW2 9978   1.355   0.467   0.866
 3027SOL     OW 9979   3.720   0.350   2.957
 3027SOL    HW1 9980   3.745   0.443   2.983
 3027SOL    HW2 9981   3.647   0.353   2.889
 3028SOL     OW 9982   1.055   4.049   5.342
 3028SOL    HW1 9983   1.138   4.014   5.299
 3028SOL    HW2 9984   1.030   4.137   5.300
 3029SOL     OW 9985   0.245   2.640   4.541
 3029SOL    HW1 9986   0.318   2.624   4.607
 3029SOL    HW2 9987   0.161   2.666   4.590
 3030SOL     OW 9988   0.549   3.037   6.158
 3030SOL    HW1 9989   0.565   3.094   6.238
 3030SOL    HW2 9990   0.635   3.023   6.110
 3031SOL     OW 9991   0.651   3.551   0.203
 3031SOL    HW1 9992   0.561   3.590   0.179
 3031SOL    HW2 9993   0.723   3.613   0.171
 3032SOL     OW 9994   3.745   0.106   1.243
 3032SOL    HW1 9995   3.756   0.201   1.272
 3032SOL    HW2 9996   3.767   0.046   1.320
 3033SOL     OW 9997   6.503   1.967   1.895
 3033SOL    HW1 9998   6.515   1.872   1.925
 3033SOL    HW2 9999   6.582   1.994   1.839
 3034SOL     OW10000   1.315   5.715   2.887
 3034SOL    HW110001   1.289   5.809   2.912
 3034SOL    HW210002   1.258   5.651   2.938
 3035SOL     OW10003   0.548   3.130   6.843
 3035SOL    HW110004   0.589   3.198   6.904
 3035SOL    HW210005   0.562   3.038   6.880
 3036SOL     OW10006   1.713   1.593   6.535
 3036SOL    HW110007   1.650   1.523   6.501
 3036SOL    HW210008   1.785   1.549   6.588
 3037SOL     OW10009   6.726   5.456   5.739
 3037SOL    HW110010   6.807   5.433   5.686
 3037SOL    HW210011   6.667   5.518   5.687
 3038SOL     OW10012   5.874   6.247   6.380
 3038SOL    HW110013   5.880   6.346   6.393
 3038SOL    HW210014   5.800   6.226   6.315
 3039SOL     OW10015   7.019   3.798   0.882
 3039SOL    HW110016   6.927   3.757   0.884
 3039SOL    HW210017   7.019   3.880   0.938
 3040SOL     OW10018   3.621   3.591   6.154
 3040SOL    HW110019   3.674   3.507   6.143
 3040SOL    HW210020   3.621   3.642   6.067
 3041SOL     OW10021   2.404   2.498   4.165
 3041SOL    HW110022   2.380   2.588   4.127
 3041SOL    HW210023   2.322   2.454   4.201
 3042SOL     OW10024   4.177   6.020   2.141
 3042SOL    HW110025   4.225   5.941   2.103
 3042SOL    HW210026   4.146   6.080   2.067
 3043SOL     OW10027   2.300   5.300   1.532
 3043SOL    HW110028   2.235   5.247   1.586
 3043SOL    HW210029   2.271   5.302   1.436
 3044SOL     OW10030   3.405   3.863   5.766
 3044SOL    HW110031   3.493   3.852   5.719
 3044SOL    HW210032   3.405   3.808   5.849
 3045SOL     OW10033   4.687   0.615   2.872
 3045SOL    HW110034   4.737   0.675   2.935
 3045SOL    HW210035   4.623   0.558   2.923
 3046SOL     OW10036   2.040   0.827   6.660
 3046SOL    HW110037   1.952   0.799   6.622
 3046SOL    HW210038   2.109   0.758   6.637
 3047SOL     OW10039   5.650   0.785   2.024
 3047SOL    HW110040   5.576   0.718   2.014
 3047SOL    HW210041   5.735   0.746   1.988
 3048SOL     OW10042   3.790   2.206   1.663
 3048SOL    HW110043   3.734   2.226   1.744
 3048SOL    HW210044   3.731   2.202   1.583
 3049SOL     OW10045   0.878   6.730   2.177
 3049SOL    HW110046   0.970   6.758   2.148
 3049SOL    HW210047   0.881   6.635   2.210
 3050SOL     OW10048   3.128   0.960   2.097
 3050SOL    HW110049   3.211   0.907   2.079
 3050SOL    HW210050   3.064   0.949   2.021
 3051SOL     OW10051   2.226   4.047   0.158
 3051SOL    HW110052   2.207   3.970   0.097
 3051SOL    HW210053   2.204   4.133   0.112
 3052SOL     OW10054   5.750   6.929   1.715
 3052SOL    HW110055   5.720   6.983   1.636
 3052SOL    HW210056   5.669   6.896   1.764
 3053SOL     OW10057   6.963   1.619   6.735
 3053SOL    HW110058   0.010   1.690   6.751
 3053SOL    HW210059   6.873   1.655   6.756
 3054SOL     OW10060   6.627   2.191   0.555
 3054SOL    HW110061   6.565   2.115   0.573
 3054SOL    HW210062   6.714   2.175   0.602
 3055SOL     OW10063   5.046   0.058   4.117
 3055SOL    HW110064   5.117   0.062   4.046
 3055SOL    HW210065   4.988   0.139   4.111
 3056SOL     OW10066   5.864   0.517   4.842
 3056SOL    HW110067   5.886   0.468   4.927
 3056SOL    HW210068   5.775   0.561   4.852
 3057SOL     OW10069   4.115   6.004   2.964
 3057SOL    HW110070   4.017   6.018   2.949
 3057SOL    HW210071   4.164   6.090   2.948
 3058SOL     OW10072   0.205   5.422   0.971
 3058SOL    HW110073   0.270   5.485   1.012
 3058SOL    HW210074   0.116   5.467   0.962
 3059SOL     OW10075   2.584   2.360   4.412
 3059SOL    HW110076   2.673   2.316   4.402
 3059SOL    HW210077   2.538   2.364   4.323
 3060SOL     OW10078   0.650   5.448   0.158
 3060SOL    HW110079   0.611   5.356   0.149
 3060SOL    HW210080   0.730   5.457   0.100
 3061SOL     OW10081   6.908   6.995   5.428
 3061SOL    HW110082   6.935   6.902   5.405
 3061SOL    HW210083   6.825   6.993   5.484
 3062SOL     OW10084   1.587   0.135   0.068
 3062SOL    HW110085   1.567   0.048   0.023
 3062SOL    HW210086   1.569   0.211   0.005
 3063SOL     OW10087   2.692   5.086   1.643
 3063SOL    HW110088   2.620   5.023   1.672
 3063SOL    HW210089   2.774   5.033   1.621
 3064SOL     OW10090   5.883   4.193   3.232
 3064SOL    HW110091   5.808   4.256   3.213
 3064SOL    HW210092   5.963   4.217   3.177
 3065SOL     OW10093   2.633   0.649   0.695
 3065SOL    HW110094   2.538   0.645   0.665
 3065SOL    HW210095   2.643   0.720   0.765
 3066SOL     OW10096   5.157   5.202   0.713
 3066SOL    HW110097   5.212   5.119   0.720
 3066SOL    HW210098   5.214   5.278   0.682
 3067SOL     OW10099   3.909   2.188   5.278
 3067SOL    HW110100   3.934   2.103   5.324
 3067SOL    HW210101   3.817   2.215   5.306
 3068SOL     OW10102   6.450   6.885   1.552
 3068SOL    HW110103   6.368   6.868   1.498
 3068SOL    HW210104   6.524   6.916   1.492
 3069SOL     OW10105   6.604   6.226   1.727
 3069SOL    HW110106   6.537   6.217   1.654
 3069SOL    HW210107   6.685   6.172   1.705
 3070SOL     OW10108   2.136   1.815   0.906
 3070SOL    HW110109   2.101   1.729   0.944
 3070SOL    HW210110   2.075   1.890   0.933
 3071SOL     OW10111   5.973   6.570   3.115
 3071SOL    HW110112   6.052   6.510   3.130
 3071SOL    HW210113   5.996   6.638   3.046
 3072SOL     OW10114   1.723   6.684   0.250
 3072SOL    HW110115   1.662   6.626   0.197
 3072SOL    HW210116   1.679   6.772   0.267
 3073SOL     OW10117   6.345   3.280   4.252
 3073SOL    HW110118   6.444   3.275   4.267
 3073SOL    HW210119   6.300   3.308   4.336
 3074SOL     OW10120   6.175   3.542   1.171
 3074SOL    HW110121   6.123   3.457   1.175
 3074SOL    HW210122   6.111   3.619   1.163
 3075SOL     OW10123   2.535   6.020   2.037
 3075SOL    HW110124   2.592   6.099   2.061
 3075SOL    HW210125   2.531   6.011   1.937
 3076SOL     OW10126   6.678   6.957   4.612
 3076SOL    HW110127   6.641   6.866   4.591
 3076SOL    HW210128   6.644   6.986   4.702
 3077SOL     OW10129   4.776   5.739   2.021
 3077SOL    HW110130   4.746   5.712   2.112
 3077SOL    HW210131   4.703   5.723   1.956
 3078SOL     OW10132   0.579   2.783   2.128
 3078SOL    HW110133   0.518   2.722   2.078
 3078SOL    HW210134   0.541   2.802   2.218
 3079SOL     OW10135   2.608   2.390   3.781
 3079SOL    HW110136   2.520   2.354   3.749
 3079SOL    HW210137   2.627   2.353   3.872
 3080SOL     OW10138   4.843   3.827   3.324
 3080SOL    HW110139   4.769   3.893   3.319
 3080SOL    HW210140   4.902   3.836   3.245
 3081SOL     OW10141   0.323   2.291   5.938
 3081SOL    HW110142   0.296   2.305   6.033
 3081SOL    HW210143   0.414   2.331   5.924
 3082SOL     OW10144   2.801   6.282   3.869
 3082SOL    HW110145   2.794   6.183   3.870
 3082SOL    HW210146   2.711   6.322   3.886
 3083SOL     OW10147   3.821   6.109   3.455
 3083SOL    HW110148   3.784   6.166   3.529
 3083SOL    HW210149   3.758   6.033   3.437
 3084SOL     OW10150   6.181   4.168   4.730
 3084SOL    HW110151   6.262   4.171   4.789
 3084SOL    HW210152   6.207   4.185   4.635
 3085SOL     OW10153   6.504   4.354   1.199
 3085SOL    HW110154   6.589   4.334   1.151
 3085SOL    HW210155   6.426   4.337   1.139
 3086SOL     OW10156   4.422   1.523   1.687
 3086SOL    HW110157   4.418   1.425   1.666
 3086SOL    HW210158   4.418   1.536   1.786
 3087SOL     OW10159   0.260   5.368   3.787
 3087SOL    HW110160   0.210   5.454   3.800
 3087SOL    HW210161   0.311   5.373   3.701
 3088SOL     OW10162   1.517   4.506   4.978
 3088SOL    HW110163   1.516   4.465   5.069
 3088SOL    HW210164   1.574   4.450   4.917
 3089SOL     OW10165   1.481   3.499   6.715
 3089SOL    HW110166   1.490   3.536   6.623
 3089SOL    HW210167   1.527   3.410   6.721
 3090SOL     OW10168   2.125   2.208   1.812
 3090SOL    HW110169   2.120   2.298   1.857
 3090SOL    HW210170   2.218   2.173   1.818
 3091SOL     OW10171   1.967   1.169   0.899
 3091SOL    HW110172   1.992   1.217   0.983
 3091SOL    HW210173   1.980   1.231   0.821
 3092SOL     OW10174   4.858   0.528   0.197
 3092SOL    HW110175   4.768   0.559   0.166
 3092SOL    HW210176   4.891   0.590   0.268
 3093SOL     OW10177   5.566   6.750   5.605
 3093SOL    HW110178   5.628   6.764   5.682
 3093SOL    HW210179   5.571   6.828   5.543
 3094SOL     OW10180   2.218   6.754   3.955
 3094SOL    HW110181   2.170   6.797   4.031
 3094SOL    HW210182   2.197   6.657   3.952
 3095SOL     OW10183   1.879   5.201   5.367
 3095SOL    HW110184   1.932   5.120   5.392
 3095SOL    HW210185   1.787   5.193   5.406
 3096SOL     OW10186   1.525   6.094   5.025
 3096SOL    HW110187   1.495   6.049   4.941
 3096SOL    HW210188   1.624   6.110   5.020
 3097SOL     OW10189   6.177   2.389   0.085
 3097SOL    HW110190   6.173   2.372   7.009
 3097SOL    HW210191   6.085   2.385   0.124
 3098SOL     OW10192   3.154   3.385   0.967
 3098SOL    HW110193   3.115   3.305   1.014
 3098SOL    HW210194   3.237   3.414   1.015
 3099SOL     OW10195   0.605   6.507   2.882
 3099SOL    HW110196   0.645   6.459   2.804
 3099SOL    HW210197   0.676   6.530   2.948
 3100SOL     OW10198   6.575   6.379   4.414
 3100SOL    HW110199   6.600   6.378   4.511
 3100SOL    HW210200   6.476   6.370   4.406
 3101SOL     OW10201   5.520   6.696   6.362
 3101SOL    HW110202   5.493   6.775   6.416
 3101SOL    HW210203   5.604   6.717   6.311
 3102SOL     OW10204   6.920   5.207   1.861
 3102SOL    HW110205   6.896   5.197   1.958
 3102SOL    HW210206   7.019   5.199   1.850
 3103SOL     OW10207   4.096   0.320   2.338
 3103SOL    HW110208   4.020   0.298   2.399
 3103SOL    HW210209   4.073   0.401   2.284
 3104SOL     OW10210   5.051   0.111   4.857
 3104SOL    HW110211   5.124   0.116   4.789
 3104SOL    HW210212   5.054   0.192   4.916
 3105SOL     OW10213   6.194   4.930   1.993
 3105SOL    HW110214   6.147   5.018   1.984
 3105SOL    HW210215   6.134   4.857   1.959
 3106SOL     OW10216   6.611   1.649   3.239
 3106SOL    HW110217   6.670   1.712   3.289
 3106SOL    HW210218   6.515   1.668   3.260
 3107SOL     OW10219   4.395   1.221   5.056
 3107SOL    HW110220   4.298   1.239   5.040
 3107SOL    HW210221   4.428   1.153   4.990
 3108SOL     OW10222   1.263   6.504   4.218
 3108SOL    HW110223   1.313   6.537   4.138
 3108SOL    HW210224   1.328   6.482   4.291
 3109SOL     OW10225   6.020   6.101   2.973
 3109SOL    HW110226   5.938   6.043   2.979
 3109SOL    HW210227   6.000   6.180   2.914
 3110SOL     OW10228   1.740   2.030   3.039
 3110SOL    HW110229   1.742   1.931   3.047
 3110SOL    HW210230   1.833   2.065   3.028
 3111SOL     OW10231   6.456   5.572   3.722
 3111SOL    HW110232   6.376   5.559   3.780
 3111SOL    HW210233   6.495   5.483   3.698
 3112SOL     OW10234   5.229   2.330   6.645
 3112SOL    HW110235   5.306   2.386   6.616
 3112SOL    HW210236   5.176   2.379   6.714
 3113SOL     OW10237   2.452   5.761   3.598
 3113SOL    HW110238   2.445   5.748   3.697
 3113SOL    HW210239   2.377   5.713   3.552
 3114SOL     OW10240   4.152   1.472   1.229
 3114SOL    HW110241   4.172   1.567   1.206
 3114SOL    HW210242   4.058   1.450   1.202
 3115SOL     OW10243   4.001   3.452   6.541
 3115SOL    HW110244   3.984   3.502   6.626
 3115SOL    HW210245   3.920   3.398   6.518
 3116SOL     OW10246   0.783   3.016   6.568
 3116SOL    HW110247   0.734   3.102   6.552
 3116SOL    HW210248   0.810   3.009   6.664
 3117SOL     OW10249   4.483   3.588   5.378
 3117SOL    HW110250   4.409   3.523   5.359
 3117SOL    HW210251   4.545   3.593   5.300
 3118SOL     OW10252   0.651   5.212   1.623
 3118SOL    HW110253   0.734   5.203   1.677
 3118SOL    HW210254   0.665   5.173   1.532
 3119SOL     OW10255   1.810   3.400   5.574
 3119SOL    HW110256   1.851   3.423   5.486
 3119SOL    HW210257   1.791   3.484   5.625
 3120SOL     OW10258   3.413   6.668   4.994
 3120SOL    HW110259   3.395   6.762   5.021
 3120SOL    HW210260   3.330   6.614   5.003
 3121SOL     OW10261   0.221   1.017   3.795
 3121SOL    HW110262   0.173   1.004   3.882
 3121SOL    HW210263   0.154   1.022   3.721
 3122SOL     OW10264   3.585   6.931   5.898
 3122SOL    HW110265   3.575   6.914   5.800
 3122SOL    HW210266   3.571   6.845   5.948
 3123SOL     OW10267   3.508   1.528   4.069
 3123SOL    HW110268   3.571   1.450   4.069
 3123SOL    HW210269   3.420   1.500   4.031
 3124SOL     OW10270   3.753   0.246   4.626
 3124SOL    HW110271   3.770   0.322   4.689
 3124SOL    HW210272   3.690   0.182   4.668
 3125SOL     OW10273   6.725   2.378   4.796
 3125SOL    HW110274   6.640   2.359   4.747
 3125SOL    HW210275   6.790   2.421   4.734
 3126SOL     OW10276   5.268   5.051   5.810
 3126SOL    HW110277   5.267   4.960   5.850
 3126SOL    HW210278   5.215   5.051   5.725
 3127SOL     OW10279   1.283   3.343   4.323
 3127SOL    HW110280   1.364   3.338   4.381
 3127SOL    HW210281   1.241   3.253   4.315
 3128SOL     OW10282   2.745   0.886   6.704
 3128SOL    HW110283   2.815   0.893   6.632
 3128SOL    HW210284   2.662   0.846   6.666
 3129SOL     OW10285   6.932   3.730   6.256
 3129SOL    HW110286   6.993   3.709   6.180
 3129SOL    HW210287   6.984   3.738   6.341
 3130SOL     OW10288   2.147   4.022   1.504
 3130SOL    HW110289   2.067   3.997   1.559
 3130SOL    HW210290   2.145   4.120   1.486
 3131SOL     OW10291   0.109   2.067   1.239
 3131SOL    HW110292   0.071   2.155   1.212
 3131SOL    HW210293   0.106   2.004   1.161
 3132SOL     OW10294   4.403   5.672   6.028
 3132SOL    HW110295   4.374   5.650   6.121
 3132SOL    HW210296   4.501   5.693   6.029
 3133SOL     OW10297   3.581   1.622   4.425
 3133SOL    HW110298   3.505   1.556   4.421
 3133SOL    HW210299   3.649   1.599   4.355
 3134SOL     OW10300   5.046   4.114   1.298
 3134SOL    HW110301   5.023   4.205   1.333
 3134SOL    HW210302   4.965   4.072   1.259
 3135SOL     OW10303   4.742   0.634   5.717
 3135SOL    HW110304   4.772   0.541   5.736
 3135SOL    HW210305   4.657   0.652   5.765
 3136SOL     OW10306   5.554   0.726   0.443
 3136SOL    HW110307   5.637   0.671   0.434
 3136SOL    HW210308   5.474   0.667   0.432
 3137SOL     OW10309   6.590   0.909   3.320
 3137SOL    HW110310   6.682   0.946   3.305
 3137SOL    HW210311   6.545   0.895   3.232
 3138SOL     OW10312   6.567   3.990   3.946
 3138SOL    HW110313   6.603   3.952   3.861
 3138SOL    HW210314   6.467   3.993   3.942
 3139SOL     OW10315   5.425   6.455   0.600
 3139SOL    HW110316   5.450   6.406   0.517
 3139SOL    HW210317   5.395   6.548   0.577
 3140SOL     OW10318   5.869   0.310   6.812
 3140SOL    HW110319   5.944   0.361   6.769
 3140SOL    HW210320   5.906   0.244   6.876
 3141SOL     OW10321   0.079   6.095   6.525
 3141SOL    HW110322   0.145   6.084   6.450
 3141SOL    HW210323   0.091   6.021   6.590
 3142SOL     OW10324   3.406   6.402   1.649
 3142SOL    HW110325   3.316   6.434   1.620
 3142SOL    HW210326   3.406   6.302   1.653
 3143SOL     OW10327   6.709   1.711   6.589
 3143SOL    HW110328   6.685   1.633   6.532
 3143SOL    HW210329   6.656   1.708   6.674
 3144SOL     OW10330   4.425   3.891   1.620
 3144SOL    HW110331   4.332   3.929   1.628
 3144SOL    HW210332   4.491   3.958   1.655
 3145SOL     OW10333   2.293   5.832   1.166
 3145SOL    HW110334   2.350   5.894   1.112
 3145SOL    HW210335   2.225   5.885   1.217
 3146SOL     OW10336   1.281   7.022   3.126
 3146SOL    HW110337   1.245   0.021   3.036
 3146SOL    HW210338   1.248   6.932   3.155
 3147SOL     OW10339   3.430   5.092   0.786
 3147SOL    HW110340   3.346   5.046   0.815
 3147SOL    HW210341   3.505   5.026   0.784
 3148SOL     OW10342   5.159   6.029   4.978
 3148SOL    HW110343   5.182   6.052   5.073
 3148SOL    HW210344   5.240   5.995   4.931
 3149SOL     OW10345   2.496   1.132   6.108
 3149SOL    HW110346   2.514   1.216   6.159
 3149SOL    HW210347   2.415   1.087   6.146
 3150SOL     OW10348   5.889   6.252   3.814
 3150SOL    HW110349   5.956   6.194   3.861
 3150SOL    HW210350   5.842   6.198   3.744
 3151SOL     OW10351   5.002   1.120   5.979
 3151SOL    HW110352   5.030   1.202   5.930
 3151SOL    HW210353   4.920   1.081   5.936
 3152SOL     OW10354   1.516   5.802   0.104
 3152SOL    HW110355   1.488   5.785   0.198
 3152SOL    HW210356   1.504   5.718   0.050
 3153SOL     OW10357   6.392   4.950   2.221
 3153SOL    HW110358   6.315   4.935   2.159
 3153SOL    HW210359   6.475   4.910   2.181
 3154SOL     OW10360   6.191   1.160   6.646
 3154SOL    HW110361   6.261   1.143   6.715
 3154SOL    HW210362   6.198   1.092   6.573
 3155SOL     OW10363   6.003   4.446   1.516
 3155SOL    HW110364   5.967   4.373   1.574
 3155SOL    HW210365   6.093   4.473   1.549
 3156SOL     OW10366   3.077   3.077   3.557
 3156SOL    HW110367   3.150   3.010   3.571
 3156SOL    HW210368   3.016   3.078   3.635
 3157SOL     OW10369   2.510   2.554   4.957
 3157SOL    HW110370   2.453   2.634   4.976
 3157SOL    HW210371   2.547   2.561   4.864
 3158SOL     OW10372   4.337   0.253   3.007
 3158SOL    HW110373   4.304   0.255   3.102
 3158SOL    HW210374   4.373   0.162   2.987
 3159SOL     OW10375   5.479   1.606   0.048
 3159SOL    HW110376   5.395   1.552   0.059
 3159SOL    HW210377   5.455   1.701   0.027
 3160SOL     OW10378   0.620   6.380   5.619
 3160SOL    HW110379   0.709   6.412   5.652
 3160SOL    HW210380   0.617   6.388   5.519
 3161SOL     OW10381   1.832   1.778   3.097
 3161SOL    HW110382   1.737   1.750   3.109
 3161SOL    HW210383   1.892   1.699   3.108
 3162SOL     OW10384   1.360   6.573   2.046
 3162SOL    HW110385   1.444   6.625   2.059
 3162SOL    HW210386   1.349   6.551   1.949
 3163SOL     OW10387   4.449   2.307   6.156
 3163SOL    HW110388   4.414   2.220   6.192
 3163SOL    HW210389   4.539   2.292   6.114
 3164SOL     OW10390   4.674   4.204   1.277
 3164SOL    HW110391   4.695   4.113   1.312
 3164SOL    HW210392   4.574   4.218   1.278
 3165SOL     OW10393   0.800   5.902   0.661
 3165SOL    HW110394   0.732   5.831   0.640
 3165SOL    HW210395   0.762   5.992   0.639
 3166SOL     OW10396   4.790   2.108   5.251
 3166SOL    HW110397   4.857   2.164   5.202
 3166SOL    HW210398   4.753   2.160   5.328
 3167SOL     OW10399   6.702   3.549   1.412
 3167SOL    HW110400   6.723   3.479   1.481
 3167SOL    HW210401   6.609   3.534   1.377
 3168SOL     OW10402   4.554   2.315   0.152
 3168SOL    HW110403   4.488   2.240   0.150
 3168SOL    HW210404   4.618   2.302   0.228
 3169SOL     OW10405   1.431   3.679   5.120
 3169SOL    HW110406   1.508   3.652   5.062
 3169SOL    HW210407   1.452   3.657   5.215
 3170SOL     OW10408   4.048   0.670   1.089
 3170SOL    HW110409   4.014   0.673   0.996
 3170SOL    HW210410   4.037   0.577   1.126
 3171SOL     OW10411   0.156   6.652   1.576
 3171SOL    HW110412   0.058   6.667   1.570
 3171SOL    HW210413   0.204   6.739   1.570
 3172SOL     OW10414   0.484   5.241   6.839
 3172SOL    HW110415   0.493   5.168   6.771
 3172SOL    HW210416   0.402   5.294   6.819
 3173SOL     OW10417   2.971   2.095   0.554
 3173SOL    HW110418   3.028   2.017   0.527
 3173SOL    HW210419   2.911   2.119   0.478
 3174SOL     OW10420   2.896   2.760   6.557
 3174SOL    HW110421   2.989   2.789   6.582
 3174SOL    HW210422   2.859   2.703   6.630
 3175SOL     OW10423   6.870   0.250   0.648
 3175SOL    HW110424   6.889   0.164   0.696
 3175SOL    HW210425   6.775   0.276   0.663
 3176SOL     OW10426   1.266   4.845   4.728
 3176SOL    HW110427   1.326   4.925   4.726
 3176SOL    HW210428   1.279   4.796   4.814
 3177SOL     OW10429   4.691   4.307   4.310
 3177SOL    HW110430   4.605   4.344   4.276
 3177SOL    HW210431   4.751   4.382   4.338
 3178SOL     OW10432   6.471   1.970   0.300
 3178SOL    HW110433   6.418   2.037   0.353
 3178SOL    HW210434   6.500   1.896   0.361
 3179SOL     OW10435   1.715   2.993   2.283
 3179SOL    HW110436   1.679   3.068   2.338
 3179SOL    HW210437   1.815   2.999   2.279
 3180SOL     OW10438   4.319   1.333   6.922
 3180SOL    HW110439   4.230   1.337   6.877
 3180SOL    HW210440   4.347   1.425   6.949
 3181SOL     OW10441   0.863   1.187   2.469
 3181SOL    HW110442   0.837   1.284   2.476
 3181SOL    HW210443   0.892   1.155   2.559
 3182SOL     OW10444   2.532   1.670   5.346
 3182SOL    HW110445   2.628   1.657   5.322
 3182SOL    HW210446   2.514   1.767   5.360
 3183SOL     OW10447   4.298   4.154   1.666
 3183SOL    HW110448   4.225   4.209   1.625
 3183SOL    HW210449   4.359   4.214   1.718
 3184SOL     OW10450   1.025   2.590   2.536
 3184SOL    HW110451   0.997   2.566   2.629
 3184SOL    HW210452   1.124   2.579   2.527
 3185SOL     OW10453   6.063   5.806   0.188
 3185SOL    HW110454   6.127   5.765   0.254
 3185SOL    HW210455   6.114   5.838   0.108
 3186SOL     OW10456   3.797   1.765   2.152
 3186SOL    HW110457   3.706   1.736   2.122
 3186SOL    HW210458   3.788   1.822   2.233
 3187SOL     OW10459   4.859   3.796   0.652
 3187SOL    HW110460   4.839   3.890   0.679
 3187SOL    HW210461   4.809   3.774   0.568
 3188SOL     OW10462   3.704   6.474   4.687
 3188SOL    HW110463   3.786   6.450   4.635
 3188SOL    HW210464   3.681   6.400   4.750
 3189SOL     OW10465   1.775   1.516   1.876
 3189SOL    HW110466   1.696   1.578   1.876
 3189SOL    HW210467   1.836   1.541   1.801
 3190SOL     OW10468   0.164   6.560   0.651
 3190SOL    HW110469   0.243   6.499   0.663
 3190SOL    HW210470   0.099   6.519   0.588
 3191SOL     OW10471   4.150   6.747   0.456
 3191SOL    HW110472   4.197   6.807   0.520
 3191SOL    HW210473   4.192   6.656   0.458
 3192SOL     OW10474   0.371   2.675   0.618
 3192SOL    HW110475   0.388   2.584   0.581
 3192SOL    HW210476   0.320   2.668   0.704
 3193SOL     OW10477   4.324   1.777   5.937
 3193SOL    HW110478   4.276   1.768   6.024
 3193SOL    HW210479   4.326   1.873   5.909
 3194SOL     OW10480   0.423   3.267   5.749
 3194SOL    HW110481   0.346   3.328   5.730
 3194SOL    HW210482   0.431   3.200   5.675
 3195SOL     OW10483   2.747   2.265   3.270
 3195SOL    HW110484   2.825   2.257   3.208
 3195SOL    HW210485   2.779   2.292   3.360
 3196SOL     OW10486   0.338   0.845   5.513
 3196SOL    HW110487   0.403   0.921   5.520
 3196SOL    HW210488   0.387   0.760   5.498
 3197SOL     OW10489   1.318   6.182   3.851
 3197SOL    HW110490   1.316   6.275   3.887
 3197SOL    HW210491   1.251   6.126   3.900
 3198SOL     OW10492   6.029   2.150   5.543
 3198SOL    HW110493   5.930   2.164   5.529
 3198SOL    HW210494   6.063   2.220   5.606
 3199SOL     OW10495   4.793   2.758   2.086
 3199SOL    HW110496   4.725   2.705   2.036
 3199SOL    HW210497   4.791   2.853   2.056
 3200SOL     OW10498   6.717   2.587   1.818
 3200SOL    HW110499   6.703   2.562   1.913
 3200SOL    HW210500   6.691   2.510   1.759
 3201SOL     OW10501   5.070   4.168   4.585
 3201SOL    HW110502   4.986   4.144   4.536
 3201SOL    HW210503   5.103   4.257   4.554
 3202SOL     OW10504   1.307   4.506   1.365
 3202SOL    HW110505   1.293   4.426   1.423
 3202SOL    HW210506   1.228   4.518   1.304
 3203SOL     OW10507   6.047   2.692   6.330
 3203SOL    HW110508   6.041   2.757   6.405
 3203SOL    HW210509   6.102   2.730   6.255
 3204SOL     OW10510   4.635   6.642   1.948
 3204SOL    HW110511   4.690   6.570   1.906
 3204SOL    HW210512   4.584   6.604   2.025
 3205SOL     OW10513   0.154   3.720   0.048
 3205SOL    HW110514   0.122   3.636   0.091
 3205SOL    HW210515   0.076   3.771   0.011
 3206SOL     OW10516   0.228   0.062   5.998
 3206SOL    HW110517   0.272   6.997   6.020
 3206SOL    HW210518   0.285   0.112   5.932
 3207SOL     OW10519   0.499   1.296   5.836
 3207SOL    HW110520   0.414   1.339   5.867
 3207SOL    HW210521   0.492   1.272   5.739
 3208SOL     OW10522   5.079   6.484   5.253
 3208SOL    HW110523   5.117   6.478   5.345
 3208SOL    HW210524   5.038   6.574   5.239
 3209SOL     OW10525   4.057   5.393   3.090
 3209SOL    HW110526   4.127   5.463   3.075
 3209SOL    HW210527   3.998   5.420   3.166
 3210SOL     OW10528   0.610   4.186   1.270
 3210SOL    HW110529   0.550   4.209   1.347
 3210SOL    HW210530   0.639   4.091   1.278
 3211SOL     OW10531   2.515   3.130   1.099
 3211SOL    HW110532   2.538   3.097   1.008
 3211SOL    HW210533   2.551   3.222   1.112
 3212SOL     OW10534   2.940   1.305   0.394
 3212SOL    HW110535   2.924   1.271   0.301
 3212SOL    HW210536   2.880   1.257   0.458
 3213SOL     OW10537   6.535   5.756   2.732
 3213SOL    HW110538   6.608   5.783   2.669
 3213SOL    HW210539   6.452   5.736   2.680
 3214SOL     OW10540   4.717   5.711   0.856
 3214SOL    HW110541   4.735   5.773   0.933
 3214SOL    HW210542   4.798   5.656   0.837
 3215SOL     OW10543   0.399   3.394   0.921
 3215SOL    HW110544   0.396   3.295   0.934
 3215SOL    HW210545   0.451   3.415   0.838
 3216SOL     OW10546   5.585   5.477   1.675
 3216SOL    HW110547   5.546   5.423   1.749
 3216SOL    HW210548   5.514   5.500   1.609
 3217SOL     OW10549   0.396   5.450   2.727
 3217SOL    HW110550   0.317   5.511   2.732
 3217SOL    HW210551   0.466   5.482   2.791
 3218SOL     OW10552   4.114   6.845   3.913
 3218SOL    HW110553   4.041   6.849   3.981
 3218SOL    HW210554   4.134   6.750   3.889
 3219SOL     OW10555   0.091   2.116   3.444
 3219SOL    HW110556   0.004   2.098   3.490
 3219SOL    HW210557   0.166   2.077   3.497
 3220SOL     OW10558   6.425   6.081   5.998
 3220SOL    HW110559   6.372   6.158   5.966
 3220SOL    HW210560   6.520   6.109   6.012
 3221SOL     OW10561   2.871   6.953   1.629
 3221SOL    HW110562   2.850   6.885   1.559
 3221SOL    HW210563   2.791   7.012   1.643
 3222SOL     OW10564   4.171   1.530   2.991
 3222SOL    HW110565   4.203   1.537   3.086
 3222SOL    HW210566   4.205   1.445   2.951
 3223SOL     OW10567   1.832   5.350   6.781
 3223SOL    HW110568   1.794   5.439   6.805
 3223SOL    HW210569   1.925   5.342   6.818
 3224SOL     OW10570   4.256   3.698   6.179
 3224SOL    HW110571   4.202   3.623   6.220
 3224SOL    HW210572   4.339   3.712   6.233
 3225SOL     OW10573   4.451   3.229   5.402
 3225SOL    HW110574   4.477   3.132   5.409
 3225SOL    HW210575   4.444   3.268   5.493
 3226SOL     OW10576   1.537   1.600   4.486
 3226SOL    HW110577   1.517   1.506   4.458
 3226SOL    HW210578   1.466   1.661   4.453
 3227SOL     OW10579   3.222   2.382   6.373
 3227SOL    HW110580   3.130   2.347   6.392
 3227SOL    HW210581   3.221   2.482   6.380
 3228SOL     OW10582   5.626   3.851   3.081
 3228SOL    HW110583   5.597   3.927   3.023
 3228SOL    HW210584   5.707   3.878   3.133
 3229SOL     OW10585   3.495   1.727   5.262
 3229SOL    HW110586   3.584   1.770   5.277
 3229SOL    HW210587   3.433   1.793   5.218
 3230SOL     OW10588   1.546   2.815   4.019
 3230SOL    HW110589   1.517   2.874   3.943
 3230SOL    HW210590   1.470   2.755   4.044
 3231SOL     OW10591   2.505   0.373   1.987
 3231SOL    HW110592   2.529   0.299   2.050
 3231SOL    HW210593   2.429   0.345   1.929
 3232SOL     OW10594   4.100   5.169   4.531
 3232SOL    HW110595   4.029   5.219   4.481
 3232SOL    HW210596   4.078   5.072   4.533
 3233SOL     OW10597   1.280   3.102   1.561
 3233SOL    HW110598   1.285   3.107   1.461
 3233SOL    HW210599   1.350   3.040   1.595
 3234SOL     OW10600   6.891   2.099   0.548
 3234SOL    HW110601   6.898   1.999   0.539
 3234SOL    HW210602   6.970   2.142   0.506
 3235SOL     OW10603   4.900   0.421   1.509
 3235SOL    HW110604   4.922   0.512   1.544
 3235SOL    HW210605   4.833   0.430   1.435
 3236SOL     OW10606   1.461   3.247   0.272
 3236SOL    HW110607   1.467   3.330   0.327
 3236SOL    HW210608   1.518   3.176   0.313
 3237SOL     OW10609   5.761   1.154   3.462
 3237SOL    HW110610   5.737   1.242   3.503
 3237SOL    HW210611   5.699   1.134   3.387
 3238SOL     OW10612   0.517   4.724   0.734
 3238SOL    HW110613   0.593   4.660   0.739
 3238SOL    HW210614   0.546   4.813   0.769
 3239SOL     OW10615   6.092   1.807   0.505
 3239SOL    HW110616   6.143   1.876   0.556
 3239SOL    HW210617   6.021   1.852   0.451
 3240SOL     OW10618   1.131   6.235   5.086
 3240SOL    HW110619   1.140   6.136   5.074
 3240SOL    HW210620   1.113   6.256   5.182
 3241SOL     OW10621   4.705   1.195   4.048
 3241SOL    HW110622   4.746   1.286   4.036
 3241SOL    HW210623   4.770   1.126   4.016
 3242SOL     OW10624   3.189   4.747   1.330
 3242SOL    HW110625   3.108   4.698   1.361
 3242SOL    HW210626   3.177   4.775   1.235
 3243SOL     OW10627   5.547   4.863   0.310
 3243SOL    HW110628   5.598   4.856   0.224
 3243SOL    HW210629   5.451   4.884   0.291
 3244SOL     OW10630   5.045   5.987   0.813
 3244SOL    HW110631   5.008   5.937   0.734
 3244SOL    HW210632   5.105   5.926   0.865
 3245SOL     OW10633   5.344   2.401   5.400
 3245SOL    HW110634   5.401   2.326   5.434
 3245SOL    HW210635   5.311   2.456   5.477
 3246SOL     OW10636   5.780   1.237   3.030
 3246SOL    HW110637   5.796   1.141   3.008
 3246SOL    HW210638   5.864   1.277   3.067
 3247SOL     OW10639   6.559   4.850   3.488
 3247SOL    HW110640   6.617   4.930   3.472
 3247SOL    HW210641   6.605   4.768   3.455
 3248SOL     OW10642   6.275   3.049   1.774
 3248SOL    HW110643   6.275   3.137   1.821
 3248SOL    HW210644   6.242   2.978   1.836
 3249SOL     OW10645   3.183   3.517   5.240
 3249SOL    HW110646   3.126   3.469   5.173
 3249SOL    HW210647   3.171   3.476   5.330
 3250SOL     OW10648   5.289   0.183   2.473
 3250SOL    HW110649   5.238   0.222   2.396
 3250SOL    HW210650   5.340   0.255   2.519
 3251SOL     OW10651   3.919   1.068   2.365
 3251SOL    HW110652   3.882   0.985   2.324
 3251SOL    HW210653   3.848   1.138   2.368
 3252SOL     OW10654   2.700   1.909   2.187
 3252SOL    HW110655   2.627   1.939   2.125
 3252SOL    HW210656   2.784   1.958   2.167
 3253SOL     OW10657   5.821   2.862   2.716
 3253SOL    HW110658   5.736   2.872   2.666
 3253SOL    HW210659   5.891   2.824   2.656
 3254SOL     OW10660   4.437   5.696   5.631
 3254SOL    HW110661   4.370   5.623   5.640
 3254SOL    HW210662   4.390   5.784   5.630
 3255SOL     OW10663   4.866   6.571   1.570
 3255SOL    HW110664   4.932   6.627   1.518
 3255SOL    HW210665   4.907   6.483   1.591
 3256SOL     OW10666   5.162   0.564   0.006
 3256SOL    HW110667   5.086   0.546   6.966
 3256SOL    HW210668   5.248   0.563   6.977
 3257SOL     OW10669   1.199   2.609   1.162
 3257SOL    HW110670   1.253   2.675   1.213
 3257SOL    HW210671   1.168   2.650   1.076
 3258SOL     OW10672   3.872   4.867   1.951
 3258SOL    HW110673   3.795   4.806   1.936
 3258SOL    HW210674   3.915   4.845   2.038
 3259SOL     OW10675   4.573   5.989   3.877
 3259SOL    HW110676   4.647   6.031   3.929
 3259SOL    HW210677   4.533   6.056   3.815
 3260SOL     OW10678   1.980   1.938   1.223
 3260SOL    HW110679   1.936   2.027   1.235
 3260SOL    HW210680   1.911   1.867   1.209
 3261SOL     OW10681   4.656   6.264   0.752
 3261SOL    HW110682   4.670   6.166   0.737
 3261SOL    HW210683   4.712   6.316   0.688
 3262SOL     OW10684   3.496   2.089   2.678
 3262SOL    HW110685   3.486   1.990   2.690
 3262SOL    HW210686   3.489   2.112   2.581
 3263SOL     OW10687   3.461   1.026   4.144
 3263SOL    HW110688   3.375   1.077   4.146
 3263SOL    HW210689   3.466   0.974   4.058
 3264SOL     OW10690   1.522   4.633   0.784
 3264SOL    HW110691   1.555   4.703   0.720
 3264SOL    HW210692   1.598   4.599   0.838
 3265SOL     OW10693   4.774   1.993   5.676
 3265SOL    HW110694   4.700   1.930   5.653
 3265SOL    HW210695   4.815   2.029   5.593
 3266SOL     OW10696   0.667   2.746   0.423
 3266SOL    HW110697   0.743   2.737   0.488
 3266SOL    HW210698   0.667   2.667   0.362
 3267SOL     OW10699   4.125   1.518   0.492
 3267SOL    HW110700   4.163   1.425   0.493
 3267SOL    HW210701   4.199   1.584   0.509
 3268SOL     OW10702   1.734   4.380   0.167
 3268SOL    HW110703   1.801   4.377   0.241
 3268SOL    HW210704   1.647   4.342   0.199
 3269SOL     OW10705   4.102   5.005   1.585
 3269SOL    HW110706   4.073   4.915   1.553
 3269SOL    HW210707   4.025   5.069   1.578
 3270SOL     OW10708   1.647   4.766   5.476
 3270SOL    HW110709   1.553   4.798   5.483
 3270SOL    HW210710   1.675   4.762   5.380
 3271SOL     OW10711   5.581   3.594   3.060
 3271SOL    HW110712   5.582   3.694   3.057
 3271SOL    HW210713   5.673   3.559   3.040
 3272SOL     OW10714   3.722   3.785   6.986
 3272SOL    HW110715   3.786   3.817   6.916
 3272SOL    HW210716   3.679   3.700   6.957
 3273SOL     OW10717   0.453   6.316   2.257
 3273SOL    HW110718   0.389   6.240   2.241
 3273SOL    HW210719   0.529   6.309   2.192
 3274SOL     OW10720   3.715   1.352   0.959
 3274SOL    HW110721   3.636   1.359   0.899
 3274SOL    HW210722   3.688   1.375   1.052
 3275SOL     OW10723   1.134   0.946   6.831
 3275SOL    HW110724   1.081   1.022   6.868
 3275SOL    HW210725   1.120   0.864   6.887
 3276SOL     OW10726   3.541   5.232   6.623
 3276SOL    HW110727   3.558   5.177   6.705
 3276SOL    HW210728   3.478   5.182   6.562
 3277SOL     OW10729   5.255   0.061   6.816
 3277SOL    HW110730   5.351   0.062   6.786
 3277SOL    HW210731   5.240   7.003   6.875
 3278SOL     OW10732   7.020   0.979   5.949
 3278SOL    HW110733   6.972   0.921   6.015
 3278SOL    HW210734   7.018   1.074   5.981
 3279SOL     OW10735   6.896   0.562   0.836
 3279SOL    HW110736   6.964   0.634   0.848
 3279SOL    HW210737   6.824   0.594   0.774
 3280SOL     OW10738   3.261   4.941   5.485
 3280SOL    HW110739   3.328   4.979   5.421
 3280SOL    HW210740   3.260   4.842   5.479
 3281SOL     OW10741   2.020   5.865   0.711
 3281SOL    HW110742   1.928   5.900   0.694
 3281SOL    HW210743   2.036   5.782   0.658
 3282SOL     OW10744   1.981   5.263   4.705
 3282SOL    HW110745   1.897   5.250   4.651
 3282SOL    HW210746   2.052   5.303   4.647
 3283SOL     OW10747   3.185   1.408   1.423
 3283SOL    HW110748   3.212   1.356   1.504
 3283SOL    HW210749   3.220   1.362   1.341
 3284SOL     OW10750   5.944   6.342   0.318
 3284SOL    HW110751   5.888   6.326   0.237
 3284SOL    HW210752   6.003   6.421   0.303
 3285SOL     OW10753   5.860   2.951   3.200
 3285SOL    HW110754   5.774   2.925   3.157
 3285SOL    HW210755   5.860   2.922   3.296
 3286SOL     OW10756   4.023   3.383   3.263
 3286SOL    HW110757   3.940   3.436   3.246
 3286SOL    HW210758   4.063   3.412   3.350
 3287SOL     OW10759   1.422   5.817   0.374
 3287SOL    HW110760   1.415   5.904   0.324
 3287SOL    HW210761   1.333   5.794   0.413
 3288SOL     OW10762   0.903   5.302   6.524
 3288SOL    HW110763   0.885   5.213   6.565
 3288SOL    HW210764   0.995   5.303   6.486
 3289SOL     OW10765   2.454   6.574   5.545
 3289SOL    HW110766   2.384   6.635   5.508
 3289SOL    HW210767   2.457   6.491   5.489
 3290SOL     OW10768   0.077   6.561   2.044
 3290SOL    HW110769   0.075   6.634   1.975
 3290SOL    HW210770   0.171   6.533   2.061
 3291SOL     OW10771   0.844   5.595   7.011
 3291SOL    HW110772   0.775   5.560   6.948
 3291SOL    HW210773   0.911   5.649   6.961
 3292SOL     OW10774   0.693   0.703   6.715
 3292SOL    HW110775   0.658   0.666   6.802
 3292SOL    HW210776   0.617   0.743   6.663
 3293SOL     OW10777   0.131   3.411   3.167
 3293SOL    HW110778   0.220   3.456   3.160
 3293SOL    HW210779   0.143   3.321   3.209
 3294SOL     OW10780   0.584   1.180   6.452
 3294SOL    HW110781   0.632   1.152   6.369
 3294SOL    HW210782   0.487   1.155   6.445
 3295SOL     OW10783   1.621   3.055   1.807
 3295SOL    HW110784   1.673   2.986   1.757
 3295SOL    HW210785   1.673   3.141   1.810
 3296SOL     OW10786   1.988   6.164   1.531
 3296SOL    HW110787   1.969   6.242   1.471
 3296SOL    HW210788   1.999   6.195   1.625
 3297SOL     OW10789   2.672   0.156   5.120
 3297SOL    HW110790   2.737   0.119   5.186
 3297SOL    HW210791   2.704   0.245   5.087
 3298SOL     OW10792   6.504   1.958   3.933
 3298SOL    HW110793   6.431   1.928   3.871
 3298SOL    HW210794   6.562   1.881   3.957
 3299SOL     OW10795   2.148   6.341   3.847
 3299SOL    HW110796   2.096   6.377   3.770
 3299SOL    HW210797   2.233   6.302   3.814
 3300SOL     OW10798   0.444   0.728   5.924
 3300SOL    HW110799   0.464   0.812   5.974
 3300SOL    HW210800   0.529   0.676   5.911
 3301SOL     OW10801   2.144   3.364   3.802
 3301SOL    HW110802   2.122   3.427   3.876
 3301SOL    HW210803   2.115   3.405   3.715
 3302SOL     OW10804   1.502   5.798   5.143
 3302SOL    HW110805   1.420   5.834   5.099
 3302SOL    HW210806   1.476   5.727   5.208
 3303SOL     OW10807   3.756   2.992   1.676
 3303SOL    HW110808   3.748   2.893   1.668
 3303SOL    HW210809   3.776   3.017   1.770
 3304SOL     OW10810   1.432   5.156   3.803
 3304SOL    HW110811   1.438   5.056   3.803
 3304SOL    HW210812   1.474   5.192   3.886
 3305SOL     OW10813   2.334   0.931   3.073
 3305SOL    HW110814   2.356   0.834   3.080
 3305SOL    HW210815   2.245   0.942   3.028
 3306SOL     OW10816   2.064   5.530   3.987
 3306SOL    HW110817   2.057   5.450   4.046
 3306SOL    HW210818   2.069   5.613   4.043
 3307SOL     OW10819   0.026   5.670   6.665
 3307SOL    HW110820   6.969   5.717   6.703
 3307SOL    HW210821   7.022   5.617   6.585
 3308SOL     OW10822   4.821   6.367   6.912
 3308SOL    HW110823   4.748   6.320   6.863
 3308SOL    HW210824   4.854   6.310   6.987
 3309SOL     OW10825   0.844   5.189   1.814
 3309SOL    HW110826   0.917   5.241   1.859
 3309SOL    HW210827   0.855   5.091   1.836
 3310SOL     OW10828   6.557   4.337   4.702
 3310SOL    HW110829   6.594   4.274   4.635
 3310SOL    HW210830   6.540   4.426   4.659
 3311SOL     OW10831   2.315   4.545   2.070
 3311SOL    HW110832   2.285   4.612   2.002
 3311SOL    HW210833   2.249   4.469   2.073
 3312SOL     OW10834   3.605   4.291   6.188
 3312SOL    HW110835   3.540   4.365   6.203
 3312SOL    HW210836   3.686   4.306   6.246
 3313SOL     OW10837   0.198   5.431   2.415
 3313SOL    HW110838   0.231   5.519   2.448
 3313SOL    HW210839   0.264   5.360   2.437
 3314SOL     OW10840   1.420   1.675   4.772
 3314SOL    HW110841   1.377   1.661   4.862
 3314SOL    HW210842   1.451   1.587   4.737
 3315SOL     OW10843   6.457   3.573   3.923
 3315SOL    HW110844   6.487   3.555   4.017
 3315SOL    HW210845   6.487   3.498   3.864
 3316SOL     OW10846   3.731   1.654   6.061
 3316SOL    HW110847   3.719   1.600   5.978
 3316SOL    HW210848   3.646   1.703   6.082
 3317SOL     OW10849   4.806   2.915   1.713
 3317SOL    HW110850   4.768   2.970   1.787
 3317SOL    HW210851   4.733   2.884   1.652
 3318SOL     OW10852   2.866   0.185   0.547
 3318SOL    HW110853   2.949   0.135   0.522
 3318SOL    HW210854   2.844   0.251   0.476
 3319SOL     OW10855   6.276   6.810   4.625
 3319SOL    HW110856   6.304   6.906   4.628
 3319SOL    HW210857   6.192   6.799   4.680
 3320SOL     OW10858   5.539   1.160   5.645
 3320SOL    HW110859   5.604   1.131   5.715
 3320SOL    HW210860   5.481   1.083   5.619
 3321SOL     OW10861   3.386   2.210   1.803
 3321SOL    HW110862   3.391   2.139   1.733
 3321SOL    HW210863   3.479   2.239   1.828
 3322SOL     OW10864   5.166   3.212   1.717
 3322SOL    HW110865   5.157   3.171   1.626
 3322SOL    HW210866   5.118   3.155   1.783
 3323SOL     OW10867   2.156   4.028   6.476
 3323SOL    HW110868   2.062   3.994   6.471
 3323SOL    HW210869   2.216   3.970   6.419
 3324SOL     OW10870   0.898   4.004   6.503
 3324SOL    HW110871   0.845   4.089   6.510
 3324SOL    HW210872   0.874   3.943   6.578
 3325SOL     OW10873   2.180   2.848   6.812
 3325SOL    HW110874   2.251   2.918   6.825
 3325SOL    HW210875   2.095   2.879   6.854
 3326SOL     OW10876   5.342   1.443   2.187
 3326SOL    HW110877   5.321   1.365   2.128
 3326SOL    HW210878   5.417   1.496   2.148
 3327SOL     OW10879   3.093   6.150   1.505
 3327SOL    HW110880   3.173   6.137   1.563
 3327SOL    HW210881   3.123   6.171   1.412
 3328SOL     OW10882   3.928   1.941   2.608
 3328SOL    HW110883   3.875   2.006   2.663
 3328SOL    HW210884   3.991   1.991   2.548
 3329SOL     OW10885   4.900   0.919   4.936
 3329SOL    HW110886   4.944   0.858   5.003
 3329SOL    HW210887   4.828   0.869   4.888
 3330SOL     OW10888   5.889   6.317   1.491
 3330SOL    HW110889   5.850   6.299   1.581
 3330SOL    HW210890   5.907   6.415   1.481
 3331SOL     OW10891   0.661   3.603   2.079
 3331SOL    HW110892   0.723   3.572   2.152
 3331SOL    HW210893   0.609   3.682   2.111
 3332SOL     OW10894   6.306   4.368   0.041
 3332SOL    HW110895   6.247   4.407   0.113
 3332SOL    HW210896   6.383   4.320   0.083
 3333SOL     OW10897   3.142   3.773   6.735
 3333SOL    HW110898   3.052   3.747   6.771
 3333SOL    HW210899   3.144   3.872   6.721
 3334SOL     OW10900   2.118   3.491   2.425
 3334SOL    HW110901   2.112   3.552   2.346
 3334SOL    HW210902   2.181   3.416   2.404
 3335SOL     OW10903   4.923   6.476   6.425
 3335SOL    HW110904   4.974   6.551   6.469
 3335SOL    HW210905   4.937   6.392   6.476
 3336SOL     OW10906   2.200   6.672   4.421
 3336SOL    HW110907   2.259   6.747   4.451
 3336SOL    HW210908   2.113   6.709   4.389
 3337SOL     OW10909   2.539   3.987   1.308
 3337SOL    HW110910   2.501   3.899   1.338
 3337SOL    HW210911   2.634   3.994   1.336
 3338SOL     OW10912   6.939   2.710   1.368
 3338SOL    HW110913   6.937   2.746   1.461
 3338SOL    HW210914   6.961   2.785   1.304
 3339SOL     OW10915   1.296   6.733   6.509
 3339SOL    HW110916   1.331   6.818   6.469
 3339SOL    HW210917   1.373   6.673   6.533
 3340SOL     OW10918   3.436   0.776   3.823
 3340SOL    HW110919   3.477   0.713   3.889
 3340SOL    HW210920   3.379   0.843   3.872
 3341SOL     OW10921   2.175   4.574   3.807
 3341SOL    HW110922   2.225   4.488   3.813
 3341SOL    HW210923   2.178   4.620   3.896
 3342SOL     OW10924   1.306   0.351   3.544
 3342SOL    HW110925   1.370   0.427   3.558
 3342SOL    HW210926   1.219   0.386   3.511
 3343SOL     OW10927   5.568   4.721   6.614
 3343SOL    HW110928   5.591   4.650   6.547
 3343SOL    HW210929   5.470   4.717   6.634
 3344SOL     OW10930   6.271   3.812   4.196
 3344SOL    HW110931   6.282   3.860   4.110
 3344SOL    HW210932   6.222   3.726   4.180
 3345SOL     OW10933   1.080   4.617   6.460
 3345SOL    HW110934   0.998   4.566   6.488
 3345SOL    HW210935   1.093   4.696   6.520
 3346SOL     OW10936   0.776   0.714   0.156
 3346SOL    HW110937   0.709   0.668   0.098
 3346SOL    HW210938   0.810   0.795   0.109
 3347SOL     OW10939   0.938   3.222   5.876
 3347SOL    HW110940   0.910   3.316   5.896
 3347SOL    HW210941   0.895   3.160   5.943
 3348SOL     OW10942   4.055   3.295   4.982
 3348SOL    HW110943   3.955   3.291   4.990
 3348SOL    HW210944   4.097   3.260   5.065
 3349SOL     OW10945   2.066   5.309   2.830
 3349SOL    HW110946   2.005   5.310   2.750
 3349SOL    HW210947   2.018   5.349   2.908
 3350SOL     OW10948   0.264   2.851   5.909
 3350SOL    HW110949   0.169   2.836   5.881
 3350SOL    HW210950   0.284   2.949   5.909
 3351SOL     OW10951   4.484   1.540   1.948
 3351SOL    HW110952   4.500   1.442   1.953
 3351SOL    HW210953   4.569   1.586   1.922
 3352SOL     OW10954   6.101   2.549   0.891
 3352SOL    HW110955   6.073   2.635   0.934
 3352SOL    HW210956   6.029   2.517   0.829
 3353SOL     OW10957   2.884   5.837   1.531
 3353SOL    HW110958   2.931   5.903   1.471
 3353SOL    HW210959   2.937   5.752   1.535
 3354SOL     OW10960   4.488   2.608   5.349
 3354SOL    HW110961   4.500   2.671   5.272
 3354SOL    HW210962   4.577   2.570   5.375
 3355SOL     OW10963   1.933   1.672   5.927
 3355SOL    HW110964   1.958   1.592   5.873
 3355SOL    HW210965   1.877   1.643   6.005
 3356SOL     OW10966   0.991   5.918   5.827
 3356SOL    HW110967   1.059   5.844   5.824
 3356SOL    HW210968   0.921   5.896   5.895
 3357SOL     OW10969   3.321   3.743   2.309
 3357SOL    HW110970   3.345   3.827   2.356
 3357SOL    HW210971   3.257   3.690   2.365
 3358SOL     OW10972   4.554   1.078   2.748
 3358SOL    HW110973   4.505   1.033   2.674
 3358SOL    HW210974   4.493   1.090   2.826
 3359SOL     OW10975   0.245   5.761   2.936
 3359SOL    HW110976   0.187   5.691   2.894
 3359SOL    HW210977   0.294   5.721   3.013
 3360SOL     OW10978   0.444   2.029   6.441
 3360SOL    HW110979   0.420   2.020   6.537
 3360SOL    HW210980   0.363   2.012   6.384
 3361SOL     OW10981   0.119   5.640   4.615
 3361SOL    HW110982   0.071   5.706   4.558
 3361SOL    HW210983   0.121   5.551   4.569
 3362SOL     OW10984   3.272   1.772   2.403
 3362SOL    HW110985   3.197   1.837   2.395
 3362SOL    HW210986   3.237   1.679   2.392
 3363SOL     OW10987   6.554   2.057   1.473
 3363SOL    HW110988   6.596   2.106   1.396
 3363SOL    HW210989   6.455   2.050   1.458
 3364SOL     OW10990   2.486   4.607   3.630
 3364SOL    HW110991   2.444   4.541   3.567
 3364SOL    HW210992   2.508   4.691   3.580
 3365SOL     OW10993   0.045   3.093   5.042
 3365SOL    HW110994   0.012   3.024   4.977
 3365SOL    HW210995   6.997   3.110   5.110
 3366SOL     OW10996   5.284   4.873   3.896
 3366SOL    HW110997   5.358   4.828   3.947
 3366SOL    HW210998   5.275   4.967   3.927
 3367SOL     OW10999   3.864   3.617   3.204
 3367SOL    HW111000   3.845   3.636   3.108
 3367SOL    HW211001   3.891   3.702   3.250
 3368SOL     OW11002   0.785   5.516   6.188
 3368SOL    HW111003   0.755   5.423   6.208
 3368SOL    HW211004   0.873   5.533   6.233
 3369SOL     OW11005   4.223   1.726   1.234
 3369SOL    HW111006   4.241   1.777   1.150
 3369SOL    HW211007   4.207   1.790   1.310
 3370SOL     OW11008   6.655   6.416   1.348
 3370SOL    HW111009   6.597   6.339   1.372
 3370SOL    HW211010   6.675   6.470   1.430
 3371SOL     OW11011   2.148   3.369   1.748
 3371SOL    HW111012   2.226   3.416   1.790
 3371SOL    HW211013   2.066   3.383   1.804
 3372SOL     OW11014   6.965   1.947   0.178
 3372SOL    HW111015   0.029   1.919   0.220
 3372SOL    HW211016   6.891   1.939   0.246
 3373SOL     OW11017   0.413   2.311   4.210
 3373SOL    HW111018   0.364   2.398   4.208
 3373SOL    HW211019   0.497   2.322   4.262
 3374SOL     OW11020   0.916   6.910   3.994
 3374SOL    HW111021   0.987   6.870   4.052
 3374SOL    HW211022   0.829   6.913   4.044
 3375SOL     OW11023   6.952   4.273   0.669
 3375SOL    HW111024   6.890   4.233   0.737
 3375SOL    HW211025   0.005   4.318   0.715
 3376SOL     OW11026   3.623   2.827   4.758
 3376SOL    HW111027   3.563   2.821   4.838
 3376SOL    HW211028   3.604   2.752   4.695
 3377SOL     OW11029   0.100   5.412   6.044
 3377SOL    HW111030   0.097   5.492   5.983
 3377SOL    HW211031   0.011   5.367   6.044
 3378SOL     OW11032   1.520   6.217   0.412
 3378SOL    HW111033   1.436   6.264   0.437
 3378SOL    HW211034   1.547   6.244   0.319
 3379SOL     OW11035   0.910   1.536   4.687
 3379SOL    HW111036   0.938   1.459   4.744
 3379SOL    HW211037   0.849   1.596   4.738
 3380SOL     OW11038   4.879   6.197   5.241
 3380SOL    HW111039   4.793   6.229   5.280
 3380SOL    HW211040   4.921   6.271   5.188
 3381SOL     OW11041   6.500   2.838   0.981
 3381SOL    HW111042   6.454   2.818   0.894
 3381SOL    HW211043   6.431   2.869   1.047
 3382SOL     OW11044   0.588   2.846   6.459
 3382SOL    HW111045   0.638   2.894   6.531
 3382SOL    HW211046   0.622   2.876   6.370
 3383SOL     OW11047   3.326   5.378   1.037
 3383SOL    HW111048   3.346   5.394   0.940
 3383SOL    HW211049   3.386   5.306   1.072
 3384SOL     OW11050   2.193   3.445   1.035
 3384SOL    HW111051   2.115   3.401   1.080
 3384SOL    HW211052   2.233   3.382   0.969
 3385SOL     OW11053   6.939   3.594   4.302
 3385SOL    HW111054   0.016   3.608   4.302
 3385SOL    HW211055   6.893   3.682   4.312
 3386SOL     OW11056   5.275   4.133   6.727
 3386SOL    HW111057   5.187   4.120   6.680
 3386SOL    HW211058   5.324   4.210   6.687
 3387SOL     OW11059   4.868   0.303   3.135
 3387SOL    HW111060   4.890   0.340   3.225
 3387SOL    HW211061   4.798   0.232   3.144
 3388SOL     OW11062   5.488   3.099   2.639
 3388SOL    HW111063   5.491   3.014   2.587
 3388SOL    HW211064   5.543   3.089   2.722
 3389SOL     OW11065   6.312   5.863   5.904
 3389SOL    HW111066   6.359   5.945   5.936
 3389SOL    HW211067   6.326   5.789   5.970
 3390SOL     OW11068   5.041   6.992   6.149
 3390SOL    HW111069   4.961   6.933   6.144
 3390SOL    HW211070   5.093   6.986   6.063
 3391SOL     OW11071   4.875   2.414   3.591
 3391SOL    HW111072   4.817   2.356   3.648
 3391SOL    HW211073   4.888   2.372   3.502
 3392SOL     OW11074   3.454   6.587   4.590
 3392SOL    HW111075   3.524   6.517   4.601
 3392SOL    HW211076   3.377   6.567   4.650
 3393SOL     OW11077   6.151   6.039   0.646
 3393SOL    HW111078   6.163   6.128   0.691
 3393SOL    HW211079   6.169   6.049   0.548
 3394SOL     OW11080   4.764   3.842   0.966
 3394SOL    HW111081   4.686   3.883   0.918
 3394SOL    HW211082   4.819   3.790   0.900
 3395SOL     OW11083   5.250   2.246   2.944
 3395SOL    HW111084   5.210   2.181   3.009
 3395SOL    HW211085   5.287   2.325   2.995
 3396SOL     OW11086   5.723   1.116   3.783
 3396SOL    HW111087   5.761   1.208   3.785
 3396SOL    HW211088   5.751   1.070   3.699
 3397SOL     OW11089   3.605   5.064   6.287
 3397SOL    HW111090   3.625   5.014   6.203
 3397SOL    HW211091   3.557   5.149   6.265
 3398SOL     OW11092   1.469   0.172   5.092
 3398SOL    HW111093   1.458   0.266   5.124
 3398SOL    HW211094   1.556   0.135   5.126
 3399SOL     OW11095   5.643   5.452   3.394
 3399SOL    HW111096   5.551   5.419   3.418
 3399SOL    HW211097   5.703   5.374   3.378
 3400SOL     OW11098   5.305   3.675   6.567
 3400SOL    HW111099   5.213   3.643   6.592
 3400SOL    HW211100   5.307   3.775   6.572
 3401SOL     OW11101   5.636   4.096   6.767
 3401SOL    HW111102   5.729   4.133   6.764
 3401SOL    HW211103   5.597   4.111   6.858
 3402SOL     OW11104   5.642   5.671   6.447
 3402SOL    HW111105   5.621   5.592   6.505
 3402SOL    HW211106   5.558   5.723   6.431
 3403SOL     OW11107   4.950   5.520   6.919
 3403SOL    HW111108   4.935   5.518   6.820
 3403SOL    HW211109   4.896   5.448   6.962
 3404SOL     OW11110   5.233   2.601   0.727
 3404SOL    HW111111   5.159   2.611   0.793
 3404SOL    HW211112   5.257   2.690   0.689
 3405SOL     OW11113   5.643   4.515   6.461
 3405SOL    HW111114   5.730   4.468   6.446
 3405SOL    HW211115   5.589   4.512   6.377
 3406SOL     OW11116   0.882   2.994   2.705
 3406SOL    HW111117   0.802   2.973   2.648
 3406SOL    HW211118   0.876   3.088   2.739
 3407SOL     OW11119   1.926   4.256   0.019
 3407SOL    HW111120   2.016   4.290   0.047
 3407SOL    HW211121   1.855   4.308   0.065
 3408SOL     OW11122   5.080   2.816   4.715
 3408SOL    HW111123   4.994   2.855   4.683
 3408SOL    HW211124   5.093   2.838   4.812
 3409SOL     OW11125   4.015   6.292   0.111
 3409SOL    HW111126   4.022   6.226   0.187
 3409SOL    HW211127   3.919   6.316   0.097
 3410SOL     OW11128   6.431   6.671   2.000
 3410SOL    HW111129   6.403   6.759   2.037
 3410SOL    HW211130   6.521   6.647   2.038
 3411SOL     OW11131   0.437   2.923   0.496
 3411SOL    HW111132   0.504   2.902   0.424
 3411SOL    HW211133   0.397   2.837   0.530
 3412SOL     OW11134   5.184   3.625   1.559
 3412SOL    HW111135   5.265   3.680   1.537
 3412SOL    HW211136   5.171   3.624   1.658
 3413SOL     OW11137   6.510   1.365   0.340
 3413SOL    HW111138   6.473   1.272   0.341
 3413SOL    HW211139   6.605   1.363   0.311
 3414SOL     OW11140   3.403   2.146   5.765
 3414SOL    HW111141   3.392   2.052   5.734
 3414SOL    HW211142   3.480   2.151   5.829
 3415SOL     OW11143   2.286   2.094   4.324
 3415SOL    HW111144   2.284   1.999   4.355
 3415SOL    HW211145   2.202   2.114   4.273
 3416SOL     OW11146   5.203   0.482   0.347
 3416SOL    HW111147   5.170   0.495   0.253
 3416SOL    HW211148   5.213   0.385   0.366
 3417SOL     OW11149   0.292   6.793   4.324
 3417SOL    HW111150   0.293   6.695   4.308
 3417SOL    HW211151   0.356   6.838   4.262
 3418SOL     OW11152   3.677   6.157   3.153
 3418SOL    HW111153   3.736   6.236   3.170
 3418SOL    HW211154   3.620   6.139   3.233
 3419SOL     OW11155   3.316   5.043   5.745
 3419SOL    HW111156   3.276   5.134   5.758
 3419SOL    HW211157   3.273   5.001   5.665
 3420SOL     OW11158   5.493   3.760   3.718
 3420SOL    HW111159   5.578   3.785   3.673
 3420SOL    HW211160   5.496   3.789   3.814
 3421SOL     OW11161   5.491   1.922   3.497
 3421SOL    HW111162   5.455   1.838   3.456
 3421SOL    HW211163   5.434   1.947   3.575
 3422SOL     OW11164   2.429   0.420   0.079
 3422SOL    HW111165   2.477   0.498   0.121
 3422SOL    HW211166   2.342   0.406   0.126
 3423SOL     OW11167   0.106   4.888   6.394
 3423SOL    HW111168   0.078   4.983   6.404
 3423SOL    HW211169   0.150   4.874   6.305
 3424SOL     OW11170   3.236   6.627   1.075
 3424SOL    HW111171   3.201   6.720   1.063
 3424SOL    HW211172   3.301   6.626   1.152
 3425SOL     OW11173   4.911   4.439   2.250
 3425SOL    HW111174   5.002   4.417   2.215
 3425SOL    HW211175   4.918   4.513   2.317
 3426SOL     OW11176   5.253   2.661   1.222
 3426SOL    HW111177   5.243   2.673   1.321
 3426SOL    HW211178   5.252   2.564   1.200
 3427SOL     OW11179   0.873   2.161   1.647
 3427SOL    HW111180   0.785   2.158   1.601
 3427SOL    HW211181   0.942   2.200   1.586
 3428SOL     OW11182   3.854   4.260   6.956
 3428SOL    HW111183   3.934   4.319   6.965
 3428SOL    HW211184   3.850   4.223   6.863
 3429SOL     OW11185   0.630   1.854   1.154
 3429SOL    HW111186   0.712   1.797   1.146
 3429SOL    HW211187   0.586   1.837   1.243
 3430SOL     OW11188   2.302   5.231   5.295
 3430SOL    HW111189   2.292   5.299   5.368
 3430SOL    HW211190   2.380   5.172   5.315
 3431SOL     OW11191   1.369   5.938   1.477
 3431SOL    HW111192   1.416   5.850   1.481
 3431SOL    HW211193   1.379   5.985   1.564
 3432SOL     OW11194   2.742   4.520   6.204
 3432SOL    HW111195   2.773   4.561   6.290
 3432SOL    HW211196   2.674   4.580   6.161
 3433SOL     OW11197   1.220   0.858   4.895
 3433SOL    HW111198   1.279   0.939   4.904
 3433SOL    HW211199   1.181   0.856   4.802
 3434SOL     OW11200   3.796   1.631   1.661
 3434SOL    HW111201   3.798   1.722   1.701
 3434SOL    HW211202   3.703   1.606   1.637
 3435SOL     OW11203   2.194   1.340   0.965
 3435SOL    HW111204   2.258   1.403   1.010
 3435SOL    HW211205   2.216   1.246   0.991
 3436SOL     OW11206   3.555   5.960   0.126
 3436SOL    HW111207   3.507   5.872   0.124
 3436SOL    HW211208   3.510   6.021   0.191
 3437SOL     OW11209   2.512   6.089   5.540
 3437SOL    HW111210   2.591   6.028   5.542
 3437SOL    HW211211   2.473   6.095   5.632
 3438SOL     OW11212   1.022   3.932   1.294
 3438SOL    HW111213   0.931   3.972   1.306
 3438SOL    HW211214   1.054   3.952   1.201
 3439SOL     OW11215   3.436   6.056   4.030
 3439SOL    HW111216   3.529   6.080   4.059
 3439SOL    HW211217   3.377   6.051   4.110
 3440SOL     OW11218   3.590   2.918   2.556
 3440SOL    HW111219   3.572   3.016   2.544
 3440SOL    HW211220   3.637   2.883   2.475
 3441SOL     OW11221   6.789   5.775   6.696
 3441SOL    HW111222   6.772   5.873   6.702
 3441SOL    HW211223   6.756   5.740   6.608
 3442SOL     OW11224   2.766   3.861   1.539
 3442SOL    HW111225   2.723   3.911   1.614
 3442SOL    HW211226   2.784   3.923   1.463
 3443SOL     OW11227   3.581   6.392   2.166
 3443SOL    HW111228   3.657   6.362   2.109
 3443SOL    HW211229   3.538   6.472   2.126
 3444SOL     OW11230   4.873   5.546   0.389
 3444SOL    HW111231   4.922   5.632   0.407
 3444SOL    HW211232   4.906   5.475   0.452
 3445SOL     OW11233   5.979   5.400   3.156
 3445SOL    HW111234   5.894   5.351   3.140
 3445SOL    HW211235   6.041   5.385   3.079
 3446SOL     OW11236   6.023   0.639   1.583
 3446SOL    HW111237   6.102   0.673   1.633
 3446SOL    HW211238   5.984   0.712   1.527
 3447SOL     OW11239   5.409   6.757   0.726
 3447SOL    HW111240   5.471   6.774   0.648
 3447SOL    HW211241   5.389   6.843   0.772
 3448SOL     OW11242   3.418   6.666   6.271
 3448SOL    HW111243   3.466   6.667   6.183
 3448SOL    HW211244   3.482   6.641   6.344
 3449SOL     OW11245   5.814   5.124   4.942
 3449SOL    HW111246   5.913   5.139   4.943
 3449SOL    HW211247   5.773   5.173   4.865
 3450SOL     OW11248   0.899   1.583   6.483
 3450SOL    HW111249   0.948   1.668   6.462
 3450SOL    HW211250   0.846   1.595   6.567
 3451SOL     OW11251   2.455   5.910   6.957
 3451SOL    HW111252   2.497   5.924   0.024
 3451SOL    HW211253   2.527   5.901   6.887
 3452SOL     OW11254   5.622   0.345   6.685
 3452SOL    HW111255   5.718   0.328   6.705
 3452SOL    HW211256   5.613   0.381   6.592
 3453SOL     OW11257   5.616   5.458   6.611
 3453SOL    HW111258   5.658   5.466   6.701
 3453SOL    HW211259   5.642   5.371   6.569
 3454SOL     OW11260   0.628   3.869   4.823
 3454SOL    HW111261   0.534   3.837   4.815
 3454SOL    HW211262   0.631   3.946   4.886
 3455SOL     OW11263   2.929   1.814   3.890
 3455SOL    HW111264   2.978   1.828   3.803
 3455SOL    HW211265   2.992   1.831   3.966
 3456SOL     OW11266   5.079   4.974   2.068
 3456SOL    HW111267   5.005   4.910   2.049
 3456SOL    HW211268   5.163   4.923   2.089
 3457SOL     OW11269   4.687   5.798   4.218
 3457SOL    HW111270   4.595   5.826   4.246
 3457SOL    HW211271   4.754   5.851   4.271
 3458SOL     OW11272   4.178   1.371   2.294
 3458SOL    HW111273   4.091   1.411   2.324
 3458SOL    HW211274   4.219   1.429   2.223
 3459SOL     OW11275   4.645   2.142   3.153
 3459SOL    HW111276   4.593   2.216   3.111
 3459SOL    HW211277   4.707   2.102   3.086
 3460SOL     OW11278   3.122   1.575   6.279
 3460SOL    HW111279   3.094   1.507   6.211
 3460SOL    HW211280   3.222   1.579   6.282
 3461SOL     OW11281   4.716   3.657   6.731
 3461SOL    HW111282   4.760   3.703   6.808
 3461SOL    HW211283   4.633   3.612   6.763
 3462SOL     OW11284   0.878   4.290   5.312
 3462SOL    HW111285   0.823   4.309   5.393
 3462SOL    HW211286   0.881   4.371   5.254
 3463SOL     OW11287   0.620   4.037   0.976
 3463SOL    HW111288   0.637   4.116   1.036
 3463SOL    HW211289   0.636   3.953   1.026
 3464SOL     OW11290   0.280   4.653   6.630
 3464SOL    HW111291   0.183   4.668   6.613
 3464SOL    HW211292   0.332   4.735   6.605
 3465SOL     OW11293   1.895   2.616   1.950
 3465SOL    HW111294   1.899   2.712   1.979
 3465SOL    HW211295   1.880   2.610   1.852
 3466SOL     OW11296   6.756   5.371   6.374
 3466SOL    HW111297   6.786   5.439   6.307
 3466SOL    HW211298   6.835   5.318   6.405
 3467SOL     OW11299   1.559   2.887   6.509
 3467SOL    HW111300   1.568   2.904   6.411
 3467SOL    HW211301   1.648   2.898   6.553
 3468SOL     OW11302   4.051   6.243   2.594
 3468SOL    HW111303   4.100   6.172   2.543
 3468SOL    HW211304   4.109   6.278   2.667
 3469SOL     OW11305   6.192   1.348   2.895
 3469SOL    HW111306   6.274   1.318   2.845
 3469SOL    HW211307   6.218   1.411   2.967
 3470SOL     OW11308   6.866   4.824   0.885
 3470SOL    HW111309   6.855   4.813   0.787
 3470SOL    HW211310   6.780   4.806   0.931
 3471SOL     OW11311   4.315   5.321   4.620
 3471SOL    HW111312   4.243   5.257   4.592
 3471SOL    HW211313   4.273   5.398   4.669
 3472SOL     OW11314   2.356   0.642   2.796
 3472SOL    HW111315   2.370   0.740   2.808
 3472SOL    HW211316   2.444   0.597   2.783
 3473SOL     OW11317   6.630   1.471   6.428
 3473SOL    HW111318   6.717   1.440   6.391
 3473SOL    HW211319   6.569   1.497   6.353
 3474SOL     OW11320   3.291   5.227   2.388
 3474SOL    HW111321   3.236   5.310   2.383
 3474SOL    HW211322   3.272   5.170   2.308
 3475SOL     OW11323   1.047   6.379   4.300
 3475SOL    HW111324   1.131   6.423   4.269
 3475SOL    HW211325   0.983   6.448   4.334
 3476SOL     OW11326   3.190   1.166   3.235
 3476SOL    HW111327   3.259   1.237   3.224
 3476SOL    HW211328   3.129   1.165   3.156
 3477SOL     OW11329   3.053   5.627   1.555
 3477SOL    HW111330   3.130   5.688   1.539
 3477SOL    HW211331   3.074   5.535   1.520
 3478SOL     OW11332   2.638   5.587   5.720
 3478SOL    HW111333   2.662   5.526   5.644
 3478SOL    HW211334   2.719   5.604   5.776
 3479SOL     OW11335   0.735   0.296   3.338
 3479SOL    HW111336   0.738   0.232   3.261
 3479SOL    HW211337   0.672   0.261   3.407
 3480SOL     OW11338   6.593   0.240   4.581
 3480SOL    HW111339   6.689   0.260   4.566
 3480SOL    HW211340   6.577   0.141   4.569
 3481SOL     OW11341   4.610   0.208   0.001
 3481SOL    HW111342   4.520   0.174   0.029
 3481SOL    HW211343   4.650   0.260   0.076
 3482SOL     OW11344   5.742   1.486   0.479
 3482SOL    HW111345   5.840   1.505   0.464
 3482SOL    HW211346   5.688   1.545   0.419
 3483SOL     OW11347   3.638   0.646   1.625
 3483SOL    HW111348   3.700   0.713   1.584
 3483SOL    HW211349   3.543   0.677   1.614
 3484SOL     OW11350   3.115   3.860   1.931
 3484SOL    HW111351   3.184   3.793   1.903
 3484SOL    HW211352   3.067   3.893   1.850
 3485SOL     OW11353   0.970   0.528   4.958
 3485SOL    HW111354   1.050   0.490   4.912
 3485SOL    HW211355   0.999   0.593   5.028
 3486SOL     OW11356   3.184   1.432   2.563
 3486SOL    HW111357   3.214   1.475   2.478
 3486SOL    HW211358   3.084   1.431   2.567
 3487SOL     OW11359   6.421   1.979   5.973
 3487SOL    HW111360   6.466   1.898   6.012
 3487SOL    HW211361   6.491   2.043   5.941
 3488SOL     OW11362   5.876   3.137   4.099
 3488SOL    HW111363   5.793   3.187   4.074
 3488SOL    HW211364   5.937   3.133   4.021
 3489SOL     OW11365   2.592   6.426   0.706
 3489SOL    HW111366   2.610   6.392   0.613
 3489SOL    HW211367   2.678   6.442   0.753
 3490SOL     OW11368   4.445   4.030   6.670
 3490SOL    HW111369   4.466   4.092   6.746
 3490SOL    HW211370   4.519   4.033   6.603
 3491SOL     OW11371   6.164   3.055   4.180
 3491SOL    HW111372   6.224   3.112   4.235
 3491SOL    HW211373   6.085   3.108   4.151
 3492SOL     OW11374   1.003   5.756   0.758
 3492SOL    HW111375   0.931   5.815   0.720
 3492SOL    HW211376   1.082   5.812   0.783
 3493SOL     OW11377   6.632   5.556   0.030
 3493SOL    HW111378   6.542   5.592   0.055
 3493SOL    HW211379   6.621   5.479   6.990
 3494SOL     OW11380   4.039   0.095   1.450
 3494SOL    HW111381   3.967   0.132   1.508
 3494SOL    HW211382   4.030   7.018   1.446
 3495SOL     OW11383   4.310   4.630   2.481
 3495SOL    HW111384   4.330   4.533   2.495
 3495SOL    HW211385   4.385   4.685   2.517
 3496SOL     OW11386   0.438   3.174   1.311
 3496SOL    HW111387   0.452   3.077   1.290
 3496SOL    HW211388   0.526   3.219   1.324
 3497SOL     OW11389   3.996   0.086   2.952
 3497SOL    HW111390   4.066   0.046   2.892
 3497SOL    HW211391   3.957   0.167   2.908
 3498SOL     OW11392   2.528   2.308   0.521
 3498SOL    HW111393   2.576   2.325   0.434
 3498SOL    HW211394   2.518   2.394   0.570
 3499SOL     OW11395   5.467   2.652   4.546
 3499SOL    HW111396   5.534   2.633   4.474
 3499SOL    HW211397   5.474   2.582   4.617
 3500SOL     OW11398   0.122   4.351   5.474
 3500SOL    HW111399   0.168   4.298   5.403
 3500SOL    HW211400   0.188   4.407   5.523
 3501SOL     OW11401   0.325   5.070   4.205
 3501SOL    HW111402   0.302   5.088   4.110
 3501SOL    HW211403   0.310   4.974   4.226
 3502SOL     OW11404   0.039   2.585   2.211
 3502SOL    HW111405   0.088   2.615   2.129
 3502SOL    HW211406   6.965   2.570   2.189
 3503SOL     OW11407   5.540   5.853   5.545
 3503SOL    HW111408   5.520   5.939   5.592
 3503SOL    HW211409   5.522   5.863   5.447
 3504SOL     OW11410   3.009   2.926   1.620
 3504SOL    HW111411   3.032   2.877   1.704
 3504SOL    HW211412   2.935   2.878   1.572
 3505SOL     OW11413   5.718   5.361   5.060
 3505SOL    HW111414   5.778   5.286   5.088
 3505SOL    HW211415   5.699   5.420   5.139
 3506SOL     OW11416   4.391   5.804   5.279
 3506SOL    HW111417   4.413   5.706   5.286
 3506SOL    HW211418   4.297   5.819   5.310
 3507SOL     OW11419   1.853   0.536   6.875
 3507SOL    HW111420   1.876   0.469   6.804
 3507SOL    HW211421   1.874   0.497   6.965
 3508SOL     OW11422   3.832   2.638   5.961
 3508SOL    HW111423   3.891   2.637   6.042
 3508SOL    HW211424   3.884   2.667   5.881
 3509SOL     OW11425   5.229   6.405   6.467
 3509SOL    HW111426   5.324   6.374   6.466
 3509SOL    HW211427   5.225   6.496   6.509
 3510SOL     OW11428   1.970   2.809   1.498
 3510SOL    HW111429   2.059   2.855   1.496
 3510SOL    HW211430   1.919   2.832   1.415
 3511SOL     OW11431   1.744   4.569   6.967
 3511SOL    HW111432   1.824   4.626   6.984
 3511SOL    HW211433   1.718   4.521   0.029
 3512SOL     OW11434   0.866   4.445   0.526
 3512SOL    HW111435   0.896   4.353   0.551
 3512SOL    HW211436   0.928   4.482   0.456
 3513SOL     OW11437   5.891   4.442   0.901
 3513SOL    HW111438   5.868   4.519   0.961
 3513SOL    HW211439   5.851   4.456   0.811
 3514SOL     OW11440   0.500   0.952   1.926
 3514SOL    HW111441   0.569   1.023   1.938
 3514SOL    HW211442   0.544   0.862   1.930
 3515SOL     OW11443   3.828   6.428   2.582
 3515SOL    HW111444   3.920   6.391   2.574
 3515SOL    HW211445   3.775   6.404   2.501
 3516SOL     OW11446   4.305   0.842   1.358
 3516SOL    HW111447   4.299   0.816   1.262
 3516SOL    HW211448   4.261   0.931   1.372
 3517SOL     OW11449   0.404   2.037   6.711
 3517SOL    HW111450   0.494   2.080   6.707
 3517SOL    HW211451   0.366   2.046   6.803
 3518SOL     OW11452   5.037   3.928   5.150
 3518SOL    HW111453   4.979   3.852   5.181
 3518SOL    HW211454   5.024   4.006   5.211
 3519SOL     OW11455   1.895   0.379   6.612
 3519SOL    HW111456   1.865   0.435   6.534
 3519SOL    HW211457   1.829   0.306   6.628
 3520SOL     OW11458   3.635   4.659   1.137
 3520SOL    HW111459   3.727   4.696   1.147
 3520SOL    HW211460   3.624   4.581   1.198
 3521SOL     OW11461   5.647   3.142   1.645
 3521SOL    HW111462   5.566   3.096   1.683
 3521SOL    HW211463   5.659   3.230   1.690
 3522SOL     OW11464   3.303   5.742   2.103
 3522SOL    HW111465   3.276   5.789   2.019
 3522SOL    HW211466   3.397   5.768   2.127
 3523SOL     OW11467   3.132   4.628   5.501
 3523SOL    HW111468   3.132   4.537   5.459
 3523SOL    HW211469   3.226   4.656   5.521
 3524SOL     OW11470   2.489   0.536   1.167
 3524SOL    HW111471   2.394   0.510   1.153
 3524SOL    HW211472   2.549   0.473   1.118
 3525SOL     OW11473   0.628   3.478   1.826
 3525SOL    HW111474   0.660   3.525   1.908
 3525SOL    HW211475   0.528   3.478   1.824
 3526SOL     OW11476   1.357   0.113   3.887
 3526SOL    HW111477   1.428   0.148   3.826
 3526SOL    HW211478   1.297   0.188   3.915
 3527SOL     OW11479   5.634   2.977   5.443
 3527SOL    HW111480   5.576   2.992   5.363
 3527SOL    HW211481   5.668   2.883   5.443
 3528SOL     OW11482   1.063   5.870   3.526
 3528SOL    HW111483   1.013   5.811   3.462
 3528SOL    HW211484   1.120   5.814   3.586
 3529SOL     OW11485   4.162   0.048   5.833
 3529SOL    HW111486   4.076   7.019   5.830
 3529SOL    HW211487   4.163   0.115   5.758
 3530SOL     OW11488   1.862   5.005   2.512
 3530SOL    HW111489   1.802   4.988   2.590
 3530SOL    HW211490   1.901   5.097   2.519
 3531SOL     OW11491   5.034   4.487   1.062
 3531SOL    HW111492   4.951   4.471   1.116
 3531SOL    HW211493   5.110   4.509   1.124
 3532SOL     OW11494   3.333   0.643   0.330
 3532SOL    HW111495   3.334   0.742   0.318
 3532SOL    HW211496   3.246   0.615   0.371
 3533SOL     OW11497   1.279   2.026   3.621
 3533SOL    HW111498   1.189   2.066   3.605
 3533SOL    HW211499   1.318   1.997   3.533
 3534SOL     OW11500   5.752   1.049   5.388
 3534SOL    HW111501   5.819   1.077   5.457
 3534SOL    HW211502   5.690   0.981   5.428
 3535SOL     OW11503   6.975   5.501   0.770
 3535SOL    HW111504   0.016   5.450   0.711
 3535SOL    HW211505   7.016   5.588   0.795
 3536SOL     OW11506   2.173   3.113   3.862
 3536SOL    HW111507   2.221   3.054   3.797
 3536SOL    HW211508   2.186   3.208   3.836
 3537SOL     OW11509   2.838   4.547   0.472
 3537SOL    HW111510   2.773   4.586   0.407
 3537SOL    HW211511   2.855   4.451   0.449
 3538SOL     OW11512   2.886   0.856   4.011
 3538SOL    HW111513   2.806   0.837   4.069
 3538SOL    HW211514   2.915   0.772   3.966
 3539SOL     OW11515   5.911   3.507   5.849
 3539SOL    HW111516   5.858   3.480   5.768
 3539SOL    HW211517   6.007   3.482   5.836
 3540SOL     OW11518   2.348   1.974   6.293
 3540SOL    HW111519   2.282   1.920   6.240
 3540SOL    HW211520   2.438   1.969   6.249
 3541SOL     OW11521   2.697   2.905   6.900
 3541SOL    HW111522   2.665   2.890   6.806
 3541SOL    HW211523   2.620   2.893   6.963
 3542SOL     OW11524   5.983   2.805   0.396
 3542SOL    HW111525   6.070   2.763   0.367
 3542SOL    HW211526   5.922   2.812   0.317
 3543SOL     OW11527   1.690   3.012   3.663
 3543SOL    HW111528   1.659   3.107   3.662
 3543SOL    HW211529   1.743   2.994   3.745
 3544SOL     OW11530   2.090   4.578   6.371
 3544SOL    HW111531   2.054   4.572   6.464
 3544SOL    HW211532   2.055   4.660   6.327
 3545SOL     OW11533   3.991   4.832   0.269
 3545SOL    HW111534   4.002   4.778   0.186
 3545SOL    HW211535   3.894   4.838   0.293
 3546SOL     OW11536   6.699   5.157   2.992
 3546SOL    HW111537   6.633   5.232   2.996
 3546SOL    HW211538   6.710   5.127   2.897
 3547SOL     OW11539   6.693   4.463   5.315
 3547SOL    HW111540   6.692   4.559   5.346
 3547SOL    HW211541   6.787   4.433   5.302
 3548SOL     OW11542   5.595   0.619   4.959
 3548SOL    HW111543   5.519   0.560   4.984
 3548SOL    HW211544   5.650   0.639   5.040
 3549SOL     OW11545   2.058   4.666   5.555
 3549SOL    HW111546   2.145   4.631   5.590
 3549SOL    HW211547   2.049   4.642   5.459
 3550SOL     OW11548   5.808   2.914   4.221
 3550SOL    HW111549   5.768   2.880   4.136
 3550SOL    HW211550   5.839   3.008   4.209
 3551SOL     OW11551   3.348   1.889   5.075
 3551SOL    HW111552   3.362   1.981   5.038
 3551SOL    HW211553   3.395   1.822   5.017
 3552SOL     OW11554   5.781   5.598   2.127
 3552SOL    HW111555   5.734   5.667   2.071
 3552SOL    HW211556   5.714   5.540   2.172
 3553SOL     OW11557   3.463   5.324   6.261
 3553SOL    HW111558   3.447   5.423   6.265
 3553SOL    HW211559   3.389   5.276   6.307
 3554SOL     OW11560   4.869   3.054   0.403
 3554SOL    HW111561   4.878   3.121   0.329
 3554SOL    HW211562   4.890   3.098   0.491
 3555SOL     OW11563   1.774   1.533   4.242
 3555SOL    HW111564   1.741   1.567   4.330
 3555SOL    HW211565   1.830   1.603   4.198
 3556SOL     OW11566   3.523   1.059   3.464
 3556SOL    HW111567   3.553   1.055   3.368
 3556SOL    HW211568   3.541   0.972   3.508
 3557SOL     OW11569   1.181   6.754   3.681
 3557SOL    HW111570   1.210   6.711   3.767
 3557SOL    HW211571   1.215   6.848   3.678
 3558SOL     OW11572   2.756   4.638   1.184
 3558SOL    HW111573   2.702   4.562   1.220
 3558SOL    HW211574   2.700   4.721   1.184
 3559SOL     OW11575   1.521   5.940   4.345
 3559SOL    HW111576   1.487   5.916   4.254
 3559SOL    HW211577   1.610   5.898   4.360
 3560SOL     OW11578   1.961   4.863   3.308
 3560SOL    HW111579   1.920   4.858   3.217
 3560SOL    HW211580   2.057   4.835   3.303
 3561SOL     OW11581   5.116   4.752   5.578
 3561SOL    HW111582   5.075   4.712   5.660
 3561SOL    HW211583   5.215   4.743   5.583
 3562SOL     OW11584   3.336   1.952   4.093
 3562SOL    HW111585   3.402   1.879   4.077
 3562SOL    HW211586   3.351   1.991   4.184
 3563SOL     OW11587   6.180   1.837   5.957
 3563SOL    HW111588   6.265   1.889   5.962
 3563SOL    HW211589   6.109   1.892   5.915
 3564SOL     OW11590   0.543   4.884   3.246
 3564SOL    HW111591   0.483   4.963   3.236
 3564SOL    HW211592   0.494   4.802   3.217
 3565SOL     OW11593   3.372   5.388   2.907
 3565SOL    HW111594   3.417   5.319   2.963
 3565SOL    HW211595   3.414   5.389   2.816
 3566SOL     OW11596   6.051   0.836   5.809
 3566SOL    HW111597   6.103   0.921   5.810
 3566SOL    HW211598   5.957   0.853   5.839
 3567SOL     OW11599   0.710   2.185   5.940
 3567SOL    HW111600   0.788   2.179   6.002
 3567SOL    HW211601   0.703   2.278   5.904
 3568SOL     OW11602   6.521   3.718   4.659
 3568SOL    HW111603   6.469   3.799   4.686
 3568SOL    HW211604   6.503   3.696   4.563
 3569SOL     OW11605   3.118   1.906   5.464
 3569SOL    HW111606   3.178   1.986   5.471
 3569SOL    HW211607   3.153   1.833   5.522
 3570SOL     OW11608   4.643   0.554   6.162
 3570SOL    HW111609   4.649   0.516   6.254
 3570SOL    HW211610   4.722   0.526   6.109
 3571SOL     OW11611   0.594   5.195   0.065
 3571SOL    HW111612   0.552   5.189   6.997
 3571SOL    HW211613   0.583   5.109   0.113
 3572SOL     OW11614   5.570   4.000   3.370
 3572SOL    HW111615   5.655   3.958   3.336
 3572SOL    HW211616   5.507   4.012   3.294
 3573SOL     OW11617   0.384   4.735   3.946
 3573SOL    HW111618   0.457   4.723   3.878
 3573SOL    HW211619   0.303   4.771   3.900
 3574SOL     OW11620   0.170   4.531   0.158
 3574SOL    HW111621   0.089   4.504   0.106
 3574SOL    HW211622   0.219   4.602   0.107
 3575SOL     OW11623   5.626   4.601   2.898
 3575SOL    HW111624   5.549   4.623   2.958
 3575SOL    HW211625   5.620   4.506   2.869
 3576SOL     OW11626   2.220   1.584   5.686
 3576SOL    HW111627   2.143   1.526   5.714
 3576SOL    HW211628   2.228   1.583   5.587
 3577SOL     OW11629   0.858   3.745   5.840
 3577SOL    HW111630   0.815   3.748   5.930
 3577SOL    HW211631   0.958   3.749   5.850
 3578SOL     OW11632   3.628   2.541   0.721
 3578SOL    HW111633   3.663   2.467   0.779
 3578SOL    HW211634   3.536   2.518   0.690
 3579SOL     OW11635   6.722   3.944   4.689
 3579SOL    HW111636   6.649   3.914   4.751
 3579SOL    HW211637   6.739   3.872   4.621
 3580SOL     OW11638   5.799   2.317   1.072
 3580SOL    HW111639   5.730   2.302   1.143
 3580SOL    HW211640   5.791   2.246   1.002
 3581SOL     OW11641   6.692   6.964   4.062
 3581SOL    HW111642   6.651   7.018   4.135
 3581SOL    HW211643   6.714   0.000   3.984
 3582SOL     OW11644   0.785   1.537   5.761
 3582SOL    HW111645   0.875   1.572   5.735
 3582SOL    HW211646   0.720   1.613   5.766
 3583SOL     OW11647   1.109   3.955   6.636
 3583SOL    HW111648   1.056   3.973   6.553
 3583SOL    HW211649   1.082   3.866   6.674
 3584SOL     OW11650   5.874   5.374   0.366
 3584SOL    HW111651   5.789   5.329   0.338
 3584SOL    HW211652   5.865   5.473   0.353
 3585SOL     OW11653   4.046   5.713   5.073
 3585SOL    HW111654   3.994   5.647   5.019
 3585SOL    HW211655   4.065   5.794   5.017
 3586SOL     OW11656   0.356   2.059   5.008
 3586SOL    HW111657   0.428   1.994   5.032
 3586SOL    HW211658   0.295   2.018   4.941
 3587SOL     OW11659   2.902   4.971   6.470
 3587SOL    HW111660   2.846   4.932   6.397
 3587SOL    HW211661   2.981   4.911   6.487
 3588SOL     OW11662   1.084   2.849   4.420
 3588SOL    HW111663   1.061   2.853   4.517
 3588SOL    HW211664   1.016   2.794   4.372
 3589SOL     OW11665   4.237   1.692   4.145
 3589SOL    HW111666   4.291   1.738   4.074
 3589SOL    HW211667   4.219   1.756   4.219
 3590SOL     OW11668   0.369   3.740   5.835
 3590SOL    HW111669   0.454   3.793   5.842
 3590SOL    HW211670   0.320   3.766   5.752
 3591SOL     OW11671   5.036   3.582   6.045
 3591SOL    HW111672   4.953   3.597   5.993
 3591SOL    HW211673   5.086   3.668   6.054
 3592SOL     OW11674   6.245   4.280   2.562
 3592SOL    HW111675   6.198   4.208   2.612
 3592SOL    HW211676   6.251   4.255   2.465
 3593SOL     OW11677   1.921   5.766   3.634
 3593SOL    HW111678   1.879   5.722   3.712
 3593SOL    HW211679   1.999   5.821   3.664
 3594SOL     OW11680   4.007   0.970   2.989
 3594SOL    HW111681   4.046   1.035   2.924
 3594SOL    HW211682   3.945   1.017   3.051
 3595SOL     OW11683   2.656   5.470   6.371
 3595SOL    HW111684   2.589   5.405   6.406
 3595SOL    HW211685   2.684   5.442   6.279
 3596SOL     OW11686   6.470   2.436   2.980
 3596SOL    HW111687   6.436   2.357   3.031
 3596SOL    HW211688   6.437   2.432   2.886
 3597SOL     OW11689   1.965   0.068   5.328
 3597SOL    HW111690   2.036   0.063   5.257
 3597SOL    HW211691   1.995   0.016   5.408
 3598SOL     OW11692   1.355   5.940   6.227
 3598SOL    HW111693   1.404   5.932   6.140
 3598SOL    HW211694   1.412   5.905   6.301
 3599SOL     OW11695   0.714   1.790   5.637
 3599SOL    HW111696   0.739   1.886   5.651
 3599SOL    HW211697   0.621   1.786   5.598
 3600SOL     OW11698   1.261   3.506   0.030
 3600SOL    HW111699   1.280   3.600   0.005
 3600SOL    HW211700   1.196   3.466   6.987
 3601SOL     OW11701   6.116   4.396   0.503
 3601SOL    HW111702   6.102   4.298   0.516
 3601SOL    HW211703   6.044   4.432   0.443
 3602SOL     OW11704   1.405   1.957   0.494
 3602SOL    HW111705   1.306   1.944   0.486
 3602SOL    HW211706   1.425   2.013   0.575
 3603SOL     OW11707   3.412   6.383   3.943
 3603SOL    HW111708   3.413   6.283   3.933
 3603SOL    HW211709   3.479   6.411   4.011
 3604SOL     OW11710   0.087   4.908   4.023
 3604SOL    HW111711   0.142   4.983   3.986
 3604SOL    HW211712   0.094   4.907   4.123
 3605SOL     OW11713   5.326   4.245   5.325
 3605SOL    HW111714   5.232   4.233   5.356
 3605SOL    HW211715   5.366   4.325   5.370
 3606SOL     OW11716   7.019   6.133   5.496
 3606SOL    HW111717   0.003   6.218   5.445
 3606SOL    HW211718   0.075   6.075   5.476
 3607SOL     OW11719   5.317   6.331   1.283
 3607SOL    HW111720   5.315   6.400   1.211
 3607SOL    HW211721   5.345   6.243   1.245
 3608SOL     OW11722   0.039   1.997   2.720
 3608SOL    HW111723   6.984   2.056   2.694
 3608SOL    HW211724   0.095   2.045   2.787
 3609SOL     OW11725   0.315   0.418   4.069
 3609SOL    HW111726   0.279   0.443   4.159
 3609SOL    HW211727   0.405   0.375   4.080
 3610SOL     OW11728   1.154   0.371   5.725
 3610SOL    HW111729   1.252   0.389   5.734
 3610SOL    HW211730   1.125   0.392   5.632
 3611SOL     OW11731   4.100   6.611   6.099
 3611SOL    HW111732   4.170   6.651   6.160
 3611SOL    HW211733   4.026   6.676   6.086
 3612SOL     OW11734   5.854   0.455   6.104
 3612SOL    HW111735   5.812   0.370   6.135
 3612SOL    HW211736   5.794   0.500   6.038
 3613SOL     OW11737   4.284   4.981   2.023
 3613SOL    HW111738   4.249   4.944   2.109
 3613SOL    HW211739   4.384   4.987   2.027
 3614SOL     OW11740   3.499   3.758   2.945
 3614SOL    HW111741   3.582   3.704   2.956
 3614SOL    HW211742   3.464   3.747   2.852
 3615SOL     OW11743   5.337   6.113   0.349
 3615SOL    HW111744   5.289   6.103   0.436
 3615SOL    HW211745   5.304   6.045   0.284
 3616SOL     OW11746   0.009   2.836   5.818
 3616SOL    HW111747   7.000   2.929   5.797
 3616SOL    HW211748   6.964   2.770   5.785
 3617SOL     OW11749   4.699   0.631   6.935
 3617SOL    HW111750   4.722   0.678   7.021
 3617SOL    HW211751   4.770   0.564   6.915
 3618SOL     OW11752   2.059   1.897   4.881
 3618SOL    HW111753   1.969   1.893   4.838
 3618SOL    HW211754   2.130   1.909   4.811
 3619SOL     OW11755   6.160   3.495   4.237
 3619SOL    HW111756   6.090   3.518   4.170
 3619SOL    HW211757   6.204   3.409   4.211
 3620SOL     OW11758   6.128   6.363   6.539
 3620SOL    HW111759   6.169   6.442   6.586
 3620SOL    HW211760   6.053   6.394   6.481
 3621SOL     OW11761   3.371   2.626   5.682
 3621SOL    HW111762   3.442   2.575   5.730
 3621SOL    HW211763   3.285   2.574   5.684
 3622SOL     OW11764   2.019   2.587   4.155
 3622SOL    HW111765   1.927   2.591   4.116
 3622SOL    HW211766   2.083   2.636   4.095
 3623SOL     OW11767   6.372   5.621   4.289
 3623SOL    HW111768   6.451   5.576   4.331
 3623SOL    HW211769   6.382   5.720   4.297
 3624SOL     OW11770   1.271   6.582   2.489
 3624SOL    HW111771   1.348   6.614   2.543
 3624SOL    HW211772   1.305   6.532   2.409
 3625SOL     OW11773   5.205   3.992   6.963
 3625SOL    HW111774   5.180   3.896   6.946
 3625SOL    HW211775   5.257   4.027   6.884
 3626SOL     OW11776   1.474   3.667   5.693
 3626SOL    HW111777   1.565   3.669   5.653
 3626SOL    HW211778   1.415   3.607   5.638
 3627SOL     OW11779   3.333   2.925   3.724
 3627SOL    HW111780   3.278   2.858   3.674
 3627SOL    HW211781   3.430   2.906   3.708
 3628SOL     OW11782   1.310   0.348   1.783
 3628SOL    HW111783   1.305   0.267   1.841
 3628SOL    HW211784   1.395   0.398   1.802
 3629SOL     OW11785   6.805   2.375   4.173
 3629SOL    HW111786   6.746   2.318   4.231
 3629SOL    HW211787   6.889   2.397   4.223
 3630SOL     OW11788   5.153   2.532   3.311
 3630SOL    HW111789   5.087   2.482   3.254
 3630SOL    HW211790   5.106   2.571   3.390
 3631SOL     OW11791   1.800   0.423   3.537
 3631SOL    HW111792   1.816   0.427   3.438
 3631SOL    HW211793   1.857   0.351   3.577
 3632SOL     OW11794   4.904   6.728   1.051
 3632SOL    HW111795   4.945   6.660   1.111
 3632SOL    HW211796   4.807   6.708   1.038
 3633SOL     OW11797   3.359   1.654   5.718
 3633SOL    HW111798   3.265   1.647   5.686
 3633SOL    HW211799   3.375   1.586   5.790
 3634SOL     OW11800   0.357   5.471   4.486
 3634SOL    HW111801   0.359   5.433   4.579
 3634SOL    HW211802   0.372   5.397   4.420
 3635SOL     OW11803   2.799   6.154   6.310
 3635SOL    HW111804   2.720   6.160   6.372
 3635SOL    HW211805   2.826   6.246   6.281
 3636SOL     OW11806   0.284   5.561   6.613
 3636SOL    HW111807   0.362   5.608   6.573
 3636SOL    HW211808   0.209   5.626   6.625
 3637SOL     OW11809   6.026   1.799   1.412
 3637SOL    HW111810   6.012   1.702   1.433
 3637SOL    HW211811   6.115   1.828   1.447
 3638SOL     OW11812   0.385   4.768   4.658
 3638SOL    HW111813   0.303   4.823   4.675
 3638SOL    HW211814   0.455   4.825   4.616
 3639SOL     OW11815   3.349   4.486   1.562
 3639SOL    HW111816   3.430   4.442   1.601
 3639SOL    HW211817   3.267   4.449   1.606
 3640SOL     OW11818   3.288   0.889   0.044
 3640SOL    HW111819   3.304   0.895   0.142
 3640SOL    HW211820   3.347   0.817   0.005
 3641SOL     OW11821   5.378   3.045   4.266
 3641SOL    HW111822   5.315   3.007   4.334
 3641SOL    HW211823   5.408   2.973   4.204
 3642SOL     OW11824   4.669   0.847   0.746
 3642SOL    HW111825   4.593   0.782   0.753
 3642SOL    HW211826   4.680   0.875   0.651
 3643SOL     OW11827   3.290   5.653   4.800
 3643SOL    HW111828   3.251   5.601   4.724
 3643SOL    HW211829   3.225   5.657   4.875
 3644SOL     OW11830   6.472   1.461   1.480
 3644SOL    HW111831   6.538   1.536   1.475
 3644SOL    HW211832   6.418   1.470   1.563
 3645SOL     OW11833   6.958   3.240   3.810
 3645SOL    HW111834   6.997   3.332   3.816
 3645SOL    HW211835   6.874   3.235   3.864
 3646SOL     OW11836   6.092   4.075   6.771
 3646SOL    HW111837   6.085   3.988   6.820
 3646SOL    HW211838   6.146   4.061   6.687
 3647SOL     OW11839   2.185   3.249   0.127
 3647SOL    HW111840   2.130   3.279   0.205
 3647SOL    HW211841   2.243   3.325   0.096
 3648SOL     OW11842   3.073   5.060   2.889
 3648SOL    HW111843   3.077   5.160   2.885
 3648SOL    HW211844   3.129   5.021   2.816
 3649SOL     OW11845   5.210   3.217   1.996
 3649SOL    HW111846   5.262   3.284   1.943
 3649SOL    HW211847   5.112   3.236   1.986
 3650SOL     OW11848   0.213   4.834   1.013
 3650SOL    HW111849   0.308   4.862   0.996
 3650SOL    HW211850   0.176   4.886   1.090
 3651SOL     OW11851   0.569   6.958   3.797
 3651SOL    HW111852   0.491   7.019   3.777
 3651SOL    HW211853   0.651   6.995   3.754
 3652SOL     OW11854   5.999   6.030   3.356
 3652SOL    HW111855   5.950   6.080   3.428
 3652SOL    HW211856   5.933   5.997   3.288
 3653SOL     OW11857   0.573   1.555   4.372
 3653SOL    HW111858   0.647   1.493   4.398
 3653SOL    HW211859   0.486   1.516   4.401
 3654SOL     OW11860   2.331   5.551   0.591
 3654SOL    HW111861   2.247   5.605   0.580
 3654SOL    HW211862   2.403   5.610   0.628
 3655SOL     OW11863   2.114   6.987   3.295
 3655SOL    HW111864   2.066   0.037   3.245
 3655SOL    HW211865   2.113   7.007   3.393
 3656SOL     OW11866   1.031   3.421   2.115
 3656SOL    HW111867   0.941   3.404   2.154
 3656SOL    HW211868   1.067   3.337   2.074
 3657SOL     OW11869   4.915   5.040   6.180
 3657SOL    HW111870   4.957   4.979   6.248
 3657SOL    HW211871   4.925   5.000   6.089
 3658SOL     OW11872   1.498   5.972   4.776
 3658SOL    HW111873   1.514   6.045   4.710
 3658SOL    HW211874   1.538   5.887   4.743
 3659SOL     OW11875   1.965   3.444   5.258
 3659SOL    HW111876   1.951   3.353   5.219
 3659SOL    HW211877   1.995   3.507   5.186
 3660SOL     OW11878   4.563   0.257   3.243
 3660SOL    HW111879   4.599   0.186   3.183
 3660SOL    HW211880   4.628   0.276   3.316
 3661SOL     OW11881   5.333   1.215   6.090
 3661SOL    HW111882   5.357   1.265   6.007
 3661SOL    HW211883   5.339   1.276   6.168
 3662SOL     OW11884   4.444   0.520   3.877
 3662SOL    HW111885   4.379   0.561   3.813
 3662SOL    HW211886   4.404   0.517   3.968
 3663SOL     OW11887   1.529   2.725   0.592
 3663SOL    HW111888   1.609   2.724   0.652
 3663SOL    HW211889   1.538   2.653   0.523
 3664SOL     OW11890   5.280   1.933   2.330
 3664SOL    HW111891   5.260   1.933   2.428
 3664SOL    HW211892   5.339   2.010   2.307
 3665SOL     OW11893   2.139   5.661   5.315
 3665SOL    HW111894   2.225   5.613   5.330
 3665SOL    HW211895   2.067   5.619   5.369
 3666SOL     OW11896   1.091   3.903   3.608
 3666SOL    HW111897   0.997   3.928   3.586
 3666SOL    HW211898   1.153   3.943   3.540
 3667SOL     OW11899   6.972   1.379   1.804
 3667SOL    HW111900   6.877   1.364   1.779
 3667SOL    HW211901   0.006   1.305   1.766
 3668SOL     OW11902   1.569   1.455   2.315
 3668SOL    HW111903   1.469   1.450   2.314
 3668SOL    HW211904   1.597   1.550   2.328
 3669SOL     OW11905   5.570   1.384   3.001
 3669SOL    HW111906   5.556   1.428   3.090
 3669SOL    HW211907   5.648   1.322   3.007
 3670SOL     OW11908   2.530   4.545   0.457
 3670SOL    HW111909   2.537   4.579   0.364
 3670SOL    HW211910   2.469   4.603   0.510
 3671SOL     OW11911   5.969   0.676   3.927
 3671SOL    HW111912   6.064   0.691   3.902
 3671SOL    HW211913   5.910   0.738   3.875
 3672SOL     OW11914   5.598   2.221   1.596
 3672SOL    HW111915   5.571   2.126   1.577
 3672SOL    HW211916   5.546   2.254   1.675
 3673SOL     OW11917   4.230   6.476   6.590
 3673SOL    HW111918   4.296   6.544   6.559
 3673SOL    HW211919   4.211   6.490   6.688
 3674SOL     OW11920   0.788   0.145   5.243
 3674SOL    HW111921   0.730   0.222   5.217
 3674SOL    HW211922   0.881   0.160   5.208
 3675SOL     OW11923   1.988   3.309   4.612
 3675SOL    HW111924   1.909   3.371   4.608
 3675SOL    HW211925   2.051   3.331   4.538
 3676SOL     OW11926   5.459   4.633   4.244
 3676SOL    HW111927   5.378   4.657   4.298
 3676SOL    HW211928   5.514   4.567   4.294
 3677SOL     OW11929   1.810   6.051   3.032
 3677SOL    HW111930   1.863   6.093   3.107
 3677SOL    HW211931   1.726   6.103   3.018
 3678SOL     OW11932   7.009   2.389   5.103
 3678SOL    HW111933   0.069   2.432   5.068
 3678SOL    HW211934   6.938   2.458   5.118
 3679SOL     OW11935   1.518   0.487   2.771
 3679SOL    HW111936   1.523   0.487   2.671
 3679SOL    HW211937   1.498   0.394   2.804
 3680SOL     OW11938   5.603   2.222   3.684
 3680SOL    HW111939   5.554   2.307   3.699
 3680SOL    HW211940   5.539   2.151   3.652
 3681SOL     OW11941   0.108   0.302   5.761
 3681SOL    HW111942   0.158   0.251   5.691
 3681SOL    HW211943   0.013   0.314   5.731
 3682SOL     OW11944   6.141   2.381   6.828
 3682SOL    HW111945   6.092   2.467   6.838
 3682SOL    HW211946   6.093   2.323   6.762
 3683SOL     OW11947   0.190   0.203   3.065
 3683SOL    HW111948   0.277   0.228   3.108
 3683SOL    HW211949   0.115   0.214   3.130
 3684SOL     OW11950   2.047   4.679   6.921
 3684SOL    HW111951   2.080   4.700   7.013
 3684SOL    HW211952   2.077   4.750   6.858
 3685SOL     OW11953   6.595   6.550   6.415
 3685SOL    HW111954   6.507   6.566   6.370
 3685SOL    HW211955   6.589   6.578   6.511
 3686SOL     OW11956   5.703   5.968   3.845
 3686SOL    HW111957   5.616   5.982   3.798
 3686SOL    HW211958   5.768   5.925   3.782
 3687SOL     OW11959   3.645   5.884   5.035
 3687SOL    HW111960   3.615   5.796   4.998
 3687SOL    HW211961   3.567   5.945   5.043
 3688SOL     OW11962   6.394   3.767   6.546
 3688SOL    HW111963   6.298   3.793   6.543
 3688SOL    HW211964   6.442   3.823   6.614
 3689SOL     OW11965   2.158   0.460   6.512
 3689SOL    HW111966   2.069   0.431   6.546
 3689SOL    HW211967   2.174   0.421   6.421
 3690SOL     OW11968   5.105   6.146   0.504
 3690SOL    HW111969   5.093   6.213   0.431
 3690SOL    HW211970   5.015   6.110   0.531
 3691SOL     OW11971   2.948   3.100   0.183
 3691SOL    HW111972   3.014   3.111   0.108
 3691SOL    HW211973   2.992   3.124   0.270
 3692SOL     OW11974   0.277   5.703   5.046
 3692SOL    HW111975   0.369   5.722   5.082
 3692SOL    HW211976   0.284   5.641   4.968
 3693SOL     OW11977   2.120   2.771   2.931
 3693SOL    HW111978   2.080   2.680   2.939
 3693SOL    HW211979   2.193   2.769   2.862
 3694SOL     OW11980   1.135   5.538   2.988
 3694SOL    HW111981   1.144   5.508   3.083
 3694SOL    HW211982   1.119   5.459   2.929
 3695SOL     OW11983   6.755   3.096   1.684
 3695SOL    HW111984   6.796   3.127   1.770
 3695SOL    HW211985   6.733   2.999   1.692
 3696SOL     OW11986   3.815   5.314   5.239
 3696SOL    HW111987   3.903   5.353   5.267
 3696SOL    HW211988   3.757   5.386   5.202
 3697SOL     OW11989   0.293   6.219   2.945
 3697SOL    HW111990   0.386   6.182   2.942
 3697SOL    HW211991   0.297   6.319   2.939
 3698SOL     OW11992   2.394   0.731   4.935
 3698SOL    HW111993   2.314   0.778   4.899
 3698SOL    HW211994   2.441   0.682   4.861
 3699SOL     OW11995   0.685   3.110   3.974
 3699SOL    HW111996   0.736   3.025   3.975
 3699SOL    HW211997   0.688   3.152   4.065
 3700SOL     OW11998   0.182   0.070   5.137
 3700SOL    HW111999   0.096   0.086   5.089
 3700SOL    HW212000   0.226   0.157   5.158
 3701SOL     OW12001   1.606   0.530   3.931
 3701SOL    HW112002   1.609   0.628   3.949
 3701SOL    HW212003   1.558   0.512   3.845
 3702SOL     OW12004   5.500   6.382   2.583
 3702SOL    HW112005   5.551   6.403   2.667
 3702SOL    HW212006   5.443   6.460   2.559
 3703SOL     OW12007   5.097   1.219   6.260
 3703SOL    HW112008   5.070   1.179   6.173
 3703SOL    HW212009   5.197   1.225   6.264
 3704SOL     OW12010   3.444   1.353   1.869
 3704SOL    HW112011   3.495   1.409   1.804
 3704SOL    HW212012   3.488   1.356   1.959
 3705SOL     OW12013   4.515   5.535   3.534
 3705SOL    HW112014   4.473   5.470   3.597
 3705SOL    HW212015   4.579   5.594   3.583
 3706SOL     OW12016   1.526   3.609   5.962
 3706SOL    HW112017   1.615   3.565   5.973
 3706SOL    HW212018   1.520   3.649   5.870
 3707SOL     OW12019   5.311   3.995   5.232
 3707SOL    HW112020   5.318   4.088   5.267
 3707SOL    HW212021   5.218   3.977   5.202
 3708SOL     OW12022   6.716   0.960   6.081
 3708SOL    HW112023   6.620   0.937   6.067
 3708SOL    HW212024   6.774   0.892   6.036
 3709SOL     OW12025   3.444   0.764   1.099
 3709SOL    HW112026   3.521   0.768   1.034
 3709SOL    HW212027   3.479   0.744   1.190
 3710SOL     OW12028   6.589   5.397   6.812
 3710SOL    HW112029   6.687   5.388   6.794
 3710SOL    HW212030   6.538   5.382   6.727
 3711SOL     OW12031   0.579   0.167   3.523
 3711SOL    HW112032   0.669   0.125   3.528
 3711SOL    HW212033   0.515   0.104   3.479
 3712SOL     OW12034   0.148   6.103   6.890
 3712SOL    HW112035   0.058   6.146   6.882
 3712SOL    HW212036   0.151   6.020   6.836
 3713SOL     OW12037   1.116   6.625   5.170
 3713SOL    HW112038   1.167   6.665   5.247
 3713SOL    HW212039   1.175   6.620   5.090
 3714SOL     OW12040   4.675   5.704   5.809
 3714SOL    HW112041   4.704   5.796   5.782
 3714SOL    HW212042   4.589   5.682   5.762
 3715SOL     OW12043   6.137   4.073   2.690
 3715SOL    HW112044   6.072   4.039   2.623
 3715SOL    HW212045   6.173   3.996   2.743
 3716SOL     OW12046   6.296   6.819   5.280
 3716SOL    HW112047   6.251   6.827   5.190
 3716SOL    HW212048   6.281   6.902   5.332
 3717SOL     OW12049   5.611   5.978   6.937
 3717SOL    HW112050   5.620   5.898   6.878
 3717SOL    HW212051   5.689   5.981   7.000
 3718SOL     OW12052   1.663   0.730   0.306
 3718SOL    HW112053   1.589   0.688   0.253
 3718SOL    HW212054   1.729   0.659   0.331
 3719SOL     OW12055   5.401   4.641   0.918
 3719SOL    HW112056   5.400   4.541   0.909
 3719SOL    HW212057   5.400   4.682   0.826
 3720SOL     OW12058   6.223   2.159   5.917
 3720SOL    HW112059   6.161   2.156   5.996
 3720SOL    HW212060   6.291   2.086   5.925
 3721SOL     OW12061   5.451   4.165   2.110
 3721SOL    HW112062   5.486   4.096   2.047
 3721SOL    HW212063   5.391   4.228   2.060
 3722SOL     OW12064   6.560   6.120   1.263
 3722SOL    HW112065   6.626   6.067   1.209
 3722SOL    HW212066   6.486   6.151   1.204
 3723SOL     OW12067   6.596   6.196   2.231
 3723SOL    HW112068   6.577   6.209   2.134
 3723SOL    HW212069   6.582   6.282   2.280
 3724SOL     OW12070   1.895   3.839   5.039
 3724SOL    HW112071   1.976   3.866   4.986
 3724SOL    HW212072   1.815   3.840   4.980
 3725SOL     OW12073   6.048   4.931   1.205
 3725SOL    HW112074   6.138   4.890   1.212
 3725SOL    HW212075   6.006   4.906   1.118
 3726SOL     OW12076   6.133   4.290   0.930
 3726SOL    HW112077   6.059   4.356   0.934
 3726SOL    HW212078   6.122   4.232   0.849
 3727SOL     OW12079   6.631   2.034   5.315
 3727SOL    HW112080   6.620   1.967   5.241
 3727SOL    HW212081   6.642   1.986   5.402
 3728SOL     OW12082   0.792   3.967   6.802
 3728SOL    HW112083   0.735   4.017   6.867
 3728SOL    HW212084   0.875   4.019   6.783
 3729SOL     OW12085   1.262   1.914   3.898
 3729SOL    HW112086   1.258   1.942   3.802
 3729SOL    HW212087   1.174   1.930   3.941
 3730SOL     OW12088   2.773   4.879   6.259
 3730SOL    HW112089   2.820   4.834   6.184
 3730SOL    HW212090   2.675   4.861   6.252
 3731SOL     OW12091   5.749   0.200   0.914
 3731SOL    HW112092   5.687   0.122   0.925
 3731SOL    HW212093   5.843   0.170   0.933
 3732SOL     OW12094   2.967   1.915   6.157
 3732SOL    HW112095   3.000   1.991   6.213
 3732SOL    HW212096   3.016   1.832   6.182
 3733SOL     OW12097   1.444   3.530   2.302
 3733SOL    HW112098   1.344   3.523   2.301
 3733SOL    HW212099   1.472   3.616   2.259
 3734SOL     OW12100   4.860   1.301   2.031
 3734SOL    HW112101   4.915   1.381   2.008
 3734SOL    HW212102   4.791   1.286   1.960
 3735SOL     OW12103   2.389   0.766   3.338
 3735SOL    HW112104   2.423   0.860   3.341
 3735SOL    HW212105   2.466   0.703   3.336
 3736SOL     OW12106   6.971   2.508   0.208
 3736SOL    HW112107   0.022   2.486   0.144
 3736SOL    HW212108   6.913   2.427   0.220
 3737SOL     OW12109   4.620   0.329   3.546
 3737SOL    HW112110   4.591   0.263   3.615
 3737SOL    HW212111   4.553   0.403   3.541
 3738SOL     OW12112   0.275   5.931   1.937
 3738SOL    HW112113   0.181   5.898   1.928
 3738SOL    HW212114   0.287   6.011   1.879
 3739SOL     OW12115   2.786   4.555   1.618
 3739SOL    HW112116   2.859   4.535   1.683
 3739SOL    HW212117   2.703   4.579   1.668
 3740SOL     OW12118   6.059   0.860   0.442
 3740SOL    HW112119   5.965   0.845   0.410
 3740SOL    HW212120   6.061   0.937   0.505
 3741SOL     OW12121   5.740   3.449   1.482
 3741SOL    HW112122   5.736   3.394   1.399
 3741SOL    HW212123   5.727   3.545   1.459
 3742SOL     OW12124   2.293   2.081   6.701
 3742SOL    HW112125   2.282   1.998   6.646
 3742SOL    HW212126   2.204   2.121   6.719
 3743SOL     OW12127   5.214   2.919   1.050
 3743SOL    HW112128   5.194   2.904   0.954
 3743SOL    HW212129   5.181   2.842   1.104
 3744SOL     OW12130   0.862   5.875   3.190
 3744SOL    HW112131   0.912   5.811   3.247
 3744SOL    HW212132   0.769   5.887   3.225
 3745SOL     OW12133   3.630   5.159   1.985
 3745SOL    HW112134   3.605   5.063   1.970
 3745SOL    HW212135   3.548   5.215   1.992
 3746SOL     OW12136   5.565   0.824   3.071
 3746SOL    HW112137   5.487   0.875   3.108
 3746SOL    HW212138   5.643   0.886   3.060
 3747SOL     OW12139   2.619   6.832   5.587
 3747SOL    HW112140   2.702   6.778   5.585
 3747SOL    HW212141   2.541   6.776   5.558
 3748SOL     OW12142   6.234   0.528   1.330
 3748SOL    HW112143   6.232   0.454   1.397
 3748SOL    HW212144   6.311   0.588   1.348
 3749SOL     OW12145   1.610   6.086   4.065
 3749SOL    HW112146   1.656   6.069   4.153
 3749SOL    HW212147   1.549   6.164   4.075
 3750SOL     OW12148   1.471   3.914   0.519
 3750SOL    HW112149   1.505   4.007   0.502
 3750SOL    HW212150   1.461   3.866   0.432
 3751SOL     OW12151   0.011   3.729   1.845
 3751SOL    HW112152   0.021   3.635   1.876
 3751SOL    HW212153   0.044   3.738   1.751
 3752SOL     OW12154   5.427   0.827   6.700
 3752SOL    HW112155   5.355   0.827   6.769
 3752SOL    HW212156   5.424   0.914   6.650
 3753SOL     OW12157   6.604   0.495   5.980
 3753SOL    HW112158   6.689   0.444   5.997
 3753SOL    HW212159   6.547   0.444   5.915
 3754SOL     OW12160   2.208   0.469   1.145
 3754SOL    HW112161   2.210   0.381   1.097
 3754SOL    HW212162   2.130   0.471   1.208
 3755SOL     OW12163   4.714   4.901   5.121
 3755SOL    HW112164   4.628   4.858   5.097
 3755SOL    HW212165   4.708   4.939   5.214
 3756SOL     OW12166   3.096   5.163   6.309
 3756SOL    HW112167   3.010   5.207   6.336
 3756SOL    HW212168   3.144   5.130   6.391
 3757SOL     OW12169   6.445   5.067   1.852
 3757SOL    HW112170   6.536   5.028   1.869
 3757SOL    HW212171   6.375   5.004   1.887
 3758SOL     OW12172   2.190   1.263   4.936
 3758SOL    HW112173   2.173   1.260   4.837
 3758SOL    HW212174   2.268   1.323   4.954
 3759SOL     OW12175   4.283   0.372   6.136
 3759SOL    HW112176   4.353   0.424   6.088
 3759SOL    HW212177   4.212   0.434   6.169
 3760SOL     OW12178   1.409   1.488   4.127
 3760SOL    HW112179   1.324   1.541   4.126
 3760SOL    HW212180   1.483   1.542   4.087
 3761SOL     OW12181   6.765   1.384   5.484
 3761SOL    HW112182   6.826   1.393   5.405
 3761SOL    HW212183   6.692   1.319   5.463
 3762SOL     OW12184   2.016   4.278   0.940
 3762SOL    HW112185   2.037   4.215   0.865
 3762SOL    HW212186   2.044   4.371   0.915
 3763SOL     OW12187   0.328   3.352   6.980
 3763SOL    HW112188   0.242   3.304   6.998
 3763SOL    HW212189   0.314   3.421   6.910
 3764SOL     OW12190   1.156   6.832   2.601
 3764SOL    HW112191   1.165   6.870   2.509
 3764SOL    HW212192   1.184   6.736   2.600
 3765SOL     OW12193   5.514   1.690   0.955
 3765SOL    HW112194   5.523   1.742   1.040
 3765SOL    HW212195   5.594   1.631   0.943
 3766SOL     OW12196   1.972   2.139   4.466
 3766SOL    HW112197   2.025   2.161   4.385
 3766SOL    HW212198   2.022   2.168   4.548
 3767SOL     OW12199   3.313   4.421   6.750
 3767SOL    HW112200   3.393   4.371   6.782
 3767SOL    HW212201   3.253   4.442   6.827
 3768SOL     OW12202   0.629   0.000   4.613
 3768SOL    HW112203   0.557   6.962   4.580
 3768SOL    HW212204   0.686   0.028   4.536
 3769SOL     OW12205   6.099   5.143   4.928
 3769SOL    HW112206   6.138   5.080   4.995
 3769SOL    HW212207   6.108   5.237   4.961
 3770SOL     OW12208   0.945   0.513   0.065
 3770SOL    HW112209   0.859   0.559   0.083
 3770SOL    HW212210   0.930   0.439   7.022
 3771SOL     OW12211   5.389   4.043   0.533
 3771SOL    HW112212   5.347   4.110   0.594
 3771SOL    HW212213   5.380   3.952   0.573
 3772SOL     OW12214   0.457   0.479   0.193
 3772SOL    HW112215   0.387   0.498   0.124
 3772SOL    HW212216   0.450   0.383   0.221
 3773SOL     OW12217   5.745   3.880   5.266
 3773SOL    HW112218   5.807   3.823   5.211
 3773SOL    HW212219   5.651   3.851   5.251
 3774SOL     OW12220   5.795   5.620   1.757
 3774SOL    HW112221   5.726   5.554   1.730
 3774SOL    HW212222   5.773   5.710   1.719
 3775SOL     OW12223   4.900   5.364   2.597
 3775SOL    HW112224   4.955   5.422   2.537
 3775SOL    HW212225   4.817   5.414   2.623
 3776SOL     OW12226   3.954   2.188   6.485
 3776SOL    HW112227   3.893   2.203   6.563
 3776SOL    HW212228   4.011   2.269   6.472
 3777SOL     OW12229   3.194   4.928   3.503
 3777SOL    HW112230   3.291   4.904   3.494
 3777SOL    HW212231   3.185   5.014   3.553
 3778SOL     OW12232   2.555   5.078   2.766
 3778SOL    HW112233   2.625   5.086   2.694
 3778SOL    HW212234   2.476   5.135   2.742
 3779SOL     OW12235   0.526   4.931   1.035
 3779SOL    HW112236   0.552   4.971   0.948
 3779SOL    HW212237   0.579   4.847   1.051
 3780SOL     OW12238   6.269   4.583   4.756
 3780SOL    HW112239   6.323   4.540   4.684
 3780SOL    HW212240   6.196   4.637   4.716
 3781SOL     OW12241   0.195   6.584   3.496
 3781SOL    HW112242   0.214   6.499   3.546
 3781SOL    HW212243   0.267   6.599   3.429
 3782SOL     OW12244   2.584   0.500   2.846
 3782SOL    HW112245   2.598   0.491   2.747
 3782SOL    HW212246   2.595   0.411   2.890
 3783SOL     OW12247   5.851   5.307   4.069
 3783SOL    HW112248   5.881   5.241   4.138
 3783SOL    HW212249   5.837   5.260   3.982
 3784SOL     OW12250   5.359   2.850   2.405
 3784SOL    HW112251   5.271   2.828   2.448
 3784SOL    HW212252   5.342   2.886   2.313
 3785SOL     OW12253   1.488   3.667   5.368
 3785SOL    HW112254   1.579   3.629   5.355
 3785SOL    HW212255   1.494   3.749   5.426
 3786SOL     OW12256   2.252   4.101   3.038
 3786SOL    HW112257   2.336   4.100   3.092
 3786SOL    HW212258   2.268   4.151   2.953
 3787SOL     OW12259   5.804   1.202   2.221
 3787SOL    HW112260   5.711   1.236   2.235
 3787SOL    HW212261   5.805   1.102   2.226
 3788SOL     OW12262   0.453   4.552   5.023
 3788SOL    HW112263   0.388   4.588   5.091
 3788SOL    HW212264   0.405   4.535   4.937
 3789SOL     OW12265   0.724   3.996   4.529
 3789SOL    HW112266   0.699   4.001   4.625
 3789SOL    HW212267   0.817   4.032   4.516
 3790SOL     OW12268   1.069   4.719   6.018
 3790SOL    HW112269   1.123   4.762   5.946
 3790SOL    HW212270   0.981   4.766   6.026
 3791SOL     OW12271   5.389   1.592   6.782
 3791SOL    HW112272   5.384   1.503   6.828
 3791SOL    HW212273   5.347   1.662   6.839
 3792SOL     OW12274   1.498   1.939   3.442
 3792SOL    HW112275   1.415   1.909   3.394
 3792SOL    HW212276   1.542   2.012   3.391
 3793SOL     OW12277   4.542   6.898   2.242
 3793SOL    HW112278   4.445   6.907   2.220
 3793SOL    HW212279   4.597   6.922   2.162
 3794SOL     OW12280   2.520   2.498   1.831
 3794SOL    HW112281   2.458   2.498   1.753
 3794SOL    HW212282   2.471   2.528   1.913
 3795SOL     OW12283   4.845   6.150   1.176
 3795SOL    HW112284   4.770   6.169   1.239
 3795SOL    HW212285   4.931   6.176   1.218
 3796SOL     OW12286   4.213   1.934   2.854
 3796SOL    HW112287   4.260   1.973   2.934
 3796SOL    HW212288   4.139   1.874   2.886
 3797SOL     OW12289   0.540   3.262   2.933
 3797SOL    HW112290   0.598   3.343   2.938
 3797SOL    HW212291   0.594   3.181   2.958
 3798SOL     OW12292   2.349   5.714   2.846
 3798SOL    HW112293   2.445   5.723   2.818
 3798SOL    HW212294   2.336   5.760   2.934
 3799SOL     OW12295   6.366   3.043   3.615
 3799SOL    HW112296   6.450   2.988   3.620
 3799SOL    HW212297   6.357   3.080   3.523
 3800SOL     OW12298   5.259   1.729   3.495
 3800SOL    HW112299   5.175   1.758   3.450
 3800SOL    HW212300   5.250   1.739   3.594
 3801SOL     OW12301   6.000   6.707   1.814
 3801SOL    HW112302   5.988   6.804   1.834
 3801SOL    HW212303   6.087   6.693   1.766
 3802SOL     OW12304   1.311   2.151   1.551
 3802SOL    HW112305   1.411   2.157   1.545
 3802SOL    HW212306   1.274   2.242   1.572
 3803SOL     OW12307   3.960   3.453   2.586
 3803SOL    HW112308   4.033   3.477   2.522
 3803SOL    HW212309   3.909   3.536   2.610
 3804SOL     OW12310   4.193   1.129   3.213
 3804SOL    HW112311   4.116   1.155   3.271
 3804SOL    HW212312   4.214   1.032   3.227
 3805SOL     OW12313   2.171   2.767   1.784
 3805SOL    HW112314   2.177   2.798   1.879
 3805SOL    HW212315   2.178   2.846   1.723
 3806SOL     OW12316   3.814   3.592   5.914
 3806SOL    HW112317   3.742   3.560   5.852
 3806SOL    HW212318   3.885   3.638   5.861
 3807SOL     OW12319   1.931   5.571   2.595
 3807SOL    HW112320   2.004   5.614   2.649
 3807SOL    HW212321   1.856   5.544   2.655
 3808SOL     OW12322   4.057   0.596   0.337
 3808SOL    HW112323   4.009   0.650   0.406
 3808SOL    HW212324   4.137   0.647   0.305
 3809SOL     OW12325   5.556   2.580   1.553
 3809SOL    HW112326   5.528   2.590   1.649
 3809SOL    HW212327   5.611   2.497   1.542
 3810SOL     OW12328   5.680   2.885   3.474
 3810SOL    HW112329   5.773   2.848   3.465
 3810SOL    HW212330   5.613   2.812   3.459
 3811SOL     OW12331   6.730   5.951   4.566
 3811SOL    HW112332   6.658   5.906   4.619
 3811SOL    HW212333   6.753   6.038   4.609
 3812SOL     OW12334   4.223   5.288   5.208
 3812SOL    HW112335   4.154   5.221   5.180
 3812SOL    HW212336   4.178   5.368   5.248
 3813SOL     OW12337   4.854   3.730   0.149
 3813SOL    HW112338   4.781   3.674   0.188
 3813SOL    HW212339   4.880   3.800   0.215
 3814SOL     OW12340   6.359   0.296   5.380
 3814SOL    HW112341   6.275   0.286   5.433
 3814SOL    HW212342   6.366   0.390   5.346
 3815SOL     OW12343   3.490   1.655   1.071
 3815SOL    HW112344   3.442   1.681   0.987
 3815SOL    HW212345   3.525   1.737   1.115
 3816SOL     OW12346   1.207   5.039   6.514
 3816SOL    HW112347   1.195   5.137   6.498
 3816SOL    HW212348   1.296   5.022   6.556
 3817SOL     OW12349   5.253   3.418   2.297
 3817SOL    HW112350   5.226   3.451   2.387
 3817SOL    HW212351   5.180   3.438   2.231
 3818SOL     OW12352   6.677   0.893   0.235
 3818SOL    HW112353   6.617   0.955   0.285
 3818SOL    HW212354   6.712   0.822   0.298
 3819SOL     OW12355   5.875   5.731   2.755
 3819SOL    HW112356   5.844   5.680   2.835
 3819SOL    HW212357   5.884   5.828   2.779
 3820SOL     OW12358   5.153   0.279   4.425
 3820SOL    HW112359   5.100   0.330   4.493
 3820SOL    HW212360   5.107   0.193   4.404
 3821SOL     OW12361   1.838   1.250   1.951
 3821SOL    HW112362   1.849   1.266   2.049
 3821SOL    HW212363   1.806   1.334   1.906
 3822SOL     OW12364   2.466   6.960   0.547
 3822SOL    HW112365   2.487   6.862   0.549
 3822SOL    HW212366   2.539   7.011   0.593
 3823SOL     OW12367   2.807   3.705   6.183
 3823SOL    HW112368   2.744   3.661   6.247
 3823SOL    HW212369   2.768   3.792   6.153
 3824SOL     OW12370   0.736   3.157   0.293
 3824SOL    HW112371   0.808   3.213   0.254
 3824SOL    HW212372   0.657   3.214   0.317
 3825SOL     OW12373   0.524   5.083   0.493
 3825SOL    HW112374   0.523   5.056   0.396
 3825SOL    HW212375   0.451   5.150   0.509
 3826SOL     OW12376   1.049   3.812   0.394
 3826SOL    HW112377   1.084   3.782   0.482
 3826SOL    HW212378   0.951   3.830   0.401
 3827SOL     OW12379   1.652   1.123   1.782
 3827SOL    HW112380   1.736   1.139   1.834
 3827SOL    HW212381   1.580   1.185   1.814
 3828SOL     OW12382   3.577   3.249   3.703
 3828SOL    HW112383   3.597   3.152   3.721
 3828SOL    HW212384   3.656   3.292   3.662
 3829SOL     OW12385   1.066   4.918   2.298
 3829SOL    HW112386   0.979   4.956   2.267
 3829SOL    HW212387   1.134   4.926   2.225
 3830SOL     OW12388   0.711   0.472   5.334
 3830SOL    HW112389   0.717   0.570   5.317
 3830SOL    HW212390   0.671   0.426   5.255
 3831SOL     OW12391   4.808   2.237   2.842
 3831SOL    HW112392   4.729   2.198   2.797
 3831SOL    HW212393   4.833   2.181   2.921
 3832SOL     OW12394   0.325   0.819   3.215
 3832SOL    HW112395   0.254   0.877   3.256
 3832SOL    HW212396   0.281   0.740   3.172
 3833SOL     OW12397   0.172   5.884   6.725
 3833SOL    HW112398   0.243   5.856   6.790
 3833SOL    HW212399   0.114   5.805   6.704
 3834SOL     OW12400   3.907   3.996   1.083
 3834SOL    HW112401   3.892   3.971   1.179
 3834SOL    HW212402   3.961   3.925   1.039
 3835SOL     OW12403   3.929   5.885   4.478
 3835SOL    HW112404   3.972   5.974   4.489
 3835SOL    HW212405   3.831   5.892   4.499
 3836SOL     OW12406   0.277   4.799   5.752
 3836SOL    HW112407   0.351   4.853   5.714
 3836SOL    HW212408   0.284   4.704   5.719
 3837SOL     OW12409   4.182   3.984   6.517
 3837SOL    HW112410   4.204   3.977   6.419
 3837SOL    HW212411   4.267   3.992   6.569
 3838SOL     OW12412   0.947   3.324   3.928
 3838SOL    HW112413   0.920   3.270   3.848
 3838SOL    HW212414   1.023   3.384   3.904
 3839SOL     OW12415   5.830   1.761   2.999
 3839SOL    HW112416   5.802   1.851   2.964
 3839SOL    HW212417   5.767   1.732   3.071
 3840SOL     OW12418   3.009   1.767   6.445
 3840SOL    HW112419   3.018   1.686   6.387
 3840SOL    HW212420   2.919   1.810   6.430
 3841SOL     OW12421   0.638   3.216   5.017
 3841SOL    HW112422   0.624   3.139   4.954
 3841SOL    HW212423   0.688   3.185   5.097
 3842SOL     OW12424   2.168   2.521   1.960
 3842SOL    HW112425   2.074   2.535   1.990
 3842SOL    HW212426   2.182   2.565   1.871
 3843SOL     OW12427   5.636   4.851   2.781
 3843SOL    HW112428   5.646   4.754   2.803
 3843SOL    HW212429   5.539   4.874   2.774
 3844SOL     OW12430   1.073   2.417   5.236
 3844SOL    HW112431   1.100   2.459   5.149
 3844SOL    HW212432   1.132   2.450   5.309
 3845SOL     OW12433   3.438   4.259   5.559
 3845SOL    HW112434   3.453   4.195   5.485
 3845SOL    HW212435   3.391   4.341   5.524
 3846SOL     OW12436   6.999   5.179   3.073
 3846SOL    HW112437   6.905   5.164   3.042
 3846SOL    HW212438   6.997   5.220   3.164
 3847SOL     OW12439   5.400   2.755   4.121
 3847SOL    HW112440   5.445   2.758   4.032
 3847SOL    HW212441   5.311   2.711   4.113
 3848SOL     OW12442   4.442   5.284   2.542
 3848SOL    HW112443   4.416   5.357   2.478
 3848SOL    HW212444   4.514   5.228   2.501
 3849SOL     OW12445   0.699   1.192   6.173
 3849SOL    HW112446   0.729   1.280   6.210
 3849SOL    HW212447   0.642   1.208   6.092
 3850SOL     OW12448   2.753   3.414   1.930
 3850SOL    HW112449   2.662   3.405   1.971
 3850SOL    HW212450   2.797   3.497   1.964
 3851SOL     OW12451   0.779   4.171   2.469
 3851SOL    HW112452   0.865   4.178   2.520
 3851SOL    HW212453   0.794   4.118   2.386
 3852SOL     OW12454   4.049   6.245   4.139
 3852SOL    HW112455   4.008   6.154   4.140
 3852SOL    HW212456   4.141   6.240   4.102
 3853SOL     OW12457   0.423   4.398   3.551
 3853SOL    HW112458   0.402   4.434   3.641
 3853SOL    HW212459   0.453   4.472   3.491
 3854SOL     OW12460   2.016   2.504   2.966
 3854SOL    HW112461   1.956   2.461   2.898
 3854SOL    HW212462   1.983   2.481   3.058
 3855SOL     OW12463   5.564   6.388   6.431
 3855SOL    HW112464   5.519   6.477   6.429
 3855SOL    HW212465   5.595   6.365   6.339
 3856SOL     OW12466   6.822   0.396   6.316
 3856SOL    HW112467   6.821   0.303   6.352
 3856SOL    HW212468   6.811   0.394   6.217
 3857SOL     OW12469   0.660   6.482   0.110
 3857SOL    HW112470   0.627   6.570   0.146
 3857SOL    HW212471   0.594   6.410   0.132
 3858SOL     OW12472   2.531   0.736   5.754
 3858SOL    HW112473   2.544   0.766   5.849
 3858SOL    HW212474   2.485   0.808   5.703
 3859SOL     OW12475   5.500   1.207   2.301
 3859SOL    HW112476   5.493   1.148   2.381
 3859SOL    HW212477   5.448   1.291   2.317
 3860SOL     OW12478   2.408   1.066   5.379
 3860SOL    HW112479   2.417   1.047   5.281
 3860SOL    HW212480   2.498   1.088   5.418
 3861SOL     OW12481   4.222   5.021   3.100
 3861SOL    HW112482   4.177   4.955   3.160
 3861SOL    HW212483   4.206   5.114   3.134
 3862SOL     OW12484   0.380   0.797   5.187
 3862SOL    HW112485   0.364   0.859   5.110
 3862SOL    HW212486   0.449   0.837   5.247
 3863SOL     OW12487   5.736   2.804   6.510
 3863SOL    HW112488   5.774   2.881   6.459
 3863SOL    HW212489   5.761   2.813   6.607
 3864SOL     OW12490   2.505   0.556   5.455
 3864SOL    HW112491   2.550   0.472   5.485
 3864SOL    HW212492   2.513   0.564   5.355
 3865SOL     OW12493   3.429   0.506   0.129
 3865SOL    HW112494   3.471   0.567   0.062
 3865SOL    HW212495   3.399   0.559   0.208
 3866SOL     OW12496   3.040   0.367   1.063
 3866SOL    HW112497   3.026   0.291   1.128
 3866SOL    HW212498   3.025   0.334   0.970
 3867SOL     OW12499   0.626   5.033   3.795
 3867SOL    HW112500   0.607   5.131   3.807
 3867SOL    HW212501   0.656   4.993   3.881
 3868SOL     OW12502   2.751   6.959   0.346
 3868SOL    HW112503   2.688   6.900   0.296
 3868SOL    HW212504   2.792   6.908   0.421
 3869SOL     OW12505   5.795   3.989   4.869
 3869SOL    HW112506   5.849   4.067   4.836
 3869SOL    HW212507   5.757   4.010   4.959
 3870SOL     OW12508   5.582   5.983   0.260
 3870SOL    HW112509   5.553   6.059   0.202
 3870SOL    HW212510   5.523   5.980   0.341
 3871SOL     OW12511   2.948   0.219   3.073
 3871SOL    HW112512   2.940   0.181   3.166
 3871SOL    HW212513   2.890   0.167   3.011
 3872SOL     OW12514   3.844   3.033   3.888
 3872SOL    HW112515   3.818   2.996   3.977
 3872SOL    HW212516   3.869   3.130   3.897
 3873SOL     OW12517   6.465   2.721   0.718
 3873SOL    HW112518   6.432   2.767   0.636
 3873SOL    HW212519   6.564   2.732   0.726
 3874SOL     OW12520   4.171   6.288   6.918
 3874SOL    HW112521   4.133   6.238   6.840
 3874SOL    HW212522   4.103   6.291   6.991
 3875SOL     OW12523   1.965   3.068   2.203
 3875SOL    HW112524   2.041   3.033   2.257
 3875SOL    HW212525   1.985   3.161   2.173
 3876SOL     OW12526   3.939   5.539   1.014
 3876SOL    HW112527   4.029   5.559   1.053
 3876SOL    HW212528   3.942   5.451   0.967
 3877SOL     OW12529   6.053   3.107   0.462
 3877SOL    HW112530   6.127   3.115   0.396
 3877SOL    HW212531   6.035   3.010   0.481
 3878SOL     OW12532   3.461   6.832   4.490
 3878SOL    HW112533   3.527   6.832   4.414
 3878SOL    HW212534   3.467   6.744   4.538
 3879SOL     OW12535   5.308   5.208   1.443
 3879SOL    HW112536   5.406   5.208   1.422
 3879SOL    HW212537   5.267   5.123   1.410
 3880SOL     OW12538   5.732   4.900   4.199
 3880SOL    HW112539   5.645   4.923   4.243
 3880SOL    HW212540   5.783   4.836   4.256
 3881SOL     OW12541   1.384   3.603   1.766
 3881SOL    HW112542   1.417   3.651   1.685
 3881SOL    HW212543   1.346   3.514   1.739
 3882SOL     OW12544   1.283   1.357   6.010
 3882SOL    HW112545   1.239   1.387   6.095
 3882SOL    HW212546   1.213   1.329   5.944
 3883SOL     OW12547   3.838   0.694   3.280
 3883SOL    HW112548   3.883   0.620   3.230
 3883SOL    HW212549   3.873   0.782   3.249
 3884SOL     OW12550   0.405   5.455   3.527
 3884SOL    HW112551   0.375   5.531   3.469
 3884SOL    HW212552   0.393   5.369   3.478
 3885SOL     OW12553   6.245   0.392   2.792
 3885SOL    HW112554   6.317   0.379   2.861
 3885SOL    HW212555   6.193   0.475   2.813
 3886SOL     OW12556   6.313   6.096   4.858
 3886SOL    HW112557   6.397   6.044   4.869
 3886SOL    HW212558   6.264   6.063   4.777
 3887SOL     OW12559   6.939   0.773   6.088
 3887SOL    HW112560   6.896   0.723   6.013
 3887SOL    HW212561   0.016   0.767   6.078
 3888SOL     OW12562   6.580   0.615   5.368
 3888SOL    HW112563   6.639   0.534   5.370
 3888SOL    HW212564   6.538   0.624   5.278
 3889SOL     OW12565   6.971   3.865   5.910
 3889SOL    HW112566   6.994   3.889   5.816
 3889SOL    HW212567   6.883   3.816   5.911
 3890SOL     OW12568   5.583   5.507   2.859
 3890SOL    HW112569   5.665   5.546   2.901
 3890SOL    HW212570   5.513   5.492   2.929
 3891SOL     OW12571   5.661   4.437   4.841
 3891SOL    HW112572   5.595   4.362   4.831
 3891SOL    HW212573   5.742   4.404   4.890
 3892SOL     OW12574   0.320   1.501   1.237
 3892SOL    HW112575   0.228   1.526   1.206
 3892SOL    HW212576   0.365   1.447   1.166
 3893SOL     OW12577   4.221   4.289   1.243
 3893SOL    HW112578   4.269   4.361   1.193
 3893SOL    HW212579   4.132   4.273   1.200
 3894SOL     OW12580   3.214   2.182   1.242
 3894SOL    HW112581   3.256   2.267   1.272
 3894SOL    HW212582   3.169   2.137   1.319
 3895SOL     OW12583   1.875   0.492   5.916
 3895SOL    HW112584   1.855   0.580   5.960
 3895SOL    HW212585   1.965   0.460   5.945
 3896SOL     OW12586   6.922   0.597   5.869
 3896SOL    HW112587   6.879   0.550   5.791
 3896SOL    HW212588   7.012   0.630   5.842
 3897SOL     OW12589   3.697   5.835   2.229
 3897SOL    HW112590   3.711   5.737   2.215
 3897SOL    HW212591   3.756   5.886   2.166
 3898SOL     OW12592   3.365   3.521   4.658
 3898SOL    HW112593   3.429   3.507   4.582
 3898SOL    HW212594   3.347   3.433   4.702
 3899SOL     OW12595   5.804   0.418   4.449
 3899SOL    HW112596   5.731   0.421   4.380
 3899SOL    HW212597   5.792   0.337   4.507
 3900SOL     OW12598   5.743   2.832   3.965
 3900SOL    HW112599   5.676   2.874   3.903
 3900SOL    HW212600   5.830   2.821   3.918
 3901SOL     OW12601   3.001   0.457   5.272
 3901SOL    HW112602   3.096   0.453   5.303
 3901SOL    HW212603   2.943   0.490   5.347
 3902SOL     OW12604   5.881   3.731   2.653
 3902SOL    HW112605   5.831   3.796   2.595
 3902SOL    HW212606   5.852   3.638   2.631
 3903SOL     OW12607   4.615   5.564   0.199
 3903SOL    HW112608   4.590   5.650   0.155
 3903SOL    HW212609   4.691   5.580   0.263
 3904SOL     OW12610   1.707   6.962   4.834
 3904SOL    HW112611   1.617   7.001   4.852
 3904SOL    HW212612   1.738   6.911   4.915
 3905SOL     OW12613   6.621   0.109   5.472
 3905SOL    HW112614   6.558   0.187   5.470
 3905SOL    HW212615   6.626   0.073   5.565
 3906SOL     OW12616   4.076   5.291   4.971
 3906SOL    HW112617   4.031   5.373   4.936
 3906SOL    HW212618   4.013   5.241   5.030
 3907SOL     OW12619   6.637   6.644   5.486
 3907SOL    HW112620   6.604   6.738   5.491
 3907SOL    HW212621   6.725   6.636   5.533
 3908SOL     OW12622   0.908   0.812   0.725
 3908SOL    HW112623   0.943   0.769   0.642
 3908SOL    HW212624   0.809   0.798   0.731
 3909SOL     OW12625   0.697   5.879   5.296
 3909SOL    HW112626   0.748   5.965   5.298
 3909SOL    HW212627   0.602   5.896   5.269
 3910SOL     OW12628   3.668   3.814   1.885
 3910SOL    HW112629   3.641   3.884   1.951
 3910SOL    HW212630   3.637   3.839   1.794
 3911SOL     OW12631   4.158   1.203   0.183
 3911SOL    HW112632   4.141   1.138   0.109
 3911SOL    HW212633   4.111   1.289   0.163
 3912SOL     OW12634   3.187   1.191   6.428
 3912SOL    HW112635   3.150   1.258   6.493
 3912SOL    HW212636   3.246   1.126   6.477
 3913SOL     OW12637   1.797   5.917   6.361
 3913SOL    HW112638   1.828   5.990   6.300
 3913SOL    HW212639   1.830   5.829   6.328
 3914SOL     OW12640   3.767   0.971   0.841
 3914SOL    HW112641   3.724   1.003   0.925
 3914SOL    HW212642   3.863   0.998   0.840
 3915SOL     OW12643   4.198   6.408   1.774
 3915SOL    HW112644   4.268   6.357   1.725
 3915SOL    HW212645   4.117   6.418   1.716
 3916SOL     OW12646   1.547   6.138   3.023
 3916SOL    HW112647   1.555   6.226   3.070
 3916SOL    HW212648   1.557   6.153   2.924
 3917SOL     OW12649   1.609   4.700   6.766
 3917SOL    HW112650   1.662   4.650   6.834
 3917SOL    HW212651   1.669   4.736   6.695
 3918SOL     OW12652   5.319   6.606   2.472
 3918SOL    HW112653   5.262   6.677   2.432
 3918SOL    HW212654   5.307   6.606   2.571
 3919SOL     OW12655   3.201   6.298   6.557
 3919SOL    HW112656   3.275   6.236   6.582
 3919SOL    HW212657   3.125   6.245   6.519
 3920SOL     OW12658   2.941   2.375   6.719
 3920SOL    HW112659   3.039   2.378   6.742
 3920SOL    HW212660   2.889   2.419   6.792
 3921SOL     OW12661   6.955   2.937   0.698
 3921SOL    HW112662   0.001   3.002   0.732
 3921SOL    HW212663   6.991   2.844   0.706
 3922SOL     OW12664   5.505   4.525   1.255
 3922SOL    HW112665   5.448   4.467   1.315
 3922SOL    HW212666   5.584   4.558   1.307
 3923SOL     OW12667   6.745   1.986   0.314
 3923SOL    HW112668   6.798   2.033   0.385
 3923SOL    HW212669   6.648   2.005   0.326
 3924SOL     OW12670   0.437   5.382   3.068
 3924SOL    HW112671   0.498   5.436   3.011
 3924SOL    HW212672   0.343   5.390   3.035
 3925SOL     OW12673   3.608   4.256   1.072
 3925SOL    HW112674   3.642   4.208   1.153
 3925SOL    HW212675   3.567   4.190   1.009
 3926SOL     OW12676   6.701   6.138   2.766
 3926SOL    HW112677   6.783   6.109   2.717
 3926SOL    HW212678   6.660   6.059   2.812
 3927SOL     OW12679   6.956   3.804   4.021
 3927SOL    HW112680   6.922   3.886   3.974
 3927SOL    HW212681   0.030   3.791   3.998
 3928SOL     OW12682   3.045   5.371   4.935
 3928SOL    HW112683   3.093   5.287   4.963
 3928SOL    HW212684   2.954   5.372   4.976
 3929SOL     OW12685   0.195   2.258   6.481
 3929SOL    HW112686   0.212   2.356   6.483
 3929SOL    HW212687   0.258   2.212   6.545
 3930SOL     OW12688   1.964   1.699   4.105
 3930SOL    HW112689   2.000   1.742   4.187
 3930SOL    HW212690   2.011   1.735   4.024
 3931SOL     OW12691   2.208   1.191   2.541
 3931SOL    HW112692   2.254   1.178   2.454
 3931SOL    HW212693   2.267   1.243   2.603
 3932SOL     OW12694   1.736   4.363   3.220
 3932SOL    HW112695   1.822   4.353   3.269
 3932SOL    HW212696   1.663   4.317   3.270
 3933SOL     OW12697   2.472   6.894   6.590
 3933SOL    HW112698   2.516   6.838   6.660
 3933SOL    HW212699   2.498   6.990   6.604
 3934SOL     OW12700   0.480   1.033   1.150
 3934SOL    HW112701   0.497   0.949   1.202
 3934SOL    HW212702   0.556   1.096   1.164
 3935SOL     OW12703   1.891   6.913   5.559
 3935SOL    HW112704   1.809   6.966   5.580
 3935SOL    HW212705   1.966   6.944   5.617
 3936SOL     OW12706   0.282   5.749   5.531
 3936SOL    HW112707   0.305   5.668   5.477
 3936SOL    HW212708   0.349   5.759   5.605
 3937SOL     OW12709   0.490   0.472   2.272
 3937SOL    HW112710   0.433   0.529   2.329
 3937SOL    HW212711   0.543   0.409   2.329
 3938SOL     OW12712   0.057   2.551   4.303
 3938SOL    HW112713   0.130   2.553   4.236
 3938SOL    HW212714   0.055   2.638   4.353
 3939SOL     OW12715   3.222   1.362   2.847
 3939SOL    HW112716   3.183   1.270   2.836
 3939SOL    HW212717   3.202   1.416   2.765
 3940SOL     OW12718   3.978   4.785   2.171
 3940SOL    HW112719   3.939   4.736   2.250
 3940SOL    HW212720   4.063   4.739   2.143
 3941SOL     OW12721   5.679   1.271   6.099
 3941SOL    HW112722   5.724   1.292   6.012
 3941SOL    HW212723   5.620   1.347   6.125
 3942SOL     OW12724   0.839   6.764   5.521
 3942SOL    HW112725   0.901   6.841   5.536
 3942SOL    HW212726   0.809   6.763   5.425
 3943SOL     OW12727   1.050   3.511   2.955
 3943SOL    HW112728   1.093   3.600   2.938
 3943SOL    HW212729   1.120   3.440   2.953
 3944SOL     OW12730   5.885   4.078   5.416
 3944SOL    HW112731   5.911   4.023   5.495
 3944SOL    HW212732   5.831   4.022   5.353
 3945SOL     OW12733   1.086   2.568   2.185
 3945SOL    HW112734   1.100   2.483   2.235
 3945SOL    HW212735   0.988   2.588   2.180
 3946SOL     OW12736   6.649   4.621   6.145
 3946SOL    HW112737   6.584   4.565   6.093
 3946SOL    HW212738   6.598   4.678   6.210
 3947SOL     OW12739   5.892   5.350   1.963
 3947SOL    HW112740   5.876   5.444   1.993
 3947SOL    HW212741   5.805   5.300   1.962
 3948SOL     OW12742   0.995   4.835   0.951
 3948SOL    HW112743   0.903   4.867   0.972
 3948SOL    HW212744   1.062   4.898   0.989
 3949SOL     OW12745   5.503   0.453   2.988
 3949SOL    HW112746   5.491   0.540   3.035
 3949SOL    HW212747   5.490   0.467   2.889
 3950SOL     OW12748   3.477   3.705   1.565
 3950SOL    HW112749   3.531   3.789   1.573
 3950SOL    HW212750   3.413   3.714   1.488
 3951SOL     OW12751   0.155   6.541   7.002
 3951SOL    HW112752   0.108   6.608   0.038
 3951SOL    HW212753   0.147   6.450   0.020
 3952SOL     OW12754   6.916   3.883   4.299
 3952SOL    HW112755   6.913   3.838   4.210
 3952SOL    HW212756   6.839   3.853   4.354
 3953SOL     OW12757   3.135   4.308   0.458
 3953SOL    HW112758   3.091   4.256   0.531
 3953SOL    HW212759   3.171   4.394   0.495
 3954SOL     OW12760   5.704   5.580   5.739
 3954SOL    HW112761   5.729   5.487   5.768
 3954SOL    HW212762   5.779   5.620   5.688
 3955SOL     OW12763   4.049   6.676   0.079
 3955SOL    HW112764   4.011   6.645   7.014
 3955SOL    HW212765   4.110   6.605   0.116
 3956SOL     OW12766   0.562   2.130   3.616
 3956SOL    HW112767   0.571   2.170   3.524
 3956SOL    HW212768   0.647   2.143   3.667
 3957SOL     OW12769   4.836   6.769   3.458
 3957SOL    HW112770   4.928   6.756   3.496
 3957SOL    HW212771   4.797   6.680   3.433
 3958SOL     OW12772   5.699   0.419   6.442
 3958SOL    HW112773   5.770   0.354   6.415
 3958SOL    HW212774   5.641   0.439   6.363
 3959SOL     OW12775   3.629   6.633   0.967
 3959SOL    HW112776   3.551   6.570   0.978
 3959SOL    HW212777   3.706   6.600   1.021
 3960SOL     OW12778   5.259   1.788   6.426
 3960SOL    HW112779   5.268   1.886   6.448
 3960SOL    HW212780   5.350   1.748   6.417
 3961SOL     OW12781   5.570   2.578   1.979
 3961SOL    HW112782   5.640   2.637   1.938
 3961SOL    HW212783   5.555   2.605   2.074
 3962SOL     OW12784   1.666   5.111   6.724
 3962SOL    HW112785   1.725   5.059   6.663
 3962SOL    HW212786   1.708   5.200   6.744
 3963SOL     OW12787   4.710   4.540   3.762
 3963SOL    HW112788   4.634   4.516   3.822
 3963SOL    HW212789   4.726   4.466   3.696
 3964SOL     OW12790   4.478   4.944   4.204
 3964SOL    HW112791   4.413   5.007   4.247
 3964SOL    HW212792   4.522   4.889   4.275
 3965SOL     OW12793   3.952   3.250   5.993
 3965SOL    HW112794   3.947   3.157   5.956
 3965SOL    HW212795   3.860   3.287   6.005
 3966SOL     OW12796   6.277   5.595   0.583
 3966SOL    HW112797   6.241   5.505   0.558
 3966SOL    HW212798   6.294   5.598   0.682
 3967SOL     OW12799   1.466   4.038   2.770
 3967SOL    HW112800   1.371   4.042   2.737
 3967SOL    HW212801   1.528   4.058   2.695
 3968SOL     OW12802   0.073   0.088   1.173
 3968SOL    HW112803   0.037   0.175   1.209
 3968SOL    HW212804   0.087   0.095   1.075
 3969SOL     OW12805   1.224   3.520   2.695
 3969SOL    HW112806   1.272   3.503   2.781
 3969SOL    HW212807   1.227   3.437   2.639
 3970SOL     OW12808   4.739   5.200   3.976
 3970SOL    HW112809   4.703   5.292   3.960
 3970SOL    HW212810   4.689   5.135   3.920
 3971SOL     OW12811   2.270   4.767   2.306
 3971SOL    HW112812   2.206   4.801   2.376
 3971SOL    HW212813   2.227   4.693   2.255
 3972SOL     OW12814   1.377   5.296   1.022
 3972SOL    HW112815   1.414   5.343   1.101
 3972SOL    HW212816   1.279   5.313   1.015
 3973SOL     OW12817   1.999   4.139   5.337
 3973SOL    HW112818   1.981   4.043   5.361
 3973SOL    HW212819   2.025   4.145   5.241
 3974SOL     OW12820   1.028   0.271   5.130
 3974SOL    HW112821   1.099   0.317   5.184
 3974SOL    HW212822   0.958   0.337   5.104
 3975SOL     OW12823   5.262   0.388   6.285
 3975SOL    HW112824   5.201   0.418   6.358
 3975SOL    HW212825   5.319   0.465   6.256
 3976SOL     OW12826   1.488   5.105   1.703
 3976SOL    HW112827   1.559   5.169   1.674
 3976SOL    HW212828   1.439   5.070   1.623
 3977SOL     OW12829   3.034   4.757   5.267
 3977SOL    HW112830   2.990   4.673   5.235
 3977SOL    HW212831   3.076   4.741   5.356
 3978SOL     OW12832   5.307   0.333   4.713
 3978SOL    HW112833   5.399   0.320   4.676
 3978SOL    HW212834   5.248   0.258   4.683
 3979SOL     OW12835   2.234   5.606   1.648
 3979SOL    HW112836   2.329   5.576   1.646
 3979SOL    HW212837   2.201   5.618   1.555
 3980SOL     OW12838   0.599   4.823   6.852
 3980SOL    HW112839   0.698   4.826   6.833
 3980SOL    HW212840   0.584   4.789   6.944
 3981SOL     OW12841   1.721   1.121   6.185
 3981SOL    HW112842   1.669   1.079   6.110
 3981SOL    HW212843   1.799   1.171   6.147
 3982SOL     OW12844   1.921   0.876   4.042
 3982SOL    HW112845   2.019   0.886   4.027
 3982SOL    HW212846   1.883   0.963   4.074
 3983SOL     OW12847   3.936   5.214   4.084
 3983SOL    HW112848   4.027   5.243   4.054
 3983SOL    HW212849   3.937   5.197   4.182
 3984SOL     OW12850   1.642   0.686   2.963
 3984SOL    HW112851   1.571   0.636   2.915
 3984SOL    HW212852   1.633   0.672   3.062
 3985SOL     OW12853   3.866   4.856   6.630
 3985SOL    HW112854   3.788   4.877   6.572
 3985SOL    HW212855   3.834   4.812   6.714
 3986SOL     OW12856   7.022   2.200   2.316
 3986SOL    HW112857   0.035   2.242   2.399
 3986SOL    HW212858   6.986   2.270   2.255
 3987SOL     OW12859   2.908   5.631   4.492
 3987SOL    HW112860   2.929   5.546   4.541
 3987SOL    HW212861   2.809   5.641   4.484
 3988SOL     OW12862   3.564   3.041   0.030
 3988SOL    HW112863   3.599   3.130   0.001
 3988SOL    HW212864   3.544   2.985   6.972
 3989SOL     OW12865   6.737   1.378   0.219
 3989SOL    HW112866   6.821   1.409   0.264
 3989SOL    HW212867   6.756   1.356   0.124
 3990SOL     OW12868   5.929   2.262   3.496
 3990SOL    HW112869   5.947   2.301   3.406
 3990SOL    HW212870   5.889   2.171   3.485
 3991SOL     OW12871   5.694   1.758   2.030
 3991SOL    HW112872   5.614   1.786   2.081
 3991SOL    HW212873   5.700   1.658   2.029
 3992SOL     OW12874   3.851   2.346   6.983
 3992SOL    HW112875   3.783   2.355   6.910
 3992SOL    HW212876   3.929   2.293   6.948
 3993SOL     OW12877   0.602   2.320   3.012
 3993SOL    HW112878   0.670   2.267   3.063
 3993SOL    HW212879   0.520   2.264   2.998
 3994SOL     OW12880   0.869   2.259   6.152
 3994SOL    HW112881   0.949   2.244   6.209
 3994SOL    HW212882   0.861   2.357   6.132
 3995SOL     OW12883   1.784   3.999   4.016
 3995SOL    HW112884   1.761   3.929   4.085
 3995SOL    HW212885   1.784   3.957   3.925
 3996SOL     OW12886   0.717   1.281   4.668
 3996SOL    HW112887   0.720   1.214   4.593
 3996SOL    HW212888   0.756   1.240   4.751
 3997SOL     OW12889   4.562   2.522   3.174
 3997SOL    HW112890   4.593   2.614   3.152
 3997SOL    HW212891   4.543   2.471   3.090
 3998SOL     OW12892   4.672   0.830   2.741
 3998SOL    HW112893   4.638   0.740   2.768
 3998SOL    HW212894   4.595   0.887   2.712
 3999SOL     OW12895   5.452   3.455   4.028
 3999SOL    HW112896   5.355   3.468   4.049
 3999SOL    HW212897   5.507   3.494   4.102
 4000SOL     OW12898   2.835   5.198   3.134
 4000SOL    HW112899   2.874   5.109   3.108
 4000SOL    HW212900   2.813   5.250   3.051
 4001SOL     OW12901   2.128   1.846   3.880
 4001SOL    HW112902   2.126   1.932   3.829
 4001SOL    HW212903   2.223   1.817   3.893
 4002SOL     OW12904   2.662   2.940   0.373
 4002SOL    HW112905   2.734   3.007   0.392
 4002SOL    HW212906   2.685   2.890   0.290
 4003SOL     OW12907   2.671   6.417   5.201
 4003SOL    HW112908   2.677   6.386   5.107
 4003SOL    HW212909   2.615   6.500   5.206
 4004SOL     OW12910   6.130   1.908   3.945
 4004SOL    HW112911   6.081   1.991   3.973
 4004SOL    HW212912   6.190   1.928   3.868
 4005SOL     OW12913   5.393   5.374   0.989
 4005SOL    HW112914   5.458   5.376   0.913
 4005SOL    HW212915   5.372   5.279   1.013
 4006SOL     OW12916   3.754   4.954   2.379
 4006SOL    HW112917   3.749   4.916   2.471
 4006SOL    HW212918   3.679   4.918   2.324
 4007SOL     OW12919   0.673   3.386   1.291
 4007SOL    HW112920   0.720   3.312   1.242
 4007SOL    HW212921   0.667   3.466   1.232
 4008SOL     OW12922   3.823   2.141   4.156
 4008SOL    HW112923   3.843   2.044   4.165
 4008SOL    HW212924   3.745   2.153   4.094
 4009SOL     OW12925   5.391   2.921   0.269
 4009SOL    HW112926   5.296   2.943   0.244
 4009SOL    HW212927   5.417   2.834   0.227
 4010SOL     OW12928   2.386   3.405   1.283
 4010SOL    HW112929   2.358   3.478   1.221
 4010SOL    HW212930   2.356   3.428   1.376
 4011SOL     OW12931   0.567   0.801   1.413
 4011SOL    HW112932   0.610   0.882   1.452
 4011SOL    HW212933   0.634   0.749   1.360
 4012SOL     OW12934   4.127   5.044   2.504
 4012SOL    HW112935   4.044   5.067   2.454
 4012SOL    HW212936   4.128   4.946   2.525
 4013SOL     OW12937   2.554   0.333   0.859
 4013SOL    HW112938   2.534   0.268   0.932
 4013SOL    HW212939   2.650   0.362   0.866
 4014SOL     OW12940   4.219   6.145   3.281
 4014SOL    HW112941   4.127   6.112   3.258
 4014SOL    HW212942   4.287   6.080   3.249
 4015SOL     OW12943   4.431   5.883   6.291
 4015SOL    HW112944   4.343   5.894   6.244
 4015SOL    HW212945   4.418   5.891   6.390
 4016SOL     OW12946   1.535   5.863   6.400
 4016SOL    HW112947   1.627   5.895   6.380
 4016SOL    HW212948   1.540   5.780   6.456
 4017SOL     OW12949   0.077   6.541   0.283
 4017SOL    HW112950   0.015   6.502   0.351
 4017SOL    HW212951   0.168   6.502   0.295
 4018SOL     OW12952   5.575   6.687   2.427
 4018SOL    HW112953   5.494   6.629   2.439
 4018SOL    HW212954   5.553   6.781   2.451
 4019SOL     OW12955   5.846   3.385   3.068
 4019SOL    HW112956   5.921   3.426   3.016
 4019SOL    HW212957   5.847   3.420   3.162
 4020SOL     OW12958   5.883   2.641   5.241
 4020SOL    HW112959   5.851   2.552   5.206
 4020SOL    HW212960   5.961   2.671   5.187
 4021SOL     OW12961   2.896   3.261   5.600
 4021SOL    HW112962   2.909   3.178   5.653
 4021SOL    HW212963   2.946   3.255   5.514
 4022SOL     OW12964   4.248   0.695   0.129
 4022SOL    HW112965   4.210   0.670   0.040
 4022SOL    HW212966   4.304   0.777   0.119
 4023SOL     OW12967   6.529   1.523   4.907
 4023SOL    HW112968   6.622   1.528   4.943
 4023SOL    HW212969   6.533   1.498   4.810
 4024SOL     OW12970   2.910   5.221   4.312
 4024SOL    HW112971   2.874   5.281   4.241
 4024SOL    HW212972   2.858   5.135   4.313
 4025SOL     OW12973   0.657   6.437   4.840
 4025SOL    HW112974   0.568   6.391   4.842
 4025SOL    HW212975   0.675   6.478   4.930
 4026SOL     OW12976   6.463   5.853   4.014
 4026SOL    HW112977   6.456   5.886   4.108
 4026SOL    HW212978   6.380   5.876   3.964
 4027SOL     OW12979   3.505   4.146   2.410
 4027SOL    HW112980   3.474   4.201   2.488
 4027SOL    HW212981   3.604   4.134   2.415
 4028SOL     OW12982   1.933   2.284   3.983
 4028SOL    HW112983   1.843   2.319   4.008
 4028SOL    HW212984   1.956   2.314   3.890
 4029SOL     OW12985   2.555   4.315   6.264
 4029SOL    HW112986   2.613   4.395   6.252
 4029SOL    HW212987   2.495   4.306   6.184
 4030SOL     OW12988   1.719   1.776   6.965
 4030SOL    HW112989   1.623   1.800   6.979
 4030SOL    HW212990   1.776   1.836   7.022
 4031SOL     OW12991   4.844   5.886   2.984
 4031SOL    HW112992   4.911   5.877   3.058
 4031SOL    HW212993   4.877   5.954   2.919
 4032SOL     OW12994   5.718   0.287   2.931
 4032SOL    HW112995   5.634   0.341   2.938
 4032SOL    HW212996   5.723   0.244   2.841
 4033SOL     OW12997   3.136   3.562   2.742
 4033SOL    HW112998   3.046   3.517   2.739
 4033SOL    HW212999   3.203   3.499   2.782
 4034SOL     OW13000   6.011   1.689   4.961
 4034SOL    HW113001   6.062   1.747   4.898
 4034SOL    HW213002   6.052   1.694   5.052
 4035SOL     OW13003   0.247   2.583   0.836
 4035SOL    HW113004   0.219   2.632   0.918
 4035SOL    HW213005   0.172   2.524   0.806
 4036SOL     OW13006   5.181   6.852   2.832
 4036SOL    HW113007   5.127   6.796   2.896
 4036SOL    HW213008   5.120   6.897   2.767
 4037SOL     OW13009   1.796   2.587   0.495
 4037SOL    HW113010   1.769   2.683   0.482
 4037SOL    HW213011   1.792   2.539   0.407
 4038SOL     OW13012   4.642   4.702   2.071
 4038SOL    HW113013   4.626   4.678   2.166
 4038SOL    HW213014   4.589   4.642   2.011
 4039SOL     OW13015   4.736   4.780   1.596
 4039SOL    HW113016   4.695   4.722   1.526
 4039SOL    HW213017   4.724   4.738   1.685
 4040SOL     OW13018   3.256   0.087   6.152
 4040SOL    HW113019   3.279   0.006   6.206
 4040SOL    HW213020   3.329   0.105   6.086
 4041SOL     OW13021   2.182   5.579   1.351
 4041SOL    HW113022   2.178   5.490   1.305
 4041SOL    HW213023   2.094   5.626   1.340
 4042SOL     OW13024   6.118   4.868   2.864
 4042SOL    HW113025   6.036   4.924   2.879
 4042SOL    HW213026   6.190   4.924   2.825
 4043SOL     OW13027   5.092   2.390   4.330
 4043SOL    HW113028   5.131   2.481   4.346
 4043SOL    HW213029   5.026   2.369   4.401
 4044SOL     OW13030   4.772   0.690   4.380
 4044SOL    HW113031   4.827   0.683   4.463
 4044SOL    HW213032   4.815   0.753   4.315
 4045SOL     OW13033   2.744   4.116   6.294
 4045SOL    HW113034   2.662   4.173   6.298
 4045SOL    HW213035   2.722   4.031   6.246
 4046SOL     OW13036   0.919   1.168   3.651
 4046SOL    HW113037   0.847   1.163   3.720
 4046SOL    HW213038   0.916   1.257   3.605
 4047SOL     OW13039   2.823   2.546   0.937
 4047SOL    HW113040   2.867   2.569   1.024
 4047SOL    HW213041   2.747   2.483   0.954
 4048SOL     OW13042   5.468   1.787   2.177
 4048SOL    HW113043   5.410   1.791   2.095
 4048SOL    HW213044   5.436   1.854   2.244
 4049SOL     OW13045   6.185   5.941   7.009
 4049SOL    HW113046   6.167   5.923   6.912
 4049SOL    HW213047   6.238   6.025   7.018
 4050SOL     OW13048   1.947   6.660   0.429
 4050SOL    HW113049   1.881   6.669   0.354
 4050SOL    HW213050   1.981   6.566   0.433
 4051SOL     OW13051   3.998   2.861   0.436
 4051SOL    HW113052   3.984   2.841   0.339
 4051SOL    HW213053   3.999   2.776   0.488
 4052SOL     OW13054   0.365   0.800   1.625
 4052SOL    HW113055   0.448   0.771   1.577
 4052SOL    HW213056   0.357   0.749   1.711
 4053SOL     OW13057   3.360   4.915   3.910
 4053SOL    HW113058   3.335   5.005   3.947
 4053SOL    HW213059   3.309   4.899   3.825
 4054SOL     OW13060   1.192   2.984   1.117
 4054SOL    HW113061   1.096   3.001   1.141
 4054SOL    HW213062   1.234   2.929   1.190
 4055SOL     OW13063   3.071   3.789   5.834
 4055SOL    HW113064   3.063   3.694   5.806
 4055SOL    HW213065   3.152   3.830   5.791
 4056SOL     OW13066   4.222   2.748   0.085
 4056SOL    HW113067   4.148   2.780   0.027
 4056SOL    HW213068   4.262   2.665   0.046
 4057SOL     OW13069   5.503   2.722   0.107
 4057SOL    HW113070   5.457   2.634   0.113
 4057SOL    HW213071   5.600   2.708   0.087
 4058SOL     OW13072   1.446   1.399   4.679
 4058SOL    HW113073   1.366   1.364   4.727
 4058SOL    HW213074   1.435   1.386   4.581
 4059SOL     OW13075   1.813   2.427   3.148
 4059SOL    HW113076   1.799   2.521   3.177
 4059SOL    HW213077   1.875   2.380   3.211
 4060SOL     OW13078   4.661   5.332   4.968
 4060SOL    HW113079   4.568   5.337   5.003
 4060SOL    HW213080   4.688   5.236   4.956
 4061SOL     OW13081   3.318   4.841   1.921
 4061SOL    HW113082   3.320   4.765   1.856
 4061SOL    HW213083   3.411   4.868   1.944
 4062SOL     OW13084   3.068   1.130   2.976
 4062SOL    HW113085   3.123   1.059   2.932
 4062SOL    HW213086   2.972   1.117   2.950
 4063SOL     OW13087   4.940   0.257   5.281
 4063SOL    HW113088   4.843   0.275   5.264
 4063SOL    HW213089   4.959   0.160   5.272
 4064SOL     OW13090   1.522   0.217   3.488
 4064SOL    HW113091   1.511   0.169   3.401
 4064SOL    HW213092   1.440   0.271   3.506
 4065SOL     OW13093   1.260   6.674   0.390
 4065SOL    HW113094   1.221   6.708   0.476
 4065SOL    HW213095   1.281   6.751   0.330
 4066SOL     OW13096   5.232   4.891   2.422
 4066SOL    HW113097   5.297   4.848   2.484
 4066SOL    HW213098   5.197   4.975   2.464
 4067SOL     OW13099   6.090   3.125   2.358
 4067SOL    HW113100   6.157   3.176   2.306
 4067SOL    HW213101   6.029   3.188   2.406
 4068SOL     OW13102   4.253   0.386   4.658
 4068SOL    HW113103   4.248   0.286   4.660
 4068SOL    HW213104   4.189   0.424   4.725
 4069SOL     OW13105   4.182   3.726   6.692
 4069SOL    HW113106   4.157   3.779   6.612
 4069SOL    HW213107   4.268   3.677   6.675
 4070SOL     OW13108   1.267   3.349   3.103
 4070SOL    HW113109   1.210   3.369   3.183
 4070SOL    HW213110   1.328   3.426   3.086
 4071SOL     OW13111   1.407   0.814   5.160
 4071SOL    HW113112   1.437   0.894   5.107
 4071SOL    HW213113   1.378   0.742   5.097
 4072SOL     OW13114   0.653   6.587   4.092
 4072SOL    HW113115   0.619   6.586   3.998
 4072SOL    HW213116   0.628   6.502   4.138
 4073SOL     OW13117   2.455   5.237   5.682
 4073SOL    HW113118   2.524   5.177   5.723
 4073SOL    HW213119   2.367   5.190   5.681
 4074SOL     OW13120   0.869   2.352   2.342
 4074SOL    HW113121   0.968   2.365   2.341
 4074SOL    HW213122   0.832   2.382   2.430
 4075SOL     OW13123   4.689   2.600   2.856
 4075SOL    HW113124   4.678   2.651   2.941
 4075SOL    HW213125   4.759   2.530   2.868
 4076SOL     OW13126   1.971   3.876   6.077
 4076SOL    HW113127   1.890   3.910   6.028
 4076SOL    HW213128   2.049   3.935   6.056
 4077SOL     OW13129   3.194   6.774   0.269
 4077SOL    HW113130   3.192   6.696   0.207
 4077SOL    HW213131   3.133   6.756   0.346
 4078SOL     OW13132   6.627   5.451   1.785
 4078SOL    HW113133   6.726   5.462   1.799
 4078SOL    HW213134   6.581   5.451   1.874
 4079SOL     OW13135   1.119   1.372   3.296
 4079SOL    HW113136   1.207   1.349   3.336
 4079SOL    HW213137   1.124   1.362   3.197
 4080SOL     OW13138   2.671   3.405   0.712
 4080SOL    HW113139   2.606   3.349   0.764
 4080SOL    HW213140   2.750   3.426   0.770
 4081SOL     OW13141   1.628   1.108   4.076
 4081SOL    HW113142   1.671   1.198   4.064
 4081SOL    HW213143   1.575   1.086   3.994
 4082SOL     OW13144   1.612   1.783   0.416
 4082SOL    HW113145   1.691   1.804   0.472
 4082SOL    HW213146   1.536   1.843   0.441
 4083SOL     OW13147   6.114   4.339   3.787
 4083SOL    HW113148   6.084   4.275   3.858
 4083SOL    HW213149   6.129   4.289   3.702
 4084SOL     OW13150   5.067   2.751   3.036
 4084SOL    HW113151   5.020   2.697   2.967
 4084SOL    HW213152   5.000   2.791   3.098
 4085SOL     OW13153   2.893   5.330   0.424
 4085SOL    HW113154   2.825   5.325   0.352
 4085SOL    HW213155   2.925   5.238   0.447
 4086SOL     OW13156   0.275   4.686   0.632
 4086SOL    HW113157   0.225   4.766   0.666
 4086SOL    HW213158   0.367   4.686   0.672
 4087SOL     OW13159   2.442   0.907   2.763
 4087SOL    HW113160   2.480   0.941   2.849
 4087SOL    HW213161   2.343   0.922   2.763
 4088SOL     OW13162   6.345   0.901   5.897
 4088SOL    HW113163   6.391   0.845   5.828
 4088SOL    HW213164   6.370   0.869   5.988
 4089SOL     OW13165   6.309   5.525   4.872
 4089SOL    HW113166   6.307   5.614   4.916
 4089SOL    HW213167   6.340   5.456   4.937
 4090SOL     OW13168   1.851   5.767   5.040
 4090SOL    HW113169   1.785   5.731   5.106
 4090SOL    HW213170   1.923   5.700   5.025
 4091SOL     OW13171   0.541   5.626   6.990
 4091SOL    HW113172   0.581   5.551   0.021
 4091SOL    HW213173   0.538   5.709   0.022
 4092SOL     OW13174   6.133   2.488   3.750
 4092SOL    HW113175   6.218   2.500   3.801
 4092SOL    HW213176   6.091   2.400   3.775
 4093SOL     OW13177   5.363   6.767   1.249
 4093SOL    HW113178   5.352   6.679   1.203
 4093SOL    HW213179   5.290   6.829   1.221
 4094SOL     OW13180   0.806   4.823   6.254
 4094SOL    HW113181   0.888   4.847   6.307
 4094SOL    HW213182   0.825   4.837   6.157
 4095SOL     OW13183   0.953   3.575   0.220
 4095SOL    HW113184   0.905   3.657   0.187
 4095SOL    HW213185   1.040   3.601   0.262
 4096SOL     OW13186   2.965   0.920   6.283
 4096SOL    HW113187   3.061   0.894   6.272
 4096SOL    HW213188   2.909   0.838   6.293
 4097SOL     OW13189   5.590   5.110   5.430
 4097SOL    HW113190   5.617   5.205   5.448
 4097SOL    HW213191   5.569   5.064   5.516
 4098SOL     OW13192   1.523   3.354   0.969
 4098SOL    HW113193   1.515   3.383   0.874
 4098SOL    HW213194   1.445   3.387   1.022
 4099SOL     OW13195   3.292   5.092   0.458
 4099SOL    HW113196   3.297   5.004   0.505
 4099SOL    HW213197   3.362   5.154   0.493
 4100SOL     OW13198   1.194   0.614   4.198
 4100SOL    HW113199   1.246   0.537   4.159
 4100SOL    HW213200   1.233   0.639   4.286
 4101SOL     OW13201   0.548   1.279   6.714
 4101SOL    HW113202   0.459   1.322   6.696
 4101SOL    HW213203   0.579   1.232   6.631
 4102SOL     OW13204   1.951   0.690   0.839
 4102SOL    HW113205   1.961   0.784   0.872
 4102SOL    HW213206   1.876   0.645   0.889
 4103SOL     OW13207   6.886   6.802   2.060
 4103SOL    HW113208   6.946   6.802   1.980
 4103SOL    HW213209   6.889   6.892   2.104
 4104SOL     OW13210   0.646   5.482   3.678
 4104SOL    HW113211   0.548   5.491   3.661
 4104SOL    HW213212   0.697   5.517   3.599
 4105SOL     OW13213   5.625   0.698   2.402
 4105SOL    HW113214   5.615   0.601   2.380
 4105SOL    HW213215   5.701   0.710   2.465
 4106SOL     OW13216   0.966   1.999   3.760
 4106SOL    HW113217   1.017   2.069   3.710
 4106SOL    HW213218   0.959   1.916   3.704
 4107SOL     OW13219   1.153   5.800   0.131
 4107SOL    HW113220   1.218   5.876   0.133
 4107SOL    HW213221   1.070   5.829   0.083
 4108SOL     OW13222   6.614   5.061   4.633
 4108SOL    HW113223   6.695   5.006   4.612
 4108SOL    HW213224   6.630   5.156   4.606
 4109SOL     OW13225   5.649   6.881   4.856
 4109SOL    HW113226   5.729   6.820   4.847
 4109SOL    HW213227   5.574   6.845   4.801
 4110SOL     OW13228   3.689   2.936   6.192
 4110SOL    HW113229   3.699   3.027   6.232
 4110SOL    HW213230   3.780   2.898   6.172
 4111SOL     OW13231   6.027   4.977   6.353
 4111SOL    HW113232   5.999   5.061   6.308
 4111SOL    HW213233   6.126   4.977   6.367
 4112SOL     OW13234   4.754   6.785   4.392
 4112SOL    HW113235   4.804   6.736   4.463
 4112SOL    HW213236   4.681   6.726   4.356
 4113SOL     OW13237   4.759   5.950   5.067
 4113SOL    HW113238   4.846   5.925   5.111
 4113SOL    HW213239   4.738   5.884   4.995
 4114SOL     OW13240   0.022   1.531   3.181
 4114SOL    HW113241   0.007   1.436   3.152
 4114SOL    HW213242   0.022   1.591   3.101
 4115SOL     OW13243   2.781   5.262   3.623
 4115SOL    HW113244   2.842   5.204   3.677
 4115SOL    HW213245   2.691   5.218   3.616
 4116SOL     OW13246   4.441   1.840   3.509
 4116SOL    HW113247   4.510   1.777   3.473
 4116SOL    HW213248   4.359   1.788   3.535
 4117SOL     OW13249   1.165   2.570   3.512
 4117SOL    HW113250   1.233   2.600   3.579
 4117SOL    HW213251   1.100   2.644   3.496
 4118SOL     OW13252   5.321   6.760   6.661
 4118SOL    HW113253   5.333   6.837   6.598
 4118SOL    HW213254   5.408   6.737   6.703
 4119SOL     OW13255   3.115   1.446   3.763
 4119SOL    HW113256   3.155   1.461   3.853
 4119SOL    HW213257   3.033   1.502   3.753
 4120SOL     OW13258   3.395   1.437   5.861
 4120SOL    HW113259   3.305   1.408   5.826
 4120SOL    HW213260   3.406   1.405   5.955
 4121SOL     OW13261   5.997   0.343   3.437
 4121SOL    HW113262   5.970   0.327   3.342
 4121SOL    HW213263   6.097   0.339   3.444
 4122SOL     OW13264   1.917   6.735   4.420
 4122SOL    HW113265   1.900   6.723   4.518
 4122SOL    HW213266   1.843   6.692   4.368
 4123SOL     OW13267   4.233   4.848   4.763
 4123SOL    HW113268   4.263   4.753   4.751
 4123SOL    HW213269   4.182   4.856   4.849
 4124SOL     OW13270   6.785   6.807   1.063
 4124SOL    HW113271   6.763   6.901   1.036
 4124SOL    HW213272   6.785   6.749   0.982
 4125SOL     OW13273   4.345   2.018   2.639
 4125SOL    HW113274   4.293   1.976   2.713
 4125SOL    HW213275   4.364   1.950   2.568
 4126SOL     OW13276   1.950   3.565   3.020
 4126SOL    HW113277   2.036   3.539   3.063
 4126SOL    HW213278   1.873   3.521   3.066
 4127SOL     OW13279   5.444   3.333   5.356
 4127SOL    HW113280   5.461   3.343   5.258
 4127SOL    HW213281   5.418   3.422   5.394
 4128SOL     OW13282   0.659   3.601   1.556
 4128SOL    HW113283   0.684   3.534   1.626
 4128SOL    HW213284   0.671   3.560   1.466
 4129SOL     OW13285   3.305   1.216   0.218
 4129SOL    HW113286   3.269   1.256   0.302
 4129SOL    HW213287   3.236   1.220   0.146
 4130SOL     OW13288   6.279   2.153   0.420
 4130SOL    HW113289   6.269   2.250   0.442
 4130SOL    HW213290   6.203   2.125   0.361
 4131SOL     OW13291   0.363   1.417   2.974
 4131SOL    HW113292   0.336   1.423   2.878
 4131SOL    HW213293   0.329   1.332   3.013
 4132SOL     OW13294   5.157   3.776   4.372
 4132SOL    HW113295   5.200   3.711   4.310
 4132SOL    HW213296   5.060   3.755   4.381
 4133SOL     OW13297   4.319   5.717   1.754
 4133SOL    HW113298   4.301   5.651   1.828
 4133SOL    HW213299   4.285   5.680   1.668
 4134SOL     OW13300   2.299   4.155   0.908
 4134SOL    HW113301   2.361   4.129   0.982
 4134SOL    HW213302   2.208   4.119   0.927
 4135SOL     OW13303   0.362   2.635   1.704
 4135SOL    HW113304   0.342   2.730   1.679
 4135SOL    HW213305   0.293   2.575   1.663
 4136SOL     OW13306   1.560   3.829   2.902
 4136SOL    HW113307   1.603   3.882   2.975
 4136SOL    HW213308   1.510   3.891   2.841
 4137SOL     OW13309   2.028   3.653   0.704
 4137SOL    HW113310   1.937   3.612   0.698
 4137SOL    HW213311   2.047   3.681   0.798
 4138SOL     OW13312   3.461   5.152   2.605
 4138SOL    HW113313   3.402   5.171   2.526
 4138SOL    HW213314   3.468   5.053   2.618
 4139SOL     OW13315   1.810   1.647   4.525
 4139SOL    HW113316   1.710   1.637   4.532
 4139SOL    HW213317   1.831   1.735   4.481
 4140SOL     OW13318   3.291   1.329   4.615
 4140SOL    HW113319   3.304   1.233   4.641
 4140SOL    HW213320   3.370   1.382   4.646
 4141SOL     OW13321   5.645   6.956   0.893
 4141SOL    HW113322   5.555   6.974   0.852
 4141SOL    HW213323   5.668   6.860   0.883
 4142SOL     OW13324   6.355   3.835   1.508
 4142SOL    HW113325   6.260   3.814   1.531
 4142SOL    HW213326   6.357   3.907   1.438
 4143SOL     OW13327   5.849   2.871   0.163
 4143SOL    HW113328   5.807   2.800   0.108
 4143SOL    HW213329   5.778   2.930   0.202
 4144SOL     OW13330   4.759   1.565   0.336
 4144SOL    HW113331   4.839   1.625   0.330
 4144SOL    HW213332   4.736   1.550   0.432
 4145SOL     OW13333   1.163   5.996   0.550
 4145SOL    HW113334   1.145   5.905   0.513
 4145SOL    HW213335   1.161   6.063   0.476
 4146SOL     OW13336   6.613   0.570   3.302
 4146SOL    HW113337   6.607   0.525   3.391
 4146SOL    HW213338   6.566   0.515   3.233
 4147SOL     OW13339   4.131   4.598   6.099
 4147SOL    HW113340   4.165   4.643   6.182
 4147SOL    HW213341   4.176   4.638   6.019
 4148SOL     OW13342   2.743   0.431   5.100
 4148SOL    HW113343   2.816   0.448   5.165
 4148SOL    HW213344   2.663   0.485   5.125
 4149SOL     OW13345   0.176   3.942   1.141
 4149SOL    HW113346   0.210   3.989   1.060
 4149SOL    HW213347   0.076   3.945   1.142
 4150SOL     OW13348   0.158   0.958   5.355
 4150SOL    HW113349   0.225   0.903   5.406
 4150SOL    HW213350   0.073   0.906   5.347
 4151SOL     OW13351   2.844   5.917   5.893
 4151SOL    HW113352   2.894   5.835   5.924
 4151SOL    HW213353   2.786   5.893   5.815
 4152SOL     OW13354   4.009   5.543   0.588
 4152SOL    HW113355   4.066   5.606   0.536
 4152SOL    HW213356   4.059   5.457   0.601
 4153SOL     OW13357   5.909   5.267   1.662
 4153SOL    HW113358   5.929   5.224   1.574
 4153SOL    HW213359   5.898   5.197   1.732
 4154SOL     OW13360   0.025   5.975   4.414
 4154SOL    HW113361   0.016   5.990   4.513
 4154SOL    HW213362   6.956   5.961   4.375
 4155SOL     OW13363   0.207   1.018   0.880
 4155SOL    HW113364   0.280   1.007   0.813
 4155SOL    HW213365   0.130   0.960   0.856
 4156SOL     OW13366   5.901   5.555   5.435
 4156SOL    HW113367   5.931   5.464   5.405
 4156SOL    HW213368   5.925   5.568   5.531
 4157SOL     OW13369   5.051   6.187   3.434
 4157SOL    HW113370   5.057   6.091   3.404
 4157SOL    HW213371   5.127   6.239   3.395
 4158SOL     OW13372   0.329   2.828   2.273
 4158SOL    HW113373   0.258   2.826   2.203
 4158SOL    HW213374   0.297   2.777   2.354
 4159SOL     OW13375   1.696   2.925   3.212
 4159SOL    HW113376   1.644   2.841   3.230
 4159SOL    HW213377   1.758   2.910   3.135
 4160SOL     OW13378   5.713   0.010   6.839
 4160SOL    HW113379   5.654   7.018   6.918
 4160SOL    HW213380   5.790   0.068   6.865
 4161SOL     OW13381   1.406   2.388   1.126
 4161SOL    HW113382   1.365   2.361   1.038
 4161SOL    HW213383   1.354   2.463   1.165
 4162SOL     OW13384   5.815   5.786   0.763
 4162SOL    HW113385   5.869   5.743   0.691
 4162SOL    HW213386   5.837   5.884   0.766
 4163SOL     OW13387   5.407   0.959   3.254
 4163SOL    HW113388   5.321   0.978   3.206
 4163SOL    HW213389   5.391   0.893   3.327
 4164SOL     OW13390   1.150   0.359   4.425
 4164SOL    HW113391   1.214   0.303   4.372
 4164SOL    HW213392   1.068   0.307   4.446
 4165SOL     OW13393   4.626   0.861   5.322
 4165SOL    HW113394   4.708   0.912   5.297
 4165SOL    HW213395   4.583   0.824   5.239
 4166SOL     OW13396   5.049   1.041   0.988
 4166SOL    HW113397   5.139   1.000   0.972
 4166SOL    HW213398   5.060   1.139   1.006
 4167SOL     OW13399   3.273   4.618   6.597
 4167SOL    HW113400   3.289   4.539   6.657
 4167SOL    HW213401   3.256   4.699   6.653
 4168SOL     OW13402   0.539   4.099   0.561
 4168SOL    HW113403   0.601   4.131   0.489
 4168SOL    HW213404   0.562   4.144   0.647
 4169SOL     OW13405   6.221   4.814   4.403
 4169SOL    HW113406   6.257   4.785   4.314
 4169SOL    HW213407   6.210   4.734   4.462
 4170SOL     OW13408   5.125   3.000   5.548
 4170SOL    HW113409   5.194   3.037   5.486
 4170SOL    HW213410   5.099   3.070   5.615
 4171SOL     OW13411   6.474   5.347   0.675
 4171SOL    HW113412   6.475   5.268   0.615
 4171SOL    HW213413   6.406   5.333   0.748
 4172SOL     OW13414   2.130   2.205   0.399
 4172SOL    HW113415   2.150   2.112   0.433
 4172SOL    HW213416   2.203   2.234   0.337
 4173SOL     OW13417   5.351   4.010   4.706
 4173SOL    HW113418   5.257   3.997   4.737
 4173SOL    HW213419   5.380   4.104   4.727
 4174SOL     OW13420   4.333   1.725   2.455
 4174SOL    HW113421   4.372   1.654   2.514
 4174SOL    HW213422   4.394   1.741   2.377
 4175SOL     OW13423   1.723   4.723   4.314
 4175SOL    HW113424   1.814   4.706   4.351
 4175SOL    HW213425   1.654   4.687   4.377
 4176SOL     OW13426   4.197   6.677   1.573
 4176SOL    HW113427   4.154   6.588   1.555
 4176SOL    HW213428   4.273   6.665   1.636
 4177SOL     OW13429   6.033   5.136   5.613
 4177SOL    HW113430   6.112   5.105   5.666
 4177SOL    HW213431   5.991   5.058   5.566
 4178SOL     OW13432   4.213   0.188   3.912
 4178SOL    HW113433   4.251   0.096   3.919
 4178SOL    HW213434   4.221   0.235   4.000
 4179SOL     OW13435   5.544   3.569   3.356
 4179SOL    HW113436   5.575   3.558   3.262
 4179SOL    HW213437   5.612   3.532   3.418
 4180SOL     OW13438   4.835   2.832   0.779
 4180SOL    HW113439   4.828   2.773   0.699
 4180SOL    HW213440   4.745   2.872   0.799
 4181SOL     OW13441   3.990   0.987   6.698
 4181SOL    HW113442   3.891   0.978   6.701
 4181SOL    HW213443   4.015   1.074   6.657
 4182SOL     OW13444   0.287   5.807   3.379
 4182SOL    HW113445   0.206   5.771   3.425
 4182SOL    HW213446   0.296   5.905   3.397
 4183SOL     OW13447   2.260   1.857   0.124
 4183SOL    HW113448   2.231   1.951   0.142
 4183SOL    HW213449   2.275   1.845   0.026
 4184SOL     OW13450   2.862   6.711   2.508
 4184SOL    HW113451   2.864   6.654   2.426
 4184SOL    HW213452   2.952   6.710   2.551
 4185SOL     OW13453   0.545   4.399   2.721
 4185SOL    HW113454   0.512   4.338   2.792
 4185SOL    HW213455   0.469   4.454   2.686
 4186SOL     OW13456   2.438   5.067   6.322
 4186SOL    HW113457   2.410   5.061   6.418
 4186SOL    HW213458   2.445   4.975   6.283
 4187SOL     OW13459   3.111   3.183   5.381
 4187SOL    HW113460   3.166   3.159   5.461
 4187SOL    HW213461   3.078   3.099   5.338
 4188SOL     OW13462   5.038   0.752   5.097
 4188SOL    HW113463   4.989   0.686   5.153
 4188SOL    HW213464   5.105   0.801   5.154
 4189SOL     OW13465   2.931   5.379   4.536
 4189SOL    HW113466   2.889   5.326   4.610
 4189SOL    HW213467   2.925   5.327   4.451
 4190SOL     OW13468   0.622   0.026   1.191
 4190SOL    HW113469   0.564   6.973   1.161
 4190SOL    HW213470   0.714   0.012   1.155
 4191SOL     OW13471   4.951   4.412   3.930
 4191SOL    HW113472   4.867   4.358   3.936
 4191SOL    HW213473   4.929   4.502   3.891
 4192SOL     OW13474   0.536   1.872   3.198
 4192SOL    HW113475   0.534   1.883   3.298
 4192SOL    HW213476   0.497   1.784   3.174
 4193SOL     OW13477   6.601   0.333   0.720
 4193SOL    HW113478   6.531   0.273   0.681
 4193SOL    HW213479   6.576   0.357   0.814
 4194SOL     OW13480   4.455   0.403   4.893
 4194SOL    HW113481   4.484   0.308   4.885
 4194SOL    HW213482   4.441   0.442   4.801
 4195SOL     OW13483   3.795   5.898   1.264
 4195SOL    HW113484   3.882   5.879   1.220
 4195SOL    HW213485   3.811   5.927   1.358
 4196SOL     OW13486   6.327   2.793   2.819
 4196SOL    HW113487   6.320   2.860   2.892
 4196SOL    HW213488   6.421   2.789   2.786
 4197SOL     OW13489   5.079   5.953   5.978
 4197SOL    HW113490   5.140   5.899   5.920
 4197SOL    HW213491   5.046   5.896   6.053
 4198SOL     OW13492   6.466   1.976   0.629
 4198SOL    HW113493   6.371   1.978   0.660
 4198SOL    HW213494   6.505   1.885   0.646
 4199SOL     OW13495   1.482   2.443   6.440
 4199SOL    HW113496   1.430   2.490   6.369
 4199SOL    HW213497   1.579   2.466   6.431
 4200SOL     OW13498   2.865   7.012   6.258
 4200SOL    HW113499   2.871   0.058   6.330
 4200SOL    HW213500   2.937   0.007   6.190
 4201SOL     OW13501   6.039   6.782   3.430
 4201SOL    HW113502   6.078   6.872   3.409
 4201SOL    HW213503   5.939   6.790   3.436
 4202SOL     OW13504   3.452   5.882   5.979
 4202SOL    HW113505   3.494   5.929   6.056
 4202SOL    HW213506   3.390   5.811   6.013
 4203SOL     OW13507   4.054   4.022   6.937
 4203SOL    HW113508   3.974   4.007   6.878
 4203SOL    HW213509   4.026   4.021   0.010
 4204SOL     OW13510   4.155   3.598   3.948
 4204SOL    HW113511   4.242   3.573   3.904
 4204SOL    HW213512   4.085   3.612   3.878
 4205SOL     OW13513   4.575   6.331   3.949
 4205SOL    HW113514   4.500   6.270   3.977
 4205SOL    HW213515   4.636   6.347   4.026
 4206SOL     OW13516   6.296   0.786   5.414
 4206SOL    HW113517   6.390   0.814   5.436
 4206SOL    HW213518   6.235   0.864   5.425
 4207SOL     OW13519   1.871   2.125   1.903
 4207SOL    HW113520   1.956   2.152   1.858
 4207SOL    HW213521   1.863   2.026   1.904
 4208SOL     OW13522   0.247   3.473   5.151
 4208SOL    HW113523   0.226   3.422   5.068
 4208SOL    HW213524   0.276   3.566   5.126
 4209SOL     OW13525   6.993   0.258   3.631
 4209SOL    HW113526   0.016   0.169   3.635
 4209SOL    HW213527   6.938   0.263   3.548
 4210SOL     OW13528   4.108   3.713   2.198
 4210SOL    HW113529   4.051   3.633   2.175
 4210SOL    HW213530   4.116   3.771   2.117
 4211SOL     OW13531   3.928   0.204   6.347
 4211SOL    HW113532   3.843   0.152   6.363
 4211SOL    HW213533   3.992   0.148   6.295
 4212SOL     OW13534   6.607   1.924   2.726
 4212SOL    HW113535   6.516   1.884   2.714
 4212SOL    HW213536   6.673   1.872   2.673
 4213SOL     OW13537   2.080   0.407   2.029
 4213SOL    HW113538   2.142   0.460   2.087
 4213SOL    HW213539   1.988   0.446   2.034
 4214SOL     OW13540   0.917   5.785   4.949
 4214SOL    HW113541   0.876   5.747   5.032
 4214SOL    HW213542   1.011   5.753   4.940
 4215SOL     OW13543   4.647   0.178   6.359
 4215SOL    HW113544   4.556   0.168   6.318
 4215SOL    HW213545   4.717   0.161   6.290
 4216SOL     OW13546   1.197   1.308   3.031
 4216SOL    HW113547   1.183   1.360   2.947
 4216SOL    HW213548   1.285   1.261   3.027
 4217SOL     OW13549   1.092   0.783   2.771
 4217SOL    HW113550   1.001   0.808   2.804
 4217SOL    HW213551   1.083   0.713   2.700
 4218SOL     OW13552   4.336   1.230   1.871
 4218SOL    HW113553   4.329   1.145   1.923
 4218SOL    HW213554   4.247   1.253   1.832
 4219SOL     OW13555   3.826   5.999   3.825
 4219SOL    HW113556   3.884   5.924   3.854
 4219SOL    HW213557   3.732   5.966   3.814
 4220SOL     OW13558   6.848   3.548   3.406
 4220SOL    HW113559   6.790   3.580   3.331
 4220SOL    HW213560   6.861   3.449   3.399
 4221SOL     OW13561   6.052   5.497   6.337
 4221SOL    HW113562   5.987   5.569   6.316
 4221SOL    HW213563   6.118   5.489   6.262
 4222SOL     OW13564   0.119   1.828   2.126
 4222SOL    HW113565   0.049   1.862   2.064
 4222SOL    HW213566   0.168   1.905   2.167
 4223SOL     OW13567   3.495   3.187   0.444
 4223SOL    HW113568   3.583   3.167   0.402
 4223SOL    HW213569   3.489   3.141   0.532
 4224SOL     OW13570   5.179   4.515   4.061
 4224SOL    HW113571   5.108   4.453   4.027
 4224SOL    HW213572   5.220   4.564   3.984
 4225SOL     OW13573   3.149   2.479   5.680
 4225SOL    HW113574   3.095   2.399   5.653
 4225SOL    HW213575   3.088   2.550   5.715
 4226SOL     OW13576   0.921   0.111   3.059
 4226SOL    HW113577   0.936   0.115   3.158
 4226SOL    HW213578   0.857   0.038   3.038
 4227SOL     OW13579   3.806   4.993   1.597
 4227SOL    HW113580   3.715   4.976   1.635
 4227SOL    HW213581   3.856   4.907   1.590
 4228SOL     OW13582   0.895   5.315   5.160
 4228SOL    HW113583   0.797   5.331   5.149
 4228SOL    HW213584   0.941   5.324   5.071
 4229SOL     OW13585   5.196   6.576   5.984
 4229SOL    HW113586   5.220   6.650   5.921
 4229SOL    HW213587   5.253   6.582   6.065
 4230SOL     OW13588   0.738   5.842   2.288
 4230SOL    HW113589   0.802   5.768   2.306
 4230SOL    HW213590   0.735   5.903   2.367
 4231SOL     OW13591   5.944   6.807   5.660
 4231SOL    HW113592   5.862   6.819   5.716
 4231SOL    HW213593   5.919   6.813   5.563
 4232SOL     OW13594   6.896   4.865   3.385
 4232SOL    HW113595   6.833   4.913   3.324
 4232SOL    HW213596   6.980   4.845   3.336
 4233SOL     OW13597   6.656   7.010   5.709
 4233SOL    HW113598   6.748   0.024   5.722
 4233SOL    HW213599   6.650   6.920   5.752
 4234SOL     OW13600   2.703   6.325   4.961
 4234SOL    HW113601   2.679   6.275   4.878
 4234SOL    HW213602   2.801   6.346   4.960
 4235SOL     OW13603   5.674   4.230   5.612
 4235SOL    HW113604   5.773   4.220   5.596
 4235SOL    HW213605   5.640   4.308   5.559
 4236SOL     OW13606   6.297   3.267   2.213
 4236SOL    HW113607   6.343   3.330   2.276
 4236SOL    HW213608   6.321   3.292   2.119
 4237SOL     OW13609   5.508   5.855   3.402
 4237SOL    HW113610   5.518   5.940   3.351
 4237SOL    HW213611   5.596   5.806   3.403
 4238SOL     OW13612   2.404   6.271   2.588
 4238SOL    HW113613   2.306   6.250   2.585
 4238SOL    HW213614   2.429   6.325   2.508
 4239SOL     OW13615   5.673   1.619   2.404
 4239SOL    HW113616   5.745   1.555   2.377
 4239SOL    HW213617   5.616   1.639   2.325
 4240SOL     OW13618   2.321   5.746   0.370
 4240SOL    HW113619   2.372   5.679   0.424
 4240SOL    HW213620   2.273   5.700   0.296
 4241SOL     OW13621   6.255   1.161   0.275
 4241SOL    HW113622   6.158   1.185   0.279
 4241SOL    HW213623   6.281   1.144   0.180
 4242SOL     OW13624   3.277   1.275   4.128
 4242SOL    HW113625   3.233   1.359   4.159
 4242SOL    HW213626   3.210   1.217   4.082
 4243SOL     OW13627   6.268   3.028   2.994
 4243SOL    HW113628   6.180   3.069   3.018
 4243SOL    HW213629   6.339   3.098   2.995
 4244SOL     OW13630   4.542   4.435   1.615
 4244SOL    HW113631   4.518   4.386   1.699
 4244SOL    HW213632   4.475   4.415   1.545
 4245SOL     OW13633   7.008   1.580   6.451
 4245SOL    HW113634   6.987   1.482   6.448
 4245SOL    HW213635   6.961   1.622   6.528
 4246SOL     OW13636   0.078   4.146   3.605
 4246SOL    HW113637   0.106   4.053   3.628
 4246SOL    HW213638   7.000   4.150   3.599
 4247SOL     OW13639   2.748   5.742   3.766
 4247SOL    HW113640   2.844   5.719   3.752
 4247SOL    HW213641   2.690   5.668   3.732
 4248SOL     OW13642   3.509   1.559   3.049
 4248SOL    HW113643   3.511   1.658   3.067
 4248SOL    HW213644   3.525   1.543   2.952
 4249SOL     OW13645   6.058   2.199   3.746
 4249SOL    HW113646   6.053   2.210   3.647
 4249SOL    HW213647   6.150   2.168   3.772
 4250SOL     OW13648   6.482   4.408   2.690
 4250SOL    HW113649   6.401   4.374   2.642
 4250SOL    HW213650   6.460   4.423   2.787
 4251SOL     OW13651   5.087   4.849   1.668
 4251SOL    HW113652   5.151   4.926   1.668
 4251SOL    HW213653   5.073   4.817   1.574
 4252SOL     OW13654   5.615   6.259   6.160
 4252SOL    HW113655   5.555   6.179   6.166
 4252SOL    HW213656   5.615   6.293   6.066
 4253SOL     OW13657   3.570   6.849   1.131
 4253SOL    HW113658   3.571   6.946   1.105
 4253SOL    HW213659   3.573   6.792   1.049
 4254SOL     OW13660   0.627   3.043   1.646
 4254SOL    HW113661   0.696   3.114   1.632
 4254SOL    HW213662   0.635   3.007   1.739
 4255SOL     OW13663   6.928   4.449   3.735
 4255SOL    HW113664   6.854   4.514   3.752
 4255SOL    HW213665   7.016   4.495   3.746
 4256SOL     OW13666   2.302   6.639   0.352
 4256SOL    HW113667   2.302   6.566   0.420
 4256SOL    HW213668   2.286   6.727   0.397
 4257SOL     OW13669   2.893   0.518   4.677
 4257SOL    HW113670   2.909   0.570   4.593
 4257SOL    HW213671   2.958   0.442   4.682
 4258SOL     OW13672   4.908   6.508   1.223
 4258SOL    HW113673   4.955   6.429   1.263
 4258SOL    HW213674   4.824   6.477   1.178
 4259SOL     OW13675   2.790   0.487   0.846
 4259SOL    HW113676   2.722   0.535   0.790
 4259SOL    HW213677   2.809   0.540   0.928
 4260SOL     OW13678   5.495   0.246   1.304
 4260SOL    HW113679   5.584   0.292   1.314
 4260SOL    HW213680   5.505   0.168   1.243
 4261SOL     OW13681   1.963   6.743   2.304
 4261SOL    HW113682   2.062   6.733   2.301
 4261SOL    HW213683   1.931   6.790   2.221
 4262SOL     OW13684   0.860   5.163   5.860
 4262SOL    HW113685   0.889   5.071   5.833
 4262SOL    HW213686   0.927   5.203   5.922
 4263SOL     OW13687   2.964   6.418   3.016
 4263SOL    HW113688   3.000   6.441   2.925
 4263SOL    HW213689   3.027   6.356   3.063
 4264SOL     OW13690   0.129   2.481   2.713
 4264SOL    HW113691   0.166   2.572   2.698
 4264SOL    HW213692   0.042   2.488   2.761
 4265SOL     OW13693   5.072   1.670   0.888
 4265SOL    HW113694   5.104   1.731   0.960
 4265SOL    HW213695   5.016   1.597   0.929
 4266SOL     OW13696   1.934   5.629   0.323
 4266SOL    HW113697   1.879   5.702   0.283
 4266SOL    HW213698   1.875   5.557   0.357
 4267SOL     OW13699   1.879   2.987   4.487
 4267SOL    HW113700   1.819   2.911   4.462
 4267SOL    HW213701   1.889   2.991   4.587
 4268SOL     OW13702   1.094   5.774   6.483
 4268SOL    HW113703   1.116   5.751   6.578
 4268SOL    HW213704   1.124   5.868   6.464
 4269SOL     OW13705   2.520   0.667   1.416
 4269SOL    HW113706   2.504   0.610   1.497
 4269SOL    HW213707   2.501   0.613   1.334
 4270SOL     OW13708   4.094   3.486   3.494
 4270SOL    HW113709   4.105   3.585   3.507
 4270SOL    HW213710   4.113   3.439   3.580
 4271SOL     OW13711   6.775   1.294   6.944
 4271SOL    HW113712   6.792   1.201   6.977
 4271SOL    HW213713   6.816   1.304   6.853
 4272SOL     OW13714   6.813   2.714   4.082
 4272SOL    HW113715   6.896   2.695   4.135
 4272SOL    HW213716   6.819   2.804   4.041
 4273SOL     OW13717   4.545   0.009   4.639
 4273SOL    HW113718   4.516   6.936   4.626
 4273SOL    HW213719   4.598   0.039   4.560
 4274SOL     OW13720   0.914   6.266   1.777
 4274SOL    HW113721   0.864   6.321   1.845
 4274SOL    HW213722   0.927   6.174   1.813
 4275SOL     OW13723   6.502   1.350   3.951
 4275SOL    HW113724   6.444   1.289   3.898
 4275SOL    HW213725   6.536   1.302   4.032
 4276SOL     OW13726   1.771   4.830   3.489
 4276SOL    HW113727   1.679   4.815   3.453
 4276SOL    HW213728   1.834   4.841   3.412
 4277SOL     OW13729   6.401   4.587   3.820
 4277SOL    HW113730   6.435   4.493   3.819
 4277SOL    HW213731   6.311   4.590   3.777
 4278SOL     OW13732   6.847   0.298   4.478
 4278SOL    HW113733   6.885   0.206   4.467
 4278SOL    HW213734   6.908   0.365   4.433
 4279SOL     OW13735   3.417   0.271   4.240
 4279SOL    HW113736   3.399   0.179   4.274
 4279SOL    HW213737   3.508   0.300   4.268
 4280SOL     OW13738   4.457   0.435   5.894
 4280SOL    HW113739   4.485   0.530   5.888
 4280SOL    HW213740   4.365   0.425   5.854
 4281SOL     OW13741   0.225   4.589   3.445
 4281SOL    HW113742   0.221   4.490   3.432
 4281SOL    HW213743   0.320   4.619   3.450
 4282SOL     OW13744   3.123   4.461   5.729
 4282SOL    HW113745   3.130   4.536   5.663
 4282SOL    HW213746   3.065   4.388   5.692
 4283SOL     OW13747   1.004   0.630   3.313
 4283SOL    HW113748   1.001   0.692   3.235
 4283SOL    HW213749   1.075   0.660   3.377
 4284SOL     OW13750   4.028   4.756   1.546
 4284SOL    HW113751   4.038   4.708   1.633
 4284SOL    HW213752   4.083   4.710   1.476
 4285SOL     OW13753   1.078   0.617   6.198
 4285SOL    HW113754   1.128   0.531   6.212
 4285SOL    HW213755   0.999   0.599   6.138
 4286SOL     OW13756   4.830   6.524   6.161
 4286SOL    HW113757   4.854   6.477   6.245
 4286SOL    HW213758   4.871   6.616   6.161
 4287SOL     OW13759   6.029   2.142   6.136
 4287SOL    HW113760   5.998   2.209   6.203
 4287SOL    HW213761   6.017   2.050   6.174
 4288SOL     OW13762   0.130   6.160   4.183
 4288SOL    HW113763   0.056   6.113   4.232
 4288SOL    HW213764   0.217   6.139   4.226
 4289SOL     OW13765   6.582   2.955   6.701
 4289SOL    HW113766   6.608   2.885   6.635
 4289SOL    HW213767   6.657   3.019   6.713
 4290SOL     OW13768   1.489   6.605   2.797
 4290SOL    HW113769   1.418   6.570   2.859
 4290SOL    HW213770   1.577   6.605   2.844
 4291SOL     OW13771   4.501   3.237   1.402
 4291SOL    HW113772   4.477   3.330   1.374
 4291SOL    HW213773   4.568   3.199   1.339
 4292SOL     OW13774   5.795   3.675   0.180
 4292SOL    HW113775   5.837   3.591   0.216
 4292SOL    HW213776   5.760   3.657   0.087
 4293SOL     OW13777   2.369   3.154   0.460
 4293SOL    HW113778   2.436   3.091   0.500
 4293SOL    HW213779   2.416   3.214   0.394
 4294SOL     OW13780   2.395   3.058   6.765
 4294SOL    HW113781   2.448   2.993   6.711
 4294SOL    HW213782   2.454   3.134   6.793
 4295SOL     OW13783   4.000   5.615   4.402
 4295SOL    HW113784   3.969   5.570   4.318
 4295SOL    HW213785   3.965   5.709   4.404
 4296SOL     OW13786   3.557   0.089   0.470
 4296SOL    HW113787   3.502   0.142   0.406
 4296SOL    HW213788   3.632   0.044   0.420
 4297SOL     OW13789   4.954   0.891   6.800
 4297SOL    HW113790   4.915   0.928   6.715
 4297SOL    HW213791   4.994   0.801   6.781
 4298SOL     OW13792   3.729   5.325   0.654
 4298SOL    HW113793   3.748   5.423   0.646
 4298SOL    HW213794   3.801   5.274   0.606
 4299SOL     OW13795   0.855   3.070   6.071
 4299SOL    HW113796   0.835   2.986   6.021
 4299SOL    HW213797   0.876   3.048   6.167
 4300SOL     OW13798   3.800   0.397   6.816
 4300SOL    HW113799   3.789   0.496   6.828
 4300SOL    HW213800   3.822   0.378   6.720
 4301SOL     OW13801   4.284   1.048   1.589
 4301SOL    HW113802   4.300   1.140   1.552
 4301SOL    HW213803   4.186   1.027   1.585
 4302SOL     OW13804   1.327   6.413   6.231
 4302SOL    HW113805   1.420   6.443   6.254
 4302SOL    HW213806   1.261   6.477   6.270
 4303SOL     OW13807   0.132   4.852   4.290
 4303SOL    HW113808   0.045   4.819   4.327
 4303SOL    HW213809   0.205   4.790   4.316
 4304SOL     OW13810   3.021   3.824   3.333
 4304SOL    HW113811   3.117   3.826   3.362
 4304SOL    HW213812   3.013   3.859   3.239
 4305SOL     OW13813   6.568   0.323   5.087
 4305SOL    HW113814   6.639   0.291   5.024
 4305SOL    HW213815   6.495   0.255   5.094
 4306SOL     OW13816   5.484   4.271   5.958
 4306SOL    HW113817   5.464   4.237   6.049
 4306SOL    HW213818   5.579   4.253   5.935
 4307SOL     OW13819   4.243   4.236   5.763
 4307SOL    HW113820   4.227   4.251   5.860
 4307SOL    HW213821   4.192   4.155   5.734
 4308SOL     OW13822   6.320   5.097   0.264
 4308SOL    HW113823   6.220   5.098   0.261
 4308SOL    HW213824   6.355   5.035   0.193
 4309SOL     OW13825   1.090   1.252   0.301
 4309SOL    HW113826   1.034   1.334   0.300
 4309SOL    HW213827   1.037   1.174   0.266
 4310SOL     OW13828   1.289   2.645   2.534
 4310SOL    HW113829   1.344   2.632   2.616
 4310SOL    HW213830   1.258   2.740   2.529
 4311SOL     OW13831   1.953   5.870   2.897
 4311SOL    HW113832   1.883   5.939   2.907
 4311SOL    HW213833   2.009   5.866   2.980
 4312SOL     OW13834   1.402   4.919   1.175
 4312SOL    HW113835   1.462   4.997   1.156
 4312SOL    HW213836   1.381   4.872   1.089
 4313SOL     OW13837   5.327   2.001   1.959
 4313SOL    HW113838   5.243   1.949   1.976
 4313SOL    HW213839   5.304   2.090   1.921
 4314SOL     OW13840   6.122   1.097   4.426
 4314SOL    HW113841   6.207   1.107   4.478
 4314SOL    HW213842   6.045   1.087   4.489
 4315SOL     OW13843   2.201   6.674   1.959
 4315SOL    HW113844   2.301   6.674   1.964
 4315SOL    HW213845   2.172   6.708   1.870
 4316SOL     OW13846   5.181   0.134   1.843
 4316SOL    HW113847   5.175   0.042   1.883
 4316SOL    HW213848   5.094   0.155   1.797
 4317SOL     OW13849   4.942   1.916   4.452
 4317SOL    HW113850   4.903   1.829   4.422
 4317SOL    HW213851   4.967   1.909   4.549
 4318SOL     OW13852   0.749   3.494   5.338
 4318SOL    HW113853   0.677   3.503   5.406
 4318SOL    HW213854   0.826   3.553   5.363
 4319SOL     OW13855   2.278   2.595   0.925
 4319SOL    HW113856   2.180   2.577   0.923
 4319SOL    HW213857   2.294   2.693   0.923
 4320SOL     OW13858   6.138   5.119   1.383
 4320SOL    HW113859   6.235   5.105   1.400
 4320SOL    HW213860   6.099   5.035   1.344
 4321SOL     OW13861   6.960   6.736   5.436
 4321SOL    HW113862   0.023   6.692   5.407
 4321SOL    HW213863   6.934   6.701   5.526
 4322SOL     OW13864   6.488   2.819   6.426
 4322SOL    HW113865   6.530   2.909   6.416
 4322SOL    HW213866   6.556   2.755   6.462
 4323SOL     OW13867   4.043   3.803   0.941
 4323SOL    HW113868   3.979   3.780   0.868
 4323SOL    HW213869   4.134   3.767   0.919
 4324SOL     OW13870   5.635   4.613   0.411
 4324SOL    HW113871   5.610   4.559   0.331
 4324SOL    HW213872   5.613   4.709   0.394
 4325SOL     OW13873   2.210   1.199   1.408
 4325SOL    HW113874   2.303   1.231   1.394
 4325SOL    HW213875   2.212   1.114   1.461
 4326SOL     OW13876   4.892   4.842   4.684
 4326SOL    HW113877   4.811   4.784   4.687
 4326SOL    HW213878   4.886   4.906   4.608
 4327SOL     OW13879   5.816   6.519   1.794
 4327SOL    HW113880   5.751   6.569   1.737
 4327SOL    HW213881   5.887   6.581   1.827
 4328SOL     OW13882   4.603   3.833   5.387
 4328SOL    HW113883   4.541   3.755   5.395
 4328SOL    HW213884   4.694   3.801   5.360
 4329SOL     OW13885   4.590   1.677   5.929
 4329SOL    HW113886   4.652   1.745   5.967
 4329SOL    HW213887   4.516   1.722   5.879
 4330SOL     OW13888   2.717   6.925   4.945
 4330SOL    HW113889   2.683   7.014   4.976
 4330SOL    HW213890   2.726   6.863   5.024
 4331SOL     OW13891   5.343   1.791   1.639
 4331SOL    HW113892   5.306   1.768   1.549
 4331SOL    HW213893   5.275   1.844   1.690
 4332SOL     OW13894   5.218   3.976   2.449
 4332SOL    HW113895   5.138   3.917   2.457
 4332SOL    HW213896   5.189   4.067   2.421
 4333SOL     OW13897   3.865   0.619   5.029
 4333SOL    HW113898   3.888   0.579   5.118
 4333SOL    HW213899   3.767   0.612   5.013
 4334SOL     OW13900   1.574   2.622   2.595
 4334SOL    HW113901   1.575   2.526   2.622
 4334SOL    HW213902   1.596   2.630   2.498
 4335SOL     OW13903   3.583   3.862   2.630
 4335SOL    HW113904   3.504   3.814   2.668
 4335SOL    HW213905   3.585   3.851   2.531
 4336SOL     OW13906   2.394   6.370   7.005
 4336SOL    HW113907   2.461   6.296   7.013
 4336SOL    HW213908   2.302   6.335   0.002
 4337SOL     OW13909   0.204   4.404   0.694
 4337SOL    HW113910   0.221   4.502   0.708
 4337SOL    HW213911   0.223   4.355   0.779
 4338SOL     OW13912   5.719   5.913   5.183
 4338SOL    HW113913   5.716   5.995   5.240
 4338SOL    HW213914   5.813   5.898   5.151
 4339SOL     OW13915   5.484   3.738   4.950
 4339SOL    HW113916   5.389   3.738   4.918
 4339SOL    HW213917   5.541   3.688   4.885
 4340SOL     OW13918   6.628   3.395   0.965
 4340SOL    HW113919   6.594   3.484   0.995
 4340SOL    HW213920   6.667   3.347   1.044
 4341SOL     OW13921   0.449   5.710   1.961
 4341SOL    HW113922   0.396   5.795   1.971
 4341SOL    HW213923   0.546   5.729   1.974
 4342SOL     OW13924   6.201   4.251   4.248
 4342SOL    HW113925   6.122   4.193   4.230
 4342SOL    HW213926   6.232   4.294   4.163
 4343SOL     OW13927   2.413   5.751   4.787
 4343SOL    HW113928   2.354   5.832   4.797
 4343SOL    HW213929   2.507   5.781   4.769
 4344SOL     OW13930   0.782   4.467   2.103
 4344SOL    HW113931   0.854   4.466   2.173
 4344SOL    HW213932   0.738   4.378   2.099
 4345SOL     OW13933   3.043   3.757   5.219
 4345SOL    HW113934   3.085   3.847   5.234
 4345SOL    HW213935   3.108   3.686   5.243
 4346SOL     OW13936   1.380   3.161   2.285
 4346SOL    HW113937   1.379   3.090   2.356
 4346SOL    HW213938   1.474   3.178   2.256
 4347SOL     OW13939   6.994   6.656   3.173
 4347SOL    HW113940   0.008   6.744   3.143
 4347SOL    HW213941   6.936   6.669   3.253
 4348SOL     OW13942   6.817   4.642   2.867
 4348SOL    HW113943   6.742   4.690   2.822
 4348SOL    HW213944   6.789   4.617   2.960
 4349SOL     OW13945   0.029   1.794   2.543
 4349SOL    HW113946   7.019   1.836   2.458
 4349SOL    HW213947   0.025   1.861   2.617
 4350SOL     OW13948   4.343   1.343   3.882
 4350SOL    HW113949   4.390   1.419   3.927
 4350SOL    HW213950   4.296   1.287   3.950
 4351SOL     OW13951   1.756   5.186   0.566
 4351SOL    HW113952   1.772   5.139   0.652
 4351SOL    HW213953   1.803   5.137   0.492
 4352SOL     OW13954   6.945   3.437   2.139
 4352SOL    HW113955   6.857   3.445   2.187
 4352SOL    HW213956   6.974   3.342   2.138
 4353SOL     OW13957   3.736   3.355   6.505
 4353SOL    HW113958   3.683   3.431   6.543
 4353SOL    HW213959   3.674   3.280   6.482
 4354SOL     OW13960   2.416   6.322   5.415
 4354SOL    HW113961   2.437   6.232   5.452
 4354SOL    HW213962   2.320   6.326   5.388
 4355SOL     OW13963   2.096   0.310   2.518
 4355SOL    HW113964   2.149   0.387   2.553
 4355SOL    HW213965   2.158   0.239   2.485
 4356SOL     OW13966   5.095   3.667   1.008
 4356SOL    HW113967   5.104   3.752   0.954
 4356SOL    HW213968   5.024   3.679   1.076
 4357SOL     OW13969   6.727   1.136   1.058
 4357SOL    HW113970   6.716   1.226   1.100
 4357SOL    HW213971   6.824   1.112   1.056
 4358SOL     OW13972   0.556   6.707   0.261
 4358SOL    HW113973   0.558   6.788   0.202
 4358SOL    HW213974   0.592   6.731   0.352
 4359SOL     OW13975   2.076   1.697   6.801
 4359SOL    HW113976   2.080   1.758   6.722
 4359SOL    HW213977   2.168   1.684   6.839
 4360SOL     OW13978   1.606   2.319   3.481
 4360SOL    HW113979   1.506   2.314   3.488
 4360SOL    HW213980   1.634   2.415   3.478
 4361SOL     OW13981   2.209   3.316   1.484
 4361SOL    HW113982   2.194   3.322   1.582
 4361SOL    HW213983   2.272   3.241   1.464
 4362SOL     OW13984   6.177   5.758   3.084
 4362SOL    HW113985   6.181   5.773   2.985
 4362SOL    HW213986   6.209   5.840   3.131
 4363SOL     OW13987   5.334   2.811   0.587
 4363SOL    HW113988   5.425   2.821   0.547
 4363SOL    HW213989   5.293   2.901   0.602
 4364SOL     OW13990   2.957   3.226   4.682
 4364SOL    HW113991   3.047   3.232   4.726
 4364SOL    HW213992   2.951   3.141   4.630
 4365SOL     OW13993   2.102   1.465   2.065
 4365SOL    HW113994   2.094   1.565   2.070
 4365SOL    HW213995   2.067   1.425   2.149
 4366SOL     OW13996   5.946   0.124   6.990
 4366SOL    HW113997   6.013   0.183   0.012
 4366SOL    HW213998   5.897   0.071   0.037
 4367SOL     OW13999   1.817   4.278   4.380
 4367SOL    HW114000   1.852   4.190   4.414
 4367SOL    HW214001   1.843   4.288   4.284
 4368SOL     OW14002   3.815   4.067   0.644
 4368SOL    HW114003   3.866   4.030   0.566
 4368SOL    HW214004   3.870   4.138   0.689
 4369SOL     OW14005   4.346   5.421   2.762
 4369SOL    HW114006   4.394   5.360   2.699
 4369SOL    HW214007   4.403   5.437   2.843
 4370SOL     OW14008   4.150   5.290   2.128
 4370SOL    HW114009   4.097   5.235   2.192
 4370SOL    HW214010   4.248   5.279   2.147
 4371SOL     OW14011   1.381   2.206   2.020
 4371SOL    HW114012   1.389   2.107   2.035
 4371SOL    HW214013   1.450   2.236   1.955
 4372SOL     OW14014   3.659   1.266   2.611
 4372SOL    HW114015   3.716   1.222   2.680
 4372SOL    HW214016   3.678   1.365   2.611
 4373SOL     OW14017   6.368   2.192   6.352
 4373SOL    HW114018   6.442   2.237   6.302
 4373SOL    HW214019   6.399   2.169   6.444
 4374SOL     OW14020   1.614   2.347   1.302
 4374SOL    HW114021   1.613   2.408   1.381
 4374SOL    HW214022   1.521   2.336   1.267
 4375SOL     OW14023   4.619   6.923   3.413
 4375SOL    HW114024   4.698   6.869   3.442
 4375SOL    HW214025   4.585   6.976   3.491
 4376SOL     OW14026   0.159   6.575   1.301
 4376SOL    HW114027   0.158   6.614   1.393
 4376SOL    HW214028   0.101   6.630   1.241
 4377SOL     OW14029   5.335   4.523   0.589
 4377SOL    HW114030   5.400   4.451   0.613
 4377SOL    HW214031   5.371   4.611   0.619
 4378SOL     OW14032   2.285   2.486   3.013
 4378SOL    HW114033   2.189   2.463   2.994
 4378SOL    HW214034   2.336   2.492   2.928
 4379SOL     OW14035   1.837   1.485   2.820
 4379SOL    HW114036   1.760   1.454   2.765
 4379SOL    HW214037   1.819   1.466   2.917
 4380SOL     OW14038   0.919   6.956   2.597
 4380SOL    HW114039   0.993   6.893   2.622
 4380SOL    HW214040   0.847   6.906   2.549
 4381SOL     OW14041   1.277   5.462   5.463
 4381SOL    HW114042   1.213   5.494   5.533
 4381SOL    HW214043   1.320   5.540   5.419
 4382SOL     OW14044   6.625   3.270   5.379
 4382SOL    HW114045   6.697   3.315   5.325
 4382SOL    HW214046   6.640   3.171   5.377
 4383SOL     OW14047   0.349   3.091   5.955
 4383SOL    HW114048   0.388   3.164   5.900
 4383SOL    HW214049   0.408   3.073   6.034
 4384SOL     OW14050   5.504   1.002   4.640
 4384SOL    HW114051   5.589   0.957   4.668
 4384SOL    HW214052   5.477   0.969   4.549
 4385SOL     OW14053   5.803   2.573   4.577
 4385SOL    HW114054   5.810   2.621   4.489
 4385SOL    HW214055   5.830   2.478   4.565
 4386SOL     OW14056   1.818   3.627   6.005
 4386SOL    HW114057   1.835   3.529   5.998
 4386SOL    HW214058   1.905   3.676   5.997
 4387SOL     OW14059   0.138   1.595   0.904
 4387SOL    HW114060   0.087   1.667   0.858
 4387SOL    HW214061   0.114   1.593   1.001
 4388SOL     OW14062   4.717   2.550   6.276
 4388SOL    HW114063   4.767   2.566   6.362
 4388SOL    HW214064   4.637   2.609   6.273
 4389SOL     OW14065   6.608   3.165   0.574
 4389SOL    HW114066   6.512   3.192   0.569
 4389SOL    HW214067   6.657   3.227   0.635
 4390SOL     OW14068   3.782   0.174   1.559
 4390SOL    HW114069   3.826   0.167   1.648
 4390SOL    HW214070   3.691   0.213   1.570
 4391SOL     OW14071   2.694   5.373   6.898
 4391SOL    HW114072   2.778   5.425   6.885
 4391SOL    HW214073   2.616   5.428   6.870
 4392SOL     OW14074   6.847   3.347   4.407
 4392SOL    HW114075   6.760   3.388   4.435
 4392SOL    HW214076   6.895   3.409   4.346
 4393SOL     OW14077   5.804   0.967   3.026
 4393SOL    HW114078   5.896   0.942   3.056
 4393SOL    HW214079   5.803   0.975   2.926
 4394SOL     OW14080   6.740   5.345   2.415
 4394SOL    HW114081   6.810   5.275   2.421
 4394SOL    HW214082   6.716   5.360   2.319
 4395SOL     OW14083   1.577   6.565   2.560
 4395SOL    HW114084   1.642   6.632   2.524
 4395SOL    HW214085   1.542   6.597   2.648
 4396SOL     OW14086   2.774   2.038   3.688
 4396SOL    HW114087   2.871   2.019   3.674
 4396SOL    HW214088   2.733   1.965   3.743
 4397SOL     OW14089   1.310   2.010   4.390
 4397SOL    HW114090   1.229   2.004   4.449
 4397SOL    HW214091   1.392   2.019   4.447
 4398SOL     OW14092   0.645   3.542   6.198
 4398SOL    HW114093   0.570   3.566   6.259
 4398SOL    HW214094   0.688   3.457   6.228
 4399SOL     OW14095   2.527   0.148   2.683
 4399SOL    HW114096   2.599   0.078   2.683
 4399SOL    HW214097   2.442   0.108   2.717
 4400SOL     OW14098   3.418   6.558   5.342
 4400SOL    HW114099   3.462   6.504   5.270
 4400SOL    HW214100   3.437   6.655   5.327
 4401SOL     OW14101   3.070   6.855   5.898
 4401SOL    HW114102   3.143   6.881   5.835
 4401SOL    HW214103   3.076   6.758   5.919
 4402SOL     OW14104   2.056   0.955   2.115
 4402SOL    HW114105   2.135   0.945   2.054
 4402SOL    HW214106   2.062   1.041   2.165
 4403SOL     OW14107   1.119   0.474   1.031
 4403SOL    HW114108   1.024   0.456   1.058
 4403SOL    HW214109   1.135   0.573   1.027
 4404SOL     OW14110   1.544   5.506   5.605
 4404SOL    HW114111   1.475   5.536   5.671
 4404SOL    HW214112   1.503   5.445   5.538
 4405SOL     OW14113   1.741   4.344   1.752
 4405SOL    HW114114   1.698   4.282   1.687
 4405SOL    HW214115   1.703   4.436   1.741
 4406SOL     OW14116   0.391   3.114   1.027
 4406SOL    HW114117   0.423   3.020   1.012
 4406SOL    HW214118   0.368   3.126   1.124
 4407SOL     OW14119   6.178   5.330   0.802
 4407SOL    HW114120   6.136   5.412   0.841
 4407SOL    HW214121   6.232   5.283   0.872
 4408SOL     OW14122   2.876   0.601   1.064
 4408SOL    HW114123   2.899   0.675   1.128
 4408SOL    HW214124   2.937   0.524   1.080
 4409SOL     OW14125   4.504   1.528   2.266
 4409SOL    HW114126   4.416   1.561   2.232
 4409SOL    HW214127   4.576   1.594   2.243
 4410SOL     OW14128   1.386   4.991   0.019
 4410SOL    HW114129   1.431   5.077   7.016
 4410SOL    HW214130   1.432   4.915   6.995
 4411SOL     OW14131   3.835   3.751   5.001
 4411SOL    HW114132   3.776   3.791   4.931
 4411SOL    HW214133   3.780   3.690   5.059
 4412SOL     OW14134   4.770   6.102   4.032
 4412SOL    HW114135   4.848   6.049   4.063
 4412SOL    HW214136   4.802   6.183   3.984
 4413SOL     OW14137   5.611   5.320   4.474
 4413SOL    HW114138   5.642   5.404   4.431
 4413SOL    HW214139   5.687   5.277   4.523
 4414SOL     OW14140   3.540   5.241   1.247
 4414SOL    HW114141   3.533   5.159   1.191
 4414SOL    HW214142   3.472   5.236   1.321
 4415SOL     OW14143   5.080   2.909   0.778
 4415SOL    HW114144   4.981   2.898   0.763
 4415SOL    HW214145   5.119   2.964   0.704
 4416SOL     OW14146   3.709   1.366   4.505
 4416SOL    HW114147   3.730   1.460   4.481
 4416SOL    HW214148   3.709   1.309   4.422
 4417SOL     OW14149   5.591   4.390   3.474
 4417SOL    HW114150   5.593   4.350   3.565
 4417SOL    HW214151   5.496   4.409   3.448
 4418SOL     OW14152   6.140   1.913   2.337
 4418SOL    HW114153   6.047   1.896   2.370
 4418SOL    HW214154   6.162   1.847   2.265
 4419SOL     OW14155   5.674   6.631   6.057
 4419SOL    HW114156   5.627   6.547   6.028
 4419SOL    HW214157   5.768   6.629   6.022
 4420SOL     OW14158   4.827   1.051   1.820
 4420SOL    HW114159   4.857   1.104   1.741
 4420SOL    HW214160   4.728   1.036   1.814
 4421SOL     OW14161   2.083   1.368   5.179
 4421SOL    HW114162   2.132   1.339   5.096
 4421SOL    HW214163   2.086   1.468   5.185
 4422SOL     OW14164   1.978   4.077   6.844
 4422SOL    HW114165   1.889   4.049   6.807
 4422SOL    HW214166   1.968   4.164   6.893
 4423SOL     OW14167   6.691   3.569   5.234
 4423SOL    HW114168   6.764   3.501   5.240
 4423SOL    HW214169   6.609   3.527   5.196
 4424SOL     OW14170   5.533   1.179   4.313
 4424SOL    HW114171   5.564   1.166   4.219
 4424SOL    HW214172   5.575   1.111   4.372
 4425SOL     OW14173   2.824   4.426   6.844
 4425SOL    HW114174   2.918   4.413   6.813
 4425SOL    HW214175   2.796   4.521   6.827
 4426SOL     OW14176   0.672   1.136   4.424
 4426SOL    HW114177   0.688   1.205   4.354
 4426SOL    HW214178   0.583   1.094   4.411
 4427SOL     OW14179   0.311   6.083   2.246
 4427SOL    HW114180   0.293   6.051   2.339
 4427SOL    HW214181   0.407   6.069   2.223
 4428SOL     OW14182   3.200   0.736   3.684
 4428SOL    HW114183   3.196   0.795   3.602
 4428SOL    HW214184   3.292   0.741   3.724
 4429SOL     OW14185   2.735   6.939   2.568
 4429SOL    HW114186   2.680   6.904   2.645
 4429SOL    HW214187   2.800   6.868   2.540
 4430SOL     OW14188   4.725   4.131   4.774
 4430SOL    HW114189   4.767   4.201   4.832
 4430SOL    HW214190   4.634   4.109   4.810
 4431SOL     OW14191   2.662   1.203   2.419
 4431SOL    HW114192   2.732   1.221   2.350
 4431SOL    HW214193   2.694   1.132   2.481
 4432SOL     OW14194   2.546   3.434   6.115
 4432SOL    HW114195   2.486   3.504   6.154
 4432SOL    HW214196   2.528   3.424   6.017
 4433SOL     OW14197   5.617   1.920   4.552
 4433SOL    HW114198   5.674   1.906   4.471
 4433SOL    HW214199   5.574   2.010   4.547
 4434SOL     OW14200   5.428   1.142   2.971
 4434SOL    HW114201   5.465   1.235   2.973
 4434SOL    HW214202   5.330   1.147   2.952
 4435SOL     OW14203   5.296   3.460   1.075
 4435SOL    HW114204   5.262   3.411   1.155
 4435SOL    HW214205   5.218   3.496   1.023
 4436SOL     OW14206   4.499   0.721   1.528
 4436SOL    HW114207   4.467   0.628   1.512
 4436SOL    HW214208   4.442   0.785   1.477
 4437SOL     OW14209   0.476   2.677   2.936
 4437SOL    HW114210   0.556   2.625   2.966
 4437SOL    HW214211   0.506   2.767   2.903
 4438SOL     OW14212   5.075   6.909   6.411
 4438SOL    HW114213   5.061   6.932   6.315
 4438SOL    HW214214   5.078   6.993   6.465
 4439SOL     OW14215   0.372   4.091   1.562
 4439SOL    HW114216   0.399   4.043   1.646
 4439SOL    HW214217   0.354   4.025   1.490
 4440SOL     OW14218   2.958   4.826   0.391
 4440SOL    HW114219   3.051   4.821   0.355
 4440SOL    HW214220   2.918   4.735   0.392
 4441SOL     OW14221   0.788   1.927   1.850
 4441SOL    HW114222   0.748   1.933   1.942
 4441SOL    HW214223   0.786   2.017   1.807
 4442SOL     OW14224   2.012   5.260   4.353
 4442SOL    HW114225   2.077   5.308   4.411
 4442SOL    HW214226   1.931   5.235   4.406
 4443SOL     OW14227   1.213   3.694   6.338
 4443SOL    HW114228   1.298   3.733   6.301
 4443SOL    HW214229   1.217   3.594   6.332
 4444SOL     OW14230   3.489   4.090   5.358
 4444SOL    HW114231   3.492   4.149   5.277
 4444SOL    HW214232   3.565   4.024   5.354
 4445SOL     OW14233   1.350   6.009   0.079
 4445SOL    HW114234   1.427   5.947   0.061
 4445SOL    HW214235   1.355   6.087   0.017
 4446SOL     OW14236   5.283   0.893   1.225
 4446SOL    HW114237   5.271   0.902   1.126
 4446SOL    HW214238   5.254   0.977   1.270
 4447SOL     OW14239   4.897   4.871   5.937
 4447SOL    HW114240   4.996   4.853   5.937
 4447SOL    HW214241   4.862   4.861   5.844
 4448SOL     OW14242   2.583   4.255   1.720
 4448SOL    HW114243   2.563   4.259   1.622
 4448SOL    HW214244   2.541   4.333   1.766
 4449SOL     OW14245   5.010   0.847   6.309
 4449SOL    HW114246   4.923   0.857   6.260
 4449SOL    HW214247   5.031   0.933   6.356
 4450SOL     OW14248   3.888   3.002   5.923
 4450SOL    HW114249   3.907   2.953   5.838
 4450SOL    HW214250   3.789   3.016   5.933
 4451SOL     OW14251   6.084   4.750   3.151
 4451SOL    HW114252   6.097   4.671   3.212
 4451SOL    HW214253   6.076   4.833   3.205
 4452SOL     OW14254   5.398   5.874   4.326
 4452SOL    HW114255   5.359   5.838   4.411
 4452SOL    HW214256   5.454   5.955   4.347
 4453SOL     OW14257   0.902   2.970   1.138
 4453SOL    HW114258   0.819   2.987   1.191
 4453SOL    HW214259   0.880   2.918   1.056
 4454SOL     OW14260   1.446   1.810   6.933
 4454SOL    HW114261   1.420   1.717   6.905
 4454SOL    HW214262   1.401   1.876   6.872
 4455SOL     OW14263   4.860   6.254   6.071
 4455SOL    HW114264   4.941   6.289   6.118
 4455SOL    HW214265   4.841   6.310   5.991
 4456SOL     OW14266   2.574   5.723   2.165
 4456SOL    HW114267   2.506   5.756   2.099
 4456SOL    HW214268   2.569   5.623   2.169
 4457SOL     OW14269   3.814   0.956   2.679
 4457SOL    HW114270   3.841   1.047   2.709
 4457SOL    HW214271   3.749   0.964   2.603
 4458SOL     OW14272   1.785   2.853   0.491
 4458SOL    HW114273   1.840   2.903   0.425
 4458SOL    HW214274   1.804   2.887   0.583
 4459SOL     OW14275   3.551   1.897   4.515
 4459SOL    HW114276   3.571   1.807   4.477
 4459SOL    HW214277   3.607   1.966   4.467
 4460SOL     OW14278   1.736   2.556   6.440
 4460SOL    HW114279   1.760   2.529   6.533
 4460SOL    HW214280   1.772   2.648   6.422
 4461SOL     OW14281   1.893   0.424   0.559
 4461SOL    HW114282   1.967   0.490   0.571
 4461SOL    HW214283   1.831   0.429   0.638
 4462SOL     OW14284   6.133   5.206   1.983
 4462SOL    HW114285   6.157   5.252   1.898
 4462SOL    HW214286   6.044   5.238   2.015
 4463SOL     OW14287   4.848   1.075   0.788
 4463SOL    HW114288   4.940   1.043   0.810
 4463SOL    HW214289   4.786   0.997   0.781
 4464SOL     OW14290   0.014   4.965   0.354
 4464SOL    HW114291   6.973   5.016   0.296
 4464SOL    HW214292   7.010   4.976   0.450
 4465SOL     OW14293   3.512   4.977   1.097
 4465SOL    HW114294   3.573   4.931   1.032
 4465SOL    HW214295   3.494   4.916   1.174
 4466SOL     OW14296   0.811   1.910   3.050
 4466SOL    HW114297   0.737   1.901   3.116
 4466SOL    HW214298   0.898   1.886   3.093
 4467SOL     OW14299   1.691   5.659   2.462
 4467SOL    HW114300   1.658   5.723   2.532
 4467SOL    HW214301   1.764   5.602   2.501
 4468SOL     OW14302   2.223   4.078   0.422
 4468SOL    HW114303   2.250   4.055   0.328
 4468SOL    HW214304   2.184   3.998   0.466
 4469SOL     OW14305   3.144   0.199   2.129
 4469SOL    HW114306   3.226   0.147   2.151
 4469SOL    HW214307   3.170   0.280   2.076
 4470SOL     OW14308   0.284   2.340   1.856
 4470SOL    HW114309   0.340   2.371   1.933
 4470SOL    HW214310   0.225   2.265   1.886
 4471SOL     OW14311   1.219   2.086   6.140
 4471SOL    HW114312   1.203   2.123   6.232
 4471SOL    HW214313   1.162   2.136   6.075
 4472SOL     OW14314   0.526   3.233   2.082
 4472SOL    HW114315   0.547   3.175   2.004
 4472SOL    HW214316   0.605   3.239   2.143
 4473SOL     OW14317   5.983   2.823   3.849
 4473SOL    HW114318   5.987   2.915   3.811
 4473SOL    HW214319   6.037   2.761   3.793
 4474SOL     OW14320   2.176   0.619   2.155
 4474SOL    HW114321   2.186   0.652   2.249
 4474SOL    HW214322   2.191   0.694   2.092
 4475SOL     OW14323   1.310   3.967   2.380
 4475SOL    HW114324   1.217   3.940   2.355
 4475SOL    HW214325   1.323   3.953   2.478
 4476SOL     OW14326   5.708   0.703   3.329
 4476SOL    HW114327   5.638   0.688   3.399
 4476SOL    HW214328   5.664   0.732   3.244
 4477SOL     OW14329   2.099   0.002   5.731
 4477SOL    HW114330   2.172   6.966   5.765
 4477SOL    HW214331   2.097   0.087   5.785
 4478SOL     OW14332   3.093   6.721   2.664
 4478SOL    HW114333   3.047   6.768   2.739
 4478SOL    HW214334   3.103   6.624   2.687
 4479SOL     OW14335   0.305   2.277   0.696
 4479SOL    HW114336   0.334   2.198   0.642
 4479SOL    HW214337   0.206   2.288   0.687
 4480SOL     OW14338   0.631   4.377   5.155
 4480SOL    HW114339   0.563   4.433   5.107
 4480SOL    HW214340   0.723   4.409   5.132
 4481SOL     OW14341   3.640   5.837   4.502
 4481SOL    HW114342   3.569   5.904   4.523
 4481SOL    HW214343   3.624   5.754   4.555
 4482SOL     OW14344   1.592   3.124   5.222
 4482SOL    HW114345   1.619   3.208   5.176
 4482SOL    HW214346   1.498   3.101   5.198
 4483SOL     OW14347   6.028   2.564   2.131
 4483SOL    HW114348   5.964   2.526   2.197
 4483SOL    HW214349   6.066   2.490   2.075
 4484SOL     OW14350   3.211   2.314   6.784
 4484SOL    HW114351   3.216   2.215   6.798
 4484SOL    HW214352   3.267   2.339   6.706
 4485SOL     OW14353   5.775   2.433   3.861
 4485SOL    HW114354   5.700   2.468   3.804
 4485SOL    HW214355   5.776   2.333   3.858
 4486SOL     OW14356   6.209   5.570   5.501
 4486SOL    HW114357   6.224   5.668   5.491
 4486SOL    HW214358   6.140   5.553   5.571
 4487SOL     OW14359   2.765   2.851   6.122
 4487SOL    HW114360   2.702   2.795   6.068
 4487SOL    HW214361   2.855   2.806   6.124
 4488SOL     OW14362   0.547   3.491   5.893
 4488SOL    HW114363   0.504   3.561   5.952
 4488SOL    HW214364   0.486   3.412   5.886
 4489SOL     OW14365   4.911   5.456   5.291
 4489SOL    HW114366   4.883   5.468   5.387
 4489SOL    HW214367   4.971   5.532   5.265
 4490SOL     OW14368   5.378   2.405   2.331
 4490SOL    HW114369   5.373   2.346   2.411
 4490SOL    HW214370   5.317   2.483   2.343
 4491SOL     OW14371   0.326   3.176   3.878
 4491SOL    HW114372   0.347   3.273   3.893
 4491SOL    HW214373   0.262   3.168   3.801
 4492SOL     OW14374   6.248   4.607   2.033
 4492SOL    HW114375   6.347   4.611   2.049
 4492SOL    HW214376   6.221   4.680   1.971
 4493SOL     OW14377   4.974   5.169   4.703
 4493SOL    HW114378   4.945   5.128   4.616
 4493SOL    HW214379   4.908   5.145   4.775
 4494SOL     OW14380   0.433   0.776   6.582
 4494SOL    HW114381   0.419   0.680   6.608
 4494SOL    HW214382   0.398   0.836   6.653
 4495SOL     OW14383   4.165   0.015   4.232
 4495SOL    HW114384   4.130   0.108   4.223
 4495SOL    HW214385   4.238   7.022   4.166
 4496SOL     OW14386   5.960   6.601   1.235
 4496SOL    HW114387   6.004   6.606   1.145
 4496SOL    HW214388   5.860   6.603   1.223
 4497SOL     OW14389   4.846   2.308   6.625
 4497SOL    HW114390   4.754   2.271   6.611
 4497SOL    HW214391   4.895   2.251   6.691
 4498SOL     OW14392   0.197   2.976   0.203
 4498SOL    HW114393   0.160   2.888   0.235
 4498SOL    HW214394   0.250   3.018   0.277
 4499SOL     OW14395   5.912   3.927   4.069
 4499SOL    HW114396   5.853   3.897   4.144
 4499SOL    HW214397   5.983   3.858   4.053
 4500SOL     OW14398   3.135   3.111   4.485
 4500SOL    HW114399   3.192   3.114   4.566
 4500SOL    HW214400   3.193   3.110   4.403
 4501SOL     OW14401   6.842   3.406   2.482
 4501SOL    HW114402   6.803   3.430   2.393
 4501SOL    HW214403   6.772   3.416   2.553
 4502SOL     OW14404   0.855   3.010   6.846
 4502SOL    HW114405   0.948   2.976   6.830
 4502SOL    HW214406   0.831   2.993   6.942
 4503SOL     OW14407   3.479   6.640   2.022
 4503SOL    HW114408   3.507   6.714   2.083
 4503SOL    HW214409   3.483   6.671   1.927
 4504SOL     OW14410   6.810   1.087   4.700
 4504SOL    HW114411   6.800   1.037   4.614
 4504SOL    HW214412   6.722   1.126   4.726
 4505SOL     OW14413   6.450   5.432   2.016
 4505SOL    HW114414   6.375   5.384   2.063
 4505SOL    HW214415   6.528   5.439   2.078
 4506SOL     OW14416   4.933   3.202   3.324
 4506SOL    HW114417   4.907   3.266   3.396
 4506SOL    HW214418   5.032   3.207   3.308
 4507SOL     OW14419   6.358   4.397   3.450
 4507SOL    HW114420   6.286   4.461   3.424
 4507SOL    HW214421   6.436   4.408   3.389
 4508SOL     OW14422   1.600   5.145   6.982
 4508SOL    HW114423   1.611   5.244   6.994
 4508SOL    HW214424   1.634   5.119   6.892
 4509SOL     OW14425   4.666   2.796   3.053
 4509SOL    HW114426   4.635   2.880   3.010
 4509SOL    HW214427   4.750   2.814   3.105
 4510SOL     OW14428   4.497   2.056   4.095
 4510SOL    HW114429   4.501   2.105   4.182
 4510SOL    HW214430   4.573   2.085   4.037
 4511SOL     OW14431   5.822   4.061   6.461
 4511SOL    HW114432   5.841   3.985   6.522
 4511SOL    HW214433   5.861   4.042   6.371
 4512SOL     OW14434   2.593   1.291   5.723
 4512SOL    HW114435   2.576   1.196   5.748
 4512SOL    HW214436   2.538   1.351   5.781
 4513SOL     OW14437   0.366   4.879   6.494
 4513SOL    HW114438   0.422   4.882   6.411
 4513SOL    HW214439   0.269   4.881   6.468
 4514SOL     OW14440   3.678   2.083   5.900
 4514SOL    HW114441   3.637   2.161   5.947
 4514SOL    HW214442   3.742   2.037   5.962
 4515SOL     OW14443   6.313   2.135   5.152
 4515SOL    HW114444   6.307   2.091   5.241
 4515SOL    HW214445   6.222   2.146   5.114
 4516SOL     OW14446   2.136   6.886   6.916
 4516SOL    HW114447   2.082   6.813   6.959
 4516SOL    HW214448   2.222   6.897   6.966
 4517SOL     OW14449   4.846   0.065   0.018
 4517SOL    HW114450   4.761   0.115   0.001
 4517SOL    HW214451   4.882   0.032   6.953
 4518SOL     OW14452   6.834   6.811   2.337
 4518SOL    HW114453   6.800   6.801   2.243
 4518SOL    HW214454   6.887   6.730   2.361
 4519SOL     OW14455   6.539   0.151   1.287
 4519SOL    HW114456   6.598   0.123   1.362
 4519SOL    HW214457   6.466   0.209   1.322
 4520SOL     OW14458   4.721   6.152   5.741
 4520SOL    HW114459   4.737   6.127   5.836
 4520SOL    HW214460   4.622   6.151   5.723
 4521SOL     OW14461   5.669   2.056   4.812
 4521SOL    HW114462   5.691   1.981   4.873
 4521SOL    HW214463   5.645   2.020   4.722
 4522SOL     OW14464   5.406   5.220   3.785
 4522SOL    HW114465   5.330   5.169   3.744
 4522SOL    HW214466   5.412   5.199   3.883
 4523SOL     OW14467   1.344   4.781   6.819
 4523SOL    HW114468   1.433   4.748   6.789
 4523SOL    HW214469   1.291   4.705   6.857
 4524SOL     OW14470   6.472   2.974   1.577
 4524SOL    HW114471   6.538   2.909   1.615
 4524SOL    HW214472   6.402   2.994   1.645
 4525SOL     OW14473   5.098   2.098   4.869
 4525SOL    HW114474   5.040   2.112   4.789
 4525SOL    HW214475   5.045   2.056   4.942
 4526SOL     OW14476   6.742   0.469   6.606
 4526SOL    HW114477   6.762   0.376   6.635
 4526SOL    HW214478   6.767   0.480   6.509
 4527SOL     OW14479   6.548   1.091   3.109
 4527SOL    HW114480   6.579   1.180   3.076
 4527SOL    HW214481   6.514   1.100   3.202
 4528SOL     OW14482   4.530   0.439   6.881
 4528SOL    HW114483   4.558   0.364   6.941
 4528SOL    HW214484   4.566   0.525   6.916
 4529SOL     OW14485   2.182   0.112   5.135
 4529SOL    HW114486   2.174   0.208   5.163
 4529SOL    HW214487   2.261   0.102   5.074
 4530SOL     OW14488   1.378   5.645   4.243
 4530SOL    HW114489   1.336   5.570   4.191
 4530SOL    HW214490   1.475   5.624   4.257
 4531SOL     OW14491   0.371   2.652   5.200
 4531SOL    HW114492   0.290   2.597   5.180
 4531SOL    HW214493   0.453   2.596   5.192
 4532SOL     OW14494   6.474   1.005   2.145
 4532SOL    HW114495   6.518   1.090   2.174
 4532SOL    HW214496   6.458   0.947   2.225
 4533SOL     OW14497   1.404   1.887   2.101
 4533SOL    HW114498   1.390   1.887   2.200
 4533SOL    HW214499   1.502   1.883   2.081
 4534SOL     OW14500   5.460   4.232   4.816
 4534SOL    HW114501   5.404   4.306   4.854
 4534SOL    HW214502   5.446   4.149   4.869
 4535SOL     OW14503   3.916   0.760   2.053
 4535SOL    HW114504   3.969   0.835   2.012
 4535SOL    HW214505   3.901   0.779   2.150
 4536SOL     OW14506   4.712   1.602   4.288
 4536SOL    HW114507   4.615   1.585   4.306
 4536SOL    HW214508   4.741   1.549   4.208
 4537SOL     OW14509   4.176   3.640   0.551
 4537SOL    HW114510   4.140   3.585   0.476
 4537SOL    HW214511   4.191   3.582   0.631
 4538SOL     OW14512   1.843   0.654   2.575
 4538SOL    HW114513   1.919   0.646   2.639
 4538SOL    HW214514   1.780   0.578   2.589
 4539SOL     OW14515   3.276   5.963   4.807
 4539SOL    HW114516   3.257   5.865   4.808
 4539SOL    HW214517   3.304   5.990   4.715
 4540SOL     OW14518   2.245   2.593   6.856
 4540SOL    HW114519   2.172   2.537   6.816
 4540SOL    HW214520   2.228   2.689   6.838
 4541SOL     OW14521   6.008   1.768   6.500
 4541SOL    HW114522   6.001   1.670   6.519
 4541SOL    HW214523   6.071   1.811   6.566
 4542SOL     OW14524   0.339   2.026   1.653
 4542SOL    HW114525   0.387   2.055   1.570
 4542SOL    HW214526   0.391   2.054   1.734
 4543SOL     OW14527   4.341   2.530   1.072
 4543SOL    HW114528   4.354   2.437   1.105
 4543SOL    HW214529   4.247   2.540   1.038
 4544SOL     OW14530   3.497   5.814   6.597
 4544SOL    HW114531   3.510   5.716   6.583
 4544SOL    HW214532   3.583   5.855   6.629
 4545SOL     OW14533   5.481   3.310   4.331
 4545SOL    HW114534   5.580   3.305   4.318
 4545SOL    HW214535   5.441   3.219   4.316
 4546SOL     OW14536   2.203   0.512   4.131
 4546SOL    HW114537   2.181   0.415   4.122
 4546SOL    HW214538   2.188   0.558   4.044
 4547SOL     OW14539   6.185   2.030   0.638
 4547SOL    HW114540   6.150   2.100   0.700
 4547SOL    HW214541   6.214   2.072   0.552
 4548SOL     OW14542   1.846   2.906   4.150
 4548SOL    HW114543   1.829   2.914   4.249
 4548SOL    HW214544   1.802   2.823   4.116
 4549SOL     OW14545   5.742   3.919   2.387
 4549SOL    HW114546   5.736   3.823   2.361
 4549SOL    HW214547   5.651   3.952   2.413
 4550SOL     OW14548   1.315   5.658   3.286
 4550SOL    HW114549   1.365   5.625   3.366
 4550SOL    HW214550   1.235   5.599   3.270
 4551SOL     OW14551   0.787   3.410   4.841
 4551SOL    HW114552   0.881   3.387   4.819
 4551SOL    HW214553   0.750   3.344   4.907
 4552SOL     OW14554   6.027   2.200   0.811
 4552SOL    HW114555   5.948   2.142   0.827
 4552SOL    HW214556   6.082   2.206   0.894
 4553SOL     OW14557   4.348   4.380   0.304
 4553SOL    HW114558   4.387   4.376   0.396
 4553SOL    HW214559   4.259   4.426   0.306
 4554SOL     OW14560   6.524   6.679   1.735
 4554SOL    HW114561   6.486   6.757   1.686
 4554SOL    HW214562   6.481   6.672   1.825
 4555SOL     OW14563   2.221   1.920   5.134
 4555SOL    HW114564   2.160   1.916   5.054
 4555SOL    HW214565   2.229   2.014   5.165
 4556SOL     OW14566   5.556   3.670   4.497
 4556SOL    HW114567   5.610   3.616   4.562
 4556SOL    HW214568   5.537   3.760   4.535
 4557SOL     OW14569   5.040   5.569   4.852
 4557SOL    HW114570   5.083   5.480   4.865
 4557SOL    HW214571   4.962   5.578   4.915
 4558SOL     OW14572   0.001   4.496   4.760
 4558SOL    HW114573   6.928   4.528   4.762
 4558SOL    HW214574   0.002   4.397   4.750
 4559SOL     OW14575   0.089   3.488   2.429
 4559SOL    HW114576   7.020   3.452   2.449
 4559SOL    HW214577   0.083   3.562   2.363
 4560SOL     OW14578   5.295   4.413   1.399
 4560SOL    HW114579   5.318   4.316   1.399
 4560SOL    HW214580   5.198   4.424   1.377
 4561SOL     OW14581   3.264   1.698   2.932
 4561SOL    HW114582   3.213   1.612   2.937
 4561SOL    HW214583   3.255   1.736   2.840
 4562SOL     OW14584   2.387   6.801   6.341
 4562SOL    HW114585   2.407   6.831   6.434
 4562SOL    HW214586   2.337   6.714   6.344
 4563SOL     OW14587   0.375   2.471   1.146
 4563SOL    HW114588   0.447   2.541   1.147
 4563SOL    HW214589   0.360   2.438   1.239
 4564SOL     OW14590   0.025   5.810   1.934
 4564SOL    HW114591   0.002   5.786   1.840
 4564SOL    HW214592   6.998   5.893   1.960
 4565SOL     OW14593   0.496   0.737   4.492
 4565SOL    HW114594   0.562   0.662   4.498
 4565SOL    HW214595   0.404   0.699   4.488
 4566SOL     OW14596   6.911   2.961   0.248
 4566SOL    HW114597   6.912   3.032   0.318
 4566SOL    HW214598   6.983   2.894   0.268
 4567SOL     OW14599   6.470   0.845   6.625
 4567SOL    HW114600   6.371   0.860   6.622
 4567SOL    HW214601   6.517   0.934   6.625
 4568SOL     OW14602   1.845   3.334   5.952
 4568SOL    HW114603   1.902   3.329   5.870
 4568SOL    HW214604   1.874   3.263   6.017
 4569SOL     OW14605   2.197   0.673   3.191
 4569SOL    HW114606   2.140   0.753   3.170
 4569SOL    HW214607   2.263   0.697   3.262
 4570SOL     OW14608   6.988   6.566   2.359
 4570SOL    HW114609   0.035   6.636   2.342
 4570SOL    HW214610   0.010   6.482   2.390
 4571SOL     OW14611   4.502   4.065   6.254
 4571SOL    HW114612   4.534   4.127   6.182
 4571SOL    HW214613   4.578   4.045   6.316
 4572SOL     OW14614   1.857   0.612   6.396
 4572SOL    HW114615   1.834   0.666   6.478
 4572SOL    HW214616   1.883   0.674   6.322
 4573SOL     OW14617   6.805   0.374   0.298
 4573SOL    HW114618   6.708   0.391   0.315
 4573SOL    HW214619   6.860   0.418   0.369
 4574SOL     OW14620   5.869   3.915   0.439
 4574SOL    HW114621   5.943   3.929   0.506
 4574SOL    HW214622   5.904   3.862   0.362
 4575SOL     OW14623   5.456   0.491   5.903
 4575SOL    HW114624   5.436   0.461   5.810
 4575SOL    HW214625   5.448   0.591   5.909
 4576SOL     OW14626   3.738   5.808   5.622
 4576SOL    HW114627   3.652   5.775   5.582
 4576SOL    HW214628   3.736   5.794   5.721
 4577SOL     OW14629   1.018   1.845   4.304
 4577SOL    HW114630   1.032   1.862   4.401
 4577SOL    HW214631   0.922   1.861   4.280
 4578SOL     OW14632   0.873   2.649   5.252
 4578SOL    HW114633   0.826   2.697   5.325
 4578SOL    HW214634   0.943   2.589   5.291
 4579SOL     OW14635   3.802   0.314   3.237
 4579SOL    HW114636   3.895   0.349   3.248
 4579SOL    HW214637   3.774   0.327   3.142
 4580SOL     OW14638   5.258   4.304   0.959
 4580SOL    HW114639   5.178   4.361   0.979
 4580SOL    HW214640   5.306   4.284   1.044
 4581SOL     OW14641   2.032   5.777   2.085
 4581SOL    HW114642   1.988   5.693   2.053
 4581SOL    HW214643   2.128   5.777   2.056
 4582SOL     OW14644   4.383   1.078   4.814
 4582SOL    HW114645   4.325   1.145   4.770
 4582SOL    HW214646   4.357   0.986   4.786
 4583SOL     OW14647   2.996   2.033   6.773
 4583SOL    HW114648   3.055   1.959   6.805
 4583SOL    HW214649   3.009   2.047   6.675
 4584SOL     OW14650   0.739   4.848   5.108
 4584SOL    HW114651   0.833   4.879   5.123
 4584SOL    HW214652   0.705   4.805   5.191
 4585SOL     OW14653   1.688   5.592   3.314
 4585SOL    HW114654   1.609   5.597   3.375
 4585SOL    HW214655   1.698   5.678   3.263
 4586SOL     OW14656   3.681   4.467   0.904
 4586SOL    HW114657   3.679   4.534   0.978
 4586SOL    HW214658   3.649   4.379   0.938
 4587SOL     OW14659   3.450   4.145   3.757
 4587SOL    HW114660   3.521   4.169   3.823
 4587SOL    HW214661   3.367   4.117   3.805
 4588SOL     OW14662   2.441   3.623   5.556
 4588SOL    HW114663   2.436   3.699   5.492
 4588SOL    HW214664   2.500   3.551   5.519
 4589SOL     OW14665   6.054   0.854   2.201
 4589SOL    HW114666   6.067   0.905   2.116
 4589SOL    HW214667   5.956   0.837   2.215
 4590SOL     OW14668   4.513   4.964   1.404
 4590SOL    HW114669   4.493   4.978   1.501
 4590SOL    HW214670   4.476   4.876   1.375
 4591SOL     OW14671   2.162   0.472   4.848
 4591SOL    HW114672   2.116   0.533   4.784
 4591SOL    HW214673   2.248   0.440   4.807
 4592SOL     OW14674   2.773   1.478   3.786
 4592SOL    HW114675   2.719   1.503   3.706
 4592SOL    HW214676   2.800   1.382   3.779
 4593SOL     OW14677   5.109   5.991   2.114
 4593SOL    HW114678   5.112   5.898   2.078
 4593SOL    HW214679   5.178   6.047   2.068
 4594SOL     OW14680   2.563   1.299   3.205
 4594SOL    HW114681   2.492   1.351   3.253
 4594SOL    HW214682   2.639   1.360   3.184
 4595SOL     OW14683   4.829   3.014   5.580
 4595SOL    HW114684   4.928   3.004   5.592
 4595SOL    HW214685   4.801   2.967   5.496
 4596SOL     OW14686   6.115   1.187   2.462
 4596SOL    HW114687   6.092   1.249   2.537
 4596SOL    HW214688   6.188   1.227   2.407
 4597SOL     OW14689   3.995   5.653   6.960
 4597SOL    HW114690   3.927   5.721   6.988
 4597SOL    HW214691   3.959   5.601   6.883
 4598SOL     OW14692   1.328   5.994   0.766
 4598SOL    HW114693   1.263   5.983   0.691
 4598SOL    HW214694   1.343   5.906   0.811
 4599SOL     OW14695   1.638   5.047   0.217
 4599SOL    HW114696   1.617   5.111   0.144
 4599SOL    HW214697   1.554   5.005   0.249
 4600SOL     OW14698   0.797   6.197   5.217
 4600SOL    HW114699   0.764   6.278   5.265
 4600SOL    HW214700   0.877   6.161   5.265
 4601SOL     OW14701   1.623   1.120   5.390
 4601SOL    HW114702   1.659   1.040   5.438
 4601SOL    HW214703   1.696   1.162   5.336
 4602SOL     OW14704   3.268   6.501   0.206
 4602SOL    HW114705   3.294   6.475   0.299
 4602SOL    HW214706   3.207   6.431   0.168
 4603SOL     OW14707   3.803   6.434   1.062
 4603SOL    HW114708   3.800   6.378   1.145
 4603SOL    HW214709   3.898   6.461   1.045
 4604SOL     OW14710   4.331   0.158   0.012
 4604SOL    HW114711   4.268   0.085   7.008
 4604SOL    HW214712   4.280   0.242   0.028
 4605SOL     OW14713   1.512   6.019   2.381
 4605SOL    HW114714   1.570   6.041   2.302
 4605SOL    HW214715   1.514   6.096   2.445
 4606SOL     OW14716   0.549   0.005   2.391
 4606SOL    HW114717   0.600   6.946   2.421
 4606SOL    HW214718   0.604   0.055   2.325
 4607SOL     OW14719   2.212   2.996   2.627
 4607SOL    HW114720   2.284   2.938   2.664
 4607SOL    HW214721   2.191   3.070   2.692
 4608SOL     OW14722   0.479   5.700   3.831
 4608SOL    HW114723   0.387   5.738   3.823
 4608SOL    HW214724   0.474   5.608   3.869
 4609SOL     OW14725   4.865   5.009   6.849
 4609SOL    HW114726   4.804   4.956   6.792
 4609SOL    HW214727   4.889   5.095   6.803
 4610SOL     OW14728   5.014   1.662   0.205
 4610SOL    HW114729   5.096   1.611   0.231
 4610SOL    HW214730   5.009   1.669   0.106
 4611SOL     OW14731   1.162   6.315   6.049
 4611SOL    HW114732   1.081   6.361   6.014
 4611SOL    HW214733   1.218   6.379   6.102
 4612SOL     OW14734   2.007   6.469   0.719
 4612SOL    HW114735   1.988   6.393   0.781
 4612SOL    HW214736   1.924   6.492   0.668
 4613SOL     OW14737   1.533   5.630   2.241
 4613SOL    HW114738   1.598   5.644   2.316
 4613SOL    HW214739   1.460   5.568   2.270
 4614SOL     OW14740   6.044   3.579   3.541
 4614SOL    HW114741   5.959   3.601   3.589
 4614SOL    HW214742   6.096   3.512   3.594
 4615SOL     OW14743   1.402   0.983   0.143
 4615SOL    HW114744   1.483   0.982   0.201
 4615SOL    HW214745   1.367   1.076   0.134
 4616SOL     OW14746   6.471   1.308   4.414
 4616SOL    HW114747   6.390   1.294   4.470
 4616SOL    HW214748   6.504   1.220   4.380
 4617SOL     OW14749   1.435   2.586   2.120
 4617SOL    HW114750   1.376   2.558   2.045
 4617SOL    HW214751   1.438   2.686   2.126
 4618SOL     OW14752   2.266   3.153   5.369
 4618SOL    HW114753   2.274   3.217   5.445
 4618SOL    HW214754   2.355   3.140   5.326
 4619SOL     OW14755   3.194   6.092   3.775
 4619SOL    HW114756   3.167   6.084   3.679
 4619SOL    HW214757   3.288   6.127   3.780
 4620SOL     OW14758   1.699   5.072   0.814
 4620SOL    HW114759   1.752   4.989   0.795
 4620SOL    HW214760   1.659   5.066   0.905
 4621SOL     OW14761   4.606   0.358   2.655
 4621SOL    HW114762   4.596   0.450   2.615
 4621SOL    HW214763   4.679   0.360   2.724
 4622SOL     OW14764   3.965   4.932   0.773
 4622SOL    HW114765   3.898   5.006   0.776
 4622SOL    HW214766   4.020   4.940   0.690
 4623SOL     OW14767   5.066   5.735   2.002
 4623SOL    HW114768   5.084   5.690   1.915
 4623SOL    HW214769   4.968   5.756   2.010
 4624SOL     OW14770   3.667   0.061   3.018
 4624SOL    HW114771   3.760   0.098   3.011
 4624SOL    HW214772   3.654   7.016   2.946
 4625SOL     OW14773   1.603   4.471   1.321
 4625SOL    HW114774   1.639   4.499   1.410
 4625SOL    HW214775   1.506   4.496   1.315
 4626SOL     OW14776   4.893   3.989   2.236
 4626SOL    HW114777   4.860   4.070   2.284
 4626SOL    HW214778   4.961   4.016   2.168
 4627SOL     OW14779   1.310   4.685   4.944
 4627SOL    HW114780   1.241   4.640   5.001
 4627SOL    HW214781   1.399   4.642   4.958
 4628SOL     OW14782   4.802   4.091   4.479
 4628SOL    HW114783   4.785   4.109   4.576
 4628SOL    HW214784   4.749   4.155   4.423
 4629SOL     OW14785   3.006   5.591   5.397
 4629SOL    HW114786   3.004   5.552   5.489
 4629SOL    HW214787   3.100   5.601   5.366
 4630SOL     OW14788   2.156   6.197   2.030
 4630SOL    HW114789   2.236   6.256   2.039
 4630SOL    HW214790   2.170   6.112   2.081
 4631SOL     OW14791   1.295   5.915   3.342
 4631SOL    HW114792   1.236   5.915   3.422
 4631SOL    HW214793   1.296   5.824   3.301
 4632SOL     OW14794   2.493   4.616   2.832
 4632SOL    HW114795   2.589   4.625   2.857
 4632SOL    HW214796   2.448   4.705   2.837
 4633SOL     OW14797   6.122   0.799   4.558
 4633SOL    HW114798   6.062   0.876   4.579
 4633SOL    HW214799   6.084   0.715   4.598
 4634SOL     OW14800   2.508   3.785   5.347
 4634SOL    HW114801   2.597   3.759   5.310
 4634SOL    HW214802   2.462   3.848   5.285
 4635SOL     OW14803   4.871   3.739   1.812
 4635SOL    HW114804   4.802   3.739   1.884
 4635SOL    HW214805   4.827   3.743   1.722
 4636SOL     OW14806   2.725   4.613   0.232
 4636SOL    HW114807   2.694   4.532   0.182
 4636SOL    HW214808   2.754   4.683   0.168
 4637SOL     OW14809   0.650   6.775   0.760
 4637SOL    HW114810   0.705   6.739   0.835
 4637SOL    HW214811   0.605   6.859   0.790
 4638SOL     OW14812   4.282   4.827   0.006
 4638SOL    HW114813   4.381   4.837   0.003
 4638SOL    HW214814   4.238   4.914   7.005
 4639SOL     OW14815   3.371   3.480   6.161
 4639SOL    HW114816   3.422   3.552   6.207
 4639SOL    HW214817   3.274   3.487   6.184
 4640SOL     OW14818   4.895   3.931   4.253
 4640SOL    HW114819   4.886   3.835   4.282
 4640SOL    HW214820   4.839   3.989   4.313
 4641SOL     OW14821   2.858   0.628   4.940
 4641SOL    HW114822   2.815   0.546   4.977
 4641SOL    HW214823   2.884   0.613   4.845
 4642SOL     OW14824   1.284   7.018   3.606
 4642SOL    HW114825   1.224   0.024   3.531
 4642SOL    HW214826   1.303   0.074   3.664
 4643SOL     OW14827   6.711   2.446   0.628
 4643SOL    HW114828   6.665   2.363   0.596
 4643SOL    HW214829   6.654   2.526   0.606
 4644SOL     OW14830   0.471   6.213   5.014
 4644SOL    HW114831   0.470   6.299   5.066
 4644SOL    HW214832   0.566   6.186   4.996
 4645SOL     OW14833   0.659   0.384   3.703
 4645SOL    HW114834   0.612   0.331   3.633
 4645SOL    HW214835   0.616   0.474   3.711
 4646SOL     OW14836   2.146   5.272   3.180
 4646SOL    HW114837   2.245   5.270   3.168
 4646SOL    HW214838   2.122   5.220   3.262
 4647SOL     OW14839   1.906   0.332   2.798
 4647SOL    HW114840   1.893   0.258   2.731
 4647SOL    HW214841   1.984   0.388   2.770
 4648SOL     OW14842   3.308   0.439   2.573
 4648SOL    HW114843   3.245   0.377   2.526
 4648SOL    HW214844   3.344   0.394   2.655
 4649SOL     OW14845   5.267   1.019   0.381
 4649SOL    HW114846   5.312   0.937   0.346
 4649SOL    HW214847   5.320   1.100   0.355
 4650SOL     OW14848   4.724   5.626   2.298
 4650SOL    HW114849   4.797   5.664   2.355
 4650SOL    HW214850   4.686   5.545   2.342
 4651SOL     OW14851   6.147   3.851   6.420
 4651SOL    HW114852   6.115   3.840   6.326
 4651SOL    HW214853   6.104   3.782   6.478
 4652SOL     OW14854   5.631   6.472   4.862
 4652SOL    HW114855   5.567   6.395   4.857
 4652SOL    HW214856   5.662   6.496   4.770
 4653SOL     OW14857   5.190   5.730   1.393
 4653SOL    HW114858   5.114   5.666   1.396
 4653SOL    HW214859   5.164   5.815   1.438
 4654SOL     OW14860   0.842   5.877   6.421
 4654SOL    HW114861   0.931   5.832   6.430
 4654SOL    HW214862   0.806   5.900   6.511
 4655SOL     OW14863   6.006   3.780   1.145
 4655SOL    HW114864   5.968   3.750   1.057
 4655SOL    HW214865   5.956   3.737   1.220
 4656SOL     OW14866   1.603   0.785   2.017
 4656SOL    HW114867   1.536   0.780   1.942
 4656SOL    HW214868   1.696   0.779   1.979
 4657SOL     OW14869   4.617   5.493   1.566
 4657SOL    HW114870   4.520   5.473   1.554
 4657SOL    HW214871   4.642   5.571   1.508
 4658SOL     OW14872   3.351   0.033   4.368
 4658SOL    HW114873   3.408   6.977   4.394
 4658SOL    HW214874   3.261   7.022   4.340
 4659SOL     OW14875   2.619   4.150   5.596
 4659SOL    HW114876   2.648   4.115   5.507
 4659SOL    HW214877   2.671   4.104   5.668
 4660SOL     OW14878   0.495   5.638   4.796
 4660SOL    HW114879   0.565   5.706   4.820
 4660SOL    HW214880   0.421   5.682   4.745
 4661SOL     OW14881   3.163   4.465   6.407
 4661SOL    HW114882   3.097   4.422   6.469
 4661SOL    HW214883   3.230   4.516   6.460
 4662SOL     OW14884   2.758   0.389   5.658
 4662SOL    HW114885   2.800   0.329   5.726
 4662SOL    HW214886   2.796   0.368   5.568
 4663SOL     OW14887   0.227   1.266   1.359
 4663SOL    HW114888   0.262   1.349   1.317
 4663SOL    HW214889   0.199   1.201   1.288
 4664SOL     OW14890   1.493   1.091   0.691
 4664SOL    HW114891   1.587   1.072   0.665
 4664SOL    HW214892   1.446   1.137   0.616
 4665SOL     OW14893   4.150   7.011   6.488
 4665SOL    HW114894   4.194   6.986   6.401
 4665SOL    HW214895   4.186   0.076   6.520
 4666SOL     OW14896   2.472   2.422   6.852
 4666SOL    HW114897   2.399   2.489   6.841
 4666SOL    HW214898   2.468   2.383   6.943
 4667SOL     OW14899   6.062   3.755   1.846
 4667SOL    HW114900   5.981   3.792   1.891
 4667SOL    HW214901   6.091   3.671   1.893
 4668SOL     OW14902   4.956   1.714   3.426
 4668SOL    HW114903   4.918   1.792   3.476
 4668SOL    HW214904   4.989   1.744   3.337
 4669SOL     OW14905   4.968   6.237   0.954
 4669SOL    HW114906   4.980   6.145   0.917
 4669SOL    HW214907   4.903   6.234   1.030
 4670SOL     OW14908   1.694   2.146   6.281
 4670SOL    HW114909   1.648   2.147   6.369
 4670SOL    HW214910   1.640   2.197   6.214
 4671SOL     OW14911   1.073   3.370   6.569
 4671SOL    HW114912   1.136   3.366   6.647
 4671SOL    HW214913   0.982   3.341   6.599
 4672SOL     OW14914   2.654   5.053   5.752
 4672SOL    HW114915   2.749   5.047   5.723
 4672SOL    HW214916   2.651   5.087   5.846
 4673SOL     OW14917   4.948   6.781   1.798
 4673SOL    HW114918   4.896   6.775   1.883
 4673SOL    HW214919   4.890   6.820   1.726
 4674SOL     OW14920   5.011   1.333   0.121
 4674SOL    HW114921   5.041   1.295   0.209
 4674SOL    HW214922   4.954   1.414   0.137
 4675SOL     OW14923   2.310   1.119   0.347
 4675SOL    HW114924   2.322   1.138   0.250
 4675SOL    HW214925   2.295   1.205   0.396
 4676SOL     OW14926   6.306   6.428   3.764
 4676SOL    HW114927   6.297   6.360   3.691
 4676SOL    HW214928   6.233   6.496   3.756
 4677SOL     OW14929   2.681   1.034   6.950
 4677SOL    HW114930   2.672   0.973   6.871
 4677SOL    HW214931   2.732   1.116   6.923
 4678SOL     OW14932   1.713   4.524   2.681
 4678SOL    HW114933   1.664   4.611   2.681
 4678SOL    HW214934   1.695   4.475   2.766
 4679SOL     OW14935   3.332   1.689   0.153
 4679SOL    HW114936   3.272   1.689   0.072
 4679SOL    HW214937   3.403   1.759   0.141
 4680SOL     OW14938   2.014   1.184   1.195
 4680SOL    HW114939   2.081   1.186   1.269
 4680SOL    HW214940   1.952   1.261   1.204
 4681SOL     OW14941   5.884   6.211   5.885
 4681SOL    HW114942   5.889   6.240   5.981
 4681SOL    HW214943   5.949   6.137   5.869
 4682SOL     OW14944   3.901   4.759   6.040
 4682SOL    HW114945   3.975   4.695   6.064
 4682SOL    HW214946   3.866   4.737   5.949
 4683SOL     OW14947   4.399   4.644   2.836
 4683SOL    HW114948   4.384   4.651   2.934
 4683SOL    HW214949   4.427   4.551   2.812
 4684SOL     OW14950   7.008   2.013   4.963
 4684SOL    HW114951   0.026   1.922   4.974
 4684SOL    HW214952   6.996   2.032   4.865
 4685SOL     OW14953   0.424   6.470   5.094
 4685SOL    HW114954   0.513   6.514   5.084
 4685SOL    HW214955   0.352   6.535   5.069
 4686SOL     OW14956   5.295   5.581   0.776
 4686SOL    HW114957   5.283   5.536   0.864
 4686SOL    HW214958   5.378   5.637   0.779
 4687SOL     OW14959   6.422   4.793   5.313
 4687SOL    HW114960   6.439   4.826   5.220
 4687SOL    HW214961   6.349   4.725   5.311
 4688SOL     OW14962   6.221   3.963   5.220
 4688SOL    HW114963   6.313   3.933   5.193
 4688SOL    HW214964   6.206   4.056   5.189
 4689SOL     OW14965   6.272   0.832   0.268
 4689SOL    HW114966   6.225   0.855   0.353
 4689SOL    HW214967   6.224   0.873   0.191
 4690SOL     OW14968   1.166   0.855   0.234
 4690SOL    HW114969   1.249   0.885   0.186
 4690SOL    HW214970   1.172   0.883   0.330
 4691SOL     OW14971   2.856   4.728   2.402
 4691SOL    HW114972   2.793   4.690   2.335
 4691SOL    HW214973   2.837   4.689   2.492
 4692SOL     OW14974   6.460   5.666   2.306
 4692SOL    HW114975   6.432   5.572   2.324
 4692SOL    HW214976   6.409   5.728   2.366
 4693SOL     OW14977   0.746   0.554   3.327
 4693SOL    HW114978   0.839   0.593   3.333
 4693SOL    HW214979   0.751   0.455   3.334
 4694SOL     OW14980   2.753   0.402   0.322
 4694SOL    HW114981   2.654   0.400   0.335
 4694SOL    HW214982   2.786   0.308   0.310
 4695SOL     OW14983   2.583   3.449   1.708
 4695SOL    HW114984   2.498   3.479   1.752
 4695SOL    HW214985   2.659   3.456   1.774
 4696SOL     OW14986   0.255   4.331   6.101
 4696SOL    HW114987   0.202   4.414   6.115
 4696SOL    HW214988   0.230   4.290   6.014
 4697SOL     OW14989   2.591   3.072   0.855
 4697SOL    HW114990   2.584   2.986   0.806
 4697SOL    HW214991   2.687   3.090   0.877
 4698SOL     OW14992   4.489   6.080   2.630
 4698SOL    HW114993   4.420   6.055   2.562
 4698SOL    HW214994   4.547   6.000   2.650
 4699SOL     OW14995   1.060   6.647   1.598
 4699SOL    HW114996   1.086   6.742   1.581
 4699SOL    HW214997   1.132   6.602   1.650
 4700SOL     OW14998   6.737   1.781   2.529
 4700SOL    HW114999   6.796   1.706   2.560
 4700SOL    HW215000   6.789   1.840   2.466
 4701SOL     OW15001   2.457   2.379   0.908
 4701SOL    HW115002   2.409   2.464   0.887
 4701SOL    HW215003   2.392   2.310   0.938
 4702SOL     OW15004   5.694   4.874   6.823
 4702SOL    HW115005   5.642   4.823   6.755
 4702SOL    HW215006   5.784   4.898   6.785
 4703SOL     OW15007   1.256   2.548   1.909
 4703SOL    HW115008   1.202   2.632   1.907
 4703SOL    HW215009   1.220   2.486   1.979
 4704SOL     OW15010   1.563   6.476   6.891
 4704SOL    HW115011   1.474   6.521   6.889
 4704SOL    HW215012   1.624   6.519   6.825
 4705SOL     OW15013   3.372   3.705   2.702
 4705SOL    HW115014   3.405   3.626   2.651
 4705SOL    HW215015   3.274   3.696   2.718
 4706SOL     OW15016   3.788   6.395   6.129
 4706SOL    HW115017   3.739   6.369   6.212
 4706SOL    HW215018   3.881   6.423   6.152
 4707SOL     OW15019   2.814   5.811   0.885
 4707SOL    HW115020   2.836   5.743   0.956
 4707SOL    HW215021   2.839   5.774   0.796
 4708SOL     OW15022   1.529   2.177   6.069
 4708SOL    HW115023   1.454   2.138   6.122
 4708SOL    HW215024   1.521   2.149   5.974
 4709SOL     OW15025   4.393   5.952   5.948
 4709SOL    HW115026   4.471   5.999   5.990
 4709SOL    HW215027   4.355   5.887   6.014
 4710SOL     OW15028   4.232   1.164   5.607
 4710SOL    HW115029   4.303   1.156   5.537
 4710SOL    HW215030   4.256   1.236   5.672
 4711SOL     OW15031   5.333   1.247   2.002
 4711SOL    HW115032   5.366   1.277   1.913
 4711SOL    HW215033   5.386   1.167   2.032
 4712SOL     OW15034   3.510   4.048   6.873
 4712SOL    HW115035   3.480   4.100   6.953
 4712SOL    HW215036   3.575   3.977   6.901
 4713SOL     OW15037   3.482   3.195   1.387
 4713SOL    HW115038   3.489   3.207   1.486
 4713SOL    HW215039   3.506   3.280   1.341
 4714SOL     OW15040   1.732   2.622   0.047
 4714SOL    HW115041   1.787   2.688   7.018
 4714SOL    HW215042   1.681   2.670   0.118
 4715SOL     OW15043   6.911   3.119   1.438
 4715SOL    HW115044   6.861   3.077   1.362
 4715SOL    HW215045   6.916   3.055   1.515
 4716SOL     OW15046   4.521   6.310   6.410
 4716SOL    HW115047   4.604   6.333   6.461
 4716SOL    HW215048   4.532   6.338   6.315
 4717SOL     OW15049   0.099   6.192   3.212
 4717SOL    HW115050   0.133   6.122   3.148
 4717SOL    HW215051   0.130   6.282   3.182
 4718SOL     OW15052   5.451   2.424   0.730
 4718SOL    HW115053   5.370   2.482   0.738
 4718SOL    HW215054   5.447   2.373   0.644
 4719SOL     OW15055   5.310   3.055   2.202
 4719SOL    HW115056   5.252   3.130   2.169
 4719SOL    HW215057   5.406   3.082   2.195
 4720SOL     OW15058   1.746   5.622   5.263
 4720SOL    HW115059   1.744   5.697   5.329
 4720SOL    HW215060   1.796   5.545   5.301
 4721SOL     OW15061   6.690   2.606   1.296
 4721SOL    HW115062   6.779   2.620   1.339
 4721SOL    HW215063   6.694   2.637   1.201
 4722SOL     OW15064   0.716   5.915   6.677
 4722SOL    HW115065   0.642   5.979   6.698
 4722SOL    HW215066   0.800   5.945   6.723
 4723SOL     OW15067   1.539   4.487   6.113
 4723SOL    HW115068   1.558   4.571   6.164
 4723SOL    HW215069   1.479   4.427   6.168
 4724SOL     OW15070   5.240   6.016   3.189
 4724SOL    HW115071   5.339   6.002   3.187
 4724SOL    HW215072   5.214   6.077   3.114
 4725SOL     OW15073   6.212   6.702   2.783
 4725SOL    HW115074   6.248   6.611   2.806
 4725SOL    HW215075   6.287   6.761   2.753
 4726SOL     OW15076   1.531   2.905   6.188
 4726SOL    HW115077   1.536   2.895   6.089
 4726SOL    HW215078   1.618   2.939   6.223
 4727SOL     OW15079   1.021   6.488   0.079
 4727SOL    HW115080   0.941   6.462   0.134
 4727SOL    HW215081   0.991   6.540   7.021
 4728SOL     OW15082   5.304   0.238   0.944
 4728SOL    HW115083   5.228   0.260   0.883
 4728SOL    HW215084   5.359   0.320   0.961
 4729SOL     OW15085   2.163   1.484   1.821
 4729SOL    HW115086   2.144   1.465   1.918
 4729SOL    HW215087   2.250   1.533   1.813
 4730SOL     OW15088   2.908   6.119   4.399
 4730SOL    HW115089   2.883   6.205   4.354
 4730SOL    HW215090   2.991   6.133   4.453
 4731SOL     OW15091   4.383   0.165   6.264
 4731SOL    HW115092   4.344   0.247   6.222
 4731SOL    HW215093   4.380   0.174   6.364
 4732SOL     OW15094   0.602   3.679   5.590
 4732SOL    HW115095   0.591   3.643   5.683
 4732SOL    HW215096   0.637   3.773   5.595
 4733SOL     OW15097   1.623   4.306   3.589
 4733SOL    HW115098   1.563   4.252   3.649
 4733SOL    HW215099   1.706   4.255   3.570
 4734SOL     OW15100   5.290   2.671   6.795
 4734SOL    HW115101   5.380   2.685   6.755
 4734SOL    HW215102   5.261   2.754   6.842
 4735SOL     OW15103   0.195   6.260   4.560
 4735SOL    HW115104   0.121   6.303   4.508
 4735SOL    HW215105   0.258   6.215   4.497
 4736SOL     OW15106   0.065   2.031   6.571
 4736SOL    HW115107   6.994   2.001   6.547
 4736SOL    HW215108   0.097   2.097   6.504
 4737SOL     OW15109   2.068   4.893   1.933
 4737SOL    HW115110   1.988   4.839   1.912
 4737SOL    HW215111   2.076   4.969   1.868
 4738SOL     OW15112   0.044   6.147   2.844
 4738SOL    HW115113   7.013   6.222   2.883
 4738SOL    HW215114   0.134   6.144   2.888
 4739SOL     OW15115   4.529   6.600   3.213
 4739SOL    HW115116   4.610   6.541   3.214
 4739SOL    HW215117   4.555   6.692   3.242
 4740SOL     OW15118   1.236   1.916   0.765
 4740SOL    HW115119   1.327   1.918   0.806
 4740SOL    HW215120   1.168   1.902   0.837
 4741SOL     OW15121   3.627   2.840   2.030
 4741SOL    HW115122   3.552   2.806   1.974
 4741SOL    HW215123   3.674   2.914   1.982
 4742SOL     OW15124   2.541   6.476   5.786
 4742SOL    HW115125   2.497   6.501   5.700
 4742SOL    HW215126   2.611   6.545   5.808
 4743SOL     OW15127   1.863   3.811   3.087
 4743SOL    HW115128   1.839   3.719   3.056
 4743SOL    HW215129   1.944   3.843   3.037
 4744SOL     OW15130   2.639   4.792   0.785
 4744SOL    HW115131   2.679   4.718   0.730
 4744SOL    HW215132   2.540   4.793   0.772
 4745SOL     OW15133   2.855   3.528   5.953
 4745SOL    HW115134   2.828   3.585   6.030
 4745SOL    HW215135   2.864   3.433   5.983
 4746SOL     OW15136   5.020   6.428   3.548
 4746SOL    HW115137   5.067   6.408   3.633
 4746SOL    HW215138   4.978   6.344   3.512
 4747SOL     OW15139   1.446   4.388   7.014
 4747SOL    HW115140   1.498   4.369   6.930
 4747SOL    HW215141   1.496   4.350   0.070
 4748SOL     OW15142   2.154   5.278   1.276
 4748SOL    HW115143   2.104   5.287   1.362
 4748SOL    HW215144   2.090   5.277   1.200
 4749SOL     OW15145   2.190   6.600   6.379
 4749SOL    HW115146   2.134   6.588   6.297
 4749SOL    HW215147   2.234   6.513   6.403
 4750SOL     OW15148   0.026   3.586   5.006
 4750SOL    HW115149   0.049   3.519   5.077
 4750SOL    HW215150   6.960   3.628   5.027
 4751SOL     OW15151   4.286   2.099   3.059
 4751SOL    HW115152   4.333   2.072   3.143
 4751SOL    HW215153   4.208   2.156   3.082
 4752SOL     OW15154   4.582   1.262   0.065
 4752SOL    HW115155   4.506   1.198   0.057
 4752SOL    HW215156   4.548   1.354   0.084
 4753SOL     OW15157   0.248   0.481   4.334
 4753SOL    HW115158   0.156   0.449   4.359
 4753SOL    HW215159   0.282   0.542   4.406
 4754SOL     OW15160   5.464   4.150   4.342
 4754SOL    HW115161   5.384   4.102   4.379
 4754SOL    HW215162   5.434   4.223   4.282
 4755SOL     OW15163   2.661   1.136   0.480
 4755SOL    HW115164   2.573   1.094   0.461
 4755SOL    HW215165   2.731   1.065   0.491
 4756SOL     OW15166   5.670   3.702   5.784
 4756SOL    HW115167   5.671   3.610   5.825
 4756SOL    HW215168   5.720   3.765   5.844
 4757SOL     OW15169   2.353   2.254   1.412
 4757SOL    HW115170   2.348   2.192   1.334
 4757SOL    HW215171   2.325   2.346   1.382
 4758SOL     OW15172   1.583   6.740   3.076
 4758SOL    HW115173   1.657   6.781   3.023
 4758SOL    HW215174   1.495   6.776   3.045
 4759SOL     OW15175   0.538   4.879   6.265
 4759SOL    HW115176   0.523   4.886   6.167
 4759SOL    HW215177   0.636   4.888   6.284
 4760SOL     OW15178   1.901   2.133   0.559
 4760SOL    HW115179   1.982   2.133   0.500
 4760SOL    HW215180   1.912   2.064   0.631
 4761SOL     OW15181   0.990   6.741   0.322
 4761SOL    HW115182   1.088   6.731   0.341
 4761SOL    HW215183   0.939   6.731   0.407
 4762SOL     OW15184   1.267   5.502   2.039
 4762SOL    HW115185   1.288   5.581   1.982
 4762SOL    HW215186   1.326   5.502   2.120
 4763SOL     OW15187   5.425   0.706   2.592
 4763SOL    HW115188   5.427   0.795   2.636
 4763SOL    HW215189   5.466   0.712   2.501
 4764SOL     OW15190   4.208   4.093   5.399
 4764SOL    HW115191   4.170   4.038   5.325
 4764SOL    HW215192   4.167   4.184   5.398
 4765SOL     OW15193   3.831   0.756   5.933
 4765SOL    HW115194   3.845   0.783   5.838
 4765SOL    HW215195   3.745   0.706   5.942
 4766SOL     OW15196   5.745   5.240   3.739
 4766SOL    HW115197   5.831   5.282   3.770
 4766SOL    HW215198   5.695   5.205   3.819
 4767SOL     OW15199   3.291   5.141   5.041
 4767SOL    HW115200   3.289   5.048   5.004
 4767SOL    HW215201   3.237   5.144   5.125
 4768SOL     OW15202   4.353   2.424   6.633
 4768SOL    HW115203   4.440   2.441   6.678
 4768SOL    HW215204   4.356   2.460   6.539
 4769SOL     OW15205   4.729   6.031   0.372
 4769SOL    HW115206   4.746   6.126   0.395
 4769SOL    HW215207   4.811   5.991   0.332
 4770SOL     OW15208   0.295   2.070   4.605
 4770SOL    HW115209   0.223   2.127   4.566
 4770SOL    HW215210   0.372   2.064   4.541
 4771SOL     OW15211   2.865   6.452   6.001
 4771SOL    HW115212   2.830   6.544   6.020
 4771SOL    HW215213   2.911   6.417   6.082
 4772SOL     OW15214   3.821   5.030   6.923
 4772SOL    HW115215   3.867   5.028   6.834
 4772SOL    HW215216   3.849   4.950   6.977
 4773SOL     OW15217   6.997   5.032   5.673
 4773SOL    HW115218   6.924   5.065   5.732
 4773SOL    HW215219   0.042   4.983   5.728
 4774SOL     OW15220   1.809   3.796   1.016
 4774SOL    HW115221   1.712   3.817   1.002
 4774SOL    HW215222   1.820   3.698   1.030
 4775SOL     OW15223   5.277   6.340   3.340
 4775SOL    HW115224   5.256   6.393   3.258
 4775SOL    HW215225   5.360   6.286   3.325
 4776SOL     OW15226   0.573   0.339   5.122
 4776SOL    HW115227   0.516   0.278   5.067
 4776SOL    HW215228   0.540   0.433   5.113
 4777SOL     OW15229   1.599   4.834   0.620
 4777SOL    HW115230   1.587   4.821   0.521
 4777SOL    HW215231   1.526   4.893   0.654
 4778SOL     OW15232   6.893   2.885   4.585
 4778SOL    HW115233   6.802   2.851   4.560
 4778SOL    HW215234   6.953   2.882   4.505
 4779SOL     OW15235   5.287   0.462   3.482
 4779SOL    HW115236   5.332   0.373   3.482
 4779SOL    HW215237   5.336   0.524   3.544
 4780SOL     OW15238   6.303   3.048   6.685
 4780SOL    HW115239   6.399   3.020   6.692
 4780SOL    HW215240   6.296   3.130   6.628
 4781SOL     OW15241   2.427   5.058   2.406
 4781SOL    HW115242   2.375   5.046   2.321
 4781SOL    HW215243   2.493   5.132   2.394
 4782SOL     OW15244   6.171   5.254   6.836
 4782SOL    HW115245   6.161   5.218   6.743
 4782SOL    HW215246   6.257   5.303   6.844
 4783SOL     OW15247   5.057   3.567   6.603
 4783SOL    HW115248   4.993   3.533   6.534
 4783SOL    HW215249   5.065   3.500   6.677
 4784SOL     OW15250   6.423   1.859   6.328
 4784SOL    HW115251   6.400   1.881   6.233
 4784SOL    HW215252   6.430   1.944   6.381
 4785SOL     OW15253   0.539   6.121   2.982
 4785SOL    HW115254   0.628   6.116   2.938
 4785SOL    HW215255   0.551   6.139   3.080
 4786SOL     OW15256   2.282   0.014   0.256
 4786SOL    HW115257   2.299   7.018   0.159
 4786SOL    HW215258   2.291   6.952   0.308
 4787SOL     OW15259   3.803   1.332   2.857
 4787SOL    HW115260   3.708   1.348   2.885
 4787SOL    HW215261   3.847   1.419   2.836
 4788SOL     OW15262   6.864   6.961   0.329
 4788SOL    HW115263   6.875   6.930   0.424
 4788SOL    HW215264   6.773   6.999   0.317
 4789SOL     OW15265   5.398   1.412   1.664
 4789SOL    HW115266   5.497   1.398   1.676
 4789SOL    HW215267   5.383   1.479   1.591
 4790SOL     OW15268   6.070   1.463   5.465
 4790SOL    HW115269   5.977   1.429   5.461
 4790SOL    HW215270   6.076   1.539   5.530
 4791SOL     OW15271   0.060   2.997   1.243
 4791SOL    HW115272   0.044   3.001   1.341
 4791SOL    HW215273   0.092   3.086   1.210
 4792SOL     OW15274   2.351   4.411   4.074
 4792SOL    HW115275   2.277   4.477   4.089
 4792SOL    HW215276   2.318   4.337   4.016
 4793SOL     OW15277   1.450   2.611   5.532
 4793SOL    HW115278   1.501   2.558   5.600
 4793SOL    HW215279   1.515   2.657   5.470
 4794SOL     OW15280   4.694   0.058   4.405
 4794SOL    HW115281   4.720   6.995   4.360
 4794SOL    HW215282   4.720   0.136   4.347
 4795SOL     OW15283   6.610   1.723   4.478
 4795SOL    HW115284   6.527   1.667   4.485
 4795SOL    HW215285   6.683   1.671   4.435
 4796SOL     OW15286   4.085   0.929   5.535
 4796SOL    HW115287   4.134   1.007   5.573
 4796SOL    HW215288   4.067   0.946   5.438
 4797SOL     OW15289   0.312   6.960   4.889
 4797SOL    HW115290   0.296   6.980   4.985
 4797SOL    HW215291   0.229   6.978   4.836
 4798SOL     OW15292   0.215   4.478   5.720
 4798SOL    HW115293   0.204   4.394   5.773
 4798SOL    HW215294   0.132   4.533   5.726
 4799SOL     OW15295   4.320   1.984   0.444
 4799SOL    HW115296   4.386   1.987   0.518
 4799SOL    HW215297   4.356   2.033   0.364
 4800SOL     OW15298   1.983   3.215   6.458
 4800SOL    HW115299   2.072   3.221   6.504
 4800SOL    HW215300   1.958   3.304   6.421
 4801SOL     OW15301   3.001   2.378   0.263
 4801SOL    HW115302   2.926   2.330   0.309
 4801SOL    HW215303   3.021   2.333   0.176
 4802SOL     OW15304   0.461   6.698   1.858
 4802SOL    HW115305   0.365   6.707   1.832
 4802SOL    HW215306   0.518   6.745   1.791
 4803SOL     OW15307   0.548   4.568   0.488
 4803SOL    HW115308   0.476   4.613   0.541
 4803SOL    HW215309   0.619   4.534   0.550
 4804SOL     OW15310   6.444   6.156   1.538
 4804SOL    HW115311   6.359   6.203   1.515
 4804SOL    HW215312   6.488   6.122   1.454
 4805SOL     OW15313   5.969   0.997   2.621
 4805SOL    HW115314   5.985   1.057   2.543
 4805SOL    HW215315   5.890   1.030   2.673
 4806SOL     OW15316   1.009   4.136   2.637
 4806SOL    HW115317   1.040   4.230   2.623
 4806SOL    HW215318   0.970   4.127   2.729
 4807SOL     OW15319   0.547   5.000   6.668
 4807SOL    HW115320   0.554   4.948   6.753
 4807SOL    HW215321   0.486   4.951   6.605
 4808SOL     OW15322   4.112   5.690   0.374
 4808SOL    HW115323   4.012   5.690   0.380
 4808SOL    HW215324   4.140   5.654   0.284
 4809SOL     OW15325   3.430   4.673   0.938
 4809SOL    HW115326   3.483   4.648   0.857
 4809SOL    HW215327   3.492   4.690   1.014
 4810SOL     OW15328   1.249   4.031   3.370
 4810SOL    HW115329   1.325   3.991   3.422
 4810SOL    HW215330   1.254   4.131   3.374
 4811SOL     OW15331   3.760   3.615   2.655
 4811SOL    HW115332   3.670   3.591   2.617
 4811SOL    HW215333   3.755   3.705   2.699
 4812SOL     OW15334   0.647   0.335   2.440
 4812SOL    HW115335   0.657   0.257   2.501
 4812SOL    HW215336   0.698   0.412   2.476
 4813SOL     OW15337   6.053   1.360   6.741
 4813SOL    HW115338   6.078   1.280   6.686
 4813SOL    HW215339   6.130   1.424   6.743
 4814SOL     OW15340   6.835   3.181   1.116
 4814SOL    HW115341   6.801   3.088   1.125
 4814SOL    HW215342   6.924   3.180   1.071
 4815SOL     OW15343   5.358   4.109   3.208
 4815SOL    HW115344   5.333   4.181   3.273
 4815SOL    HW215345   5.321   4.131   3.118
 4816SOL     OW15346   2.311   5.092   1.186
 4816SOL    HW115347   2.396   5.144   1.177
 4816SOL    HW215348   2.234   5.155   1.187
 4817SOL     OW15349   2.535   1.325   0.851
 4817SOL    HW115350   2.563   1.421   0.862
 4817SOL    HW215351   2.487   1.295   0.933
 4818SOL     OW15352   0.951   1.064   4.302
 4818SOL    HW115353   0.928   0.992   4.369
 4818SOL    HW215354   0.867   1.112   4.276
 4819SOL     OW15355   2.419   2.227   1.789
 4819SOL    HW115356   2.405   2.204   1.693
 4819SOL    HW215357   2.470   2.313   1.795
 4820SOL     OW15358   6.619   1.784   1.160
 4820SOL    HW115359   6.528   1.749   1.140
 4820SOL    HW215360   6.628   1.877   1.127
 4821SOL     OW15361   0.596   0.243   1.951
 4821SOL    HW115362   0.633   0.207   1.864
 4821SOL    HW215363   0.497   0.249   1.945
 4822SOL     OW15364   1.890   3.046   3.896
 4822SOL    HW115365   1.989   3.063   3.898
 4822SOL    HW215366   1.867   2.977   3.965
 4823SOL     OW15367   0.942   1.358   3.977
 4823SOL    HW115368   1.027   1.336   4.025
 4823SOL    HW215369   0.959   1.431   3.911
 4824SOL     OW15370   5.867   1.835   4.153
 4824SOL    HW115371   5.861   1.897   4.231
 4824SOL    HW215372   5.956   1.846   4.108
 4825SOL     OW15373   1.825   2.517   4.887
 4825SOL    HW115374   1.726   2.506   4.882
 4825SOL    HW215375   1.851   2.535   4.982
 4826SOL     OW15376   0.289   0.511   6.269
 4826SOL    HW115377   0.236   0.578   6.217
 4826SOL    HW215378   0.248   0.421   6.258
 4827SOL     OW15379   6.148   2.378   1.923
 4827SOL    HW115380   6.144   2.361   1.825
 4827SOL    HW215381   6.150   2.291   1.972
 4828SOL     OW15382   5.522   3.252   0.940
 4828SOL    HW115383   5.533   3.339   0.989
 4828SOL    HW215384   5.549   3.177   1.001
 4829SOL     OW15385   3.890   6.393   6.718
 4829SOL    HW115386   3.909   6.484   6.755
 4829SOL    HW215387   3.893   6.397   6.618
 4830SOL     OW15388   5.040   6.329   3.813
 4830SOL    HW115389   5.063   6.305   3.907
 4830SOL    HW215390   4.945   6.305   3.794
 4831SOL     OW15391   0.049   4.707   6.825
 4831SOL    HW115392   6.997   4.714   6.891
 4831SOL    HW215393   0.013   4.683   6.735
 4832SOL     OW15394   2.785   2.557   5.617
 4832SOL    HW115395   2.732   2.619   5.559
 4832SOL    HW215396   2.860   2.608   5.660
 4833SOL     OW15397   5.048   1.107   2.538
 4833SOL    HW115398   4.999   1.053   2.469
 4833SOL    HW215399   4.989   1.121   2.617
 4834SOL     OW15400   3.845   0.035   0.983
 4834SOL    HW115401   3.856   0.065   1.077
 4834SOL    HW215402   3.857   6.959   0.977
 4835SOL     OW15403   0.763   1.872   6.221
 4835SOL    HW115404   0.837   1.909   6.166
 4835SOL    HW215405   0.690   1.840   6.160
 4836SOL     OW15406   4.959   2.874   4.068
 4836SOL    HW115407   4.906   2.794   4.097
 4836SOL    HW215408   4.996   2.919   4.149
 4837SOL     OW15409   4.865   3.652   2.270
 4837SOL    HW115410   4.783   3.680   2.320
 4837SOL    HW215411   4.907   3.731   2.227
 4838SOL     OW15412   1.030   4.758   1.638
 4838SOL    HW115413   0.970   4.685   1.608
 4838SOL    HW215414   1.111   4.718   1.683
 4839SOL     OW15415   1.349   3.235   6.006
 4839SOL    HW115416   1.338   3.229   6.105
 4839SOL    HW215417   1.309   3.319   5.973
 4840SOL     OW15418   0.799   5.893   6.022
 4840SOL    HW115419   0.830   5.926   6.111
 4840SOL    HW215420   0.702   5.914   6.010
 4841SOL     OW15421   2.875   6.292   1.618
 4841SOL    HW115422   2.933   6.219   1.583
 4841SOL    HW215423   2.829   6.262   1.702
 4842SOL     OW15424   3.032   4.835   2.151
 4842SOL    HW115425   2.971   4.913   2.134
 4842SOL    HW215426   2.979   4.760   2.191
 4843SOL     OW15427   6.087   3.368   0.142
 4843SOL    HW115428   5.998   3.332   0.115
 4843SOL    HW215429   6.116   3.324   0.227
 4844SOL     OW15430   6.681   4.203   5.536
 4844SOL    HW115431   6.752   4.271   5.553
 4844SOL    HW215432   6.689   4.129   5.602
 4845SOL     OW15433   5.951   5.607   5.128
 4845SOL    HW115434   5.894   5.583   5.049
 4845SOL    HW215435   5.892   5.618   5.209
 4846SOL     OW15436   6.480   3.241   2.923
 4846SOL    HW115437   6.465   3.248   2.824
 4846SOL    HW215438   6.554   3.176   2.940
 4847SOL     OW15439   2.871   1.275   5.849
 4847SOL    HW115440   2.816   1.192   5.841
 4847SOL    HW215441   2.811   1.355   5.842
 4848SOL     OW15442   1.539   0.973   4.291
 4848SOL    HW115443   1.518   0.882   4.257
 4848SOL    HW215444   1.593   1.023   4.224
 4849SOL     OW15445   1.494   6.532   6.541
 4849SOL    HW115446   1.569   6.573   6.592
 4849SOL    HW215447   1.525   6.448   6.497
 4850SOL     OW15448   3.945   1.578   2.831
 4850SOL    HW115449   4.015   1.552   2.899
 4850SOL    HW215450   3.988   1.628   2.756
 4851SOL     OW15451   3.994   6.279   5.587
 4851SOL    HW115452   3.915   6.219   5.578
 4851SOL    HW215453   3.984   6.357   5.524
 4852SOL     OW15454   1.163   0.469   5.240
 4852SOL    HW115455   1.257   0.450   5.214
 4852SOL    HW215456   1.153   0.567   5.259
 4853SOL     OW15457   2.600   0.950   3.352
 4853SOL    HW115458   2.589   0.975   3.256
 4853SOL    HW215459   2.689   0.905   3.364
 4854SOL     OW15460   4.844   6.782   2.052
 4854SOL    HW115461   4.759   6.743   2.017
 4854SOL    HW215462   4.845   6.776   2.152
 4855SOL     OW15463   6.587   3.133   2.447
 4855SOL    HW115464   6.525   3.086   2.384
 4855SOL    HW215465   6.673   3.083   2.453
 4856SOL     OW15466   1.700   3.759   2.381
 4856SOL    HW115467   1.710   3.660   2.373
 4856SOL    HW215468   1.620   3.788   2.329
 4857SOL     OW15469   1.569   2.361   5.143
 4857SOL    HW115470   1.472   2.380   5.129
 4857SOL    HW215471   1.610   2.438   5.193
 4858SOL     OW15472   1.103   0.892   4.597
 4858SOL    HW115473   1.053   0.814   4.559
 4858SOL    HW215474   1.157   0.936   4.525
 4859SOL     OW15475   0.855   0.648   4.654
 4859SOL    HW115476   0.944   0.606   4.667
 4859SOL    HW215477   0.797   0.587   4.599
 4860SOL     OW15478   3.834   4.226   1.390
 4860SOL    HW115479   3.746   4.180   1.387
 4860SOL    HW215480   3.822   4.319   1.422
 4861SOL     OW15481   5.041   4.707   6.737
 4861SOL    HW115482   5.090   4.781   6.783
 4861SOL    HW215483   4.959   4.743   6.693
 4862SOL     OW15484   2.663   4.750   4.536
 4862SOL    HW115485   2.740   4.764   4.474
 4862SOL    HW215486   2.693   4.766   4.630
 4863SOL     OW15487   5.743   3.959   1.701
 4863SOL    HW115488   5.710   3.871   1.665
 4863SOL    HW215489   5.769   3.948   1.797
 4864SOL     OW15490   3.821   1.367   3.404
 4864SOL    HW115491   3.828   1.442   3.470
 4864SOL    HW215492   3.726   1.338   3.397
 4865SOL     OW15493   2.136   0.380   5.088
 4865SOL    HW115494   2.130   0.446   5.163
 4865SOL    HW215495   2.141   0.429   5.001
 4866SOL     OW15496   6.349   1.984   1.193
 4866SOL    HW115497   6.289   2.046   1.142
 4866SOL    HW215498   6.372   1.905   1.135
 4867SOL     OW15499   3.172   5.445   2.225
 4867SOL    HW115500   3.086   5.442   2.175
 4867SOL    HW215501   3.216   5.533   2.209
 4868SOL     OW15502   6.539   5.371   2.583
 4868SOL    HW115503   6.583   5.375   2.673
 4868SOL    HW215504   6.608   5.350   2.514
 4869SOL     OW15505   1.283   1.795   1.873
 4869SOL    HW115506   1.231   1.870   1.832
 4869SOL    HW215507   1.318   1.824   1.962
 4870SOL     OW15508   0.378   6.419   1.836
 4870SOL    HW115509   0.402   6.516   1.826
 4870SOL    HW215510   0.393   6.372   1.749
 4871SOL     OW15511   1.336   0.873   3.737
 4871SOL    HW115512   1.394   0.806   3.691
 4871SOL    HW215513   1.277   0.826   3.804
 4872SOL     OW15514   6.375   0.114   3.816
 4872SOL    HW115515   6.316   0.107   3.896
 4872SOL    HW215516   6.325   0.087   3.734
 4873SOL     OW15517   6.133   5.330   3.574
 4873SOL    HW115518   6.147   5.282   3.488
 4873SOL    HW215519   6.221   5.351   3.616
 4874SOL     OW15520   6.425   3.263   2.665
 4874SOL    HW115521   6.481   3.216   2.596
 4874SOL    HW215522   6.330   3.232   2.657
 4875SOL     OW15523   5.793   2.014   0.873
 4875SOL    HW115524   5.822   1.988   0.965
 4875SOL    HW215525   5.706   1.969   0.852
 4876SOL     OW15526   6.057   2.386   3.254
 4876SOL    HW115527   6.124   2.444   3.299
 4876SOL    HW215528   6.104   2.309   3.211
 4877SOL     OW15529   1.373   1.767   6.569
 4877SOL    HW115530   1.334   1.822   6.496
 4877SOL    HW215531   1.466   1.798   6.588
 4878SOL     OW15532   6.219   1.409   2.119
 4878SOL    HW115533   6.123   1.383   2.111
 4878SOL    HW215534   6.264   1.395   2.031
 4879SOL     OW15535   4.413   0.789   2.941
 4879SOL    HW115536   4.333   0.774   2.999
 4879SOL    HW215537   4.412   0.722   2.866
 4880SOL     OW15538   5.246   3.667   6.909
 4880SOL    HW115539   5.211   3.580   6.944
 4880SOL    HW215540   5.175   3.713   6.856
 4881SOL     OW15541   1.290   0.935   0.506
 4881SOL    HW115542   1.243   0.913   0.591
 4881SOL    HW215543   1.388   0.918   0.516
 4882SOL     OW15544   4.741   0.949   4.618
 4882SOL    HW115545   4.811   0.929   4.550
 4882SOL    HW215546   4.658   0.980   4.572
 4883SOL     OW15547   4.838   5.107   1.758
 4883SOL    HW115548   4.829   5.087   1.660
 4883SOL    HW215549   4.838   5.206   1.773
 4884SOL     OW15550   2.622   6.649   0.958
 4884SOL    HW115551   2.547   6.612   0.904
 4884SOL    HW215552   2.709   6.611   0.927
 4885SOL     OW15553   2.256   5.434   1.874
 4885SOL    HW115554   2.242   5.487   1.790
 4885SOL    HW215555   2.271   5.497   1.950
 4886SOL     OW15556   1.181   6.122   1.419
 4886SOL    HW115557   1.135   6.096   1.334
 4886SOL    HW215558   1.246   6.051   1.444
 4887SOL     OW15559   0.017   0.623   2.185
 4887SOL    HW115560   0.104   0.654   2.222
 4887SOL    HW215561   7.012   0.538   2.230
 4888SOL     OW15562   2.648   0.240   4.206
 4888SOL    HW115563   2.719   0.270   4.270
 4888SOL    HW215564   2.616   0.149   4.231
 4889SOL     OW15565   6.910   2.033   5.201
 4889SOL    HW115566   6.938   2.035   5.105
 4889SOL    HW215567   6.815   2.066   5.208
 4890SOL     OW15568   0.232   1.157   6.688
 4890SOL    HW115569   0.244   1.121   6.596
 4890SOL    HW215570   0.224   1.256   6.684
 4891SOL     OW15571   2.408   4.604   6.992
 4891SOL    HW115572   2.489   4.554   7.022
 4891SOL    HW215573   2.362   4.554   6.919
 4892SOL     OW15574   3.609   6.116   2.193
 4892SOL    HW115575   3.534   6.063   2.231
 4892SOL    HW215576   3.584   6.213   2.192
 4893SOL     OW15577   6.746   2.956   1.241
 4893SOL    HW115578   6.758   2.878   1.180
 4893SOL    HW215579   6.649   2.975   1.253
 4894SOL     OW15580   2.820   0.526   3.523
 4894SOL    HW115581   2.723   0.518   3.501
 4894SOL    HW215582   2.839   0.482   3.610
 4895SOL     OW15583   0.733   4.628   4.341
 4895SOL    HW115584   0.833   4.630   4.349
 4895SOL    HW215585   0.692   4.681   4.415
 4896SOL     OW15586   1.601   4.741   1.927
 4896SOL    HW115587   1.511   4.711   1.897
 4896SOL    HW215588   1.622   4.829   1.886
 4897SOL     OW15589   1.911   3.901   5.712
 4897SOL    HW115590   1.930   3.992   5.678
 4897SOL    HW215591   1.865   3.907   5.801
 4898SOL     OW15592   4.111   0.746   4.426
 4898SOL    HW115593   4.073   0.777   4.514
 4898SOL    HW215594   4.091   0.815   4.356
 4899SOL     OW15595   5.162   5.387   3.247
 4899SOL    HW115596   5.153   5.486   3.255
 4899SOL    HW215597   5.238   5.366   3.184
 4900SOL     OW15598   3.529   6.312   4.839
 4900SOL    HW115599   3.525   6.234   4.776
 4900SOL    HW215600   3.451   6.372   4.821
 4901SOL     OW15601   2.956   1.259   5.151
 4901SOL    HW115602   2.976   1.276   5.248
 4901SOL    HW215603   3.025   1.197   5.114
 4902SOL     OW15604   1.727   1.582   4.846
 4902SOL    HW115605   1.693   1.521   4.774
 4902SOL    HW215606   1.656   1.649   4.868
 4903SOL     OW15607   4.082   5.917   6.827
 4903SOL    HW115608   4.056   6.008   6.794
 4903SOL    HW215609   4.054   5.848   6.760
 4904SOL     OW15610   2.417   0.069   4.992
 4904SOL    HW115611   2.427   0.122   4.908
 4904SOL    HW215612   2.485   0.099   5.059
 4905SOL     OW15613   3.348   0.276   2.788
 4905SOL    HW115614   3.375   0.271   2.884
 4905SOL    HW215615   3.257   0.238   2.777
 4906SOL     OW15616   5.523   1.758   6.420
 4906SOL    HW115617   5.533   1.661   6.442
 4906SOL    HW215618   5.613   1.801   6.412
 4907SOL     OW15619   4.407   6.182   2.326
 4907SOL    HW115620   4.375   6.270   2.292
 4907SOL    HW215621   4.438   6.126   2.249
 4908SOL     OW15622   5.613   5.948   0.660
 4908SOL    HW115623   5.666   5.874   0.702
 4908SOL    HW215624   5.670   6.030   0.653
 4909SOL     OW15625   0.475   0.155   4.028
 4909SOL    HW115626   0.422   0.154   3.943
 4909SOL    HW215627   0.572   0.165   4.007
 4910SOL     OW15628   5.280   0.914   4.988
 4910SOL    HW115629   5.218   0.926   4.910
 4910SOL    HW215630   5.268   0.989   5.053
 4911SOL     OW15631   1.548   4.102   3.771
 4911SOL    HW115632   1.614   4.030   3.750
 4911SOL    HW215633   1.567   4.139   3.862
 4912SOL     OW15634   5.605   1.470   6.477
 4912SOL    HW115635   5.690   1.454   6.527
 4912SOL    HW215636   5.551   1.386   6.476
 4913SOL     OW15637   4.190   3.015   5.432
 4913SOL    HW115638   4.195   3.099   5.379
 4913SOL    HW215639   4.276   2.964   5.422
 4914SOL     OW15640   3.108   0.338   4.726
 4914SOL    HW115641   3.191   0.317   4.675
 4914SOL    HW215642   3.070   0.253   4.764
 4915SOL     OW15643   3.369   6.426   5.920
 4915SOL    HW115644   3.290   6.365   5.915
 4915SOL    HW215645   3.416   6.426   5.831
 4916SOL     OW15646   0.829   0.480   3.949
 4916SOL    HW115647   0.759   0.415   3.919
 4916SOL    HW215648   0.899   0.431   4.001
 4917SOL     OW15649   2.467   5.633   1.396
 4917SOL    HW115650   2.528   5.707   1.369
 4917SOL    HW215651   2.374   5.653   1.366
 4918SOL     OW15652   4.919   5.682   3.434
 4918SOL    HW115653   4.838   5.733   3.462
 4918SOL    HW215654   4.890   5.600   3.383
 4919SOL     OW15655   3.375   2.459   0.884
 4919SOL    HW115656   3.351   2.442   0.788
 4919SOL    HW215657   3.472   2.482   0.891
 4920SOL     OW15658   5.389   0.465   4.221
 4920SOL    HW115659   5.423   0.502   4.307
 4920SOL    HW215660   5.289   0.464   4.221
 4921SOL     OW15661   1.146   5.254   0.864
 4921SOL    HW115662   1.208   5.254   0.786
 4921SOL    HW215663   1.128   5.159   0.893
 4922SOL     OW15664   2.537   2.626   5.463
 4922SOL    HW115665   2.524   2.533   5.430
 4922SOL    HW215666   2.483   2.689   5.407
 4923SOL     OW15667   3.531   1.830   2.820
 4923SOL    HW115668   3.588   1.885   2.881
 4923SOL    HW215669   3.455   1.790   2.871
 4924SOL     OW15670   3.820   1.218   4.899
 4924SOL    HW115671   3.799   1.314   4.882
 4924SOL    HW215672   3.856   1.208   4.992
 4925SOL     OW15673   6.454   6.850   2.700
 4925SOL    HW115674   6.446   6.948   2.681
 4925SOL    HW215675   6.493   6.804   2.620
 4926SOL     OW15676   4.705   1.152   0.503
 4926SOL    HW115677   4.734   1.222   0.569
 4926SOL    HW215678   4.713   1.189   0.410
 4927SOL     OW15679   3.474   3.954   4.540
 4927SOL    HW115680   3.444   3.994   4.627
 4927SOL    HW215681   3.394   3.928   4.486
 4928SOL     OW15682   2.316   6.625   6.751
 4928SOL    HW115683   2.309   6.541   6.698
 4928SOL    HW215684   2.255   6.619   6.831
 4929SOL     OW15685   6.842   6.775   4.184
 4929SOL    HW115686   6.811   6.868   4.161
 4929SOL    HW215687   6.766   6.724   4.223
 4930SOL     OW15688   5.181   0.982   3.101
 4930SOL    HW115689   5.106   0.923   3.131
 4930SOL    HW215690   5.144   1.055   3.044
 4931SOL     OW15691   6.954   6.597   0.857
 4931SOL    HW115692   6.885   6.525   0.869
 4931SOL    HW215693   7.003   6.582   0.772
 4932SOL     OW15694   3.033   3.131   2.043
 4932SOL    HW115695   2.989   3.145   1.955
 4932SOL    HW215696   2.999   3.199   2.108
 4933SOL     OW15697   2.543   6.832   2.729
 4933SOL    HW115698   2.484   6.789   2.660
 4933SOL    HW215699   2.497   6.832   2.817
 4934SOL     OW15700   3.230   5.752   3.152
 4934SOL    HW115701   3.263   5.719   3.064
 4934SOL    HW215702   3.216   5.674   3.213
 4935SOL     OW15703   2.035   1.856   6.537
 4935SOL    HW115704   1.966   1.928   6.528
 4935SOL    HW215705   2.126   1.895   6.527
 4936SOL     OW15706   2.528   4.653   1.463
 4936SOL    HW115707   2.586   4.731   1.439
 4936SOL    HW215708   2.542   4.580   1.397
 4937SOL     OW15709   5.892   3.157   5.577
 4937SOL    HW115710   5.975   3.191   5.533
 4937SOL    HW215711   5.812   3.201   5.535
 4938SOL     OW15712   2.182   5.125   5.610
 4938SOL    HW115713   2.113   5.143   5.681
 4938SOL    HW215714   2.136   5.092   5.528
 4939SOL     OW15715   6.252   2.112   4.587
 4939SOL    HW115716   6.163   2.096   4.630
 4939SOL    HW215717   6.281   2.206   4.604
 4940SOL     OW15718   0.088   1.419   4.621
 4940SOL    HW115719   0.142   1.487   4.670
 4940SOL    HW215720   7.018   1.454   4.606
 4941SOL     OW15721   5.179   2.150   5.424
 4941SOL    HW115722   5.223   2.086   5.360
 4941SOL    HW215723   5.209   2.243   5.403
 4942SOL     OW15724   5.125   2.396   6.385
 4942SOL    HW115725   5.031   2.371   6.362
 4942SOL    HW215726   5.138   2.389   6.484
 4943SOL     OW15727   5.001   3.411   6.858
 4943SOL    HW115728   5.048   3.451   6.937
 4943SOL    HW215729   4.902   3.415   6.874
 4944SOL     OW15730   1.946   4.432   1.479
 4944SOL    HW115731   1.918   4.470   1.391
 4944SOL    HW215732   1.875   4.451   1.547
 4945SOL     OW15733   1.119   0.624   4.484
 4945SOL    HW115734   1.210   0.661   4.504
 4945SOL    HW215735   1.124   0.525   4.475
 4946SOL     OW15736   1.162   3.992   0.210
 4946SOL    HW115737   1.193   4.073   0.260
 4946SOL    HW215738   1.110   3.933   0.272
 4947SOL     OW15739   2.453   1.030   1.264
 4947SOL    HW115740   2.504   0.981   1.192
 4947SOL    HW215741   2.419   0.965   1.331
 4948SOL     OW15742   1.132   2.343   2.352
 4948SOL    HW115743   1.216   2.368   2.399
 4948SOL    HW215744   1.153   2.317   2.258
 4949SOL     OW15745   4.718   6.832   6.353
 4949SOL    HW115746   4.722   6.909   6.417
 4949SOL    HW215747   4.683   6.751   6.400
 4950SOL     OW15748   2.195   5.385   4.510
 4950SOL    HW115749   2.277   5.348   4.466
 4950SOL    HW215750   2.203   5.484   4.517
 4951SOL     OW15751   5.317   1.449   4.190
 4951SOL    HW115752   5.321   1.543   4.224
 4951SOL    HW215753   5.234   1.404   4.224
 4952SOL     OW15754   0.068   0.873   5.666
 4952SOL    HW115755   0.053   0.898   5.761
 4952SOL    HW215756   0.165   0.884   5.644
 4953SOL     OW15757   1.966   6.305   2.176
 4953SOL    HW115758   2.043   6.247   2.148
 4953SOL    HW215759   1.952   6.376   2.107
 4954SOL     OW15760   4.143   3.583   6.911
 4954SOL    HW115761   4.198   3.637   6.975
 4954SOL    HW215762   4.128   3.636   6.827
 4955SOL     OW15763   3.026   5.890   6.677
 4955SOL    HW115764   2.942   5.942   6.694
 4955SOL    HW215765   3.008   5.793   6.693
 4956SOL     OW15766   2.502   6.593   4.923
 4956SOL    HW115767   2.460   6.683   4.906
 4956SOL    HW215768   2.446   6.522   4.880
 4957SOL     OW15769   6.781   1.881   2.130
 4957SOL    HW115770   6.834   1.901   2.047
 4957SOL    HW215771   6.717   1.806   2.111
 4958SOL     OW15772   6.636   5.139   5.195
 4958SOL    HW115773   6.699   5.109   5.266
 4958SOL    HW215774   6.659   5.096   5.108
 4959SOL     OW15775   6.523   1.331   6.638
 4959SOL    HW115776   6.572   1.400   6.585
 4959SOL    HW215777   6.544   1.341   6.735
 4960SOL     OW15778   3.603   5.671   3.158
 4960SOL    HW115779   3.554   5.744   3.205
 4960SOL    HW215780   3.612   5.694   3.061
 4961SOL     OW15781   4.897   1.635   5.984
 4961SOL    HW115782   4.974   1.669   6.037
 4961SOL    HW215783   4.866   1.548   6.023
 4962SOL     OW15784   6.393   2.262   0.136
 4962SOL    HW115785   6.302   2.297   0.115
 4962SOL    HW215786   6.384   2.172   0.178
 4963SOL     OW15787   5.962   5.588   0.056
 4963SOL    HW115788   5.990   5.673   0.099
 4963SOL    HW215789   6.032   5.518   0.071
 4964SOL     OW15790   3.366   6.818   3.933
 4964SOL    HW115791   3.340   6.734   3.980
 4964SOL    HW215792   3.323   6.820   3.842
 4965SOL     OW15793   0.245   0.489   3.442
 4965SOL    HW115794   0.317   0.541   3.487
 4965SOL    HW215795   0.178   0.553   3.404
 4966SOL     OW15796   2.544   0.643   4.729
 4966SOL    HW115797   2.591   0.726   4.758
 4966SOL    HW215798   2.595   0.563   4.759
 4967SOL     OW15799   3.582   3.919   6.344
 4967SOL    HW115800   3.576   4.010   6.304
 4967SOL    HW215801   3.661   3.871   6.306
 4968SOL     OW15802   6.262   2.520   3.411
 4968SOL    HW115803   6.265   2.595   3.476
 4968SOL    HW215804   6.301   2.550   3.324
 4969SOL     OW15805   2.454   0.543   2.193
 4969SOL    HW115806   2.470   0.482   2.116
 4969SOL    HW215807   2.356   0.552   2.210
 4970SOL     OW15808   1.854   1.978   3.884
 4970SOL    HW115809   1.947   1.954   3.854
 4970SOL    HW215810   1.801   2.011   3.806
 4971SOL     OW15811   6.480   6.792   3.833
 4971SOL    HW115812   6.386   6.822   3.853
 4971SOL    HW215813   6.545   6.855   3.876
 4972SOL     OW15814   2.518   2.858   0.063
 4972SOL    HW115815   2.591   2.791   0.079
 4972SOL    HW215816   2.431   2.809   0.052
 4973SOL     OW15817   0.830   0.517   2.504
 4973SOL    HW115818   0.813   0.615   2.494
 4973SOL    HW215819   0.882   0.501   2.589
 4974SOL     OW15820   5.857   4.972   1.558
 4974SOL    HW115821   5.949   4.935   1.564
 4974SOL    HW215822   5.794   4.913   1.610
 4975SOL     OW15823   5.580   4.945   5.988
 4975SOL    HW115824   5.531   4.945   5.901
 4975SOL    HW215825   5.515   4.964   6.062
 4976SOL     OW15826   2.839   6.821   4.281
 4976SOL    HW115827   2.907   6.805   4.353
 4976SOL    HW215828   2.867   6.773   4.198
 4977SOL     OW15829   4.136   4.038   0.703
 4977SOL    HW115830   4.101   3.999   0.788
 4977SOL    HW215831   4.164   4.132   0.719
 4978SOL     OW15832   6.901   4.378   5.590
 4978SOL    HW115833   6.839   4.455   5.596
 4978SOL    HW215834   6.982   4.404   5.537
 4979SOL     OW15835   0.371   0.197   5.547
 4979SOL    HW115836   0.387   0.245   5.460
 4979SOL    HW215837   0.383   0.261   5.623
 4980SOL     OW15838   4.774   6.484   3.423
 4980SOL    HW115839   4.737   6.398   3.387
 4980SOL    HW215840   4.863   6.466   3.466
 4981SOL     OW15841   5.215   5.965   6.412
 4981SOL    HW115842   5.239   6.026   6.487
 4981SOL    HW215843   5.201   6.019   6.329
 4982SOL     OW15844   2.415   1.647   6.339
 4982SOL    HW115845   2.385   1.554   6.361
 4982SOL    HW215846   2.490   1.672   6.400
 4983SOL     OW15847   5.374   2.340   4.377
 4983SOL    HW115848   5.418   2.421   4.339
 4983SOL    HW215849   5.276   2.344   4.359
 4984SOL     OW15850   6.071   4.559   4.251
 4984SOL    HW115851   6.114   4.484   4.301
 4984SOL    HW215852   6.141   4.606   4.197
 4985SOL     OW15853   6.420   6.811   3.287
 4985SOL    HW115854   6.446   6.767   3.201
 4985SOL    HW215855   6.468   6.767   3.363
 4986SOL     OW15856   5.765   4.232   2.954
 4986SOL    HW115857   5.695   4.270   3.014
 4986SOL    HW215858   5.854   4.234   3.000
 4987SOL     OW15859   1.115   1.556   1.053
 4987SOL    HW115860   1.185   1.537   0.983
 4987SOL    HW215861   1.101   1.475   1.109
 4988SOL     OW15862   6.017   1.211   3.393
 4988SOL    HW115863   6.031   1.276   3.467
 4988SOL    HW215864   5.932   1.161   3.407
 4989SOL     OW15865   5.459   0.480   0.956
 4989SOL    HW115866   5.379   0.483   1.014
 4989SOL    HW215867   5.538   0.519   1.004
 4990SOL     OW15868   1.979   1.443   5.764
 4990SOL    HW115869   2.026   1.362   5.798
 4990SOL    HW215870   1.884   1.421   5.743
 4991SOL     OW15871   0.383   3.738   4.771
 4991SOL    HW115872   0.405   3.658   4.827
 4991SOL    HW215873   0.286   3.737   4.747
 4992SOL     OW15874   4.855   1.222   4.963
 4992SOL    HW115875   4.927   1.157   4.990
 4992SOL    HW215876   4.784   1.173   4.912
 4993SOL     OW15877   3.757   5.049   3.962
 4993SOL    HW115878   3.805   5.123   4.011
 4993SOL    HW215879   3.824   4.986   3.923
 4994SOL     OW15880   1.211   6.957   2.341
 4994SOL    HW115881   1.288   7.017   2.319
 4994SOL    HW215882   1.125   7.004   2.322
 4995SOL     OW15883   6.647   3.084   5.664
 4995SOL    HW115884   6.603   3.049   5.746
 4995SOL    HW215885   6.629   3.182   5.655
 4996SOL     OW15886   1.178   1.391   2.784
 4996SOL    HW115887   1.170   1.307   2.731
 4996SOL    HW215888   1.216   1.464   2.727
 4997SOL     OW15889   6.324   1.671   3.207
 4997SOL    HW115890   6.284   1.693   3.296
 4997SOL    HW215891   6.268   1.713   3.135
 4998SOL     OW15892   2.271   3.585   5.270
 4998SOL    HW115893   2.352   3.642   5.280
 4998SOL    HW215894   2.190   3.643   5.257
 4999SOL     OW15895   5.749   4.615   1.384
 4999SOL    HW115896   5.683   4.689   1.393
 4999SOL    HW215897   5.841   4.654   1.375
 5000SOL     OW15898   1.991   6.148   4.003
 5000SOL    HW115899   2.041   6.229   3.975
 5000SOL    HW215900   2.022   6.069   3.951
 5001SOL     OW15901   1.627   4.325   0.729
 5001SOL    HW115902   1.710   4.288   0.770
 5001SOL    HW215903   1.651   4.395   0.662
 5002SOL     OW15904   1.515   3.135   3.274
 5002SOL    HW115905   1.574   3.212   3.300
 5002SOL    HW215906   1.570   3.065   3.228
 5003SOL     OW15907   2.266   6.527   2.760
 5003SOL    HW115908   2.355   6.481   2.763
 5003SOL    HW215909   2.214   6.503   2.842
 5004SOL     OW15910   3.040   5.099   5.405
 5004SOL    HW115911   3.047   5.181   5.348
 5004SOL    HW215912   3.128   5.052   5.406
 5005SOL     OW15913   3.650   2.215   1.071
 5005SOL    HW115914   3.689   2.207   0.979
 5005SOL    HW215915   3.550   2.217   1.064
 5006SOL     OW15916   4.945   6.625   6.960
 5006SOL    HW115917   4.895   6.548   6.921
 5006SOL    HW215918   4.882   6.682   7.013
 5007SOL     OW15919   1.641   0.257   6.700
 5007SOL    HW115920   1.621   0.282   6.795
 5007SOL    HW215921   1.559   0.267   6.645
 5008SOL     OW15922   6.346   0.586   3.185
 5008SOL    HW115923   6.255   0.544   3.180
 5008SOL    HW215924   6.340   0.682   3.160
 5009SOL     OW15925   1.630   6.277   1.461
 5009SOL    HW115926   1.642   6.180   1.484
 5009SOL    HW215927   1.552   6.288   1.401
 5010SOL     OW15928   3.600   2.888   2.833
 5010SOL    HW115929   3.604   2.864   2.736
 5010SOL    HW215930   3.685   2.933   2.860
 5011SOL     OW15931   1.975   3.424   2.670
 5011SOL    HW115932   1.878   3.407   2.652
 5011SOL    HW215933   2.023   3.441   2.584
 5012SOL     OW15934   4.926   3.460   6.343
 5012SOL    HW115935   4.845   3.460   6.284
 5012SOL    HW215936   5.002   3.503   6.294
 5013SOL     OW15937   5.226   1.501   0.275
 5013SOL    HW115938   5.250   1.480   0.181
 5013SOL    HW215939   5.265   1.431   0.336
 5014SOL     OW15940   5.193   4.181   0.715
 5014SOL    HW115941   5.203   4.223   0.806
 5014SOL    HW215942   5.108   4.213   0.673
 5015SOL     OW15943   4.640   2.217   3.690
 5015SOL    HW115944   4.639   2.218   3.590
 5015SOL    HW215945   4.577   2.286   3.725
 5016SOL     OW15946   2.804   1.737   0.943
 5016SOL    HW115947   2.817   1.788   0.858
 5016SOL    HW215948   2.726   1.674   0.932
 5017SOL     OW15949   2.020   2.633   0.071
 5017SOL    HW115950   2.071   2.669   0.149
 5017SOL    HW215951   1.959   2.560   0.102
 5018SOL     OW15952   0.899   4.249   1.198
 5018SOL    HW115953   0.823   4.250   1.263
 5018SOL    HW215954   0.985   4.257   1.248
 5019SOL     OW15955   2.064   4.863   6.699
 5019SOL    HW115956   2.149   4.890   6.743
 5019SOL    HW215957   2.051   4.916   6.615
 5020SOL     OW15958   4.842   6.826   6.103
 5020SOL    HW115959   4.812   6.833   6.198
 5020SOL    HW215960   4.774   6.777   6.050
 5021SOL     OW15961   1.613   1.888   5.704
 5021SOL    HW115962   1.708   1.904   5.728
 5021SOL    HW215963   1.554   1.920   5.778
 5022SOL     OW15964   1.903   0.120   0.158
 5022SOL    HW115965   1.818   0.082   0.122
 5022SOL    HW215966   1.954   0.163   0.084
 5023SOL     OW15967   6.236   2.509   1.142
 5023SOL    HW115968   6.194   2.580   1.199
 5023SOL    HW215969   6.196   2.511   1.051
 5024SOL     OW15970   6.380   5.284   3.023
 5024SOL    HW115971   6.411   5.369   2.982
 5024SOL    HW215972   6.372   5.295   3.122
 5025SOL     OW15973   3.840   2.006   2.035
 5025SOL    HW115974   3.760   2.065   2.024
 5025SOL    HW215975   3.816   1.927   2.091
 5026SOL     OW15976   5.580   6.123   6.488
 5026SOL    HW115977   5.588   6.220   6.463
 5026SOL    HW215978   5.537   6.072   6.414
 5027SOL     OW15979   0.722   6.789   2.500
 5027SOL    HW115980   0.754   6.742   2.417
 5027SOL    HW215981   0.638   6.745   2.533
 5028SOL     OW15982   0.549   6.174   3.245
 5028SOL    HW115983   0.481   6.217   3.304
 5028SOL    HW215984   0.640   6.211   3.267
 5029SOL     OW15985   6.867   3.947   3.596
 5029SOL    HW115986   6.886   3.886   3.519
 5029SOL    HW215987   6.824   4.031   3.562
 5030SOL     OW15988   6.984   0.757   6.541
 5030SOL    HW115989   6.915   0.749   6.469
 5030SOL    HW215990   0.026   0.681   6.534
 5031SOL     OW15991   5.357   0.742   4.779
 5031SOL    HW115992   5.335   0.745   4.877
 5031SOL    HW215993   5.367   0.836   4.744
 5032SOL     OW15994   1.641   4.189   1.180
 5032SOL    HW115995   1.712   4.125   1.210
 5032SOL    HW215996   1.650   4.275   1.230
 5033SOL     OW15997   1.698   5.090   6.437
 5033SOL    HW115998   1.741   5.034   6.366
 5033SOL    HW215999   1.641   5.160   6.395
 5034SOL     OW16000   6.739   2.158   2.707
 5034SOL    HW116001   6.692   2.070   2.716
 5034SOL    HW216002   6.705   2.206   2.626
 5035SOL     OW16003   6.303   4.561   0.635
 5035SOL    HW116004   6.317   4.527   0.728
 5035SOL    HW216005   6.233   4.506   0.590
 5036SOL     OW16006   6.946   4.516   0.045
 5036SOL    HW116007   6.851   4.502   0.072
 5036SOL    HW216008   6.959   4.481   6.975
 5037SOL     OW16009   5.430   2.093   2.645
 5037SOL    HW116010   5.357   2.156   2.618
 5037SOL    HW216011   5.391   2.020   2.701
 5038SOL     OW16012   2.057   4.652   5.289
 5038SOL    HW116013   2.139   4.613   5.245
 5038SOL    HW216014   1.978   4.634   5.231
 5039SOL     OW16015   2.122   3.498   5.921
 5039SOL    HW116016   2.114   3.419   5.859
 5039SOL    HW216017   2.200   3.554   5.894
 5040SOL     OW16018   1.813   4.823   6.650
 5040SOL    HW116019   1.830   4.744   6.592
 5040SOL    HW216020   1.890   4.837   6.712
 5041SOL     OW16021   1.788   2.870   1.291
 5041SOL    HW116022   1.767   2.966   1.269
 5041SOL    HW216023   1.704   2.818   1.300
 5042SOL     OW16024   6.761   3.169   0.052
 5042SOL    HW116025   6.717   3.169   0.142
 5042SOL    HW216026   6.710   3.108   7.013
 5043SOL     OW16027   2.565   1.537   6.110
 5043SOL    HW116028   2.626   1.473   6.157
 5043SOL    HW216029   2.523   1.599   6.176
 5044SOL     OW16030   5.858   6.585   2.392
 5044SOL    HW116031   5.888   6.626   2.306
 5044SOL    HW216032   5.758   6.588   2.398
 5045SOL     OW16033   5.647   3.121   6.821
 5045SOL    HW116034   5.596   3.090   6.901
 5045SOL    HW216035   5.585   3.171   6.760
 5046SOL     OW16036   3.336   4.068   5.027
 5046SOL    HW116037   3.239   4.092   5.038
 5046SOL    HW216038   3.393   4.145   5.054
 5047SOL     OW16039   0.360   2.633   1.966
 5047SOL    HW116040   0.375   2.626   1.867
 5047SOL    HW216041   0.282   2.693   1.984
 5048SOL     OW16042   6.944   1.099   1.296
 5048SOL    HW116043   6.939   1.148   1.383
 5048SOL    HW216044   6.957   1.164   1.221
 5049SOL     OW16045   6.378   1.538   4.336
 5049SOL    HW116046   6.384   1.588   4.249
 5049SOL    HW216047   6.399   1.441   4.320
 5050SOL     OW16048   0.971   1.110   1.808
 5050SOL    HW116049   1.005   1.171   1.880
 5050SOL    HW216050   0.895   1.056   1.843
 5051SOL     OW16051   4.402   3.351   0.417
 5051SOL    HW116052   4.496   3.353   0.451
 5051SOL    HW216053   4.342   3.308   0.485
 5052SOL     OW16054   2.676   5.162   5.996
 5052SOL    HW116055   2.648   5.102   6.071
 5052SOL    HW216056   2.695   5.254   6.032
 5053SOL     OW16057   1.477   3.912   3.508
 5053SOL    HW116058   1.571   3.912   3.476
 5053SOL    HW216059   1.475   3.931   3.606
 5054SOL     OW16060   3.513   5.681   5.550
 5054SOL    HW116061   3.541   5.618   5.622
 5054SOL    HW216062   3.436   5.736   5.582
 5055SOL     OW16063   0.623   0.801   5.365
 5055SOL    HW116064   0.686   0.803   5.288
 5055SOL    HW216065   0.674   0.810   5.450
 5056SOL     OW16066   6.256   3.440   0.516
 5056SOL    HW116067   6.235   3.414   0.610
 5056SOL    HW216068   6.183   3.498   0.480
 5057SOL     OW16069   0.873   5.710   4.174
 5057SOL    HW116070   0.868   5.703   4.273
 5057SOL    HW216071   0.941   5.646   4.139
 5058SOL     OW16072   2.456   3.865   5.994
 5058SOL    HW116073   2.377   3.925   6.001
 5058SOL    HW216074   2.494   3.871   5.901
 5059SOL     OW16075   5.803   3.384   3.818
 5059SOL    HW116076   5.737   3.330   3.870
 5059SOL    HW216077   5.804   3.353   3.723
 5060SOL     OW16078   0.295   3.106   5.392
 5060SOL    HW116079   0.338   3.168   5.328
 5060SOL    HW216080   0.281   3.017   5.348
 5061SOL     OW16081   3.282   3.188   3.823
 5061SOL    HW116082   3.316   3.101   3.788
 5061SOL    HW216083   3.358   3.253   3.830
 5062SOL     OW16084   5.454   1.349   2.668
 5062SOL    HW116085   5.429   1.423   2.730
 5062SOL    HW216086   5.378   1.330   2.606
 5063SOL     OW16087   0.870   6.462   1.557
 5063SOL    HW116088   0.872   6.391   1.628
 5063SOL    HW216089   0.932   6.536   1.583
 5064SOL     OW16090   4.724   4.238   1.556
 5064SOL    HW116091   4.675   4.201   1.477
 5064SOL    HW216092   4.701   4.335   1.567
 5065SOL     OW16093   1.363   1.699   2.891
 5065SOL    HW116094   1.386   1.793   2.917
 5065SOL    HW216095   1.275   1.674   2.932
 5066SOL     OW16096   3.372   4.126   1.456
 5066SOL    HW116097   3.276   4.108   1.475
 5066SOL    HW216098   3.418   4.155   1.540
 5067SOL     OW16099   3.224   0.718   2.460
 5067SOL    HW116100   3.307   0.771   2.445
 5067SOL    HW216101   3.245   0.637   2.514
 5068SOL     OW16102   3.871   4.798   0.016
 5068SOL    HW116103   3.940   4.731   7.014
 5068SOL    HW216104   3.787   4.752   0.045
 5069SOL     OW16105   1.593   2.477   5.957
 5069SOL    HW116106   1.595   2.530   6.041
 5069SOL    HW216107   1.564   2.383   5.976
 5070SOL     OW16108   5.365   5.166   4.956
 5070SOL    HW116109   5.387   5.136   5.050
 5070SOL    HW216110   5.319   5.092   4.908
 5071SOL     OW16111   3.733   1.924   3.877
 5071SOL    HW116112   3.822   1.879   3.881
 5071SOL    HW216113   3.730   1.985   3.798
 5072SOL     OW16114   1.754   1.528   1.160
 5072SOL    HW116115   1.681   1.503   1.096
 5072SOL    HW216116   1.750   1.468   1.240
 5073SOL     OW16117   1.834   4.842   0.751
 5073SOL    HW116118   1.742   4.835   0.712
 5073SOL    HW216119   1.902   4.817   0.681
 5074SOL     OW16120   3.510   2.078   2.382
 5074SOL    HW116121   3.574   2.003   2.361
 5074SOL    HW216122   3.476   2.117   2.296
 5075SOL     OW16123   1.190   1.835   6.808
 5075SOL    HW116124   1.106   1.781   6.808
 5075SOL    HW216125   1.248   1.806   6.732
 5076SOL     OW16126   5.480   0.052   0.568
 5076SOL    HW116127   5.485   0.150   0.545
 5076SOL    HW216128   5.415   0.039   0.643
 5077SOL     OW16129   1.105   4.226   5.786
 5077SOL    HW116130   1.161   4.304   5.814
 5077SOL    HW216131   1.016   4.259   5.755
 5078SOL     OW16132   0.506   1.031   3.849
 5078SOL    HW116133   0.560   1.085   3.784
 5078SOL    HW216134   0.420   1.004   3.805
 5079SOL     OW16135   2.447   2.849   5.337
 5079SOL    HW116136   2.464   2.936   5.291
 5079SOL    HW216137   2.352   2.823   5.325
 5080SOL     OW16138   6.363   6.019   5.225
 5080SOL    HW116139   6.295   6.091   5.213
 5080SOL    HW216140   6.454   6.058   5.229
 5081SOL     OW16141   2.688   3.939   6.105
 5081SOL    HW116142   2.743   3.948   6.022
 5081SOL    HW216143   2.591   3.936   6.081
 5082SOL     OW16144   5.165   6.913   0.741
 5082SOL    HW116145   5.143   6.820   0.772
 5082SOL    HW216146   5.083   6.970   0.745
 5083SOL     OW16147   2.934   0.137   2.570
 5083SOL    HW116148   2.918   0.233   2.589
 5083SOL    HW216149   2.876   0.081   2.629
 5084SOL     OW16150   0.945   5.319   3.522
 5084SOL    HW116151   0.867   5.342   3.463
 5084SOL    HW216152   0.921   5.242   3.581
 5085SOL     OW16153   6.930   2.600   5.453
 5085SOL    HW116154   6.874   2.571   5.375
 5085SOL    HW216155   6.948   2.698   5.445
 5086SOL     OW16156   1.253   4.496   2.824
 5086SOL    HW116157   1.282   4.462   2.734
 5086SOL    HW216158   1.316   4.462   2.894
 5087SOL     OW16159   0.390   5.134   1.699
 5087SOL    HW116160   0.388   5.065   1.627
 5087SOL    HW216161   0.463   5.200   1.680
 5088SOL     OW16162   5.577   0.006   3.631
 5088SOL    HW116163   5.660   0.060   3.645
 5088SOL    HW216164   5.533   0.033   3.546
 5089SOL     OW16165   6.301   4.702   4.172
 5089SOL    HW116166   6.395   4.727   4.148
 5089SOL    HW216167   6.241   4.719   4.094
 5090SOL     OW16168   1.930   2.139   2.641
 5090SOL    HW116169   1.968   2.047   2.653
 5090SOL    HW216170   1.832   2.132   2.625
 5091SOL     OW16171   6.306   1.028   1.896
 5091SOL    HW116172   6.350   1.048   1.983
 5091SOL    HW216173   6.372   0.987   1.833
 5092SOL     OW16174   3.828   3.302   3.604
 5092SOL    HW116175   3.894   3.377   3.595
 5092SOL    HW216176   3.877   3.218   3.629
 5093SOL     OW16177   3.421   1.334   0.557
 5093SOL    HW116178   3.409   1.411   0.494
 5093SOL    HW216179   3.337   1.280   0.560
 5094SOL     OW16180   2.101   5.745   6.109
 5094SOL    HW116181   2.056   5.726   6.021
 5094SOL    HW216182   2.200   5.739   6.097
 5095SOL     OW16183   7.021   2.686   2.881
 5095SOL    HW116184   6.953   2.670   2.953
 5095SOL    HW216185   0.088   2.651   2.911
 5096SOL     OW16186   4.814   4.794   6.645
 5096SOL    HW116187   4.833   4.829   6.553
 5096SOL    HW216188   4.715   4.791   6.660
 5097SOL     OW16189   1.053   6.837   6.621
 5097SOL    HW116190   0.988   6.796   6.556
 5097SOL    HW216191   1.145   6.803   6.601
 5098SOL     OW16192   2.527   0.659   1.875
 5098SOL    HW116193   2.583   0.733   1.913
 5098SOL    HW216194   2.506   0.593   1.947
 5099SOL     OW16195   0.547   6.752   1.463
 5099SOL    HW116196   0.531   6.697   1.381
 5099SOL    HW216197   0.567   6.693   1.540
 5100SOL     OW16198   3.162   5.417   4.654
 5100SOL    HW116199   3.080   5.403   4.600
 5100SOL    HW216200   3.154   5.367   4.740
 5101SOL     OW16201   4.352   7.016   6.031
 5101SOL    HW116202   4.288   0.037   5.968
 5101SOL    HW216203   4.376   0.059   6.104
 5102SOL     OW16204   4.927   6.669   4.569
 5102SOL    HW116205   5.004   6.651   4.508
 5102SOL    HW216206   4.881   6.583   4.592
 5103SOL     OW16207   0.132   1.005   4.056
 5103SOL    HW116208   0.166   0.915   4.085
 5103SOL    HW216209   0.194   1.076   4.088
 5104SOL     OW16210   1.579   6.729   2.108
 5104SOL    HW116211   1.654   6.794   2.098
 5104SOL    HW216212   1.604   6.660   2.176
 5105SOL     OW16213   3.160   2.489   0.454
 5105SOL    HW116214   3.141   2.465   0.359
 5105SOL    HW216215   3.077   2.524   0.497
 5106SOL     OW16216   4.379   1.589   0.913
 5106SOL    HW116217   4.315   1.513   0.921
 5106SOL    HW216218   4.466   1.565   0.956
 5107SOL     OW16219   4.505   2.624   1.499
 5107SOL    HW116220   4.560   2.566   1.440
 5107SOL    HW216221   4.475   2.705   1.447
 5108SOL     OW16222   4.095   3.927   5.211
 5108SOL    HW116223   4.021   3.983   5.174
 5108SOL    HW216224   4.116   3.852   5.147
 5109SOL     OW16225   0.916   2.079   6.930
 5109SOL    HW116226   0.849   2.039   6.868
 5109SOL    HW216227   0.915   2.029   7.017
 5110SOL     OW16228   0.540   0.441   6.334
 5110SOL    HW116229   0.534   0.362   6.395
 5110SOL    HW216230   0.449   0.460   6.295
 5111SOL     OW16231   1.561   0.948   4.555
 5111SOL    HW116232   1.574   1.046   4.571
 5111SOL    HW216233   1.564   0.930   4.457
 5112SOL     OW16234   1.218   0.392   2.981
 5112SOL    HW116235   1.148   0.396   3.052
 5112SOL    HW216236   1.230   0.483   2.941
 5113SOL     OW16237   2.223   5.595   1.051
 5113SOL    HW116238   2.243   5.679   1.101
 5113SOL    HW216239   2.148   5.546   1.094
 5114SOL     OW16240   4.175   0.458   6.578
 5114SOL    HW116241   4.275   0.453   6.583
 5114SOL    HW216242   4.135   0.382   6.629
 5115SOL     OW16243   1.494   5.587   3.496
 5115SOL    HW116244   1.523   5.664   3.553
 5115SOL    HW216245   1.467   5.511   3.555
 5116SOL     OW16246   0.735   6.555   0.509
 5116SOL    HW116247   0.746   6.654   0.504
 5116SOL    HW216248   0.725   6.517   0.417
 5117SOL     OW16249   1.683   3.739   4.061
 5117SOL    HW116250   1.764   3.724   4.006
 5117SOL    HW216251   1.624   3.658   4.056
 5118SOL     OW16252   5.296   0.974   0.107
 5118SOL    HW116253   5.227   0.911   0.143
 5118SOL    HW216254   5.260   1.020   0.026
 5119SOL     OW16255   4.731   0.814   2.455
 5119SOL    HW116256   4.735   0.840   2.551
 5119SOL    HW216257   4.786   0.878   2.401
 5120SOL     OW16258   4.186   0.139   4.903
 5120SOL    HW116259   4.232   0.077   4.966
 5120SOL    HW216260   4.139   0.210   4.954
 5121SOL     OW16261   3.639   2.871   0.233
 5121SOL    HW116262   3.568   2.864   0.303
 5121SOL    HW216263   3.611   2.936   0.163
 5122SOL     OW16264   3.385   6.107   3.121
 5122SOL    HW116265   3.385   6.088   3.023
 5122SOL    HW216266   3.418   6.201   3.136
 5123SOL     OW16267   4.563   2.626   4.409
 5123SOL    HW116268   4.536   2.583   4.494
 5123SOL    HW216269   4.523   2.577   4.332
 5124SOL     OW16270   1.775   6.050   4.970
 5124SOL    HW116271   1.803   5.967   5.018
 5124SOL    HW216272   1.750   6.028   4.876
 5125SOL     OW16273   6.596   3.765   3.779
 5125SOL    HW116274   6.546   3.712   3.848
 5125SOL    HW216275   6.688   3.728   3.768
 5126SOL     OW16276   6.140   5.427   6.582
 5126SOL    HW116277   6.115   5.452   6.488
 5126SOL    HW216278   6.108   5.499   6.644
 5127SOL     OW16279   6.996   3.930   0.206
 5127SOL    HW116280   6.977   3.884   0.119
 5127SOL    HW216281   6.992   3.863   0.280
 5128SOL     OW16282   0.201   0.013   6.321
 5128SOL    HW116283   0.149   7.008   6.241
 5128SOL    HW216284   0.232   6.955   6.371
 5129SOL     OW16285   6.482   0.116   2.647
 5129SOL    HW116286   6.421   0.189   2.617
 5129SOL    HW216287   6.548   0.152   2.713
 5130SOL     OW16288   0.187   5.501   3.321
 5130SOL    HW116289   0.249   5.476   3.247
 5130SOL    HW216290   0.128   5.576   3.291
 5131SOL     OW16291   2.165   4.634   4.094
 5131SOL    HW116292   2.092   4.616   4.159
 5131SOL    HW216293   2.193   4.730   4.099
 5132SOL     OW16294   3.769   2.913   6.777
 5132SOL    HW116295   3.819   2.999   6.778
 5132SOL    HW216296   3.673   2.929   6.801
 5133SOL     OW16297   2.277   5.192   6.946
 5133SOL    HW116298   2.348   5.252   6.983
 5133SOL    HW216299   2.248   5.127   7.016
 5134SOL     OW16300   0.290   3.381   2.083
 5134SOL    HW116301   0.375   3.329   2.075
 5134SOL    HW216302   0.232   3.340   2.153
 5135SOL     OW16303   6.010   2.987   4.488
 5135SOL    HW116304   5.978   2.893   4.493
 5135SOL    HW216305   6.108   2.990   4.508
 5136SOL     OW16306   3.971   0.980   6.100
 5136SOL    HW116307   3.925   0.902   6.058
 5136SOL    HW216308   4.043   0.947   6.161
 5137SOL     OW16309   5.578   3.434   5.903
 5137SOL    HW116310   5.576   3.344   5.946
 5137SOL    HW216311   5.506   3.491   5.944
 5138SOL     OW16312   3.188   2.858   5.667
 5138SOL    HW116313   3.235   2.780   5.626
 5138SOL    HW216314   3.227   2.943   5.631
 5139SOL     OW16315   1.931   0.789   2.916
 5139SOL    HW116316   1.837   0.756   2.925
 5139SOL    HW216317   1.957   0.837   3.000
 5140SOL     OW16318   4.152   2.410   0.456
 5140SOL    HW116319   4.169   2.506   0.437
 5140SOL    HW216320   4.060   2.399   0.493
 5141SOL     OW16321   6.550   3.671   0.151
 5141SOL    HW116322   6.582   3.629   0.066
 5141SOL    HW216323   6.530   3.767   0.135
 5142SOL     OW16324   6.039   0.190   3.908
 5142SOL    HW116325   6.026   0.122   3.835
 5142SOL    HW216326   5.960   0.252   3.910
 5143SOL     OW16327   6.750   4.115   4.255
 5143SOL    HW116328   6.686   4.107   4.178
 5143SOL    HW216329   6.826   4.052   4.242
 5144SOL     OW16330   0.666   4.608   6.243
 5144SOL    HW116331   0.742   4.672   6.236
 5144SOL    HW216332   0.583   4.648   6.203
 5145SOL     OW16333   2.348   4.834   5.516
 5145SOL    HW116334   2.364   4.831   5.418
 5145SOL    HW216335   2.276   4.900   5.536
 5146SOL     OW16336   3.843   4.003   5.107
 5146SOL    HW116337   3.817   4.074   5.042
 5146SOL    HW216338   3.835   3.913   5.064
 5147SOL     OW16339   6.733   5.047   2.705
 5147SOL    HW116340   6.818   5.100   2.695
 5147SOL    HW216341   6.755   4.949   2.704
 5148SOL     OW16342   0.022   6.234   1.718
 5148SOL    HW116343   0.086   6.280   1.656
 5148SOL    HW216344   0.030   6.274   1.809
 5149SOL     OW16345   6.621   6.082   3.442
 5149SOL    HW116346   6.680   6.097   3.521
 5149SOL    HW216347   6.667   6.113   3.359
 5150SOL     OW16348   2.306   5.239   2.708
 5150SOL    HW116349   2.217   5.245   2.753
 5150SOL    HW216350   2.298   5.270   2.613
 5151SOL     OW16351   5.619   2.641   0.796
 5151SOL    HW116352   5.619   2.609   0.891
 5151SOL    HW216353   5.545   2.595   0.745
 5152SOL     OW16354   2.619   5.129   0.245
 5152SOL    HW116355   2.529   5.161   0.277
 5152SOL    HW216356   2.659   5.070   0.315
 5153SOL     OW16357   2.123   0.349   6.825
 5153SOL    HW116358   2.205   0.403   6.807
 5153SOL    HW216359   2.066   0.348   6.743
 5154SOL     OW16360   0.976   3.789   6.272
 5154SOL    HW116361   1.057   3.739   6.302
 5154SOL    HW216362   0.997   3.887   6.266
 5155SOL     OW16363   4.252   6.462   2.260
 5155SOL    HW116364   4.260   6.497   2.166
 5155SOL    HW216365   4.170   6.406   2.267
 5156SOL     OW16366   5.977   3.830   5.861
 5156SOL    HW116367   5.942   3.777   5.938
 5156SOL    HW216368   6.021   3.769   5.795
 5157SOL     OW16369   4.180   2.027   3.785
 5157SOL    HW116370   4.099   2.033   3.727
 5157SOL    HW216371   4.260   2.056   3.733
 5158SOL     OW16372   3.779   1.122   1.704
 5158SOL    HW116373   3.702   1.059   1.695
 5158SOL    HW216374   3.754   1.211   1.666
 5159SOL     OW16375   6.774   3.562   3.831
 5159SOL    HW116376   6.803   3.532   3.922
 5159SOL    HW216377   6.854   3.571   3.772
 5160SOL     OW16378   0.109   4.753   3.262
 5160SOL    HW116379   0.147   4.703   3.339
 5160SOL    HW216380   0.064   4.689   3.199
 5161SOL     OW16381   1.388   3.948   5.494
 5161SOL    HW116382   1.397   4.039   5.535
 5161SOL    HW216383   1.341   3.887   5.558
 5162SOL     OW16384   1.142   5.076   3.284
 5162SOL    HW116385   1.160   5.061   3.187
 5162SOL    HW216386   1.046   5.103   3.297
 5163SOL     OW16387   3.644   6.338   0.631
 5163SOL    HW116388   3.707   6.381   0.567
 5163SOL    HW216389   3.577   6.405   0.663
 5164SOL     OW16390   4.448   2.562   0.038
 5164SOL    HW116391   4.406   2.499   6.995
 5164SOL    HW216392   4.499   2.509   0.106
 5165SOL     OW16393   5.916   4.597   5.850
 5165SOL    HW116394   5.869   4.581   5.936
 5165SOL    HW216395   6.004   4.549   5.851
 5166SOL     OW16396   0.687   5.266   3.201
 5166SOL    HW116397   0.733   5.287   3.115
 5166SOL    HW216398   0.589   5.286   3.193
 5167SOL     OW16399   6.263   6.232   5.766
 5167SOL    HW116400   6.333   6.202   5.701
 5167SOL    HW216401   6.205   6.155   5.790
 5168SOL     OW16402   4.992   3.944   2.936
 5168SOL    HW116403   4.910   3.975   2.889
 5168SOL    HW216404   5.002   3.845   2.925
 5169SOL     OW16405   4.308   1.983   4.976
 5169SOL    HW116406   4.309   1.910   4.908
 5169SOL    HW216407   4.399   1.991   5.017
 5170SOL     OW16408   0.669   4.429   5.513
 5170SOL    HW116409   0.683   4.482   5.430
 5170SOL    HW216410   0.622   4.343   5.490
 5171SOL     OW16411   1.220   5.844   4.635
 5171SOL    HW116412   1.178   5.827   4.724
 5171SOL    HW216413   1.214   5.762   4.579
 5172SOL     OW16414   0.702   2.219   2.033
 5172SOL    HW116415   0.717   2.221   2.131
 5172SOL    HW216416   0.626   2.279   2.009
 5173SOL     OW16417   5.405   4.709   5.932
 5173SOL    HW116418   5.482   4.755   5.976
 5173SOL    HW216419   5.439   4.649   5.859
 5174SOL     OW16420   2.064   4.382   2.754
 5174SOL    HW116421   2.076   4.443   2.676
 5174SOL    HW216422   1.967   4.376   2.777
 5175SOL     OW16423   2.392   3.756   6.969
 5175SOL    HW116424   2.455   3.807   0.006
 5175SOL    HW216425   2.309   3.810   6.954
 5176SOL     OW16426   4.878   3.118   6.485
 5176SOL    HW116427   4.835   3.048   6.543
 5176SOL    HW216428   4.807   3.166   6.433
 5177SOL     OW16429   5.069   0.191   0.088
 5177SOL    HW116430   5.084   0.272   0.031
 5177SOL    HW216431   5.004   0.130   0.043
 5178SOL     OW16432   1.515   3.705   1.503
 5178SOL    HW116433   1.575   3.641   1.455
 5178SOL    HW216434   1.420   3.681   1.486
 5179SOL     OW16435   3.905   5.966   4.145
 5179SOL    HW116436   3.846   5.892   4.176
 5179SOL    HW216437   3.999   5.932   4.135
 5180SOL     OW16438   2.946   2.605   0.583
 5180SOL    HW116439   2.855   2.639   0.558
 5180SOL    HW216440   2.981   2.657   0.661
 5181SOL     OW16441   5.446   2.119   2.281
 5181SOL    HW116442   5.530   2.141   2.330
 5181SOL    HW216443   5.455   2.146   2.185
 5182SOL     OW16444   3.853   4.406   1.676
 5182SOL    HW116445   3.897   4.469   1.740
 5182SOL    HW216446   3.816   4.458   1.599
 5183SOL     OW16447   4.069   1.701   2.591
 5183SOL    HW116448   4.028   1.793   2.590
 5183SOL    HW216449   4.161   1.706   2.554
 5184SOL     OW16450   0.248   2.357   4.471
 5184SOL    HW116451   0.341   2.338   4.439
 5184SOL    HW216452   0.233   2.455   4.473
 5185SOL     OW16453   5.365   1.057   2.504
 5185SOL    HW116454   5.309   1.136   2.478
 5185SOL    HW216455   5.309   0.974   2.505
 5186SOL     OW16456   6.262   3.116   0.290
 5186SOL    HW116457   6.206   3.092   0.211
 5186SOL    HW216458   6.299   3.033   0.332
 5187SOL     OW16459   0.178   0.351   3.846
 5187SOL    HW116460   0.217   0.391   3.928
 5187SOL    HW216461   0.143   0.424   3.787
 5188SOL     OW16462   0.509   5.932   0.501
 5188SOL    HW116463   0.579   5.966   0.437
 5188SOL    HW216464   0.468   6.009   0.549
 5189SOL     OW16465   4.757   4.830   0.828
 5189SOL    HW116466   4.693   4.787   0.764
 5189SOL    HW216467   4.844   4.783   0.824
 5190SOL     OW16468   0.182   2.888   3.928
 5190SOL    HW116469   0.279   2.891   3.900
 5190SOL    HW216470   0.165   2.959   3.996
 5191SOL     OW16471   3.909   0.472   1.698
 5191SOL    HW116472   4.004   0.443   1.695
 5191SOL    HW216473   3.874   0.484   1.605
 5192SOL     OW16474   2.702   5.304   2.869
 5192SOL    HW116475   2.626   5.359   2.835
 5192SOL    HW216476   2.680   5.207   2.858
 5193SOL     OW16477   5.220   4.376   4.470
 5193SOL    HW116478   5.240   4.408   4.562
 5193SOL    HW216479   5.290   4.410   4.407
 5194SOL     OW16480   3.587   1.123   0.407
 5194SOL    HW116481   3.602   1.182   0.327
 5194SOL    HW216482   3.567   1.180   0.487
 5195SOL     OW16483   6.124   5.860   4.408
 5195SOL    HW116484   6.171   5.797   4.469
 5195SOL    HW216485   6.035   5.884   4.447
 5196SOL     OW16486   2.532   4.418   0.869
 5196SOL    HW116487   2.469   4.495   0.879
 5196SOL    HW216488   2.507   4.364   0.788
 5197SOL     OW16489   2.102   5.611   5.032
 5197SOL    HW116490   2.091   5.512   5.046
 5197SOL    HW216491   2.127   5.654   5.118
 5198SOL     OW16492   4.248   6.618   3.354
 5198SOL    HW116493   4.258   6.628   3.453
 5198SOL    HW216494   4.336   6.631   3.309
 5199SOL     OW16495   1.187   6.130   0.303
 5199SOL    HW116496   1.249   6.207   0.318
 5199SOL    HW216497   1.211   6.083   0.218
 5200SOL     OW16498   1.463   1.631   5.368
 5200SOL    HW116499   1.521   1.638   5.287
 5200SOL    HW216500   1.513   1.665   5.448
 5201SOL     OW16501   6.042   6.190   4.393
 5201SOL    HW116502   6.119   6.242   4.429
 5201SOL    HW216503   6.050   6.185   4.293
 5202SOL     OW16504   5.832   4.453   5.631
 5202SOL    HW116505   5.761   4.509   5.586
 5202SOL    HW216506   5.899   4.513   5.674
 5203SOL     OW16507   2.204   0.667   0.120
 5203SOL    HW116508   2.138   0.742   0.121
 5203SOL    HW216509   2.244   0.657   0.212
 5204SOL     OW16510   4.295   6.817   6.886
 5204SOL    HW116511   4.313   6.759   6.966
 5204SOL    HW216512   4.199   6.845   6.886
 5205SOL     OW16513   6.957   5.841   0.150
 5205SOL    HW116514   6.913   5.800   0.070
 5205SOL    HW216515   6.932   5.789   0.232
 5206SOL     OW16516   0.387   4.697   0.044
 5206SOL    HW116517   0.452   4.688   0.119
 5206SOL    HW216518   0.424   4.652   6.985
 5207SOL     OW16519   1.277   6.897   3.963
 5207SOL    HW116520   1.297   6.992   3.940
 5207SOL    HW216521   1.230   6.893   4.051
 5208SOL     OW16522   5.067   2.132   0.092
 5208SOL    HW116523   5.089   2.212   0.038
 5208SOL    HW216524   5.042   2.160   0.185
 5209SOL     OW16525   5.755   0.347   1.366
 5209SOL    HW116526   5.705   0.374   1.448
 5209SOL    HW216527   5.757   0.424   1.301
 5210SOL     OW16528   4.663   3.388   0.537
 5210SOL    HW116529   4.639   3.300   0.578
 5210SOL    HW216530   4.760   3.390   0.516
 5211SOL     OW16531   4.388   1.962   5.610
 5211SOL    HW116532   4.397   2.026   5.686
 5211SOL    HW216533   4.362   2.012   5.527
 5212SOL     OW16534   1.127   3.674   0.627
 5212SOL    HW116535   1.208   3.629   0.591
 5212SOL    HW216536   1.051   3.609   0.630
 5213SOL     OW16537   4.287   2.990   1.097
 5213SOL    HW116538   4.248   2.953   1.182
 5213SOL    HW216539   4.225   3.060   1.061
 5214SOL     OW16540   5.596   2.777   6.055
 5214SOL    HW116541   5.544   2.800   6.137
 5214SOL    HW216542   5.568   2.687   6.022
 5215SOL     OW16543   0.932   4.881   4.165
 5215SOL    HW116544   0.855   4.881   4.102
 5215SOL    HW216545   0.963   4.787   4.181
 5216SOL     OW16546   4.322   4.435   1.438
 5216SOL    HW116547   4.244   4.393   1.484
 5216SOL    HW216548   4.353   4.375   1.364
 5217SOL     OW16549   3.553   5.425   4.569
 5217SOL    HW116550   3.565   5.330   4.594
 5217SOL    HW216551   3.460   5.439   4.534
 5218SOL     OW16552   0.700   1.158   1.240
 5218SOL    HW116553   0.695   1.257   1.231
 5218SOL    HW216554   0.794   1.131   1.257
 5219SOL     OW16555   3.505   1.703   4.915
 5219SOL    HW116556   3.513   1.616   4.963
 5219SOL    HW216557   3.574   1.709   4.842
 5220SOL     OW16558   1.181   5.824   2.654
 5220SOL    HW116559   1.233   5.802   2.571
 5220SOL    HW216560   1.213   5.766   2.730
 5221SOL     OW16561   6.340   1.407   3.172
 5221SOL    HW116562   6.434   1.381   3.152
 5221SOL    HW216563   6.337   1.501   3.204
 5222SOL     OW16564   3.828   6.597   2.353
 5222SOL    HW116565   3.806   6.612   2.449
 5222SOL    HW216566   3.928   6.597   2.341
 5223SOL     OW16567   6.764   2.653   0.098
 5223SOL    HW116568   6.851   2.615   0.129
 5223SOL    HW216569   6.781   2.739   0.049
 5224SOL     OW16570   6.590   3.504   4.411
 5224SOL    HW116571   6.595   3.464   4.319
 5224SOL    HW216572   6.495   3.530   4.430
 5225SOL     OW16573   6.839   1.043   3.851
 5225SOL    HW116574   6.870   1.057   3.945
 5225SOL    HW216575   6.769   1.111   3.829
 5226SOL     OW16576   6.892   6.791   4.680
 5226SOL    HW116577   6.819   6.850   4.647
 5226SOL    HW216578   6.979   6.839   4.675
 5227SOL     OW16579   0.637   3.949   5.564
 5227SOL    HW116580   0.579   4.005   5.504
 5227SOL    HW216581   0.733   3.966   5.543
 5228SOL     OW16582   0.470   2.496   6.826
 5228SOL    HW116583   0.559   2.465   6.790
 5228SOL    HW216584   0.473   2.494   6.926
 5229SOL     OW16585   2.903   6.609   0.358
 5229SOL    HW116586   2.935   6.687   0.411
 5229SOL    HW216587   2.891   6.530   0.418
 5230SOL     OW16588   6.903   6.034   1.958
 5230SOL    HW116589   6.881   6.016   1.862
 5230SOL    HW216590   6.951   6.121   1.966
 5231SOL     OW16591   4.424   2.425   3.699
 5231SOL    HW116592   4.454   2.477   3.619
 5231SOL    HW216593   4.351   2.362   3.672
 5232SOL     OW16594   1.112   3.722   5.992
 5232SOL    HW116595   1.052   3.705   6.070
 5232SOL    HW216596   1.102   3.817   5.962
 5233SOL     OW16597   3.978   1.160   2.791
 5233SOL    HW116598   3.892   1.202   2.819
 5233SOL    HW216599   4.044   1.232   2.767
 5234SOL     OW16600   2.800   2.374   6.026
 5234SOL    HW116601   2.738   2.359   5.949
 5234SOL    HW216602   2.885   2.325   6.011
 5235SOL     OW16603   1.681   2.698   0.829
 5235SOL    HW116604   1.771   2.686   0.870
 5235SOL    HW216605   1.637   2.609   0.820
 5236SOL     OW16606   4.054   5.845   2.377
 5236SOL    HW116607   4.078   5.877   2.285
 5236SOL    HW216608   3.998   5.763   2.370
 5237SOL     OW16609   0.659   1.040   4.815
 5237SOL    HW116610   0.654   1.112   4.884
 5237SOL    HW216611   0.755   1.021   4.793
 5238SOL     OW16612   1.019   5.008   0.722
 5238SOL    HW116613   0.969   4.981   0.804
 5238SOL    HW216614   0.954   5.038   0.652
 5239SOL     OW16615   3.641   2.548   6.224
 5239SOL    HW116616   3.715   2.484   6.200
 5239SOL    HW216617   3.601   2.521   6.311
 5240SOL     OW16618   3.457   2.174   5.125
 5240SOL    HW116619   3.462   2.154   5.027
 5240SOL    HW216620   3.361   2.185   5.151
 5241SOL     OW16621   0.188   5.733   4.347
 5241SOL    HW116622   0.192   5.832   4.361
 5241SOL    HW216623   0.256   5.689   4.406
 5242SOL     OW16624   6.371   0.068   1.077
 5242SOL    HW116625   6.309   0.143   1.055
 5242SOL    HW216626   6.422   0.090   1.160
 5243SOL     OW16627   1.682   5.992   1.607
 5243SOL    HW116628   1.691   6.065   1.675
 5243SOL    HW216629   1.659   5.907   1.654
 5244SOL     OW16630   3.503   4.670   6.329
 5244SOL    HW116631   3.588   4.641   6.285
 5244SOL    HW216632   3.432   4.601   6.315
 5245SOL     OW16633   3.889   4.242   0.340
 5245SOL    HW116634   3.814   4.268   0.400
 5245SOL    HW216635   3.914   4.319   0.282
 5246SOL     OW16636   6.062   2.719   1.334
 5246SOL    HW116637   6.008   2.657   1.279
 5246SOL    HW216638   6.106   2.787   1.275
 5247SOL     OW16639   2.727   0.380   6.527
 5247SOL    HW116640   2.744   0.437   6.608
 5247SOL    HW216641   2.810   0.377   6.471
 5248SOL     OW16642   6.340   1.698   2.901
 5248SOL    HW116643   6.339   1.751   2.816
 5248SOL    HW216644   6.428   1.709   2.946
 5249SOL     OW16645   0.644   5.319   6.437
 5249SOL    HW116646   0.730   5.333   6.487
 5249SOL    HW216647   0.656   5.249   6.367
 5250SOL     OW16648   2.102   6.158   6.795
 5250SOL    HW116649   2.031   6.093   6.824
 5250SOL    HW216650   2.060   6.244   6.768
 5251SOL     OW16651   0.801   3.449   6.895
 5251SOL    HW116652   0.747   3.388   6.953
 5251SOL    HW216653   0.747   3.530   6.872
 5252SOL     OW16654   2.571   6.011   0.494
 5252SOL    HW116655   2.583   6.100   0.449
 5252SOL    HW216656   2.501   6.020   0.565
 5253SOL     OW16657   0.068   3.693   4.750
 5253SOL    HW116658   7.016   3.758   4.738
 5253SOL    HW216659   0.090   3.684   4.847
 5254SOL     OW16660   5.205   1.148   2.826
 5254SOL    HW116661   5.241   1.195   2.745
 5254SOL    HW216662   5.106   1.165   2.832
 5255SOL     OW16663   5.765   2.353   4.908
 5255SOL    HW116664   5.740   2.388   4.999
 5255SOL    HW216665   5.681   2.339   4.855
 5256SOL     OW16666   5.156   1.713   3.745
 5256SOL    HW116667   5.081   1.657   3.709
 5256SOL    HW216668   5.150   1.714   3.845
 5257SOL     OW16669   5.494   6.888   1.800
 5257SOL    HW116670   5.418   6.837   1.841
 5257SOL    HW216671   5.457   6.967   1.750
 5258SOL     OW16672   5.840   2.989   1.755
 5258SOL    HW116673   5.760   3.038   1.720
 5258SOL    HW216674   5.915   2.995   1.689
 5259SOL     OW16675   4.885   6.530   2.571
 5259SOL    HW116676   4.842   6.610   2.615
 5259SOL    HW216677   4.884   6.543   2.472
 5260SOL     OW16678   5.426   3.660   0.907
 5260SOL    HW116679   5.402   3.739   0.963
 5260SOL    HW216680   5.419   3.576   0.962
 5261SOL     OW16681   0.303   3.928   5.600
 5261SOL    HW116682   0.361   4.006   5.624
 5261SOL    HW216683   0.354   3.864   5.543
 5262SOL     OW16684   2.426   1.298   4.048
 5262SOL    HW116685   2.494   1.366   4.075
 5262SOL    HW216686   2.347   1.344   4.006
 5263SOL     OW16687   1.786   1.357   3.356
 5263SOL    HW116688   1.796   1.391   3.263
 5263SOL    HW216689   1.689   1.348   3.378
 5264SOL     OW16690   0.185   2.117   1.954
 5264SOL    HW116691   0.197   2.070   2.042
 5264SOL    HW216692   0.126   2.063   1.894
 5265SOL     OW16693   6.286   3.989   3.920
 5265SOL    HW116694   6.209   4.043   3.955
 5265SOL    HW216695   6.267   3.961   3.826
 5266SOL     OW16696   3.549   5.061   6.863
 5266SOL    HW116697   3.500   4.975   6.849
 5266SOL    HW216698   3.624   5.046   6.927
 5267SOL     OW16699   5.375   2.824   5.274
 5267SOL    HW116700   5.380   2.815   5.175
 5267SOL    HW216701   5.332   2.911   5.298
 5268SOL     OW16702   5.384   1.282   0.380
 5268SOL    HW116703   5.371   1.305   0.477
 5268SOL    HW216704   5.478   1.304   0.353
 5269SOL     OW16705   0.776   6.088   2.865
 5269SOL    HW116706   0.785   6.028   2.786
 5269SOL    HW216707   0.848   6.068   2.931
 5270SOL     OW16708   5.740   1.207   1.396
 5270SOL    HW116709   5.787   1.177   1.480
 5270SOL    HW216710   5.642   1.186   1.404
 5271SOL     OW16711   6.428   5.356   6.112
 5271SOL    HW116712   6.468   5.311   6.033
 5271SOL    HW216713   6.483   5.437   6.135
 5272SOL     OW16714   3.108   6.121   1.897
 5272SOL    HW116715   3.104   6.199   1.958
 5272SOL    HW216716   3.025   6.118   1.841
 5273SOL     OW16717   0.145   3.091   3.689
 5273SOL    HW116718   0.147   2.995   3.662
 5273SOL    HW216719   0.056   3.130   3.665
 5274SOL     OW16720   5.758   6.968   2.410
 5274SOL    HW116721   5.670   6.958   2.457
 5274SOL    HW216722   5.831   6.934   2.469
 5275SOL     OW16723   3.682   1.664   0.800
 5275SOL    HW116724   3.745   1.615   0.740
 5275SOL    HW216725   3.635   1.598   0.860
 5276SOL     OW16726   1.786   0.126   0.930
 5276SOL    HW116727   1.693   0.165   0.930
 5276SOL    HW216728   1.786   0.042   0.877
 5277SOL     OW16729   2.470   0.964   2.101
 5277SOL    HW116730   2.540   0.904   2.139
 5277SOL    HW216731   2.513   1.030   2.038
 5278SOL     OW16732   6.009   6.477   3.704
 5278SOL    HW116733   6.039   6.456   3.611
 5278SOL    HW216734   6.010   6.393   3.759
 5279SOL     OW16735   2.688   5.159   6.298
 5279SOL    HW116736   2.604   5.108   6.317
 5279SOL    HW216737   2.765   5.095   6.289
 5280SOL     OW16738   2.743   5.558   4.792
 5280SOL    HW116739   2.809   5.498   4.838
 5280SOL    HW216740   2.652   5.542   4.829
 5281SOL     OW16741   0.379   2.056   2.428
 5281SOL    HW116742   0.409   1.961   2.431
 5281SOL    HW216743   0.351   2.085   2.520
 5282SOL     OW16744   3.249   1.575   3.969
 5282SOL    HW116745   3.199   1.561   4.055
 5282SOL    HW216746   3.304   1.658   3.976
 5283SOL     OW16747   4.479   6.519   1.388
 5283SOL    HW116748   4.407   6.545   1.325
 5283SOL    HW216749   4.539   6.597   1.406
 5284SOL     OW16750   4.751   4.078   3.287
 5284SOL    HW116751   4.705   4.111   3.369
 5284SOL    HW216752   4.712   4.124   3.207
 5285SOL     OW16753   2.173   4.791   3.640
 5285SOL    HW116754   2.182   4.700   3.679
 5285SOL    HW216755   2.231   4.855   3.690
 5286SOL     OW16756   1.891   4.839   0.459
 5286SOL    HW116757   1.859   4.918   0.406
 5286SOL    HW216758   1.925   4.769   0.396
 5287SOL     OW16759   3.324   0.323   6.984
 5287SOL    HW116760   3.382   0.381   0.019
 5287SOL    HW216761   3.320   0.231   7.022
 5288SOL     OW16762   3.117   6.956   1.991
 5288SOL    HW116763   3.138   6.910   2.078
 5288SOL    HW216764   3.110   0.032   2.006
 5289SOL     OW16765   2.260   5.225   6.653
 5289SOL    HW116766   2.299   5.140   6.616
 5289SOL    HW216767   2.253   5.218   6.752
 5290SOL     OW16768   2.265   6.148   4.639
 5290SOL    HW116769   2.347   6.197   4.670
 5290SOL    HW216770   2.240   6.079   4.706
 5291SOL     OW16771   2.491   5.856   5.913
 5291SOL    HW116772   2.522   5.772   5.958
 5291SOL    HW216773   2.557   5.883   5.843
 5292SOL     OW16774   6.400   3.213   6.447
 5292SOL    HW116775   6.353   3.240   6.363
 5292SOL    HW216776   6.478   3.154   6.424
 5293SOL     OW16777   0.357   0.955   4.970
 5293SOL    HW116778   0.325   0.951   4.875
 5293SOL    HW216779   0.339   1.046   5.007
 5294SOL     OW16780   4.329   3.517   5.754
 5294SOL    HW116781   4.408   3.573   5.728
 5294SOL    HW216782   4.299   3.543   5.846
 5295SOL     OW16783   6.210   0.840   2.641
 5295SOL    HW116784   6.248   0.813   2.553
 5295SOL    HW216785   6.122   0.885   2.628
 5296SOL     OW16786   2.117   5.651   6.779
 5296SOL    HW116787   2.041   5.690   6.725
 5296SOL    HW216788   2.091   5.560   6.812
 5297SOL     OW16789   1.898   2.198   1.285
 5297SOL    HW116790   1.812   2.238   1.317
 5297SOL    HW216791   1.956   2.178   1.364
 5298SOL     OW16792   0.111   5.986   1.538
 5298SOL    HW116793   0.052   5.926   1.592
 5298SOL    HW216794   0.165   5.931   1.475
 5299SOL     OW16795   3.068   1.778   0.345
 5299SOL    HW116796   3.062   1.816   0.253
 5299SOL    HW216797   3.143   1.821   0.394
 5300SOL     OW16798   0.120   5.612   2.739
 5300SOL    HW116799   0.085   5.562   2.659
 5300SOL    HW216800   0.145   5.705   2.712
 5301SOL     OW16801   4.454   1.466   0.470
 5301SOL    HW116802   4.548   1.447   0.439
 5301SOL    HW216803   4.439   1.423   0.559
 5302SOL     OW16804   5.428   4.916   3.266
 5302SOL    HW116805   5.417   4.908   3.365
 5302SOL    HW216806   5.367   4.987   3.231
 5303SOL     OW16807   0.175   6.620   4.028
 5303SOL    HW116808   0.216   6.707   3.997
 5303SOL    HW216809   0.246   6.549   4.030
 5304SOL     OW16810   6.464   2.313   5.937
 5304SOL    HW116811   6.506   2.339   5.850
 5304SOL    HW216812   6.369   2.285   5.922
 5305SOL     OW16813   1.369   6.878   4.314
 5305SOL    HW116814   1.468   6.890   4.302
 5305SOL    HW216815   1.350   6.853   4.408
 5306SOL     OW16816   1.529   6.256   4.675
 5306SOL    HW116817   1.455   6.205   4.629
 5306SOL    HW216818   1.615   6.206   4.665
 5307SOL     OW16819   4.377   6.472   6.860
 5307SOL    HW116820   4.401   6.529   6.939
 5307SOL    HW216821   4.306   6.407   6.887
 5308SOL     OW16822   0.570   0.293   4.641
 5308SOL    HW116823   0.558   0.194   4.650
 5308SOL    HW216824   0.641   0.324   4.704
 5309SOL     OW16825   3.430   4.161   3.179
 5309SOL    HW116826   3.485   4.128   3.256
 5309SOL    HW216827   3.481   4.231   3.130
 5310SOL     OW16828   5.123   2.601   2.268
 5310SOL    HW116829   5.097   2.596   2.171
 5310SOL    HW216830   5.087   2.686   2.307
 5311SOL     OW16831   0.318   5.731   0.435
 5311SOL    HW116832   0.257   5.757   0.360
 5311SOL    HW216833   0.389   5.800   0.446
 5312SOL     OW16834   6.680   4.331   2.131
 5312SOL    HW116835   6.734   4.411   2.106
 5312SOL    HW216836   6.740   4.254   2.148
 5313SOL     OW16837   1.055   5.303   0.135
 5313SOL    HW116838   1.113   5.379   0.106
 5313SOL    HW216839   1.007   5.266   0.056
 5314SOL     OW16840   4.732   4.932   1.071
 5314SOL    HW116841   4.660   4.876   1.112
 5314SOL    HW216842   4.740   4.908   0.974
 5315SOL     OW16843   4.433   4.547   1.989
 5315SOL    HW116844   4.455   4.451   1.972
 5315SOL    HW216845   4.378   4.582   1.913
 5316SOL     OW16846   6.219   5.312   4.548
 5316SOL    HW116847   6.179   5.372   4.479
 5316SOL    HW216848   6.313   5.290   4.522
 5317SOL     OW16849   5.925   1.309   4.614
 5317SOL    HW116850   5.877   1.283   4.698
 5317SOL    HW216851   5.912   1.407   4.598
 5318SOL     OW16852   0.063   1.879   5.333
 5318SOL    HW116853   7.011   1.934   5.294
 5318SOL    HW216854   0.121   1.844   5.259
 5319SOL     OW16855   4.764   6.732   0.115
 5319SOL    HW116856   4.720   6.816   0.148
 5319SOL    HW216857   4.808   6.685   0.191
 5320SOL     OW16858   5.737   5.227   6.542
 5320SOL    HW116859   5.803   5.238   6.468
 5320SOL    HW216860   5.786   5.224   6.629
 5321SOL     OW16861   0.862   5.138   2.580
 5321SOL    HW116862   0.795   5.102   2.645
 5321SOL    HW216863   0.848   5.095   2.491
 5322SOL     OW16864   3.704   0.078   6.068
 5322SOL    HW116865   3.739   0.151   6.009
 5322SOL    HW216866   3.679   7.022   6.011
 5323SOL     OW16867   3.821   3.248   1.166
 5323SOL    HW116868   3.756   3.195   1.112
 5323SOL    HW216869   3.900   3.192   1.188
 5324SOL     OW16870   3.697   2.406   1.428
 5324SOL    HW116871   3.645   2.326   1.397
 5324SOL    HW216872   3.682   2.418   1.526
 5325SOL     OW16873   5.789   6.870   3.478
 5325SOL    HW116874   5.806   6.964   3.448
 5325SOL    HW216875   5.728   6.872   3.558
 5326SOL     OW16876   6.038   5.405   2.885
 5326SOL    HW116877   6.106   5.460   2.837
 5326SOL    HW216878   6.013   5.326   2.828
 5327SOL     OW16879   0.533   6.032   5.991
 5327SOL    HW116880   0.547   6.130   5.978
 5327SOL    HW216881   0.511   5.990   5.903
 5328SOL     OW16882   3.806   2.159   5.670
 5328SOL    HW116883   3.748   2.124   5.744
 5328SOL    HW216884   3.801   2.259   5.669
 5329SOL     OW16885   0.421   3.687   0.127
 5329SOL    HW116886   0.329   3.703   0.090
 5329SOL    HW216887   0.478   3.767   0.108
 5330SOL     OW16888   3.202   4.018   6.483
 5330SOL    HW116889   3.229   4.094   6.424
 5330SOL    HW216890   3.192   3.935   6.428
 5331SOL     OW16891   5.266   1.270   1.138
 5331SOL    HW116892   5.247   1.217   1.221
 5331SOL    HW216893   5.301   1.360   1.164
 5332SOL     OW16894   6.060   4.287   6.926
 5332SOL    HW116895   6.051   4.211   6.861
 5332SOL    HW216896   6.156   4.298   6.951
 5333SOL     OW16897   1.073   0.669   3.568
 5333SOL    HW116898   1.003   0.739   3.586
 5333SOL    HW216899   1.043   0.582   3.606
 5334SOL     OW16900   4.514   5.061   4.798
 5334SOL    HW116901   4.467   5.055   4.710
 5334SOL    HW216902   4.450   5.094   4.868
 5335SOL     OW16903   0.061   4.460   1.888
 5335SOL    HW116904   0.067   4.481   1.986
 5335SOL    HW216905   0.123   4.521   1.838
 5336SOL     OW16906   2.597   1.736   3.591
 5336SOL    HW116907   2.681   1.688   3.566
 5336SOL    HW216908   2.540   1.749   3.510
 5337SOL     OW16909   6.068   5.181   2.390
 5337SOL    HW116910   6.126   5.184   2.309
 5337SOL    HW216911   6.068   5.088   2.428
 5338SOL     OW16912   5.767   2.346   6.596
 5338SOL    HW116913   5.736   2.358   6.502
 5338SOL    HW216914   5.863   2.318   6.596
 5339SOL     OW16915   5.616   2.077   1.920
 5339SOL    HW116916   5.579   2.099   1.830
 5339SOL    HW216917   5.576   1.991   1.952
 5340SOL     OW16918   5.430   3.488   1.377
 5340SOL    HW116919   5.472   3.528   1.459
 5340SOL    HW216920   5.336   3.460   1.398
 5341SOL     OW16921   4.004   4.883   4.564
 5341SOL    HW116922   3.918   4.870   4.614
 5341SOL    HW216923   4.081   4.867   4.626
 5342SOL     OW16924   4.842   6.432   4.814
 5342SOL    HW116925   4.821   6.335   4.823
 5342SOL    HW216926   4.833   6.477   4.903
 5343SOL     OW16927   3.663   3.559   5.103
 5343SOL    HW116928   3.595   3.538   5.172
 5343SOL    HW216929   3.642   3.510   5.018
 5344SOL     OW16930   0.717   1.503   6.795
 5344SOL    HW116931   0.651   1.573   6.823
 5344SOL    HW216932   0.668   1.421   6.766
 5345SOL     OW16933   4.890   0.904   0.047
 5345SOL    HW116934   4.893   0.901   6.970
 5345SOL    HW216935   4.982   0.895   0.084
 5346SOL     OW16936   2.917   4.865   4.391
 5346SOL    HW116937   2.943   4.850   4.296
 5346SOL    HW216938   2.999   4.870   4.448
 5347SOL     OW16939   7.015   3.547   3.640
 5347SOL    HW116940   6.958   3.591   3.572
 5347SOL    HW216941   0.080   3.520   3.599
 5348SOL     OW16942   0.216   1.313   5.873
 5348SOL    HW116943   0.171   1.400   5.894
 5348SOL    HW216944   0.224   1.304   5.773
 5349SOL     OW16945   2.479   3.096   1.679
 5349SOL    HW116946   2.519   3.098   1.770
 5349SOL    HW216947   2.544   3.136   1.614
 5350SOL     OW16948   2.212   6.381   5.692
 5350SOL    HW116949   2.289   6.436   5.659
 5350SOL    HW216950   2.137   6.441   5.718
 5351SOL     OW16951   0.098   4.553   1.497
 5351SOL    HW116952   0.180   4.554   1.555
 5351SOL    HW216953   0.123   4.530   1.403
 5352SOL     OW16954   2.082   4.060   3.267
 5352SOL    HW116955   2.086   3.960   3.278
 5352SOL    HW216956   2.096   4.083   3.170
 5353SOL     OW16957   3.521   5.249   3.275
 5353SOL    HW116958   3.489   5.321   3.336
 5353SOL    HW216959   3.531   5.164   3.326
 5354SOL     OW16960   2.895   4.002   6.503
 5354SOL    HW116961   2.975   3.975   6.450
 5354SOL    HW216962   2.830   4.048   6.444
 5355SOL     OW16963   5.063   4.918   4.884
 5355SOL    HW116964   5.138   4.965   4.836
 5355SOL    HW216965   4.994   4.889   4.818
 5356SOL     OW16966   6.562   3.368   2.005
 5356SOL    HW116967   6.550   3.270   2.023
 5356SOL    HW216968   6.571   3.382   1.906
 5357SOL     OW16969   4.173   4.652   1.355
 5357SOL    HW116970   4.235   4.717   1.311
 5357SOL    HW216971   4.226   4.577   1.395
 5358SOL     OW16972   4.319   1.859   1.004
 5358SOL    HW116973   4.344   1.776   0.954
 5358SOL    HW216974   4.248   1.908   0.954
 5359SOL     OW16975   2.043   2.155   6.732
 5359SOL    HW116976   1.977   2.116   6.668
 5359SOL    HW216977   2.005   2.150   6.825
 5360SOL     OW16978   5.291   5.642   3.282
 5360SOL    HW116979   5.343   5.589   3.349
 5360SOL    HW216980   5.290   5.738   3.310
 5361SOL     OW16981   2.147   6.437   3.563
 5361SOL    HW116982   2.172   6.526   3.601
 5361SOL    HW216983   2.053   6.414   3.589
 5362SOL     OW16984   6.071   6.958   2.796
 5362SOL    HW116985   6.109   6.868   2.819
 5362SOL    HW216986   5.973   6.949   2.778
 5363SOL     OW16987   5.451   6.263   5.042
 5363SOL    HW116988   5.405   6.345   5.076
 5363SOL    HW216989   5.411   6.182   5.084
 5364SOL     OW16990   5.623   0.417   2.337
 5364SOL    HW116991   5.704   0.360   2.332
 5364SOL    HW216992   5.543   0.365   2.308
 5365SOL     OW16993   3.149   3.570   2.435
 5365SOL    HW116994   3.065   3.625   2.438
 5365SOL    HW216995   3.157   3.518   2.520
 5366SOL     OW16996   6.842   0.784   2.087
 5366SOL    HW116997   6.917   0.727   2.120
 5366SOL    HW216998   6.878   0.851   2.022
 5367SOL     OW16999   6.540   0.347   0.979
 5367SOL    HW117000   6.615   0.305   1.031
 5367SOL    HW217001   6.491   0.412   1.038
 5368SOL     OW17002   6.779   6.016   2.190
 5368SOL    HW117003   6.717   6.092   2.210
 5368SOL    HW217004   6.826   6.032   2.103
 5369SOL     OW17005   2.755   5.868   1.766
 5369SOL    HW117006   2.763   5.772   1.792
 5369SOL    HW217007   2.795   5.881   1.675
 5370SOL     OW17008   4.475   3.441   1.726
 5370SOL    HW117009   4.484   3.519   1.665
 5370SOL    HW217010   4.540   3.369   1.700
 5371SOL     OW17011   6.942   5.380   5.601
 5371SOL    HW117012   6.964   5.283   5.615
 5371SOL    HW217013   7.010   5.420   5.540
 5372SOL     OW17014   1.333   6.777   2.980
 5372SOL    HW117015   1.262   6.707   2.991
 5372SOL    HW217016   1.298   6.852   2.923
 5373SOL     OW17017   3.752   0.251   5.685
 5373SOL    HW117018   3.664   0.295   5.703
 5373SOL    HW217019   3.813   0.265   5.763
 5374SOL     OW17020   2.277   4.407   1.239
 5374SOL    HW117021   2.363   4.369   1.272
 5374SOL    HW217022   2.281   4.414   1.139
 5375SOL     OW17023   0.676   5.847   5.581
 5375SOL    HW117024   0.703   5.930   5.630
 5375SOL    HW217025   0.697   5.857   5.484
 5376SOL     OW17026   1.244   2.398   1.622
 5376SOL    HW117027   1.261   2.496   1.616
 5376SOL    HW217028   1.265   2.366   1.714
 5377SOL     OW17029   1.305   1.043   2.950
 5377SOL    HW117030   1.289   0.948   2.922
 5377SOL    HW217031   1.403   1.062   2.946
 5378SOL     OW17032   6.910   0.618   1.550
 5378SOL    HW117033   6.969   0.562   1.608
 5378SOL    HW217034   6.950   0.625   1.458
 5379SOL     OW17035   1.433   3.419   5.285
 5379SOL    HW117036   1.387   3.342   5.329
 5379SOL    HW217037   1.423   3.501   5.341
 5380SOL     OW17038   3.352   6.949   1.281
 5380SOL    HW117039   3.351   6.957   1.381
 5380SOL    HW217040   3.439   6.909   1.251
 5381SOL     OW17041   6.183   5.912   2.849
 5381SOL    HW117042   6.211   5.949   2.761
 5381SOL    HW217043   6.141   5.985   2.904
 5382SOL     OW17044   2.842   2.091   2.760
 5382SOL    HW117045   2.768   2.068   2.696
 5382SOL    HW217046   2.829   2.185   2.792
 5383SOL     OW17047   1.629   3.275   4.774
 5383SOL    HW117048   1.594   3.336   4.845
 5383SOL    HW217049   1.729   3.276   4.775
 5384SOL     OW17050   4.751   5.673   4.552
 5384SOL    HW117051   4.767   5.618   4.470
 5384SOL    HW217052   4.655   5.702   4.555
 5385SOL     OW17053   6.273   2.866   4.761
 5385SOL    HW117054   6.343   2.817   4.813
 5385SOL    HW217055   6.314   2.905   4.678
 5386SOL     OW17056   6.210   1.653   4.000
 5386SOL    HW117057   6.149   1.612   4.068
 5386SOL    HW217058   6.187   1.749   3.988
 5387SOL     OW17059   3.003   6.354   3.675
 5387SOL    HW117060   2.933   6.323   3.739
 5387SOL    HW217061   2.991   6.308   3.588
 5388SOL     OW17062   1.595   6.427   3.042
 5388SOL    HW117063   1.574   6.521   3.067
 5388SOL    HW217064   1.693   6.417   3.026
 5389SOL     OW17065   4.263   2.213   4.538
 5389SOL    HW117066   4.195   2.221   4.611
 5389SOL    HW217067   4.217   2.214   4.450
 5390SOL     OW17068   5.282   3.951   4.121
 5390SOL    HW117069   5.316   3.973   4.212
 5390SOL    HW217070   5.358   3.926   4.061
 5391SOL     OW17071   3.035   1.919   0.126
 5391SOL    HW117072   2.948   1.967   0.136
 5391SOL    HW217073   3.110   1.986   0.131
 5392SOL     OW17074   4.892   3.188   2.419
 5392SOL    HW117075   4.987   3.173   2.447
 5392SOL    HW217076   4.878   3.151   2.327
 5393SOL     OW17077   4.598   0.962   5.682
 5393SOL    HW117078   4.504   0.968   5.714
 5393SOL    HW217079   4.600   0.947   5.583
 5394SOL     OW17080   0.554   6.160   0.894
 5394SOL    HW117081   0.535   6.076   0.946
 5394SOL    HW217082   0.577   6.234   0.957
 5395SOL     OW17083   4.798   1.257   1.133
 5395SOL    HW117084   4.830   1.163   1.119
 5395SOL    HW217085   4.751   1.263   1.221
 5396SOL     OW17086   5.168   5.510   2.134
 5396SOL    HW117087   5.266   5.506   2.152
 5396SOL    HW217088   5.142   5.605   2.115
 5397SOL     OW17089   0.045   2.025   1.714
 5397SOL    HW117090   7.003   2.005   1.641
 5397SOL    HW217091   0.133   2.053   1.675
 5398SOL     OW17092   3.729   2.115   3.687
 5398SOL    HW117093   3.690   2.065   3.610
 5398SOL    HW217094   3.663   2.183   3.720
 5399SOL     OW17095   2.800   6.705   6.069
 5399SOL    HW117096   2.752   6.747   6.146
 5399SOL    HW217097   2.754   6.730   5.984
 5400SOL     OW17098   3.385   3.345   1.124
 5400SOL    HW117099   3.319   3.309   1.190
 5400SOL    HW217100   3.430   3.270   1.077
 5401SOL     OW17101   5.340   4.135   2.934
 5401SOL    HW117102   5.289   4.108   2.853
 5401SOL    HW217103   5.436   4.108   2.924
 5402SOL     OW17104   3.451   6.086   0.950
 5402SOL    HW117105   3.375   6.141   0.985
 5402SOL    HW217106   3.478   6.020   1.020
 5403SOL     OW17107   5.096   3.286   6.489
 5403SOL    HW117108   5.059   3.362   6.435
 5403SOL    HW217109   5.021   3.225   6.515
 5404SOL     OW17110   0.883   0.456   0.821
 5404SOL    HW117111   0.896   0.510   0.738
 5404SOL    HW217112   0.966   0.403   0.839
 5405SOL     OW17113   5.925   4.971   0.098
 5405SOL    HW117114   5.978   4.980   0.014
 5405SOL    HW217115   5.953   5.043   0.162
 5406SOL     OW17116   1.789   0.949   5.123
 5406SOL    HW117117   1.727   0.924   5.049
 5406SOL    HW217118   1.782   0.881   5.197
 5407SOL     OW17119   2.842   1.407   0.983
 5407SOL    HW117120   2.889   1.322   0.959
 5407SOL    HW217121   2.876   1.482   0.926
 5408SOL     OW17122   3.084   1.703   4.747
 5408SOL    HW117123   3.017   1.635   4.718
 5408SOL    HW217124   3.080   1.714   4.846
 5409SOL     OW17125   6.495   1.665   2.450
 5409SOL    HW117126   6.521   1.577   2.411
 5409SOL    HW217127   6.576   1.724   2.455
 5410SOL     OW17128   0.748   2.967   0.093
 5410SOL    HW117129   0.744   3.020   0.177
 5410SOL    HW217130   0.673   2.900   0.092
 5411SOL     OW17131   5.375   4.421   6.924
 5411SOL    HW117132   5.407   4.495   6.983
 5411SOL    HW217133   5.314   4.362   6.975
 5412SOL     OW17134   2.274   1.142   6.489
 5412SOL    HW117135   2.214   1.071   6.452
 5412SOL    HW217136   2.243   1.168   6.581
 5413SOL     OW17137   0.088   6.878   5.808
 5413SOL    HW117138   0.078   6.908   5.903
 5413SOL    HW217139   0.019   6.924   5.751
 5414SOL     OW17140   6.252   4.749   5.600
 5414SOL    HW117141   6.352   4.743   5.604
 5414SOL    HW217142   6.218   4.682   5.535
 5415SOL     OW17143   2.797   5.597   0.674
 5415SOL    HW117144   2.788   5.525   0.605
 5415SOL    HW217145   2.862   5.568   0.745
 5416SOL     OW17146   2.832   5.366   5.080
 5416SOL    HW117147   2.796   5.453   5.114
 5416SOL    HW217148   2.762   5.321   5.024
 5417SOL     OW17149   4.004   6.736   4.183
 5417SOL    HW117150   4.088   6.682   4.171
 5417SOL    HW217151   3.924   6.677   4.170
 5418SOL     OW17152   5.429   5.471   4.660
 5418SOL    HW117153   5.337   5.450   4.629
 5418SOL    HW217154   5.495   5.428   4.598
 5419SOL     OW17155   4.202   6.482   0.182
 5419SOL    HW117156   4.221   6.491   0.279
 5419SOL    HW217157   4.145   6.401   0.166
 5420SOL     OW17158   1.824   1.953   0.865
 5420SOL    HW117159   1.809   1.897   0.947
 5420SOL    HW217160   1.771   2.037   0.872
 5421SOL     OW17161   3.075   5.634   1.922
 5421SOL    HW117162   3.028   5.606   2.006
 5421SOL    HW217163   3.017   5.613   1.843
 5422SOL     OW17164   1.720   5.664   4.105
 5422SOL    HW117165   1.714   5.640   4.202
 5422SOL    HW217166   1.734   5.581   4.051
 5423SOL     OW17167   6.455   5.180   1.609
 5423SOL    HW117168   6.437   5.107   1.543
 5423SOL    HW217169   6.455   5.142   1.701
 5424SOL     OW17170   4.901   3.656   4.087
 5424SOL    HW117171   4.886   3.561   4.062
 5424SOL    HW217172   4.922   3.662   4.184
 5425SOL     OW17173   6.842   3.217   4.739
 5425SOL    HW117174   6.850   3.176   4.648
 5425SOL    HW217175   6.912   3.287   4.750
 5426SOL     OW17176   4.332   5.475   2.378
 5426SOL    HW117177   4.245   5.465   2.426
 5426SOL    HW217178   4.328   5.552   2.316
 5427SOL     OW17179   4.652   2.693   6.912
 5427SOL    HW117180   4.742   2.654   6.933
 5427SOL    HW217181   4.581   2.639   6.957
 5428SOL     OW17182   5.089   6.417   2.771
 5428SOL    HW117183   5.035   6.460   2.699
 5428SOL    HW217184   5.129   6.332   2.736
 5429SOL     OW17185   2.516   6.646   5.195
 5429SOL    HW117186   2.509   6.611   5.101
 5429SOL    HW217187   2.450   6.720   5.208
 5430SOL     OW17188   1.693   2.758   5.685
 5430SOL    HW117189   1.784   2.716   5.680
 5430SOL    HW217190   1.656   2.767   5.593
 5431SOL     OW17191   3.576   4.869   6.493
 5431SOL    HW117192   3.586   4.934   6.418
 5431SOL    HW217193   3.533   4.785   6.459
 5432SOL     OW17194   5.560   5.679   0.475
 5432SOL    HW117195   5.462   5.685   0.490
 5432SOL    HW217196   5.607   5.669   0.563
 5433SOL     OW17197   1.152   7.004   1.241
 5433SOL    HW117198   1.242   6.985   1.282
 5433SOL    HW217199   1.127   0.077   1.259
 5434SOL     OW17200   4.982   1.459   4.924
 5434SOL    HW117201   5.014   1.447   4.830
 5434SOL    HW217202   4.927   1.379   4.950
 5435SOL     OW17203   6.250   3.582   0.920
 5435SOL    HW117204   6.221   3.576   1.015
 5435SOL    HW217205   6.208   3.508   0.867
 5436SOL     OW17206   0.241   5.516   4.149
 5436SOL    HW117207   0.229   5.602   4.199
 5436SOL    HW217208   0.155   5.463   4.153
 5437SOL     OW17209   3.470   4.509   5.822
 5437SOL    HW117210   3.415   4.592   5.829
 5437SOL    HW217211   3.415   4.435   5.784
 5438SOL     OW17212   5.399   5.086   2.124
 5438SOL    HW117213   5.394   5.071   2.223
 5438SOL    HW217214   5.327   5.150   2.097
 5439SOL     OW17215   1.374   3.812   0.272
 5439SOL    HW117216   1.342   3.718   0.286
 5439SOL    HW217217   1.303   3.864   0.223
 5440SOL     OW17218   5.584   6.862   3.241
 5440SOL    HW117219   5.632   6.896   3.321
 5440SOL    HW217220   5.488   6.891   3.244
 5441SOL     OW17221   5.326   3.454   3.480
 5441SOL    HW117222   5.307   3.496   3.568
 5441SOL    HW217223   5.404   3.500   3.437
 5442SOL     OW17224   3.553   0.360   3.321
 5442SOL    HW117225   3.648   0.330   3.322
 5442SOL    HW217226   3.538   0.422   3.244
 5443SOL     OW17227   4.365   6.498   3.854
 5443SOL    HW117228   4.462   6.474   3.858
 5443SOL    HW217229   4.310   6.417   3.872
 5444SOL     OW17230   0.047   2.084   4.042
 5444SOL    HW117231   6.973   2.058   4.052
 5444SOL    HW217232   0.098   2.050   4.121
 5445SOL     OW17233   5.033   4.235   4.242
 5445SOL    HW117234   4.944   4.254   4.282
 5445SOL    HW217235   5.104   4.284   4.293
 5446SOL     OW17236   6.572   4.643   4.537
 5446SOL    HW117237   6.485   4.607   4.505
 5446SOL    HW217238   6.638   4.643   4.462
 5447SOL     OW17239   2.563   1.576   0.851
 5447SOL    HW117240   2.620   1.574   0.769
 5447SOL    HW217241   2.511   1.661   0.854
 5448SOL     OW17242   4.615   5.427   3.937
 5448SOL    HW117243   4.666   5.478   4.006
 5448SOL    HW217244   4.583   5.490   3.866
 5449SOL     OW17245   2.322   1.274   2.037
 5449SOL    HW117246   2.304   1.246   1.943
 5449SOL    HW217247   2.243   1.323   2.073
 5450SOL     OW17248   3.987   6.154   0.918
 5450SOL    HW117249   4.078   6.183   0.946
 5450SOL    HW217250   3.955   6.081   0.978
 5451SOL     OW17251   1.700   6.480   3.380
 5451SOL    HW117252   1.642   6.400   3.366
 5451SOL    HW217253   1.644   6.563   3.374
 5452SOL     OW17254   2.300   4.527   0.913
 5452SOL    HW117255   2.221   4.509   0.854
 5452SOL    HW217256   2.281   4.607   0.970
 5453SOL     OW17257   5.078   4.104   2.084
 5453SOL    HW117258   5.075   4.045   2.004
 5453SOL    HW217259   5.131   4.186   2.064
 5454SOL     OW17260   5.593   6.388   1.950
 5454SOL    HW117261   5.577   6.405   2.047
 5454SOL    HW217262   5.674   6.438   1.920
 5455SOL     OW17263   0.427   1.617   3.158
 5455SOL    HW117264   0.370   1.604   3.238
 5455SOL    HW217265   0.406   1.546   3.090
 5456SOL     OW17266   4.420   1.073   6.944
 5456SOL    HW117267   4.400   1.010   6.869
 5456SOL    HW217268   4.387   1.165   6.921
 5457SOL     OW17269   6.475   1.668   0.390
 5457SOL    HW117270   6.459   1.569   0.385
 5457SOL    HW217271   6.525   1.690   0.473
 5458SOL     OW17272   0.150   5.274   1.378
 5458SOL    HW117273   0.084   5.233   1.440
 5458SOL    HW217274   0.171   5.210   1.304
 5459SOL     OW17275   1.780   4.284   5.116
 5459SOL    HW117276   1.714   4.211   5.096
 5459SOL    HW217277   1.873   4.251   5.097
 5460SOL     OW17278   2.450   0.537   1.643
 5460SOL    HW117279   2.474   0.613   1.703
 5460SOL    HW217280   2.390   0.473   1.692
 5461SOL     OW17281   1.294   1.443   5.628
 5461SOL    HW117282   1.350   1.501   5.687
 5461SOL    HW217283   1.354   1.392   5.565
 5462SOL     OW17284   5.193   6.276   6.917
 5462SOL    HW117285   5.232   6.185   6.933
 5462SOL    HW217286   5.268   6.342   6.907
 5463SOL     OW17287   6.379   1.705   6.745
 5463SOL    HW117288   6.312   1.758   6.694
 5463SOL    HW217289   6.452   1.766   6.778
 5464SOL     OW17290   6.761   5.477   5.395
 5464SOL    HW117291   6.682   5.538   5.406
 5464SOL    HW217292   6.806   5.464   5.484
 5465SOL     OW17293   6.903   7.008   2.835
 5465SOL    HW117294   6.957   0.042   2.771
 5465SOL    HW217295   6.856   6.937   2.784
 5466SOL     OW17296   6.010   2.708   5.503
 5466SOL    HW117297   5.964   2.710   5.414
 5466SOL    HW217298   6.086   2.773   5.503
 5467SOL     OW17299   5.689   4.087   3.640
 5467SOL    HW117300   5.774   4.105   3.590
 5467SOL    HW217301   5.613   4.078   3.576
 5468SOL     OW17302   6.956   2.474   3.922
 5468SOL    HW117303   6.920   2.408   3.988
 5468SOL    HW217304   0.018   2.438   3.882
 5469SOL     OW17305   3.001   6.320   6.228
 5469SOL    HW117306   3.093   6.359   6.230
 5469SOL    HW217307   2.941   6.371   6.290
 5470SOL     OW17308   3.938   5.401   3.345
 5470SOL    HW117309   3.846   5.439   3.336
 5470SOL    HW217310   3.956   5.378   3.441
 5471SOL     OW17311   5.452   0.211   2.184
 5471SOL    HW117312   5.462   0.210   2.084
 5471SOL    HW217313   5.360   0.244   2.207
 5472SOL     OW17314   3.589   3.143   6.434
 5472SOL    HW117315   3.537   3.193   6.365
 5472SOL    HW217316   3.528   3.110   6.505
 5473SOL     OW17317   2.278   4.714   0.189
 5473SOL    HW117318   2.347   4.747   0.253
 5473SOL    HW217319   2.323   4.674   0.109
 5474SOL     OW17320   0.346   6.122   3.903
 5474SOL    HW117321   0.295   6.094   3.822
 5474SOL    HW217322   0.289   6.106   3.985
 5475SOL     OW17323   1.534   2.106   0.675
 5475SOL    HW117324   1.600   2.177   0.652
 5475SOL    HW217325   1.540   2.086   0.773
 5476SOL     OW17326   2.507   5.070   5.328
 5476SOL    HW117327   2.498   4.992   5.265
 5476SOL    HW217328   2.601   5.074   5.362
 5477SOL     OW17329   1.685   3.556   3.092
 5477SOL    HW117330   1.620   3.627   3.121
 5477SOL    HW217331   1.657   3.520   3.003
 5478SOL     OW17332   5.249   5.971   5.489
 5478SOL    HW117333   5.186   5.898   5.464
 5478SOL    HW217334   5.274   5.962   5.586
 5479SOL     OW17335   4.768   1.598   4.773
 5479SOL    HW117336   4.807   1.648   4.696
 5479SOL    HW217337   4.842   1.568   4.834
 5480SOL     OW17338   5.969   4.831   5.243
 5480SOL    HW117339   5.910   4.886   5.184
 5480SOL    HW217340   6.064   4.856   5.228
 5481SOL     OW17341   4.839   1.276   4.404
 5481SOL    HW117342   4.856   1.177   4.411
 5481SOL    HW217343   4.781   1.305   4.480
 5482SOL     OW17344   3.076   3.910   3.059
 5482SOL    HW117345   3.145   3.976   3.030
 5482SOL    HW217346   3.114   3.817   3.052
 5483SOL     OW17347   6.498   2.341   5.144
 5483SOL    HW117348   6.579   2.300   5.185
 5483SOL    HW217349   6.419   2.281   5.157
 5484SOL     OW17350   6.210   0.552   3.448
 5484SOL    HW117351   6.127   0.565   3.395
 5484SOL    HW217352   6.278   0.621   3.421
 5485SOL     OW17353   3.179   6.588   4.718
 5485SOL    HW117354   3.191   6.568   4.816
 5485SOL    HW217355   3.139   6.679   4.708
 5486SOL     OW17356   1.868   6.817   3.742
 5486SOL    HW117357   1.838   6.796   3.835
 5486SOL    HW217358   1.801   6.879   3.699
 5487SOL     OW17359   5.374   3.567   6.038
 5487SOL    HW117360   5.341   3.652   6.079
 5487SOL    HW217361   5.324   3.490   6.076
 5488SOL     OW17362   5.252   1.594   1.187
 5488SOL    HW117363   5.232   1.688   1.159
 5488SOL    HW217364   5.349   1.574   1.169
 5489SOL     OW17365   1.089   4.037   1.585
 5489SOL    HW117366   1.042   4.038   1.496
 5489SOL    HW217367   1.073   3.949   1.630
 5490SOL     OW17368   3.506   0.094   1.087
 5490SOL    HW117369   3.431   0.124   1.147
 5490SOL    HW217370   3.593   0.119   1.128
 5491SOL     OW17371   1.298   4.022   6.329
 5491SOL    HW117372   1.201   4.037   6.307
 5491SOL    HW217373   1.328   3.935   6.290
 5492SOL     OW17374   1.222   1.884   6.372
 5492SOL    HW117375   1.195   1.946   6.298
 5492SOL    HW217376   1.156   1.892   6.447
 5493SOL     OW17377   3.965   3.627   4.476
 5493SOL    HW117378   3.980   3.633   4.377
 5493SOL    HW217379   4.036   3.570   4.517
 5494SOL     OW17380   6.075   3.054   6.850
 5494SOL    HW117381   6.049   3.145   6.817
 5494SOL    HW217382   6.160   3.026   6.806
 5495SOL     OW17383   3.086   2.523   1.594
 5495SOL    HW117384   3.007   2.514   1.533
 5495SOL    HW217385   3.067   2.477   1.681
 5496SOL     OW17386   2.741   6.743   3.457
 5496SOL    HW117387   2.658   6.796   3.471
 5496SOL    HW217388   2.724   6.648   3.482
 5497SOL     OW17389   0.255   1.777   3.386
 5497SOL    HW117390   0.241   1.679   3.399
 5497SOL    HW217391   0.206   1.828   3.457
 5498SOL     OW17392   5.306   0.330   1.472
 5498SOL    HW117393   5.374   0.291   1.410
 5498SOL    HW217394   5.278   0.261   1.539
 5499SOL     OW17395   0.887   0.872   3.640
 5499SOL    HW117396   0.902   0.970   3.627
 5499SOL    HW217397   0.797   0.857   3.681
 5500SOL     OW17398   1.863   6.273   6.985
 5500SOL    HW117399   1.804   6.264   0.043
 5500SOL    HW217400   1.872   6.183   6.941
 5501SOL     OW17401   3.475   0.412   0.926
 5501SOL    HW117402   3.428   0.404   0.839
 5501SOL    HW217403   3.408   0.425   0.999
 5502SOL     OW17404   5.176   4.358   6.435
 5502SOL    HW117405   5.127   4.275   6.463
 5502SOL    HW217406   5.264   4.362   6.482
 5503SOL     OW17407   0.343   4.953   2.860
 5503SOL    HW117408   0.287   4.930   2.939
 5503SOL    HW217409   0.318   5.044   2.826
 5504SOL     OW17410   4.237   1.504   5.800
 5504SOL    HW117411   4.276   1.594   5.818
 5504SOL    HW217412   4.138   1.512   5.790
 5505SOL     OW17413   2.388   5.257   4.385
 5505SOL    HW117414   2.389   5.256   4.285
 5505SOL    HW217415   2.475   5.292   4.419
 5506SOL     OW17416   0.184   0.742   6.165
 5506SOL    HW117417   0.186   0.840   6.181
 5506SOL    HW217418   0.215   0.722   6.072
 5507SOL     OW17419   2.330   6.707   2.588
 5507SOL    HW117420   2.295   6.640   2.654
 5507SOL    HW217421   2.306   6.679   2.495
 5508SOL     OW17422   2.033   1.186   0.156
 5508SOL    HW117423   2.024   1.186   0.256
 5508SOL    HW217424   1.959   1.240   0.115
 5509SOL     OW17425   0.906   6.371   0.647
 5509SOL    HW117426   0.835   6.414   0.591
 5509SOL    HW217427   0.885   6.274   0.658
 5510SOL     OW17428   5.505   6.218   0.884
 5510SOL    HW117429   5.461   6.212   0.974
 5510SOL    HW217430   5.436   6.208   0.812
 5511SOL     OW17431   2.516   0.009   4.490
 5511SOL    HW117432   2.571   6.971   4.548
 5511SOL    HW217433   2.556   0.012   4.398
 5512SOL     OW17434   5.866   2.208   1.504
 5512SOL    HW117435   5.922   2.152   1.564
 5512SOL    HW217436   5.771   2.207   1.535
 5513SOL     OW17437   3.331   4.124   6.154
 5513SOL    HW117438   3.266   4.060   6.111
 5513SOL    HW217439   3.333   4.209   6.101
 5514SOL     OW17440   4.345   5.771   2.100
 5514SOL    HW117441   4.252   5.737   2.114
 5514SOL    HW217442   4.382   5.805   2.187
 5515SOL     OW17443   0.435   4.524   1.084
 5515SOL    HW117444   0.355   4.557   1.135
 5515SOL    HW217445   0.405   4.489   0.996
 5516SOL     OW17446   1.454   3.734   6.867
 5516SOL    HW117447   1.445   3.648   6.816
 5516SOL    HW217448   1.368   3.753   6.914
 5517SOL     OW17449   2.288   2.752   2.262
 5517SOL    HW117450   2.235   2.798   2.191
 5517SOL    HW217451   2.252   2.659   2.274
 5518SOL     OW17452   6.539   6.915   6.526
 5518SOL    HW117453   6.463   6.889   6.585
 5518SOL    HW217454   6.552   7.014   6.528
 5519SOL     OW17455   5.155   2.901   2.811
 5519SOL    HW117456   5.078   2.947   2.768
 5519SOL    HW217457   5.122   2.837   2.880
 5520SOL     OW17458   6.974   5.512   2.541
 5520SOL    HW117459   6.892   5.475   2.498
 5520SOL    HW217460   0.031   5.495   2.482
 5521SOL     OW17461   4.178   6.728   2.477
 5521SOL    HW117462   4.232   6.645   2.489
 5521SOL    HW217463   4.095   6.723   2.533
 5522SOL     OW17464   0.619   5.001   0.768
 5522SOL    HW117465   0.553   5.054   0.716
 5522SOL    HW217466   0.707   5.003   0.721
 5523SOL     OW17467   3.054   6.871   2.896
 5523SOL    HW117468   3.143   6.892   2.937
 5523SOL    HW217469   3.001   6.815   2.959
 5524SOL     OW17470   5.845   5.160   4.523
 5524SOL    HW117471   5.944   5.155   4.530
 5524SOL    HW217472   5.805   5.073   4.549
 5525SOL     OW17473   6.788   3.424   7.022
 5525SOL    HW117474   6.812   3.427   6.925
 5525SOL    HW217475   6.781   3.328   0.029
 5526SOL     OW17476   5.368   4.513   4.653
 5526SOL    HW117477   5.302   4.564   4.708
 5526SOL    HW217478   5.459   4.553   4.665
 5527SOL     OW17479   0.649   3.486   4.222
 5527SOL    HW117480   0.742   3.500   4.189
 5527SOL    HW217481   0.597   3.570   4.211
 5528SOL     OW17482   0.969   1.902   6.538
 5528SOL    HW117483   0.877   1.891   6.501
 5528SOL    HW217484   0.971   1.981   6.600
 5529SOL     OW17485   2.164   0.287   4.597
 5529SOL    HW117486   2.070   0.293   4.563
 5529SOL    HW217487   2.227   0.283   4.520
 5530SOL     OW17488   0.394   2.403   2.334
 5530SOL    HW117489   0.297   2.422   2.353
 5530SOL    HW217490   0.429   2.340   2.403
 5531SOL     OW17491   3.870   4.047   2.438
 5531SOL    HW117492   3.962   4.086   2.441
 5531SOL    HW217493   3.829   4.050   2.529
 5532SOL     OW17494   1.549   1.421   0.989
 5532SOL    HW117495   1.556   1.404   0.891
 5532SOL    HW217496   1.533   1.334   1.037
 5533SOL     OW17497   2.822   0.770   3.082
 5533SOL    HW117498   2.853   0.794   3.174
 5533SOL    HW217499   2.890   0.798   3.015
 5534SOL     OW17500   0.604   2.467   5.518
 5534SOL    HW117501   0.666   2.510   5.583
 5534SOL    HW217502   0.523   2.524   5.507
 5535SOL     OW17503   0.788   3.240   4.215
 5535SOL    HW117504   0.773   3.180   4.294
 5535SOL    HW217505   0.743   3.327   4.231
 5536SOL     OW17506   3.284   0.686   4.220
 5536SOL    HW117507   3.371   0.714   4.261
 5536SOL    HW217508   3.302   0.630   4.139
 5537SOL     OW17509   3.079   0.753   4.601
 5537SOL    HW117510   3.025   0.805   4.535
 5537SOL    HW217511   3.033   0.756   4.690
 5538SOL     OW17512   3.199   6.867   4.910
 5538SOL    HW117513   3.177   6.847   5.006
 5538SOL    HW217514   3.120   6.843   4.853
 5539SOL     OW17515   1.431   2.923   0.231
 5539SOL    HW117516   1.354   2.984   0.209
 5539SOL    HW217517   1.477   2.957   0.313
 5540SOL     OW17518   6.349   3.629   3.196
 5540SOL    HW117519   6.425   3.625   3.131
 5540SOL    HW217520   6.267   3.660   3.149
 5541SOL     OW17521   5.842   1.493   6.626
 5541SOL    HW117522   5.799   1.554   6.693
 5541SOL    HW217523   5.918   1.445   6.669
 5542SOL     OW17524   5.951   6.500   6.278
 5542SOL    HW117525   5.976   6.492   6.181
 5542SOL    HW217526   5.935   6.596   6.300
 5543SOL     OW17527   2.798   5.364   6.171
 5543SOL    HW117528   2.878   5.408   6.209
 5543SOL    HW217529   2.759   5.300   6.238
 5544SOL     OW17530   5.424   5.795   6.343
 5544SOL    HW117531   5.360   5.851   6.396
 5544SOL    HW217532   5.377   5.712   6.312
 5545SOL     OW17533   4.469   1.552   3.638
 5545SOL    HW117534   4.530   1.620   3.679
 5545SOL    HW217535   4.378   1.590   3.627
 5546SOL     OW17536   1.681   6.797   4.168
 5546SOL    HW117537   1.766   6.745   4.160
 5546SOL    HW217538   1.643   6.812   4.077
 5547SOL     OW17539   3.814   0.508   4.726
 5547SOL    HW117540   3.908   0.516   4.760
 5547SOL    HW217541   3.751   0.549   4.793
 5548SOL     OW17542   5.402   3.446   4.784
 5548SOL    HW117543   5.478   3.485   4.732
 5548SOL    HW217544   5.424   3.446   4.882
 5549SOL     OW17545   4.117   4.826   0.980
 5549SOL    HW117546   4.059   4.869   1.049
 5549SOL    HW217547   4.078   4.840   0.889
 5550SOL     OW17548   2.236   4.224   2.292
 5550SOL    HW117549   2.187   4.250   2.209
 5550SOL    HW217550   2.273   4.305   2.336
 5551SOL     OW17551   1.565   6.231   3.400
 5551SOL    HW117552   1.487   6.220   3.461
 5551SOL    HW217553   1.613   6.143   3.390
 5552SOL     OW17554   0.015   6.989   6.668
 5552SOL    HW117555   7.004   6.969   6.760
 5552SOL    HW217556   7.014   6.914   6.607
 5553SOL     OW17557   5.005   6.361   0.332
 5553SOL    HW117558   5.087   6.417   0.344
 5553SOL    HW217559   4.991   6.342   0.234
 5554SOL     OW17560   4.816   1.893   6.567
 5554SOL    HW117561   4.827   1.976   6.621
 5554SOL    HW217562   4.796   1.816   6.627
 5555SOL     OW17563   0.949   3.750   3.305
 5555SOL    HW117564   0.903   3.833   3.272
 5555SOL    HW217565   0.917   3.728   3.397
 5556SOL     OW17566   0.048   1.758   3.639
 5556SOL    HW117567   6.988   1.813   3.623
 5556SOL    HW217568   0.036   1.668   3.597
 5557SOL     OW17569   3.093   0.184   2.838
 5557SOL    HW117570   3.050   0.097   2.816
 5557SOL    HW217571   3.076   0.208   2.933
 5558SOL     OW17572   3.500   3.231   5.655
 5558SOL    HW117573   3.577   3.169   5.635
 5558SOL    HW217574   3.535   3.313   5.700
 5559SOL     OW17575   1.178   0.775   1.400
 5559SOL    HW117576   1.256   0.778   1.463
 5559SOL    HW217577   1.096   0.804   1.448
 5560SOL     OW17578   0.524   5.627   2.366
 5560SOL    HW117579   0.573   5.644   2.452
 5560SOL    HW217580   0.558   5.689   2.295
 5561SOL     OW17581   1.729   1.385   4.028
 5561SOL    HW117582   1.787   1.433   3.962
 5561SOL    HW217583   1.748   1.418   4.120
 5562SOL     OW17584   4.110   2.386   6.376
 5562SOL    HW117585   4.070   2.351   6.292
 5562SOL    HW217586   4.202   2.422   6.358
 5563SOL     OW17587   3.876   5.339   2.053
 5563SOL    HW117588   3.962   5.365   2.098
 5563SOL    HW217589   3.833   5.420   2.013
 5564SOL     OW17590   4.707   0.457   1.289
 5564SOL    HW117591   4.645   0.384   1.315
 5564SOL    HW217592   4.675   0.500   1.205
 5565SOL     OW17593   4.745   1.849   6.067
 5565SOL    HW117594   4.787   1.758   6.064
 5565SOL    HW217595   4.690   1.857   6.151
 5566SOL     OW17596   1.458   4.762   6.485
 5566SOL    HW117597   1.459   4.845   6.542
 5566SOL    HW217598   1.530   4.769   6.416
 5567SOL     OW17599   0.092   2.086   0.919
 5567SOL    HW117600   0.182   2.128   0.931
 5567SOL    HW217601   0.023   2.141   0.966
 5568SOL     OW17602   4.443   1.794   3.968
 5568SOL    HW117603   4.434   1.837   3.878
 5568SOL    HW217604   4.467   1.864   4.035
 5569SOL     OW17605   1.535   2.212   2.336
 5569SOL    HW117606   1.476   2.292   2.344
 5569SOL    HW217607   1.602   2.226   2.264
 5570SOL     OW17608   6.211   4.678   5.046
 5570SOL    HW117609   6.274   4.690   4.969
 5570SOL    HW217610   6.124   4.643   5.013
 5571SOL     OW17611   0.122   5.835   0.624
 5571SOL    HW117612   0.154   5.770   0.556
 5571SOL    HW217613   0.074   5.910   0.579
 5572SOL     OW17614   1.422   2.113   5.109
 5572SOL    HW117615   1.407   2.185   5.176
 5572SOL    HW217616   1.370   2.134   5.026
 5573SOL     OW17617   2.283   4.371   4.365
 5573SOL    HW117618   2.341   4.405   4.292
 5573SOL    HW217619   2.215   4.308   4.327
 5574SOL     OW17620   0.618   1.937   2.117
 5574SOL    HW117621   0.647   2.031   2.134
 5574SOL    HW217622   0.608   1.890   2.205
 5575SOL     OW17623   7.004   0.707   1.292
 5575SOL    HW117624   6.919   0.752   1.267
 5575SOL    HW217625   0.051   0.776   1.314
 5576SOL     OW17626   1.163   5.187   1.647
 5576SOL    HW117627   1.126   5.187   1.554
 5576SOL    HW217628   1.246   5.133   1.651
 5577SOL     OW17629   3.461   3.591   5.544
 5577SOL    HW117630   3.364   3.608   5.561
 5577SOL    HW217631   3.507   3.676   5.521
 5578SOL     OW17632   3.680   3.731   0.603
 5578SOL    HW117633   3.666   3.793   0.679
 5578SOL    HW217634   3.673   3.781   0.517
 5579SOL     OW17635   0.606   3.654   6.852
 5579SOL    HW117636   0.629   3.654   6.754
 5579SOL    HW217637   0.508   3.666   6.863
 5580SOL     OW17638   5.641   2.696   5.374
 5580SOL    HW117639   5.717   2.666   5.315
 5580SOL    HW217640   5.565   2.727   5.317
 5581SOL     OW17641   1.287   6.905   1.603
 5581SOL    HW117642   1.302   6.872   1.510
 5581SOL    HW217643   1.250   6.998   1.600
 5582SOL     OW17644   3.025   3.994   5.063
 5582SOL    HW117645   2.935   4.030   5.038
 5582SOL    HW217646   3.034   3.901   5.028
 5583SOL     OW17647   4.944   0.273   2.600
 5583SOL    HW117648   5.007   0.321   2.538
 5583SOL    HW217649   4.942   0.319   2.688
 5584SOL     OW17650   5.745   4.553   3.927
 5584SOL    HW117651   5.813   4.502   3.982
 5584SOL    HW217652   5.781   4.644   3.907
 5585SOL     OW17653   5.376   6.194   4.122
 5585SOL    HW117654   5.294   6.251   4.135
 5585SOL    HW217655   5.348   6.102   4.095
 5586SOL     OW17656   0.193   2.375   6.809
 5586SOL    HW117657   0.292   2.390   6.812
 5586SOL    HW217658   0.150   2.451   6.760
 5587SOL     OW17659   4.094   6.205   1.916
 5587SOL    HW117660   4.100   6.121   1.862
 5587SOL    HW217661   4.126   6.282   1.862
 5588SOL     OW17662   1.590   5.703   2.895
 5588SOL    HW117663   1.492   5.715   2.878
 5588SOL    HW217664   1.609   5.723   2.991
 5589SOL     OW17665   6.099   3.727   5.149
 5589SOL    HW117666   6.134   3.817   5.173
 5589SOL    HW217667   6.008   3.736   5.109
 5590SOL     OW17668   6.758   5.742   4.119
 5590SOL    HW117669   6.830   5.685   4.077
 5590SOL    HW217670   6.704   5.784   4.046
 5591SOL     OW17671   5.210   1.840   0.428
 5591SOL    HW117672   5.294   1.863   0.476
 5591SOL    HW217673   5.163   1.766   0.477
 5592SOL     OW17674   0.057   4.547   2.825
 5592SOL    HW117675   0.116   4.628   2.824
 5592SOL    HW217676   6.983   4.576   2.826
 5593SOL     OW17677   0.500   3.204   6.397
 5593SOL    HW117678   0.573   3.260   6.437
 5593SOL    HW217679   0.427   3.191   6.464
 5594SOL     OW17680   3.876   1.380   6.657
 5594SOL    HW117681   3.945   1.437   6.611
 5594SOL    HW217682   3.885   1.390   6.756
 5595SOL     OW17683   6.314   0.572   5.231
 5595SOL    HW117684   6.389   0.585   5.167
 5595SOL    HW217685   6.297   0.657   5.281
 5596SOL     OW17686   4.795   0.642   3.289
 5596SOL    HW117687   4.819   0.554   3.331
 5596SOL    HW217688   4.698   0.661   3.306
 5597SOL     OW17689   5.362   2.839   5.001
 5597SOL    HW117690   5.263   2.836   5.017
 5597SOL    HW217691   5.381   2.890   4.917
 5598SOL     OW17692   6.223   3.883   3.642
 5598SOL    HW117693   6.225   3.789   3.677
 5598SOL    HW217694   6.291   3.894   3.570
 5599SOL     OW17695   0.552   2.696   1.286
 5599SOL    HW117696   0.581   2.786   1.318
 5599SOL    HW217697   0.548   2.632   1.363
 5600SOL     OW17698   2.434   0.207   1.766
 5600SOL    HW117699   2.517   0.241   1.721
 5600SOL    HW217700   2.366   0.182   1.697
 5601SOL     OW17701   2.826   1.189   6.641
 5601SOL    HW117702   2.871   1.103   6.663
 5601SOL    HW217703   2.740   1.170   6.594
 5602SOL     OW17704   0.130   0.917   1.360
 5602SOL    HW117705   0.063   0.982   1.324
 5602SOL    HW217706   0.184   0.961   1.432
 5603SOL     OW17707   5.737   2.648   7.016
 5603SOL    HW117708   5.804   2.576   0.013
 5603SOL    HW217709   5.728   2.659   6.917
 5604SOL     OW17710   6.367   1.931   4.431
 5604SOL    HW117711   6.455   1.892   4.458
 5604SOL    HW217712   6.329   1.982   4.508
 5605SOL     OW17713   6.722   1.228   5.061
 5605SOL    HW117714   6.776   1.157   5.106
 5605SOL    HW217715   6.699   1.200   4.968
 5606SOL     OW17716   4.909   6.773   0.555
 5606SOL    HW117717   4.970   6.766   0.634
 5606SOL    HW217718   4.833   6.834   0.578
 5607SOL     OW17719   6.245   1.142   3.256
 5607SOL    HW117720   6.172   1.168   3.320
 5607SOL    HW217721   6.255   1.212   3.186
 5608SOL     OW17722   6.202   0.692   3.735
 5608SOL    HW117723   6.282   0.707   3.794
 5608SOL    HW217724   6.230   0.642   3.653
 5609SOL     OW17725   4.079   6.185   1.428
 5609SOL    HW117726   4.090   6.101   1.481
 5609SOL    HW217727   4.129   6.176   1.342
 5610SOL     OW17728   4.402   5.404   1.297
 5610SOL    HW117729   4.348   5.411   1.213
 5610SOL    HW217730   4.451   5.317   1.297
 5611SOL     OW17731   0.819   5.314   2.950
 5611SOL    HW117732   0.748   5.293   2.882
 5611SOL    HW217733   0.907   5.324   2.903
 5612SOL     OW17734   4.443   2.722   5.968
 5612SOL    HW117735   4.375   2.774   5.917
 5612SOL    HW217736   4.535   2.746   5.936
 5613SOL     OW17737   6.136   5.771   5.002
 5613SOL    HW117738   6.093   5.718   5.075
 5613SOL    HW217739   6.230   5.792   5.027
 5614SOL     OW17740   4.634   2.574   4.794
 5614SOL    HW117741   4.719   2.523   4.808
 5614SOL    HW217742   4.605   2.563   4.699
 5615SOL     OW17743   6.664   1.752   3.978
 5615SOL    HW117744   6.736   1.701   3.932
 5615SOL    HW217745   6.588   1.690   4.000
 5616SOL     OW17746   2.652   2.337   5.355
 5616SOL    HW117747   2.691   2.251   5.388
 5616SOL    HW217748   2.726   2.398   5.327
 5617SOL     OW17749   2.376   5.510   5.744
 5617SOL    HW117750   2.460   5.564   5.753
 5617SOL    HW217751   2.399   5.415   5.726
 5618SOL     OW17752   6.875   4.371   4.507
 5618SOL    HW117753   6.806   4.301   4.525
 5618SOL    HW217754   6.853   4.419   4.422
 5619SOL     OW17755   3.788   4.031   4.687
 5619SOL    HW117756   3.755   4.036   4.593
 5619SOL    HW217757   3.878   3.988   4.689
 5620SOL     OW17758   4.340   3.460   1.029
 5620SOL    HW117759   4.247   3.459   0.994
 5620SOL    HW217760   4.357   3.547   1.076
 5621SOL     OW17761   2.556   2.595   0.101
 5621SOL    HW117762   2.490   2.523   0.122
 5621SOL    HW217763   2.639   2.581   0.155
 5622SOL     OW17764   4.559   0.727   5.881
 5622SOL    HW117765   4.501   0.788   5.827
 5622SOL    HW217766   4.539   0.741   5.978
 5623SOL     OW17767   4.533   6.110   5.477
 5623SOL    HW117768   4.498   6.038   5.537
 5623SOL    HW217769   4.598   6.071   5.412
 5624SOL     OW17770   0.540   4.148   3.492
 5624SOL    HW117771   0.530   4.246   3.507
 5624SOL    HW217772   0.499   4.098   3.568
 5625SOL     OW17773   6.553   6.881   5.421
 5625SOL    HW117774   6.587   6.975   5.414
 5625SOL    HW217775   6.455   6.880   5.404
 5626SOL     OW17776   2.031   5.774   4.144
 5626SOL    HW117777   2.074   5.833   4.213
 5626SOL    HW217778   1.979   5.831   4.080
 5627SOL     OW17779   0.874   4.860   6.789
 5627SOL    HW117780   0.956   4.827   6.743
 5627SOL    HW217781   0.891   4.867   6.888
 5628SOL     OW17782   2.050   2.234   2.405
 5628SOL    HW117783   2.001   2.182   2.475
 5628SOL    HW217784   2.125   2.285   2.447
 5629SOL     OW17785   3.921   3.657   1.875
 5629SOL    HW117786   3.900   3.564   1.906
 5629SOL    HW217787   3.840   3.715   1.885
 5630SOL     OW17788   1.412   3.801   6.210
 5630SOL    HW117789   1.391   3.790   6.113
 5630SOL    HW217790   1.507   3.773   6.226
 5631SOL     OW17791   4.480   1.798   2.247
 5631SOL    HW117792   4.574   1.826   2.267
 5631SOL    HW217793   4.450   1.839   2.160
 5632SOL     OW17794   3.179   2.372   6.071
 5632SOL    HW117795   3.097   2.384   6.127
 5632SOL    HW217796   3.240   2.451   6.085
 5633SOL     OW17797   5.894   5.126   4.265
 5633SOL    HW117798   5.846   5.046   4.229
 5633SOL    HW217799   5.868   5.141   4.360
 5634SOL     OW17800   2.021   4.970   4.011
 5634SOL    HW117801   2.046   4.958   3.915
 5634SOL    HW217802   2.092   5.024   4.057
 5635SOL     OW17803   1.739   5.483   6.577
 5635SOL    HW117804   1.796   5.418   6.628
 5635SOL    HW217805   1.696   5.436   6.499
 5636SOL     OW17806   4.555   0.130   4.889
 5636SOL    HW117807   4.648   0.162   4.905
 5636SOL    HW217808   4.555   0.064   4.814
 5637SOL     OW17809   5.101   6.709   3.128
 5637SOL    HW117810   5.184   6.653   3.121
 5637SOL    HW217811   5.022   6.654   3.102
 5638SOL     OW17812   6.384   3.954   0.795
 5638SOL    HW117813   6.294   3.983   0.830
 5638SOL    HW217814   6.389   3.854   0.798
 5639SOL     OW17815   1.440   0.417   2.527
 5639SOL    HW117816   1.474   0.434   2.435
 5639SOL    HW217817   1.481   0.333   2.563
 5640SOL     OW17818   3.116   0.261   3.611
 5640SOL    HW117819   3.114   0.170   3.571
 5640SOL    HW217820   3.172   0.322   3.555
 5641SOL     OW17821   0.618   5.018   4.934
 5641SOL    HW117822   0.524   5.039   4.964
 5641SOL    HW217823   0.672   4.988   5.013
 5642SOL     OW17824   1.426   6.508   4.473
 5642SOL    HW117825   1.515   6.491   4.431
 5642SOL    HW217826   1.436   6.517   4.572
 5643SOL     OW17827   4.445   1.625   4.331
 5643SOL    HW117828   4.453   1.718   4.368
 5643SOL    HW217829   4.372   1.623   4.262
 5644SOL     OW17830   3.201   6.813   5.175
 5644SOL    HW117831   3.290   6.813   5.221
 5644SOL    HW217832   3.139   6.751   5.222
 5645SOL     OW17833   6.308   4.871   3.368
 5645SOL    HW117834   6.398   4.856   3.410
 5645SOL    HW217835   6.319   4.900   3.273
 5646SOL     OW17836   1.163   5.730   3.770
 5646SOL    HW117837   1.149   5.637   3.735
 5646SOL    HW217838   1.121   5.738   3.860
 5647SOL     OW17839   4.731   5.999   0.713
 5647SOL    HW117840   4.676   5.953   0.783
 5647SOL    HW217841   4.797   5.935   0.676
 5648SOL     OW17842   1.515   0.073   3.269
 5648SOL    HW117843   1.434   0.079   3.211
 5648SOL    HW217844   1.595   0.055   3.211
 5649SOL     OW17845   0.837   0.898   4.524
 5649SOL    HW117846   0.812   0.978   4.578
 5649SOL    HW217847   0.840   0.817   4.582
 5650SOL     OW17848   0.482   5.492   0.511
 5650SOL    HW117849   0.417   5.565   0.490
 5650SOL    HW217850   0.437   5.403   0.499
 5651SOL     OW17851   1.775   1.378   1.404
 5651SOL    HW117852   1.873   1.373   1.422
 5651SOL    HW217853   1.725   1.342   1.482
 5652SOL     OW17854   6.113   0.154   2.018
 5652SOL    HW117855   6.096   0.106   2.104
 5652SOL    HW217856   6.091   0.094   1.941
 5653SOL     OW17857   6.391   6.392   6.856
 5653SOL    HW117858   6.459   6.367   6.924
 5653SOL    HW217859   6.314   6.329   6.861
 5654SOL     OW17860   6.793   6.737   5.218
 5654SOL    HW117861   6.877   6.745   5.271
 5654SOL    HW217862   6.717   6.712   5.278
 5655SOL     OW17863   0.873   3.834   3.923
 5655SOL    HW117864   0.830   3.832   4.014
 5655SOL    HW217865   0.920   3.921   3.910
 5656SOL     OW17866   0.042   3.828   6.487
 5656SOL    HW117867   0.075   3.863   6.399
 5656SOL    HW217868   0.118   3.789   6.538
 5657SOL     OW17869   5.884   2.397   0.148
 5657SOL    HW117870   5.887   2.428   0.243
 5657SOL    HW217871   5.792   2.362   0.128
 5658SOL     OW17872   3.574   3.520   6.618
 5658SOL    HW117873   3.625   3.568   6.690
 5658SOL    HW217874   3.526   3.587   6.562
 5659SOL     OW17875   3.850   3.057   5.317
 5659SOL    HW117876   3.764   3.107   5.320
 5659SOL    HW217877   3.926   3.119   5.339
 5660SOL     OW17878   5.261   6.517   0.323
 5660SOL    HW117879   5.219   6.522   0.232
 5660SOL    HW217880   5.250   6.605   0.369
 5661SOL     OW17881   1.277   5.882   4.998
 5661SOL    HW117882   1.230   5.811   4.945
 5661SOL    HW217883   1.288   5.964   4.942
 5662SOL     OW17884   2.669   5.980   3.522
 5662SOL    HW117885   2.708   5.991   3.614
 5662SOL    HW217886   2.646   5.884   3.508
 5663SOL     OW17887   1.652   3.246   6.702
 5663SOL    HW117888   1.664   3.234   6.800
 5663SOL    HW217889   1.633   3.157   6.660
 5664SOL     OW17890   0.028   4.004   4.524
 5664SOL    HW117891   6.967   4.005   4.470
 5664SOL    HW217892   0.101   3.962   4.470
 5665SOL     OW17893   1.741   1.011   0.636
 5665SOL    HW117894   1.825   1.016   0.581
 5665SOL    HW217895   1.749   0.937   0.703
 5666SOL     OW17896   5.736   0.152   2.649
 5666SOL    HW117897   5.726   0.054   2.670
 5666SOL    HW217898   5.827   0.168   2.611
 5667SOL     OW17899   1.309   5.248   4.600
 5667SOL    HW117900   1.294   5.231   4.502
 5667SOL    HW217901   1.370   5.178   4.636
 5668SOL     OW17902   5.110   2.587   3.770
 5668SOL    HW117903   5.117   2.576   3.869
 5668SOL    HW217904   5.083   2.681   3.748
 5669SOL     OW17905   0.304   3.346   0.264
 5669SOL    HW117906   0.257   3.434   0.259
 5669SOL    HW217907   0.312   3.307   0.172
 5670SOL     OW17908   0.676   3.368   3.883
 5670SOL    HW117909   0.776   3.364   3.890
 5670SOL    HW217910   0.639   3.275   3.885
 5671SOL     OW17911   6.195   6.224   6.948
 5671SOL    HW117912   6.175   6.175   6.863
 5671SOL    HW217913   6.110   6.233   7.001
 5672SOL     OW17914   4.546   3.984   0.107
 5672SOL    HW117915   4.643   3.973   0.130
 5672SOL    HW217916   4.521   3.917   0.037
 5673SOL     OW17917   1.586   0.471   1.686
 5673SOL    HW117918   1.580   0.452   1.784
 5673SOL    HW217919   1.677   0.506   1.664
 5674SOL     OW17920   6.946   5.097   5.115
 5674SOL    HW117921   6.895   5.160   5.056
 5674SOL    HW217922   6.913   5.107   5.209
 5675SOL     OW17923   4.192   2.795   6.708
 5675SOL    HW117924   4.236   2.719   6.660
 5675SOL    HW217925   4.259   2.844   6.763
 5676SOL     OW17926   2.616   2.455   2.421
 5676SOL    HW117927   2.680   2.532   2.423
 5676SOL    HW217928   2.644   2.390   2.351
 5677SOL     OW17929   0.797   1.702   0.311
 5677SOL    HW117930   0.719   1.641   0.295
 5677SOL    HW217931   0.852   1.666   0.387
 5678SOL     OW17932   4.144   6.465   2.750
 5678SOL    HW117933   4.182   6.479   2.658
 5678SOL    HW217934   4.177   6.537   2.811
 5679SOL     OW17935   6.638   0.900   4.097
 5679SOL    HW117936   6.703   0.976   4.092
 5679SOL    HW217937   6.686   0.815   4.119
 5680SOL     OW17938   1.658   5.206   6.159
 5680SOL    HW117939   1.653   5.131   6.093
 5680SOL    HW217940   1.625   5.290   6.116
 5681SOL     OW17941   0.360   4.057   0.924
 5681SOL    HW117942   0.339   3.999   0.845
 5681SOL    HW217943   0.458   4.058   0.939
 5682SOL     OW17944   1.911   5.122   5.105
 5682SOL    HW117945   1.922   5.183   5.184
 5682SOL    HW217946   1.826   5.070   5.115
 5683SOL     OW17947   4.669   1.170   6.194
 5683SOL    HW117948   4.590   1.225   6.221
 5683SOL    HW217949   4.673   1.164   6.094
 5684SOL     OW17950   2.585   3.842   5.745
 5684SOL    HW117951   2.606   3.744   5.746
 5684SOL    HW217952   2.602   3.878   5.653
 5685SOL     OW17953   2.013   2.107   2.987
 5685SOL    HW117954   2.086   2.103   3.055
 5685SOL    HW217955   2.045   2.069   2.900
 5686SOL     OW17956   2.571   1.714   6.561
 5686SOL    HW117957   2.575   1.615   6.574
 5686SOL    HW217958   2.574   1.760   6.650
 5687SOL     OW17959   1.192   5.058   0.367
 5687SOL    HW117960   1.143   5.145   0.373
 5687SOL    HW217961   1.176   5.005   0.450
 5688SOL     OW17962   0.574   2.548   1.533
 5688SOL    HW117963   0.662   2.549   1.582
 5688SOL    HW217964   0.502   2.582   1.593
 5689SOL     OW17965   3.187   1.500   0.921
 5689SOL    HW117966   3.167   1.558   1.000
 5689SOL    HW217967   3.247   1.550   0.859
 5690SOL     OW17968   2.519   5.544   6.832
 5690SOL    HW117969   2.469   5.591   6.759
 5690SOL    HW217970   2.487   5.576   6.921
 5691SOL     OW17971   3.461   0.016   2.405
 5691SOL    HW117972   3.402   6.974   2.453
 5691SOL    HW217973   3.556   7.007   2.412
 5692SOL     OW17974   5.705   3.839   0.768
 5692SOL    HW117975   5.625   3.803   0.721
 5692SOL    HW217976   5.701   3.939   0.769
 5693SOL     OW17977   5.013   1.750   2.966
 5693SOL    HW117978   4.954   1.729   2.888
 5693SOL    HW217979   4.969   1.719   3.050
 5694SOL     OW17980   0.978   1.583   3.163
 5694SOL    HW117981   1.059   1.596   3.221
 5694SOL    HW217982   0.993   1.626   3.074
 5695SOL     OW17983   1.953   1.962   3.353
 5695SOL    HW117984   1.983   1.877   3.396
 5695SOL    HW217985   1.894   1.941   3.275
 5696SOL     OW17986   0.938   0.842   3.153
 5696SOL    HW117987   1.003   0.915   3.177
 5696SOL    HW217988   0.846   0.881   3.147
 5697SOL     OW17989   5.797   2.533   1.254
 5697SOL    HW117990   5.831   2.487   1.172
 5697SOL    HW217991   5.701   2.557   1.240
 5698SOL     OW17992   1.585   5.066   4.268
 5698SOL    HW117993   1.508   5.002   4.264
 5698SOL    HW217994   1.655   5.038   4.202
 5699SOL     OW17995   0.666   2.218   3.390
 5699SOL    HW117996   0.738   2.203   3.323
 5699SOL    HW217997   0.666   2.314   3.418
 5700SOL     OW17998   6.477   0.037   3.001
 5700SOL    HW117999   6.502   0.015   3.096
 5700SOL    HW218000   6.547   0.097   2.961
 5701SOL     OW18001   1.366   0.659   1.568
 5701SOL    HW118002   1.277   0.643   1.610
 5701SOL    HW218003   1.429   0.586   1.595
 5702SOL     OW18004   2.552   5.345   4.167
 5702SOL    HW118005   2.515   5.437   4.171
 5702SOL    HW218006   2.615   5.331   4.243
 5703SOL     OW18007   6.073   4.716   1.833
 5703SOL    HW118008   6.113   4.631   1.798
 5703SOL    HW218009   5.985   4.696   1.876
 5704SOL     OW18010   5.133   4.442   2.761
 5704SOL    HW118011   5.056   4.384   2.735
 5704SOL    HW218012   5.121   4.534   2.723
 5705SOL     OW18013   5.284   6.828   0.086
 5705SOL    HW118014   5.223   6.836   0.006
 5705SOL    HW218015   5.282   6.734   0.119
 5706SOL     OW18016   0.343   3.910   1.353
 5706SOL    HW118017   0.348   3.813   1.380
 5706SOL    HW218018   0.285   3.918   1.272
 5707SOL     OW18019   0.452   6.168   6.968
 5707SOL    HW118020   0.451   6.095   6.900
 5707SOL    HW218021   0.360   6.205   6.979
 5708SOL     OW18022   5.196   5.247   2.028
 5708SOL    HW118023   5.162   5.337   2.056
 5708SOL    HW218024   5.124   5.179   2.040
 5709SOL     OW18025   1.388   0.887   2.162
 5709SOL    HW118026   1.451   0.851   2.094
 5709SOL    HW218027   1.437   0.904   2.248
 5710SOL     OW18028   2.779   2.907   1.211
 5710SOL    HW118029   2.697   2.887   1.157
 5710SOL    HW218030   2.790   3.006   1.221
 5711SOL     OW18031   4.932   0.612   3.053
 5711SOL    HW118032   4.892   0.620   3.145
 5711SOL    HW218033   5.017   0.560   3.058
 5712SOL     OW18034   6.467   0.400   6.618
 5712SOL    HW118035   6.558   0.439   6.633
 5712SOL    HW218036   6.410   0.466   6.570
 5713SOL     OW18037   3.743   3.074   1.925
 5713SOL    HW118038   3.729   3.160   1.875
 5713SOL    HW218039   3.811   3.087   1.996
 5714SOL     OW18040   0.322   5.280   0.176
 5714SOL    HW118041   0.416   5.263   0.147
 5714SOL    HW218042   0.268   5.196   0.168
 5715SOL     OW18043   1.213   0.671   2.991
 5715SOL    HW118044   1.294   0.699   3.042
 5715SOL    HW218045   1.205   0.725   2.908
 5716SOL     OW18046   1.607   4.986   5.983
 5716SOL    HW118047   1.550   4.945   6.054
 5716SOL    HW218048   1.660   4.915   5.937
 5717SOL     OW18049   1.767   4.617   0.920
 5717SOL    HW118050   1.795   4.712   0.905
 5717SOL    HW218051   1.812   4.582   1.003
 5718SOL     OW18052   0.208   3.506   6.286
 5718SOL    HW118053   0.152   3.509   6.203
 5718SOL    HW218054   0.185   3.424   6.339
 5719SOL     OW18055   2.547   2.635   6.580
 5719SOL    HW118056   2.569   2.677   6.492
 5719SOL    HW218057   2.460   2.587   6.573
 5720SOL     OW18058   1.979   6.179   4.628
 5720SOL    HW118059   1.937   6.247   4.567
 5720SOL    HW218060   2.078   6.183   4.618
 5721SOL     OW18061   6.783   3.272   0.776
 5721SOL    HW118062   6.875   3.283   0.812
 5721SOL    HW218063   6.718   3.320   0.836
 5722SOL     OW18064   0.182   1.772   5.104
 5722SOL    HW118065   0.274   1.733   5.105
 5722SOL    HW218066   0.119   1.709   5.059
 5723SOL     OW18067   4.958   3.267   0.235
 5723SOL    HW118068   4.947   3.187   0.176
 5723SOL    HW218069   5.006   3.339   0.185
 5724SOL     OW18070   5.448   2.983   4.748
 5724SOL    HW118071   5.492   2.939   4.670
 5724SOL    HW218072   5.385   3.053   4.715
 5725SOL     OW18073   5.254   5.548   4.256
 5725SOL    HW118074   5.294   5.611   4.323
 5725SOL    HW218075   5.307   5.552   4.171
 5726SOL     OW18076   0.039   5.358   4.221
 5726SOL    HW118077   0.044   5.286   4.151
 5726SOL    HW218078   6.966   5.387   4.232
 5727SOL     OW18079   0.333   2.029   4.223
 5727SOL    HW118080   0.382   2.116   4.224
 5727SOL    HW218081   0.362   1.975   4.143
 5728SOL     OW18082   3.882   0.412   6.192
 5728SOL    HW118083   3.968   0.460   6.210
 5728SOL    HW218084   3.888   0.319   6.229
 5729SOL     OW18085   1.411   0.605   0.961
 5729SOL    HW118086   1.355   0.587   1.042
 5729SOL    HW218087   1.505   0.626   0.991
 5730SOL     OW18088   5.081   5.073   6.638
 5730SOL    HW118089   5.181   5.076   6.631
 5730SOL    HW218090   5.042   5.156   6.597
 5731SOL     OW18091   0.205   6.871   3.926
 5731SOL    HW118092   0.123   6.929   3.928
 5731SOL    HW218093   0.250   6.881   3.837
 5732SOL     OW18094   6.738   5.341   4.558
 5732SOL    HW118095   6.806   5.382   4.618
 5732SOL    HW218096   6.651   5.388   4.569
 5733SOL     OW18097   4.301   6.458   5.674
 5733SOL    HW118098   4.243   6.507   5.739
 5733SOL    HW218099   4.333   6.521   5.604
 5734SOL     OW18100   1.076   6.949   5.415
 5734SOL    HW118101   1.051   7.006   5.337
 5734SOL    HW218102   1.044   6.992   5.499
 5735SOL     OW18103   4.278   1.783   1.644
 5735SOL    HW118104   4.320   1.693   1.656
 5735SOL    HW218105   4.225   1.784   1.560
 5736SOL     OW18106   6.109   3.603   0.026
 5736SOL    HW118107   6.107   3.671   0.099
 5736SOL    HW218108   6.107   3.511   0.065
 5737SOL     OW18109   5.776   6.898   1.326
 5737SOL    HW118110   5.760   6.818   1.268
 5737SOL    HW218111   5.843   6.875   1.396
 5738SOL     OW18112   2.356   2.426   5.788
 5738SOL    HW118113   2.301   2.461   5.865
 5738SOL    HW218114   2.325   2.334   5.765
 5739SOL     OW18115   1.413   0.076   5.915
 5739SOL    HW118116   1.427   7.011   5.962
 5739SOL    HW218117   1.333   0.122   5.953
 5740SOL     OW18118   4.300   3.747   0.885
 5740SOL    HW118119   4.354   3.804   0.947
 5740SOL    HW218120   4.361   3.699   0.822
 5741SOL     OW18121   1.023   4.669   4.345
 5741SOL    HW118122   1.059   4.718   4.425
 5741SOL    HW218123   1.085   4.595   4.321
 5742SOL     OW18124   5.355   6.765   2.092
 5742SOL    HW118125   5.394   6.832   2.155
 5742SOL    HW218126   5.284   6.713   2.138
 5743SOL     OW18127   2.704   5.572   5.172
 5743SOL    HW118128   2.644   5.563   5.092
 5743SOL    HW218129   2.650   5.602   5.251
 5744SOL     OW18130   5.016   0.533   1.920
 5744SOL    HW118131   4.951   0.466   1.958
 5744SOL    HW218132   5.040   0.599   1.991
 5745SOL     OW18133   2.731   0.599   4.119
 5745SOL    HW118134   2.662   0.596   4.191
 5745SOL    HW218135   2.706   0.534   4.047
 5746SOL     OW18136   6.173   6.825   1.441
 5746SOL    HW118137   6.090   6.815   1.495
 5746SOL    HW218138   6.160   6.897   1.373
 5747SOL     OW18139   6.607   4.774   2.750
 5747SOL    HW118140   6.588   4.780   2.848
 5747SOL    HW218141   6.541   4.830   2.699
 5748SOL     OW18142   1.627   6.045   0.837
 5748SOL    HW118143   1.532   6.049   0.805
 5748SOL    HW218144   1.644   5.956   0.880
 5749SOL     OW18145   1.680   0.615   4.869
 5749SOL    HW118146   1.582   0.627   4.882
 5749SOL    HW218147   1.701   0.518   4.860
 5750SOL     OW18148   5.487   6.128   4.439
 5750SOL    HW118149   5.391   6.156   4.451
 5750SOL    HW218150   5.536   6.142   4.525
 5751SOL     OW18151   2.295   2.759   4.696
 5751SOL    HW118152   2.369   2.694   4.679
 5751SOL    HW218153   2.243   2.731   4.777
 5752SOL     OW18154   6.534   0.600   6.842
 5752SOL    HW118155   6.553   0.578   6.747
 5752SOL    HW218156   6.601   0.667   6.875
 5753SOL     OW18157   3.363   4.157   5.801
 5753SOL    HW118158   3.391   4.206   5.719
 5753SOL    HW218159   3.381   4.059   5.788
 5754SOL     OW18160   5.583   4.394   1.824
 5754SOL    HW118161   5.653   4.386   1.895
 5754SOL    HW218162   5.626   4.414   1.737
 5755SOL     OW18163   1.955   3.691   6.291
 5755SOL    HW118164   1.966   3.750   6.211
 5755SOL    HW218165   1.983   3.598   6.267
 5756SOL     OW18166   6.143   6.126   3.677
 5756SOL    HW118167   6.225   6.069   3.672
 5756SOL    HW218168   6.134   6.179   3.593
 5757SOL     OW18169   6.917   6.689   2.610
 5757SOL    HW118170   6.880   6.782   2.602
 5757SOL    HW218171   6.908   6.643   2.522
 5758SOL     OW18172   2.844   0.833   4.467
 5758SOL    HW118173   2.766   0.787   4.426
 5758SOL    HW218174   2.823   0.930   4.480
 5759SOL     OW18175   5.202   1.816   6.850
 5759SOL    HW118176   5.239   1.821   6.943
 5759SOL    HW218177   5.227   1.898   6.800
 5760SOL     OW18178   1.024   4.672   1.341
 5760SOL    HW118179   1.074   4.686   1.256
 5760SOL    HW218180   1.081   4.699   1.419
 5761SOL     OW18181   5.735   6.841   6.194
 5761SOL    HW118182   5.685   6.918   6.155
 5761SOL    HW218183   5.720   6.760   6.138
 5762SOL     OW18184   4.524   6.609   0.510
 5762SOL    HW118185   4.597   6.594   0.576
 5762SOL    HW218186   4.541   6.695   0.461
 5763SOL     OW18187   0.103   0.554   0.375
 5763SOL    HW118188   0.155   0.485   0.324
 5763SOL    HW218189   0.031   0.510   0.428
 5764SOL     OW18190   4.239   4.756   6.315
 5764SOL    HW118191   4.210   4.722   6.404
 5764SOL    HW218192   4.186   4.838   6.292
 5765SOL     OW18193   6.569   4.392   6.547
 5765SOL    HW118194   6.491   4.389   6.609
 5765SOL    HW218195   6.561   4.318   6.480
 5766SOL     OW18196   2.679   2.660   0.489
 5766SOL    HW118197   2.656   2.755   0.469
 5766SOL    HW218198   2.595   2.608   0.507
 5767SOL     OW18199   2.423   6.360   0.491
 5767SOL    HW118200   2.387   6.403   0.574
 5767SOL    HW218201   2.350   6.308   0.447
 5768SOL     OW18202   0.292   6.970   3.051
 5768SOL    HW118203   0.277   6.929   2.961
 5768SOL    HW218204   0.233   0.028   3.061
 5769SOL     OW18205   2.396   6.479   4.362
 5769SOL    HW118206   2.482   6.529   4.356
 5769SOL    HW218207   2.319   6.543   4.360
 5770SOL     OW18208   6.574   0.402   7.020
 5770SOL    HW118209   6.535   0.424   0.086
 5770SOL    HW218210   6.558   0.477   6.956
 5771SOL     OW18211   0.806   5.863   2.701
 5771SOL    HW118212   0.878   5.862   2.631
 5771SOL    HW218213   0.836   5.809   2.779
 5772SOL     OW18214   6.598   2.505   0.260
 5772SOL    HW118215   6.514   2.499   0.206
 5772SOL    HW218216   6.666   2.557   0.210
 5773SOL     OW18217   4.909   0.781   4.148
 5773SOL    HW118218   4.986   0.844   4.162
 5773SOL    HW218219   4.902   0.759   4.051
 5774SOL     OW18220   2.546   5.125   3.717
 5774SOL    HW118221   2.496   5.045   3.751
 5774SOL    HW218222   2.538   5.199   3.784
 5775SOL     OW18223   1.687   0.246   1.921
 5775SOL    HW118224   1.668   0.178   1.991
 5775SOL    HW218225   1.642   0.332   1.944
 5776SOL     OW18226   6.899   1.091   6.234
 5776SOL    HW118227   6.885   1.058   6.328
 5776SOL    HW218228   6.829   1.052   6.174
 5777SOL     OW18229   6.322   0.620   4.115
 5777SOL    HW118230   6.392   0.604   4.186
 5777SOL    HW218231   6.258   0.543   4.114
 5778SOL     OW18232   1.639   0.292   1.174
 5778SOL    HW118233   1.657   0.382   1.216
 5778SOL    HW218234   1.570   0.302   1.102
 5779SOL     OW18235   4.261   1.048   0.736
 5779SOL    HW118236   4.278   0.965   0.683
 5779SOL    HW218237   4.329   1.055   0.810
 5780SOL     OW18238   5.814   5.946   3.192
 5780SOL    HW118239   5.784   5.854   3.217
 5780SOL    HW218240   5.753   5.983   3.121
 5781SOL     OW18241   1.197   3.975   4.436
 5781SOL    HW118242   1.240   3.921   4.364
 5781SOL    HW218243   1.115   3.929   4.468
 5782SOL     OW18244   1.470   1.197   1.139
 5782SOL    HW118245   1.381   1.209   1.096
 5782SOL    HW218246   1.503   1.104   1.124
 5783SOL     OW18247   2.048   1.581   1.044
 5783SOL    HW118248   1.971   1.550   1.101
 5783SOL    HW218249   2.123   1.516   1.052
 5784SOL     OW18250   0.129   6.460   6.744
 5784SOL    HW118251   0.214   6.472   6.693
 5784SOL    HW218252   0.139   6.500   6.835
 5785SOL     OW18253   2.032   2.135   1.504
 5785SOL    HW118254   2.076   2.145   1.593
 5785SOL    HW218255   2.014   2.039   1.486
 5786SOL     OW18256   1.348   4.439   0.727
 5786SOL    HW118257   1.380   4.349   0.697
 5786SOL    HW218258   1.427   4.500   0.738
 5787SOL     OW18259   4.853   2.161   4.699
 5787SOL    HW118260   4.853   2.225   4.623
 5787SOL    HW218261   4.779   2.184   4.762
 5788SOL     OW18262   3.383   0.612   1.520
 5788SOL    HW118263   3.348   0.529   1.476
 5788SOL    HW218264   3.451   0.655   1.460
 5789SOL     OW18265   3.012   3.125   6.393
 5789SOL    HW118266   3.035   3.058   6.322
 5789SOL    HW218267   2.944   3.087   6.455
 5790SOL     OW18268   6.759   5.398   5.125
 5790SOL    HW118269   6.763   5.431   5.219
 5790SOL    HW218270   6.692   5.323   5.119
 5791SOL     OW18271   2.750   2.141   2.448
 5791SOL    HW118272   2.774   2.051   2.485
 5791SOL    HW218273   2.824   2.175   2.390
 5792SOL     OW18274   5.321   3.764   2.760
 5792SOL    HW118275   5.284   3.835   2.701
 5792SOL    HW218276   5.329   3.799   2.854
 5793SOL     OW18277   5.646   0.668   5.375
 5793SOL    HW118278   5.705   0.655   5.295
 5793SOL    HW218279   5.586   0.746   5.360
 5794SOL     OW18280   3.600   0.140   6.825
 5794SOL    HW118281   3.696   0.127   6.798
 5794SOL    HW218282   3.596   0.175   6.919
 5795SOL     OW18283   0.309   0.033   0.639
 5795SOL    HW118284   0.338   0.113   0.586
 5795SOL    HW218285   0.257   6.993   0.581
 5796SOL     OW18286   4.614   0.728   6.582
 5796SOL    HW118287   4.667   0.647   6.557
 5796SOL    HW218288   4.584   0.721   6.677
 5797SOL     OW18289   5.508   1.154   0.714
 5797SOL    HW118290   5.508   1.092   0.635
 5797SOL    HW218291   5.428   1.213   0.710
 5798SOL     OW18292   0.528   3.748   4.344
 5798SOL    HW118293   0.465   3.682   4.385
 5798SOL    HW218294   0.566   3.806   4.415
 5799SOL     OW18295   0.066   0.532   3.659
 5799SOL    HW118296   0.132   0.553   3.587
 5799SOL    HW218297   0.024   0.443   3.641
 5800SOL     OW18298   0.837   0.358   1.638
 5800SOL    HW118299   0.886   0.434   1.681
 5800SOL    HW218300   0.779   0.394   1.564
 5801SOL     OW18301   2.472   2.565   3.314
 5801SOL    HW118302   2.445   2.608   3.400
 5801SOL    HW218303   2.436   2.472   3.310
 5802SOL     OW18304   6.149   3.201   2.692
 5802SOL    HW118305   6.105   3.127   2.743
 5802SOL    HW218306   6.080   3.255   2.645
 5803SOL     OW18307   1.400   4.864   3.767
 5803SOL    HW118308   1.311   4.853   3.810
 5803SOL    HW218309   1.470   4.825   3.827
 5804SOL     OW18310   6.836   5.900   3.662
 5804SOL    HW118311   6.864   5.996   3.659
 5804SOL    HW218312   6.747   5.893   3.707
 5805SOL     OW18313   1.560   3.028   0.454
 5805SOL    HW118314   1.517   3.070   0.534
 5805SOL    HW218315   1.639   2.974   0.483
 5806SOL     OW18316   6.771   4.747   5.339
 5806SOL    HW118317   6.754   4.818   5.407
 5806SOL    HW218318   6.763   4.786   5.247
 5807SOL     OW18319   1.445   5.525   1.165
 5807SOL    HW118320   1.385   5.551   1.241
 5807SOL    HW218321   1.425   5.583   1.086
 5808SOL     OW18322   6.945   6.900   5.062
 5808SOL    HW118323   6.901   6.989   5.052
 5808SOL    HW218324   6.884   6.838   5.112
 5809SOL     OW18325   6.292   2.446   5.358
 5809SOL    HW118326   6.351   2.418   5.283
 5809SOL    HW218327   6.321   2.399   5.442
 5810SOL     OW18328   4.114   1.393   5.494
 5810SOL    HW118329   4.146   1.303   5.522
 5810SOL    HW218330   4.045   1.425   5.558
 5811SOL     OW18331   2.812   2.113   5.454
 5811SOL    HW118332   2.768   2.133   5.541
 5811SOL    HW218333   2.835   2.016   5.450
 5812SOL     OW18334   4.791   3.925   5.968
 5812SOL    HW118335   4.781   3.978   5.884
 5812SOL    HW218336   4.886   3.896   5.977
 5813SOL     OW18337   2.776   6.875   0.715
 5813SOL    HW118338   2.717   6.794   0.706
 5813SOL    HW218339   2.719   6.955   0.731
 5814SOL     OW18340   6.951   2.813   1.611
 5814SOL    HW118341   6.973   2.728   1.660
 5814SOL    HW218342   7.021   2.882   1.631
 5815SOL     OW18343   5.052   1.732   4.029
 5815SOL    HW118344   4.957   1.762   4.032
 5815SOL    HW218345   5.104   1.779   4.101
 5816SOL     OW18346   6.347   4.706   1.130
 5816SOL    HW118347   6.281   4.634   1.151
 5816SOL    HW218348   6.361   4.762   1.212
 5817SOL     OW18349   5.983   5.525   5.686
 5817SOL    HW118350   5.963   5.427   5.694
 5817SOL    HW218351   6.017   5.559   5.774
 5818SOL     OW18352   6.755   5.842   5.155
 5818SOL    HW118353   6.707   5.914   5.204
 5818SOL    HW218354   6.853   5.863   5.151
 5819SOL     OW18355   3.133   5.406   6.509
 5819SOL    HW118356   3.200   5.416   6.582
 5819SOL    HW218357   3.077   5.325   6.526
 5820SOL     OW18358   4.149   4.788   2.772
 5820SOL    HW118359   4.218   4.721   2.798
 5820SOL    HW218360   4.192   4.878   2.761
 5821SOL     OW18361   6.689   0.870   1.553
 5821SOL    HW118362   6.694   0.864   1.453
 5821SOL    HW218363   6.781   0.870   1.591
 5822SOL     OW18364   1.651   2.819   1.959
 5822SOL    HW118365   1.609   2.858   2.041
 5822SOL    HW218366   1.591   2.831   1.881
 5823SOL     OW18367   2.550   6.672   4.614
 5823SOL    HW118368   2.589   6.764   4.617
 5823SOL    HW218369   2.472   6.667   4.676
 5824SOL     OW18370   0.584   6.709   3.502
 5824SOL    HW118371   0.523   6.651   3.448
 5824SOL    HW218372   0.535   6.791   3.531
 5825SOL     OW18373   7.004   5.791   5.462
 5825SOL    HW118374   0.076   5.797   5.497
 5825SOL    HW218375   6.941   5.788   5.539
 5826SOL     OW18376   0.562   6.319   6.004
 5826SOL    HW118377   0.605   6.397   5.960
 5826SOL    HW218378   0.464   6.318   5.984
 5827SOL     OW18379   1.236   3.748   4.958
 5827SOL    HW118380   1.287   3.727   5.042
 5827SOL    HW218381   1.300   3.774   4.886
 5828SOL     OW18382   4.619   0.903   3.097
 5828SOL    HW118383   4.686   0.974   3.076
 5828SOL    HW218384   4.565   0.882   3.016
 5829SOL     OW18385   1.366   0.609   4.925
 5829SOL    HW118386   1.323   0.527   4.888
 5829SOL    HW218387   1.308   0.689   4.906
 5830SOL     OW18388   4.420   6.915   5.383
 5830SOL    HW118389   4.444   6.963   5.467
 5830SOL    HW218390   4.503   6.879   5.340
 5831SOL     OW18391   1.696   1.489   6.051
 5831SOL    HW118392   1.663   1.581   6.028
 5831SOL    HW218393   1.652   1.458   6.136
 5832SOL     OW18394   3.544   4.092   0.499
 5832SOL    HW118395   3.622   4.087   0.561
 5832SOL    HW218396   3.465   4.045   0.539
 5833SOL     OW18397   3.692   3.023   5.615
 5833SOL    HW118398   3.643   2.972   5.544
 5833SOL    HW218399   3.790   3.016   5.599
 5834SOL     OW18400   6.510   4.217   6.344
 5834SOL    HW118401   6.502   4.227   6.245
 5834SOL    HW218402   6.560   4.133   6.365
 5835SOL     OW18403   6.118   1.914   2.793
 5835SOL    HW118404   6.141   1.948   2.701
 5835SOL    HW218405   6.115   1.991   2.856
 5836SOL     OW18406   2.770   6.654   2.032
 5836SOL    HW118407   2.776   6.750   2.058
 5836SOL    HW218408   2.853   6.628   1.983
 5837SOL     OW18409   3.841   3.186   6.730
 5837SOL    HW118410   3.781   3.259   6.698
 5837SOL    HW218411   3.913   3.225   6.787
 5838SOL     OW18412   3.255   1.614   1.594
 5838SOL    HW118413   3.235   1.559   1.513
 5838SOL    HW218414   3.208   1.575   1.673
 5839SOL     OW18415   0.438   2.408   0.502
 5839SOL    HW118416   0.397   2.359   0.579
 5839SOL    HW218417   0.529   2.441   0.527
 5840SOL     OW18418   0.517   3.896   0.364
 5840SOL    HW118419   0.442   3.833   0.345
 5840SOL    HW218420   0.495   3.952   0.444
 5841SOL     OW18421   5.336   0.579   1.586
 5841SOL    HW118422   5.244   0.539   1.591
 5841SOL    HW218423   5.399   0.513   1.547
 5842SOL     OW18424   4.520   2.198   1.800
 5842SOL    HW118425   4.442   2.185   1.739
 5842SOL    HW218426   4.497   2.267   1.869
 5843SOL     OW18427   1.638   3.526   1.357
 5843SOL    HW118428   1.676   3.435   1.366
 5843SOL    HW218429   1.705   3.587   1.315
 5844SOL     OW18430   1.396   6.308   5.102
 5844SOL    HW118431   1.297   6.295   5.097
 5844SOL    HW218432   1.443   6.231   5.058
 5845SOL     OW18433   0.990   0.097   2.283
 5845SOL    HW118434   0.959   0.079   2.190
 5845SOL    HW218435   1.004   0.195   2.295
 5846SOL     OW18436   5.424   3.575   5.437
 5846SOL    HW118437   5.437   3.586   5.535
 5846SOL    HW218438   5.495   3.624   5.387
 5847SOL     OW18439   2.755   2.423   1.718
 5847SOL    HW118440   2.669   2.443   1.766
 5847SOL    HW218441   2.830   2.419   1.784
 5848SOL     OW18442   2.029   5.798   3.144
 5848SOL    HW118443   1.987   5.720   3.190
 5848SOL    HW218444   2.005   5.882   3.192
 5849SOL     OW18445   1.944   6.632   5.083
 5849SOL    HW118446   1.916   6.689   5.160
 5849SOL    HW218447   2.036   6.596   5.100
 5850SOL     OW18448   0.106   3.196   1.864
 5850SOL    HW118449   0.116   3.235   1.773
 5850SOL    HW218450   0.019   3.147   1.869
 5851SOL     OW18451   5.142   3.627   3.862
 5851SOL    HW118452   5.105   3.536   3.881
 5851SOL    HW218453   5.116   3.690   3.935
 5852SOL     OW18454   4.853   5.983   2.470
 5852SOL    HW118455   4.762   5.943   2.461
 5852SOL    HW218456   4.847   6.082   2.463
 5853SOL     OW18457   4.421   5.313   5.898
 5853SOL    HW118458   4.392   5.371   5.974
 5853SOL    HW218459   4.519   5.297   5.903
 5854SOL     OW18460   3.977   4.522   5.627
 5854SOL    HW118461   4.047   4.484   5.688
 5854SOL    HW218462   3.889   4.477   5.646
 5855SOL     OW18463   1.349   1.945   4.703
 5855SOL    HW118464   1.344   1.850   4.736
 5855SOL    HW218465   1.429   1.989   4.743
 5856SOL     OW18466   1.298   6.472   2.986
 5856SOL    HW118467   1.316   6.395   2.925
 5856SOL    HW218468   1.316   6.443   3.081
 5857SOL     OW18469   6.761   3.785   5.557
 5857SOL    HW118470   6.729   3.857   5.620
 5857SOL    HW218471   6.835   3.822   5.500
 5858SOL     OW18472   2.516   2.573   2.855
 5858SOL    HW118473   2.527   2.496   2.791
 5858SOL    HW218474   2.598   2.581   2.912
 5859SOL     OW18475   6.200   6.250   1.470
 5859SOL    HW118476   6.147   6.294   1.398
 5859SOL    HW218477   6.149   6.251   1.556
 5860SOL     OW18478   0.660   5.003   2.728
 5860SOL    HW118479   0.610   4.955   2.656
 5860SOL    HW218480   0.666   4.945   2.809
 5861SOL     OW18481   4.753   0.741   4.775
 5861SOL    HW118482   4.819   0.683   4.727
 5861SOL    HW218483   4.738   0.825   4.723
 5862SOL     OW18484   6.242   5.353   1.797
 5862SOL    HW118485   6.327   5.318   1.756
 5862SOL    HW218486   6.260   5.440   1.842
 5863SOL     OW18487   2.859   1.791   4.975
 5863SOL    HW118488   2.803   1.808   4.893
 5863SOL    HW218489   2.875   1.877   5.023
 5864SOL     OW18490   3.895   3.397   1.963
 5864SOL    HW118491   3.920   3.393   2.059
 5864SOL    HW218492   3.947   3.328   1.912
 5865SOL     OW18493   5.519   0.877   5.264
 5865SOL    HW118494   5.429   0.922   5.269
 5865SOL    HW218495   5.581   0.934   5.211
 5866SOL     OW18496   3.226   2.707   1.187
 5866SOL    HW118497   3.240   2.693   1.285
 5866SOL    HW218498   3.128   2.719   1.169
 5867SOL     OW18499   1.748   2.972   1.607
 5867SOL    HW118500   1.768   3.066   1.580
 5867SOL    HW218501   1.826   2.913   1.585
 5868SOL     OW18502   1.387   1.572   5.853
 5868SOL    HW118503   1.377   1.491   5.911
 5868SOL    HW218504   1.454   1.634   5.895
 5869SOL     OW18505   1.675   4.349   2.922
 5869SOL    HW118506   1.695   4.366   3.018
 5869SOL    HW218507   1.739   4.281   2.886
 5870SOL     OW18508   4.654   5.932   5.301
 5870SOL    HW118509   4.572   5.877   5.308
 5870SOL    HW218510   4.684   5.935   5.205
 5871SOL     OW18511   4.104   3.094   2.047
 5871SOL    HW118512   4.158   3.044   1.979
 5871SOL    HW218513   4.043   3.031   2.094
 5872SOL     OW18514   4.050   6.676   1.163
 5872SOL    HW118515   4.135   6.704   1.117
 5872SOL    HW218516   3.979   6.661   1.095
 5873SOL     OW18517   3.040   6.677   2.111
 5873SOL    HW118518   3.082   6.645   2.026
 5873SOL    HW218519   3.101   6.743   2.155
 5874SOL     OW18520   2.029   4.383   4.672
 5874SOL    HW118521   2.095   4.322   4.628
 5874SOL    HW218522   2.077   4.444   4.735
 5875SOL     OW18523   3.816   1.902   0.747
 5875SOL    HW118524   3.860   1.888   0.659
 5875SOL    HW218525   3.778   1.816   0.780
 5876SOL     OW18526   4.204   3.455   1.744
 5876SOL    HW118527   4.302   3.436   1.741
 5876SOL    HW218528   4.158   3.390   1.804
 5877SOL     OW18529   6.371   6.298   1.148
 5877SOL    HW118530   6.397   6.390   1.176
 5877SOL    HW218531   6.275   6.282   1.170
 5878SOL     OW18532   0.346   6.531   4.319
 5878SOL    HW118533   0.439   6.509   4.349
 5878SOL    HW218534   0.321   6.473   4.242
 5879SOL     OW18535   1.420   3.960   6.719
 5879SOL    HW118536   1.325   3.980   6.693
 5879SOL    HW218537   1.421   3.880   6.780
 5880SOL     OW18538   3.751   4.052   0.101
 5880SOL    HW118539   3.739   3.975   0.038
 5880SOL    HW218540   3.802   4.125   0.056
 5881SOL     OW18541   0.170   5.379   3.020
 5881SOL    HW118542   0.123   5.296   3.050
 5881SOL    HW218543   0.108   5.435   2.966
 5882SOL     OW18544   0.204   6.418   1.042
 5882SOL    HW118545   0.258   6.350   1.092
 5882SOL    HW218546   0.158   6.478   1.107
 5883SOL     OW18547   0.780   1.898   6.779
 5883SOL    HW118548   0.735   1.847   6.706
 5883SOL    HW218549   0.838   1.837   6.833
 5884SOL     OW18550   3.108   1.483   4.205
 5884SOL    HW118551   3.022   1.458   4.161
 5884SOL    HW218552   3.098   1.571   4.251
 5885SOL     OW18553   0.234   0.570   2.583
 5885SOL    HW118554   0.236   0.612   2.492
 5885SOL    HW218555   0.150   0.518   2.594
 5886SOL     OW18556   0.548   2.103   4.745
 5886SOL    HW118557   0.458   2.085   4.706
 5886SOL    HW218558   0.599   2.165   4.684
 5887SOL     OW18559   3.022   1.060   3.602
 5887SOL    HW118560   2.995   0.976   3.555
 5887SOL    HW218561   3.119   1.078   3.587
 5888SOL     OW18562   3.248   0.658   1.834
 5888SOL    HW118563   3.302   0.651   1.750
 5888SOL    HW218564   3.151   0.651   1.812
 5889SOL     OW18565   0.929   6.420   1.085
 5889SOL    HW118566   0.916   6.359   1.006
 5889SOL    HW218567   1.025   6.450   1.087
 5890SOL     OW18568   1.238   0.158   4.701
 5890SOL    HW118569   1.303   0.166   4.625
 5890SOL    HW218570   1.280   0.106   4.775
 5891SOL     OW18571   2.692   3.123   6.047
 5891SOL    HW118572   2.724   3.031   6.072
 5891SOL    HW218573   2.654   3.120   5.954
 5892SOL     OW18574   0.468   5.761   1.237
 5892SOL    HW118575   0.418   5.763   1.324
 5892SOL    HW218576   0.555   5.713   1.251
 5893SOL     OW18577   1.606   4.074   4.352
 5893SOL    HW118578   1.662   4.157   4.350
 5893SOL    HW218579   1.534   4.084   4.421
 5894SOL     OW18580   6.794   5.668   4.560
 5894SOL    HW118581   6.860   5.665   4.485
 5894SOL    HW218582   6.772   5.763   4.582
 5895SOL     OW18583   5.174   3.426   4.092
 5895SOL    HW118584   5.175   3.458   4.187
 5895SOL    HW218585   5.085   3.384   4.072
 5896SOL     OW18586   4.393   1.123   0.317
 5896SOL    HW118587   4.446   1.190   0.369
 5896SOL    HW218588   4.311   1.166   0.281
 5897SOL     OW18589   4.001   0.377   1.079
 5897SOL    HW118590   4.084   0.350   1.029
 5897SOL    HW218591   3.921   0.340   1.033
 5898SOL     OW18592   2.456   6.324   3.095
 5898SOL    HW118593   2.387   6.252   3.099
 5898SOL    HW218594   2.489   6.333   3.001
 5899SOL     OW18595   5.065   6.738   5.619
 5899SOL    HW118596   5.151   6.707   5.659
 5899SOL    HW218597   4.988   6.697   5.668
 5900SOL     OW18598   4.625   5.024   3.389
 5900SOL    HW118599   4.598   5.094   3.323
 5900SOL    HW218600   4.688   4.960   3.344
 5901SOL     OW18601   2.825   0.151   0.197
 5901SOL    HW118602   2.785   0.080   0.254
 5901SOL    HW218603   2.925   0.143   0.197
 5902SOL     OW18604   6.816   2.559   6.267
 5902SOL    HW118605   6.789   2.465   6.289
 5902SOL    HW218606   6.771   2.588   6.183
 5903SOL     OW18607   3.921   3.762   0.694
 5903SOL    HW118608   3.827   3.741   0.667
 5903SOL    HW218609   3.976   3.778   0.613
 5904SOL     OW18610   0.988   3.422   1.587
 5904SOL    HW118611   0.960   3.437   1.493
 5904SOL    HW218612   0.922   3.361   1.632
 5905SOL     OW18613   6.194   6.447   3.196
 5905SOL    HW118614   6.257   6.522   3.211
 5905SOL    HW218615   6.245   6.361   3.189
 5906SOL     OW18616   4.497   1.971   3.747
 5906SOL    HW118617   4.489   1.915   3.665
 5906SOL    HW218618   4.556   2.050   3.728
 5907SOL     OW18619   1.664   5.320   1.629
 5907SOL    HW118620   1.725   5.391   1.665
 5907SOL    HW218621   1.633   5.346   1.538
 5908SOL     OW18622   0.579   2.581   6.534
 5908SOL    HW118623   0.631   2.561   6.617
 5908SOL    HW218624   0.583   2.679   6.515
 5909SOL     OW18625   6.799   5.190   0.929
 5909SOL    HW118626   6.762   5.283   0.925
 5909SOL    HW218627   6.875   5.188   0.995
 5910SOL     OW18628   0.459   2.942   3.843
 5910SOL    HW118629   0.401   3.023   3.849
 5910SOL    HW218630   0.541   2.955   3.898
 5911SOL     OW18631   6.177   6.672   6.576
 5911SOL    HW118632   6.079   6.660   6.593
 5911SOL    HW218633   6.226   6.679   6.663
 5912SOL     OW18634   6.907   0.387   5.646
 5912SOL    HW118635   6.940   0.470   5.602
 5912SOL    HW218636   6.934   0.308   5.591
 5913SOL     OW18637   5.010   2.709   6.290
 5913SOL    HW118638   4.956   2.656   6.354
 5913SOL    HW218639   5.105   2.677   6.291
 5914SOL     OW18640   1.186   5.404   6.824
 5914SOL    HW118641   1.107   5.348   6.846
 5914SOL    HW218642   1.189   5.483   6.884
 5915SOL     OW18643   4.669   5.784   1.466
 5915SOL    HW118644   4.591   5.812   1.522
 5915SOL    HW218645   4.754   5.803   1.516
 5916SOL     OW18646   6.155   6.334   3.453
 5916SOL    HW118647   6.253   6.314   3.457
 5916SOL    HW218648   6.133   6.377   3.366
 5917SOL     OW18649   3.221   4.111   4.317
 5917SOL    HW118650   3.199   4.192   4.371
 5917SOL    HW218651   3.232   4.033   4.379
 5918SOL     OW18652   1.841   4.548   5.095
 5918SOL    HW118653   1.914   4.548   5.027
 5918SOL    HW218654   1.803   4.456   5.103
 5919SOL     OW18655   3.470   2.947   3.072
 5919SOL    HW118656   3.502   2.930   2.979
 5919SOL    HW218657   3.373   2.972   3.069
 5920SOL     OW18658   4.875   0.613   6.394
 5920SOL    HW118659   4.933   0.688   6.363
 5920SOL    HW218660   4.931   0.545   6.440
 5921SOL     OW18661   4.186   5.277   6.512
 5921SOL    HW118662   4.195   5.178   6.497
 5921SOL    HW218663   4.272   5.322   6.487
 5922SOL     OW18664   5.704   3.847   4.255
 5922SOL    HW118665   5.677   3.800   4.339
 5922SOL    HW218666   5.658   3.936   4.250
 5923SOL     OW18667   6.808   1.803   1.683
 5923SOL    HW118668   6.776   1.762   1.768
 5923SOL    HW218669   6.901   1.772   1.664
 5924SOL     OW18670   6.154   0.172   2.629
 5924SOL    HW118671   6.135   0.091   2.685
 5924SOL    HW218672   6.189   0.245   2.687
 5925SOL     OW18673   3.468   6.685   1.736
 5925SOL    HW118674   3.388   6.740   1.711
 5925SOL    HW218675   3.457   6.592   1.700
 5926SOL     OW18676   3.504   4.901   2.652
 5926SOL    HW118677   3.570   4.904   2.728
 5926SOL    HW218678   3.550   4.871   2.569
 5927SOL     OW18679   0.820   5.062   2.224
 5927SOL    HW118680   0.847   5.137   2.164
 5927SOL    HW218681   0.796   4.982   2.168
 5928SOL     OW18682   3.267   6.757   0.721
 5928SOL    HW118683   3.195   6.819   0.752
 5928SOL    HW218684   3.350   6.810   0.702
 5929SOL     OW18685   6.114   0.390   6.054
 5929SOL    HW118686   6.162   0.371   6.140
 5929SOL    HW218687   6.024   0.429   6.074
 5930SOL     OW18688   0.001   3.792   3.397
 5930SOL    HW118689   0.021   3.792   3.299
 5930SOL    HW218690   6.985   3.703   3.423
 5931SOL     OW18691   6.653   6.824   2.939
 5931SOL    HW118692   6.705   6.906   2.959
 5931SOL    HW218693   6.560   6.849   2.912
 5932SOL     OW18694   3.461   6.863   0.528
 5932SOL    HW118695   3.467   6.816   0.440
 5932SOL    HW218696   3.504   6.953   0.521
 5933SOL     OW18697   6.396   5.142   4.198
 5933SOL    HW118698   6.311   5.120   4.245
 5933SOL    HW218699   6.389   5.234   4.158
 5934SOL     OW18700   3.538   2.816   5.044
 5934SOL    HW118701   3.487   2.761   5.110
 5934SOL    HW218702   3.630   2.833   5.078
 5935SOL     OW18703   6.944   5.190   6.447
 5935SOL    HW118704   6.932   5.122   6.520
 5935SOL    HW218705   0.015   5.225   6.450
 5936SOL     OW18706   3.361   2.875   1.608
 5936SOL    HW118707   3.376   2.973   1.602
 5936SOL    HW218708   3.379   2.844   1.701
 5937SOL     OW18709   6.063   3.378   1.850
 5937SOL    HW118710   5.997   3.416   1.786
 5937SOL    HW218711   6.015   3.319   1.915
 5938SOL     OW18712   6.313   5.821   3.660
 5938SOL    HW118713   6.266   5.826   3.748
 5938SOL    HW218714   6.372   5.741   3.657
 5939SOL     OW18715   1.906   5.533   3.496
 5939SOL    HW118716   1.860   5.539   3.407
 5939SOL    HW218717   1.923   5.625   3.530
 5940SOL     OW18718   4.545   5.498   2.984
 5940SOL    HW118719   4.601   5.418   2.963
 5940SOL    HW218720   4.603   5.573   3.015
 5941SOL     OW18721   5.773   3.379   2.307
 5941SOL    HW118722   5.683   3.345   2.280
 5941SOL    HW218723   5.766   3.476   2.331
 5942SOL     OW18724   5.069   3.802   6.725
 5942SOL    HW118725   5.058   3.713   6.680
 5942SOL    HW218726   4.994   3.815   6.791
 5943SOL     OW18727   3.110   3.939   6.084
 5943SOL    HW118728   3.082   3.896   5.999
 5943SOL    HW218729   3.117   3.870   6.156
 5944SOL     OW18730   0.001   2.209   0.072
 5944SOL    HW118731   0.017   2.238   6.999
 5944SOL    HW218732   6.987   2.116   0.073
 5945SOL     OW18733   6.801   4.836   5.078
 5945SOL    HW118734   6.837   4.924   5.047
 5945SOL    HW218735   6.861   4.762   5.047
 5946SOL     OW18736   3.093   3.521   6.155
 5946SOL    HW118737   3.078   3.433   6.111
 5946SOL    HW218738   3.018   3.583   6.131
 5947SOL     OW18739   3.409   3.325   3.269
 5947SOL    HW118740   3.374   3.388   3.200
 5947SOL    HW218741   3.502   3.297   3.246
 5948SOL     OW18742   3.669   5.217   2.781
 5948SOL    HW118743   3.619   5.222   2.867
 5948SOL    HW218744   3.606   5.202   2.706
 5949SOL     OW18745   4.975   4.545   1.627
 5949SOL    HW118746   4.887   4.575   1.663
 5949SOL    HW218747   5.039   4.622   1.624
 5950SOL     OW18748   5.513   1.744   4.743
 5950SOL    HW118749   5.598   1.725   4.791
 5950SOL    HW218750   5.534   1.790   4.656
 5951SOL     OW18751   1.237   5.280   4.317
 5951SOL    HW118752   1.164   5.344   4.293
 5951SOL    HW218753   1.201   5.187   4.319
 5952SOL     OW18754   5.138   5.849   3.458
 5952SOL    HW118755   5.227   5.831   3.501
 5952SOL    HW218756   5.076   5.773   3.478
 5953SOL     OW18757   6.642   4.205   5.095
 5953SOL    HW118758   6.548   4.185   5.069
 5953SOL    HW218759   6.660   4.303   5.085
 5954SOL     OW18760   6.585   5.282   5.899
 5954SOL    HW118761   6.517   5.237   5.842
 5954SOL    HW218762   6.636   5.349   5.844
 5955SOL     OW18763   4.536   5.399   2.003
 5955SOL    HW118764   4.534   5.490   1.962
 5955SOL    HW218765   4.580   5.335   1.940
 5956SOL     OW18766   5.404   2.093   4.003
 5956SOL    HW118767   5.468   2.152   4.052
 5956SOL    HW218768   5.410   2.000   4.040
 5957SOL     OW18769   3.030   1.384   4.715
 5957SOL    HW118770   3.118   1.381   4.669
 5957SOL    HW218771   3.039   1.434   4.801
 5958SOL     OW18772   4.342   0.015   2.694
 5958SOL    HW118773   4.317   6.979   2.771
 5958SOL    HW218774   4.441   0.029   2.695
 5959SOL     OW18775   4.694   2.792   5.690
 5959SOL    HW118776   4.704   2.784   5.789
 5959SOL    HW218777   4.745   2.871   5.657
 5960SOL     OW18778   3.550   5.600   4.898
 5960SOL    HW118779   3.460   5.593   4.856
 5960SOL    HW218780   3.617   5.629   4.830
 5961SOL     OW18781   4.660   1.724   3.069
 5961SOL    HW118782   4.628   1.659   2.999
 5961SOL    HW218783   4.668   1.815   3.029
 5962SOL     OW18784   5.925   6.203   0.011
 5962SOL    HW118785   5.920   6.202   6.933
 5962SOL    HW218786   5.929   6.109   0.045
 5963SOL     OW18787   2.977   3.395   6.403
 5963SOL    HW118788   3.044   3.461   6.370
 5963SOL    HW218789   3.004   3.303   6.376
 5964SOL     OW18790   1.270   6.805   4.978
 5964SOL    HW118791   1.209   6.880   5.005
 5964SOL    HW218792   1.228   6.752   4.905
 5965SOL     OW18793   1.767   1.304   6.720
 5965SOL    HW118794   1.757   1.262   6.810
 5965SOL    HW218795   1.806   1.396   6.729
 5966SOL     OW18796   2.648   6.031   6.543
 5966SOL    HW118797   2.563   5.981   6.524
 5966SOL    HW218798   2.635   6.089   6.623
 5967SOL     OW18799   2.700   0.421   6.047
 5967SOL    HW118800   2.686   0.436   5.949
 5967SOL    HW218801   2.785   0.370   6.061
 5968SOL     OW18802   5.393   2.252   0.403
 5968SOL    HW118803   5.421   2.161   0.375
 5968SOL    HW218804   5.306   2.247   0.453
 5969SOL     OW18805   6.099   0.421   6.722
 5969SOL    HW118806   6.153   0.487   6.775
 5969SOL    HW218807   6.063   0.466   6.641
 5970SOL     OW18808   6.834   4.574   2.152
 5970SOL    HW118809   6.817   4.669   2.175
 5970SOL    HW218810   6.922   4.545   2.191
 5971SOL     OW18811   6.741   1.051   1.824
 5971SOL    HW118812   6.816   1.031   1.887
 5971SOL    HW218813   6.772   1.036   1.730
 5972SOL     OW18814   4.693   6.019   6.549
 5972SOL    HW118815   4.595   6.015   6.568
 5972SOL    HW218816   4.720   5.941   6.493
 5973SOL     OW18817   1.914   2.910   1.992
 5973SOL    HW118818   1.913   2.971   2.071
 5973SOL    HW218819   1.821   2.878   1.973
 5974SOL     OW18820   5.126   5.775   0.473
 5974SOL    HW118821   5.167   5.862   0.501
 5974SOL    HW218822   5.198   5.706   0.463
 5975SOL     OW18823   3.929   6.814   0.882
 5975SOL    HW118824   3.989   6.735   0.895
 5975SOL    HW218825   3.871   6.800   0.802
 5976SOL     OW18826   4.009   2.708   5.774
 5976SOL    HW118827   4.097   2.727   5.817
 5976SOL    HW218828   4.023   2.648   5.695
 5977SOL     OW18829   1.175   6.411   0.701
 5977SOL    HW118830   1.078   6.401   0.677
 5977SOL    HW218831   1.191   6.501   0.741
 5978SOL     OW18832   3.673   5.480   1.225
 5978SOL    HW118833   3.699   5.523   1.139
 5978SOL    HW218834   3.636   5.389   1.208
 5979SOL     OW18835   6.523   0.566   2.738
 5979SOL    HW118836   6.501   0.495   2.671
 5979SOL    HW218837   6.513   0.656   2.696
 5980SOL     OW18838   4.073   4.304   1.531
 5980SOL    HW118839   4.010   4.332   1.603
 5980SOL    HW218840   4.025   4.247   1.464
 5981SOL     OW18841   4.998   1.675   0.617
 5981SOL    HW118842   5.016   1.584   0.579
 5981SOL    HW218843   5.034   1.680   0.710
 5982SOL     OW18844   6.255   2.037   2.566
 5982SOL    HW118845   6.218   2.002   2.480
 5982SOL    HW218846   6.300   2.125   2.549
 5983SOL     OW18847   1.278   1.018   4.406
 5983SOL    HW118848   1.223   1.095   4.374
 5983SOL    HW218849   1.372   1.026   4.372
 5984SOL     OW18850   5.786   6.116   3.544
 5984SOL    HW118851   5.704   6.063   3.565
 5984SOL    HW218852   5.760   6.202   3.501
 5985SOL     OW18853   6.821   2.905   3.652
 5985SOL    HW118854   6.817   2.993   3.699
 5985SOL    HW218855   6.858   2.836   3.715
 5986SOL     OW18856   3.038   4.027   4.717
 5986SOL    HW118857   3.001   3.942   4.754
 5986SOL    HW218858   2.964   4.084   4.681
 5987SOL     OW18859   5.507   0.553   4.468
 5987SOL    HW118860   5.519   0.461   4.507
 5987SOL    HW218861   5.541   0.621   4.533
 5988SOL     OW18862   4.533   0.727   5.523
 5988SOL    HW118863   4.573   0.782   5.451
 5988SOL    HW218864   4.605   0.680   5.574
 5989SOL     OW18865   1.917   5.660   6.296
 5989SOL    HW118866   1.979   5.691   6.224
 5989SOL    HW218867   1.911   5.560   6.294
 5990SOL     OW18868   3.914   3.308   0.504
 5990SOL    HW118869   3.845   3.380   0.514
 5990SOL    HW218870   3.868   3.219   0.501
 5991SOL     OW18871   4.204   5.562   0.121
 5991SOL    HW118872   4.128   5.581   0.057
 5991SOL    HW218873   4.267   5.640   0.120
 5992SOL     OW18874   3.388   0.153   1.854
 5992SOL    HW118875   3.364   0.250   1.846
 5992SOL    HW218876   3.387   0.127   1.950
 5993SOL     OW18877   3.796   3.960   5.901
 5993SOL    HW118878   3.702   3.987   5.922
 5993SOL    HW218879   3.859   4.022   5.946
 5994SOL     OW18880   6.787   2.313   0.320
 5994SOL    HW118881   6.721   2.388   0.313
 5994SOL    HW218882   6.761   2.253   0.395
 5995SOL     OW18883   4.895   3.026   2.200
 5995SOL    HW118884   4.980   3.021   2.147
 5995SOL    HW218885   4.818   3.035   2.138
 5996SOL     OW18886   0.147   6.819   0.524
 5996SOL    HW118887   0.199   6.739   0.554
 5996SOL    HW218888   0.143   6.820   0.424
 5997SOL     OW18889   0.313   4.969   2.455
 5997SOL    HW118890   0.307   4.956   2.554
 5997SOL    HW218891   0.328   5.066   2.435
 5998SOL     OW18892   6.255   1.668   2.232
 5998SOL    HW118893   6.311   1.664   2.315
 5998SOL    HW218894   6.243   1.576   2.195
 5999SOL     OW18895   3.077   3.548   1.836
 5999SOL    HW118896   3.173   3.521   1.832
 5999SOL    HW218897   3.025   3.501   1.765
 6000SOL     OW18898   2.347   6.064   6.785
 6000SOL    HW118899   2.250   6.083   6.801
 6000SOL    HW218900   2.382   6.005   6.857
 6001SOL     OW18901   0.107   5.098   6.844
 6001SOL    HW118902   0.158   5.019   6.878
 6001SOL    HW218903   0.168   5.178   6.842
 6002SOL     OW18904   5.638   0.401   6.982
 6002SOL    HW118905   5.652   0.361   6.892
 6002SOL    HW218906   5.701   0.358   0.025
 6003SOL     OW18907   5.471   2.245   4.852
 6003SOL    HW118908   5.413   2.244   4.933
 6003SOL    HW218909   5.543   2.176   4.860
 6004SOL     OW18910   6.826   3.727   2.727
 6004SOL    HW118911   6.850   3.630   2.725
 6004SOL    HW218912   6.769   3.749   2.647
 6005SOL     OW18913   5.262   5.771   4.534
 6005SOL    HW118914   5.176   5.748   4.578
 6005SOL    HW218915   5.337   5.719   4.576
 6006SOL     OW18916   2.201   0.669   5.177
 6006SOL    HW118917   2.253   0.727   5.239
 6006SOL    HW218918   2.253   0.654   5.093
 6007SOL     OW18919   5.884   3.864   5.615
 6007SOL    HW118920   5.850   3.772   5.596
 6007SOL    HW218921   5.918   3.868   5.710
 6008SOL     OW18922   2.663   5.369   5.565
 6008SOL    HW118923   2.687   5.341   5.472
 6008SOL    HW218924   2.596   5.305   5.602
 6009SOL     OW18925   3.050   0.503   3.376
 6009SOL    HW118926   3.129   0.518   3.436
 6009SOL    HW218927   2.967   0.528   3.425
 6010SOL     OW18928   1.198   5.257   3.766
 6010SOL    HW118929   1.295   5.229   3.766
 6010SOL    HW218930   1.144   5.188   3.815
 6011SOL     OW18931   6.086   3.014   3.630
 6011SOL    HW118932   6.186   3.016   3.640
 6011SOL    HW218933   6.062   2.986   3.538
 6012SOL     OW18934   5.940   0.920   0.969
 6012SOL    HW118935   5.884   0.949   1.046
 6012SOL    HW218936   5.889   0.932   0.884
 6013SOL     OW18937   5.187   0.854   2.767
 6013SOL    HW118938   5.216   0.938   2.813
 6013SOL    HW218939   5.089   0.840   2.782
 6014SOL     OW18940   3.691   4.055   3.307
 6014SOL    HW118941   3.644   4.121   3.366
 6014SOL    HW218942   3.737   4.104   3.232
 6015SOL     OW18943   5.689   4.121   4.182
 6015SOL    HW118944   5.690   4.178   4.100
 6015SOL    HW218945   5.627   4.161   4.250
 6016SOL     OW18946   6.638   2.629   6.027
 6016SOL    HW118947   6.590   2.551   6.067
 6016SOL    HW218948   6.586   2.713   6.045
 6017SOL     OW18949   6.106   4.926   3.578
 6017SOL    HW118950   6.145   4.873   3.654
 6017SOL    HW218951   6.155   4.904   3.494
 6018SOL     OW18952   3.626   1.216   6.317
 6018SOL    HW118953   3.597   1.207   6.413
 6018SOL    HW218954   3.725   1.207   6.311
 6019SOL     OW18955   0.660   2.654   4.961
 6019SOL    HW118956   0.713   2.578   5.000
 6019SOL    HW218957   0.637   2.719   5.033
 6020SOL     OW18958   0.522   4.977   0.207
 6020SOL    HW118959   0.554   4.887   0.236
 6020SOL    HW218960   0.422   4.977   0.204
 6021SOL     OW18961   4.549   0.886   3.384
 6021SOL    HW118962   4.613   0.866   3.458
 6021SOL    HW218963   4.600   0.907   3.301
 6022SOL     OW18964   6.833   1.867   3.588
 6022SOL    HW118965   6.771   1.791   3.603
 6022SOL    HW218966   6.804   1.919   3.508
 6023SOL     OW18967   5.633   1.349   1.807
 6023SOL    HW118968   5.604   1.254   1.813
 6023SOL    HW218969   5.728   1.358   1.839
 6024SOL     OW18970   1.337   4.082   1.730
 6024SOL    HW118971   1.341   4.017   1.806
 6024SOL    HW218972   1.245   4.080   1.690
 6025SOL     OW18973   3.117   1.475   3.300
 6025SOL    HW118974   3.196   1.417   3.282
 6025SOL    HW218975   3.148   1.565   3.331
 6026SOL     OW18976   0.215   5.304   5.739
 6026SOL    HW118977   0.156   5.382   5.763
 6026SOL    HW218978   0.187   5.224   5.792
 6027SOL     OW18979   0.182   3.535   5.845
 6027SOL    HW118980   0.126   3.541   5.762
 6027SOL    HW218981   0.264   3.591   5.833
 6028SOL     OW18982   5.840   4.663   1.060
 6028SOL    HW118983   5.759   4.719   1.044
 6028SOL    HW218984   5.833   4.617   1.148
 6029SOL     OW18985   2.851   6.349   4.278
 6029SOL    HW118986   2.764   6.391   4.301
 6029SOL    HW218987   2.879   6.377   4.186
 6030SOL     OW18988   4.239   5.043   2.813
 6030SOL    HW118989   4.176   5.117   2.788
 6030SOL    HW218990   4.238   5.030   2.913
 6031SOL     OW18991   3.340   5.417   4.398
 6031SOL    HW118992   3.276   5.398   4.472
 6031SOL    HW218993   3.302   5.488   4.338
 6032SOL     OW18994   2.023   4.620   1.950
 6032SOL    HW118995   1.995   4.580   2.037
 6032SOL    HW218996   2.045   4.546   1.885
 6033SOL     OW18997   2.425   2.239   3.602
 6033SOL    HW118998   2.385   2.298   3.531
 6033SOL    HW218999   2.512   2.203   3.569
 6034SOL     OW19000   0.810   0.812   5.167
 6034SOL    HW119001   0.858   0.763   5.094
 6034SOL    HW219002   0.876   0.863   5.222
 6035SOL     OW19003   1.480   1.312   1.896
 6035SOL    HW119004   1.435   1.399   1.918
 6035SOL    HW219005   1.503   1.265   1.981
 6036SOL     OW19006   5.097   5.554   2.831
 6036SOL    HW119007   5.134   5.494   2.760
 6036SOL    HW219008   5.018   5.510   2.874
 6037SOL     OW19009   3.802   6.949   0.412
 6037SOL    HW119010   3.852   6.864   0.395
 6037SOL    HW219011   3.815   6.977   0.506
 6038SOL     OW19012   1.544   3.117   5.869
 6038SOL    HW119013   1.575   3.037   5.919
 6038SOL    HW219014   1.464   3.156   5.914
 6039SOL     OW19015   3.836   3.041   2.892
 6039SOL    HW119016   3.824   3.109   2.819
 6039SOL    HW219017   3.932   3.013   2.895
 6040SOL     OW19018   1.666   2.219   0.930
 6040SOL    HW119019   1.617   2.196   1.014
 6040SOL    HW219020   1.621   2.296   0.886
 6041SOL     OW19021   3.039   1.292   5.389
 6041SOL    HW119022   3.074   1.237   5.464
 6041SOL    HW219023   2.966   1.352   5.423
 6042SOL     OW19024   4.311   6.506   2.535
 6042SOL    HW119025   4.408   6.531   2.541
 6042SOL    HW219026   4.291   6.474   2.442
 6043SOL     OW19027   0.867   6.565   5.266
 6043SOL    HW119028   0.879   6.580   5.364
 6043SOL    HW219029   0.957   6.565   5.221
 6044SOL     OW19030   1.564   2.716   1.241
 6044SOL    HW119031   1.598   2.757   1.156
 6044SOL    HW219032   1.574   2.617   1.236
 6045SOL     OW19033   6.125   3.755   3.050
 6045SOL    HW119034   6.035   3.740   3.009
 6045SOL    HW219035   6.115   3.767   3.149
 6046SOL     OW19036   3.409   2.647   1.448
 6046SOL    HW119037   3.411   2.730   1.504
 6046SOL    HW219038   3.493   2.640   1.394
 6047SOL     OW19039   5.149   2.228   2.160
 6047SOL    HW119040   5.180   2.183   2.244
 6047SOL    HW219041   5.227   2.276   2.119
 6048SOL     OW19042   4.616   5.003   5.381
 6048SOL    HW119043   4.523   5.035   5.364
 6048SOL    HW219044   4.681   5.077   5.361
 6049SOL     OW19045   4.648   3.446   6.993
 6049SOL    HW119046   4.549   3.434   6.986
 6049SOL    HW219047   4.672   3.470   0.065
 6050SOL     OW19048   3.121   4.652   6.017
 6050SOL    HW119049   3.208   4.676   6.061
 6050SOL    HW219050   3.093   4.561   6.045
 6051SOL     OW19051   1.950   0.172   3.148
 6051SOL    HW119052   2.023   0.222   3.102
 6051SOL    HW219053   1.881   0.145   3.081
 6052SOL     OW19054   5.507   1.212   0.984
 6052SOL    HW119055   5.413   1.224   1.015
 6052SOL    HW219056   5.508   1.192   0.887
 6053SOL     OW19057   4.482   1.395   6.209
 6053SOL    HW119058   4.563   1.426   6.259
 6053SOL    HW219059   4.487   1.428   6.114
 6054SOL     OW19060   2.699   3.224   0.249
 6054SOL    HW119061   2.773   3.182   0.197
 6054SOL    HW219062   2.615   3.172   0.234
 6055SOL     OW19063   5.273   0.069   5.377
 6055SOL    HW119064   5.278   0.102   5.472
 6055SOL    HW219065   5.294   0.144   5.314
 6056SOL     OW19066   4.829   3.213   5.109
 6056SOL    HW119067   4.779   3.266   5.177
 6056SOL    HW219068   4.854   3.272   5.032
 6057SOL     OW19069   6.962   1.138   2.278
 6057SOL    HW119070   6.897   1.209   2.306
 6057SOL    HW219071   0.033   1.175   2.281
 6058SOL     OW19072   4.996   3.767   1.290
 6058SOL    HW119073   5.024   3.685   1.339
 6058SOL    HW219074   4.923   3.813   1.340
 6059SOL     OW19075   4.830   5.572   6.259
 6059SOL    HW119076   4.888   5.497   6.291
 6059SOL    HW219077   4.734   5.543   6.262
 6060SOL     OW19078   2.914   3.287   6.079
 6060SOL    HW119079   2.997   3.233   6.092
 6060SOL    HW219080   2.839   3.227   6.051
 6061SOL     OW19081   5.082   3.449   0.708
 6061SOL    HW119082   5.128   3.388   0.773
 6061SOL    HW219083   5.010   3.500   0.754
 6062SOL     OW19084   2.451   1.489   5.810
 6062SOL    HW119085   2.373   1.542   5.776
 6062SOL    HW219086   2.535   1.524   5.771
 6063SOL     OW19087   4.607   2.217   6.488
 6063SOL    HW119088   4.588   2.145   6.421
 6063SOL    HW219089   4.552   2.297   6.468
 6064SOL     OW19090   1.002   0.487   1.408
 6064SOL    HW119091   0.949   0.479   1.323
 6064SOL    HW219092   1.007   0.583   1.435
 6065SOL     OW19093   0.976   6.093   3.078
 6065SOL    HW119094   0.941   6.003   3.104
 6065SOL    HW219095   1.050   6.118   3.140
 6066SOL     OW19096   5.277   1.926   5.276
 6066SOL    HW119097   5.304   1.831   5.261
 6066SOL    HW219098   5.358   1.985   5.271
 6067SOL     OW19099   5.403   0.753   5.938
 6067SOL    HW119100   5.315   0.767   5.983
 6067SOL    HW219101   5.477   0.788   5.997
 6068SOL     OW19102   4.790   2.803   4.698
 6068SOL    HW119103   4.707   2.759   4.731
 6068SOL    HW219104   4.782   2.902   4.708
 6069SOL     OW19105   5.793   2.950   4.960
 6069SOL    HW119106   5.790   2.909   4.870
 6069SOL    HW219107   5.789   3.050   4.951
 6070SOL     OW19108   2.954   2.012   1.676
 6070SOL    HW119109   2.990   1.950   1.606
 6070SOL    HW219110   3.021   2.085   1.692
 6071SOL     OW19111   6.577   5.686   5.461
 6071SOL    HW119112   6.623   5.775   5.455
 6071SOL    HW219113   6.490   5.697   5.509
 6072SOL     OW19114   0.076   0.159   1.869
 6072SOL    HW119115   0.029   0.199   1.791
 6072SOL    HW219116   0.129   0.080   1.839
 6073SOL     OW19117   5.597   3.088   0.712
 6073SOL    HW119118   5.568   3.137   0.794
 6073SOL    HW219119   5.553   3.127   0.632
 6074SOL     OW19120   1.180   5.718   2.203
 6074SOL    HW119121   1.194   5.621   2.224
 6074SOL    HW219122   1.209   5.736   2.109
 6075SOL     OW19123   4.824   0.194   5.895
 6075SOL    HW119124   4.834   0.102   5.856
 6075SOL    HW219125   4.735   0.231   5.871
 6076SOL     OW19126   3.376   5.529   3.270
 6076SOL    HW119127   3.440   5.543   3.195
 6076SOL    HW219128   3.426   5.516   3.356
 6077SOL     OW19129   6.416   5.084   1.329
 6077SOL    HW119130   6.409   5.171   1.279
 6077SOL    HW219131   6.507   5.076   1.369
 6078SOL     OW19132   4.995   5.364   0.558
 6078SOL    HW119133   4.998   5.313   0.645
 6078SOL    HW219134   5.014   5.301   0.483
 6079SOL     OW19135   4.833   3.658   5.569
 6079SOL    HW119136   4.868   3.564   5.563
 6079SOL    HW219137   4.843   3.692   5.662
 6080SOL     OW19138   0.071   6.228   0.794
 6080SOL    HW119139   0.113   6.302   0.846
 6080SOL    HW219140   0.141   6.163   0.764
 6081SOL     OW19141   6.903   2.715   4.986
 6081SOL    HW119142   6.972   2.654   4.946
 6081SOL    HW219143   6.889   2.794   4.926
 6082SOL     OW19144   2.687   0.128   3.204
 6082SOL    HW119145   2.720   0.034   3.212
 6082SOL    HW219146   2.732   0.186   3.271
 6083SOL     OW19147   6.172   6.130   0.379
 6083SOL    HW119148   6.265   6.140   0.344
 6083SOL    HW219149   6.116   6.207   0.346
 6084SOL     OW19150   1.045   6.674   3.042
 6084SOL    HW119151   1.033   6.609   3.117
 6084SOL    HW219152   1.059   6.765   3.079
 6085SOL     OW19153   0.247   6.853   0.224
 6085SOL    HW119154   0.218   6.882   0.133
 6085SOL    HW219155   0.304   6.771   0.217
 6086SOL     OW19156   3.135   1.400   5.759
 6086SOL    HW119157   3.044   1.364   5.783
 6086SOL    HW219158   3.125   1.488   5.713
 6087SOL     OW19159   3.541   5.829   1.096
 6087SOL    HW119160   3.617   5.837   1.161
 6087SOL    HW219161   3.486   5.748   1.119
 6088SOL     OW19162   5.272   6.498   4.630
 6088SOL    HW119163   5.324   6.425   4.674
 6088SOL    HW219164   5.199   6.529   4.691
 6089SOL     OW19165   5.634   2.484   2.494
 6089SOL    HW119166   5.662   2.420   2.566
 6089SOL    HW219167   5.558   2.540   2.528
 6090SOL     OW19168   2.654   5.715   4.469
 6090SOL    HW119169   2.665   5.803   4.515
 6090SOL    HW219170   2.594   5.727   4.389
 6091SOL     OW19171   2.079   1.521   0.043
 6091SOL    HW119172   2.061   1.616   0.017
 6091SOL    HW219173   1.992   1.473   0.055
 6092SOL     OW19174   4.370   0.629   2.699
 6092SOL    HW119175   4.344   0.536   2.726
 6092SOL    HW219176   4.298   0.667   2.641
 6093SOL     OW19177   2.167   3.139   1.892
 6093SOL    HW119178   2.101   3.165   1.963
 6093SOL    HW219179   2.173   3.212   1.824
 6094SOL     OW19180   1.656   5.875   2.659
 6094SOL    HW119181   1.633   5.832   2.746
 6094SOL    HW219182   1.592   5.950   2.642
 6095SOL     OW19183   5.226   4.592   0.355
 6095SOL    HW119184   5.262   4.675   0.311
 6095SOL    HW219185   5.270   4.580   0.444
 6096SOL     OW19186   6.036   7.015   3.734
 6096SOL    HW119187   6.107   0.030   3.673
 6096SOL    HW219188   6.040   6.915   3.731
 6097SOL     OW19189   1.882   5.543   2.005
 6097SOL    HW119190   1.787   5.561   2.029
 6097SOL    HW219191   1.920   5.476   2.070
 6098SOL     OW19192   0.638   1.504   5.348
 6098SOL    HW119193   0.580   1.433   5.309
 6098SOL    HW219194   0.713   1.461   5.399
 6099SOL     OW19195   5.573   6.256   6.928
 6099SOL    HW119196   5.584   6.162   6.960
 6099SOL    HW219197   5.636   6.273   6.852
 6100SOL     OW19198   5.551   6.142   1.347
 6100SOL    HW119199   5.628   6.166   1.287
 6100SOL    HW219200   5.551   6.202   1.427
 6101SOL     OW19201   6.988   2.909   3.407
 6101SOL    HW119202   6.949   2.950   3.325
 6101SOL    HW219203   6.923   2.917   3.482
 6102SOL     OW19204   3.466   5.883   3.243
 6102SOL    HW119205   3.461   5.974   3.202
 6102SOL    HW219206   3.387   5.829   3.214
 6103SOL     OW19207   6.169   1.724   1.958
 6103SOL    HW119208   6.211   1.693   2.043
 6103SOL    HW219209   6.108   1.801   1.977
 6104SOL     OW19210   5.362   0.433   5.645
 6104SOL    HW119211   5.416   0.434   5.561
 6104SOL    HW219212   5.267   0.415   5.622
 6105SOL     OW19213   3.226   5.987   6.827
 6105SOL    HW119214   3.310   6.016   6.783
 6105SOL    HW219215   3.161   5.954   6.758
 6106SOL     OW19216   1.232   4.665   6.231
 6106SOL    HW119217   1.190   4.673   6.140
 6106SOL    HW219218   1.161   4.653   6.299
 6107SOL     OW19219   4.511   6.113   4.925
 6107SOL    HW119220   4.594   6.112   4.870
 6107SOL    HW219221   4.509   6.031   4.983
 6108SOL     OW19222   2.171   2.877   2.034
 6108SOL    HW119223   2.072   2.885   2.019
 6108SOL    HW219224   2.213   2.968   2.027
 6109SOL     OW19225   5.781   1.856   4.965
 6109SOL    HW119226   5.869   1.809   4.956
 6109SOL    HW219227   5.730   1.817   5.042
 6110SOL     OW19228   3.068   3.998   0.871
 6110SOL    HW119229   3.021   3.937   0.935
 6110SOL    HW219230   3.051   3.969   0.777
 6111SOL     OW19231   1.431   3.218   2.704
 6111SOL    HW119232   1.523   3.202   2.670
 6111SOL    HW219233   1.373   3.250   2.629
 6112SOL     OW19234   2.747   7.013   2.907
 6112SOL    HW119235   2.810   6.937   2.926
 6112SOL    HW219236   2.655   6.987   2.935
 6113SOL     OW19237   3.266   2.666   6.125
 6113SOL    HW119238   3.257   2.655   6.224
 6113SOL    HW219239   3.358   2.699   6.104
 6114SOL     OW19240   5.187   4.730   2.210
 6114SOL    HW119241   5.088   4.741   2.195
 6114SOL    HW219242   5.213   4.780   2.293
 6115SOL     OW19243   5.909   0.629   4.202
 6115SOL    HW119244   5.968   0.560   4.244
 6115SOL    HW219245   5.943   0.650   4.110
 6116SOL     OW19246   4.854   1.393   6.095
 6116SOL    HW119247   4.844   1.360   6.189
 6116SOL    HW219248   4.947   1.372   6.062
 6117SOL     OW19249   1.578   1.334   3.581
 6117SOL    HW119250   1.514   1.261   3.558
 6117SOL    HW219251   1.593   1.336   3.680
 6118SOL     OW19252   6.778   0.892   1.282
 6118SOL    HW119253   6.729   0.872   1.197
 6118SOL    HW219254   6.822   0.981   1.275
 6119SOL     OW19255   0.710   3.765   0.049
 6119SOL    HW119256   0.707   3.864   0.066
 6119SOL    HW219257   0.675   3.747   6.979
 6120SOL     OW19258   3.738   6.456   5.572
 6120SOL    HW119259   3.705   6.546   5.602
 6120SOL    HW219260   3.799   6.418   5.641
 6121SOL     OW19261   0.667   3.629   5.096
 6121SOL    HW119262   0.687   3.568   5.172
 6121SOL    HW219263   0.716   3.598   5.015
 6122SOL     OW19264   4.311   5.428   0.604
 6122SOL    HW119265   4.369   5.350   0.627
 6122SOL    HW219266   4.271   5.414   0.514
 6123SOL     OW19267   5.328   0.103   6.265
 6123SOL    HW119268   5.326   0.189   6.315
 6123SOL    HW219269   5.252   0.100   6.200
 6124SOL     OW19270   1.410   6.872   5.732
 6124SOL    HW119271   1.481   6.813   5.772
 6124SOL    HW219272   1.418   6.964   5.770
 6125SOL     OW19273   2.503   4.203   0.200
 6125SOL    HW119274   2.529   4.146   0.278
 6125SOL    HW219275   2.411   4.179   0.170
 6126SOL     OW19276   0.686   0.536   4.219
 6126SOL    HW119277   0.639   0.557   4.133
 6126SOL    HW219278   0.776   0.578   4.219
 6127SOL     OW19279   3.120   6.919   1.095
 6127SOL    HW119280   3.051   6.942   1.164
 6127SOL    HW219281   3.209   6.952   1.126
 6128SOL     OW19282   6.288   4.181   0.515
 6128SOL    HW119283   6.383   4.152   0.499
 6128SOL    HW219284   6.268   4.262   0.461
 6129SOL     OW19285   0.009   3.663   2.249
 6129SOL    HW119286   6.988   3.587   2.201
 6129SOL    HW219287   7.001   3.750   2.209
 6130SOL     OW19288   5.613   2.855   2.509
 6130SOL    HW119289   5.681   2.836   2.438
 6130SOL    HW219290   5.521   2.835   2.473
 6131SOL     OW19291   0.574   1.392   3.935
 6131SOL    HW119292   0.624   1.345   4.008
 6131SOL    HW219293   0.494   1.437   3.974
 6132SOL     OW19294   4.582   1.998   0.016
 6132SOL    HW119295   4.674   1.961   0.033
 6132SOL    HW219296   4.550   1.966   6.949
 6133SOL     OW19297   2.129   3.221   3.075
 6133SOL    HW119298   2.036   3.202   3.106
 6133SOL    HW219299   2.192   3.154   3.114
 6134SOL     OW19300   4.181   5.157   6.850
 6134SOL    HW119301   4.105   5.216   6.821
 6134SOL    HW219302   4.244   5.210   6.906
 6135SOL     OW19303   6.992   0.161   0.247
 6135SOL    HW119304   6.930   0.239   0.239
 6135SOL    HW219305   6.938   0.078   0.261
 6136SOL     OW19306   1.165   3.177   2.062
 6136SOL    HW119307   1.221   3.170   2.145
 6136SOL    HW219308   1.224   3.173   1.981
 6137SOL     OW19309   6.451   3.867   2.073
 6137SOL    HW119310   6.369   3.914   2.039
 6137SOL    HW219311   6.526   3.880   2.007
 6138SOL     OW19312   3.661   6.766   2.663
 6138SOL    HW119313   3.733   6.804   2.722
 6138SOL    HW219314   3.593   6.721   2.720
 6139SOL     OW19315   1.686   6.740   5.878
 6139SOL    HW119316   1.703   6.822   5.824
 6139SOL    HW219317   1.629   6.676   5.825
 6140SOL     OW19318   0.911   7.004   2.051
 6140SOL    HW119319   0.990   7.015   1.990
 6140SOL    HW219320   0.900   6.907   2.073
 6141SOL     OW19321   0.668   6.956   6.476
 6141SOL    HW119322   0.712   0.013   6.434
 6141SOL    HW219323   0.660   6.970   6.575
 6142SOL     OW19324   0.430   6.151   6.471
 6142SOL    HW119325   0.368   6.105   6.407
 6142SOL    HW219326   0.485   6.217   6.420
 6143SOL     OW19327   6.543   3.107   0.916
 6143SOL    HW119328   6.546   3.010   0.943
 6143SOL    HW219329   6.625   3.129   0.863
 6144SOL     OW19330   4.892   5.029   4.431
 6144SOL    HW119331   4.917   4.965   4.359
 6144SOL    HW219332   4.831   5.098   4.395
 6145SOL     OW19333   5.388   4.956   4.523
 6145SOL    HW119334   5.461   4.981   4.459
 6145SOL    HW219335   5.338   4.878   4.486
 6146SOL     OW19336   3.152   5.438   3.902
 6146SOL    HW119337   3.251   5.437   3.919
 6146SOL    HW219338   3.110   5.512   3.953
 6147SOL     OW19339   2.253   1.986   4.697
 6147SOL    HW119340   2.330   2.008   4.757
 6147SOL    HW219341   2.202   2.069   4.676
 6148SOL     OW19342   4.901   7.018   5.232
 6148SOL    HW119343   4.838   6.941   5.219
 6148SOL    HW219344   4.990   6.983   5.263
 6149SOL     OW19345   2.667   6.548   1.261
 6149SOL    HW119346   2.609   6.548   1.179
 6149SOL    HW219347   2.694   6.454   1.282
 6150SOL     OW19348   5.599   5.374   0.806
 6150SOL    HW119349   5.658   5.402   0.882
 6150SOL    HW219350   5.651   5.313   0.745
 6151SOL     OW19351   6.236   5.099   6.237
 6151SOL    HW119352   6.262   5.195   6.229
 6151SOL    HW219353   6.297   5.043   6.180
 6152SOL     OW19354   6.608   5.645   4.816
 6152SOL    HW119355   6.608   5.652   4.916
 6152SOL    HW219356   6.699   5.617   4.785
 6153SOL     OW19357   5.281   4.655   1.168
 6153SOL    HW119358   5.358   4.599   1.199
 6153SOL    HW219359   5.297   4.686   1.074
 6154SOL     OW19360   6.373   2.447   2.701
 6154SOL    HW119361   6.280   2.411   2.696
 6154SOL    HW219362   6.373   2.542   2.668
 6155SOL     OW19363   1.751   1.421   3.073
 6155SOL    HW119364   1.709   1.507   3.102
 6155SOL    HW219365   1.683   1.366   3.025
 6156SOL     OW19366   4.228   4.673   2.181
 6156SOL    HW119367   4.267   4.633   2.098
 6156SOL    HW219368   4.300   4.689   2.247
 6157SOL     OW19369   6.933   2.063   4.687
 6157SOL    HW119370   6.838   2.093   4.681
 6157SOL    HW219371   6.987   2.109   4.617
 6158SOL     OW19372   3.618   2.182   6.421
 6158SOL    HW119373   3.553   2.243   6.376
 6158SOL    HW219374   3.646   2.110   6.357
 6159SOL     OW19375   4.483   1.971   1.543
 6159SOL    HW119376   4.548   1.899   1.521
 6159SOL    HW219377   4.409   1.934   1.599
 6160SOL     OW19378   5.340   1.241   6.795
 6160SOL    HW119379   5.250   1.214   6.830
 6160SOL    HW219380   5.406   1.243   6.871
 6161SOL     OW19381   5.593   1.616   5.694
 6161SOL    HW119382   5.596   1.524   5.656
 6161SOL    HW219383   5.531   1.673   5.641
 6162SOL     OW19384   6.842   6.213   3.610
 6162SOL    HW119385   6.856   6.206   3.512
 6162SOL    HW219386   6.845   6.309   3.638
 6163SOL     OW19387   6.052   6.538   1.477
 6163SOL    HW119388   6.063   6.564   1.381
 6163SOL    HW219389   6.142   6.539   1.522
 6164SOL     OW19390   3.303   3.809   3.725
 6164SOL    HW119391   3.360   3.773   3.799
 6164SOL    HW219392   3.268   3.899   3.751
 6165SOL     OW19393   4.751   1.730   6.777
 6165SOL    HW119394   4.728   1.637   6.749
 6165SOL    HW219395   4.833   1.729   6.834
 6166SOL     OW19396   5.780   1.871   6.360
 6166SOL    HW119397   5.868   1.837   6.394
 6166SOL    HW219398   5.766   1.839   6.266
 6167SOL     OW19399   1.175   5.036   3.029
 6167SOL    HW119400   1.099   4.985   2.989
 6167SOL    HW219401   1.261   5.008   2.986
 6168SOL     OW19402   1.719   3.370   2.605
 6168SOL    HW119403   1.638   3.421   2.573
 6168SOL    HW219404   1.702   3.272   2.596
 6169SOL     OW19405   1.232   2.106   6.973
 6169SOL    HW119406   1.288   2.078   0.028
 6169SOL    HW219407   1.153   2.046   6.965
 6170SOL     OW19408   2.280   4.173   5.335
 6170SOL    HW119409   2.304   4.096   5.276
 6170SOL    HW219410   2.183   4.170   5.356
 6171SOL     OW19411   1.891   3.603   1.269
 6171SOL    HW119412   1.869   3.555   1.184
 6171SOL    HW219413   1.982   3.575   1.299
 6172SOL     OW19414   1.992   1.557   3.161
 6172SOL    HW119415   2.075   1.542   3.109
 6172SOL    HW219416   1.934   1.475   3.155
 6173SOL     OW19417   6.081   5.704   2.123
 6173SOL    HW119418   6.122   5.783   2.170
 6173SOL    HW219419   5.988   5.690   2.156
 6174SOL     OW19420   5.162   5.107   3.713
 6174SOL    HW119421   5.136   5.158   3.630
 6174SOL    HW219422   5.080   5.070   3.756
 6175SOL     OW19423   4.677   0.616   3.627
 6175SOL    HW119424   4.593   0.591   3.580
 6175SOL    HW219425   4.654   0.652   3.718
 6176SOL     OW19426   5.668   3.186   6.332
 6176SOL    HW119427   5.708   3.276   6.350
 6176SOL    HW219428   5.571   3.188   6.354
 6177SOL     OW19429   5.427   0.776   0.778
 6177SOL    HW119430   5.507   0.719   0.797
 6177SOL    HW219431   5.411   0.779   0.679
 6178SOL     OW19432   4.713   4.861   3.167
 6178SOL    HW119433   4.644   4.919   3.126
 6178SOL    HW219434   4.729   4.781   3.109
 6179SOL     OW19435   6.832   4.866   4.346
 6179SOL    HW119436   6.844   4.876   4.445
 6179SOL    HW219437   6.771   4.938   4.313
 6180SOL     OW19438   4.089   4.646   0.056
 6180SOL    HW119439   4.123   4.570   0.001
 6180SOL    HW219440   4.154   4.721   0.054
 6181SOL     OW19441   3.696   6.709   0.711
 6181SOL    HW119442   3.627   6.780   0.696
 6181SOL    HW219443   3.670   6.653   0.790
 6182SOL     OW19444   5.365   3.365   5.637
 6182SOL    HW119445   5.278   3.370   5.589
 6182SOL    HW219446   5.416   3.284   5.606
 6183SOL     OW19447   2.208   1.306   3.196
 6183SOL    HW119448   2.287   1.363   3.174
 6183SOL    HW219449   2.169   1.335   3.283
 6184SOL     OW19450   2.160   6.716   5.925
 6184SOL    HW119451   2.252   6.740   5.956
 6184SOL    HW219452   2.121   6.648   5.987
 6185SOL     OW19453   0.017   4.254   6.604
 6185SOL    HW119454   7.009   4.264   6.509
 6185SOL    HW219455   0.108   4.295   6.614
 6186SOL     OW19456   6.656   6.769   5.833
 6186SOL    HW119457   6.575   6.712   5.827
 6186SOL    HW219458   6.684   6.777   5.929
 6187SOL     OW19459   4.475   4.910   3.035
 6187SOL    HW119460   4.491   4.984   2.970
 6187SOL    HW219461   4.385   4.923   3.079
 6188SOL     OW19462   2.255   0.031   0.904
 6188SOL    HW119463   2.330   0.064   0.961
 6188SOL    HW219464   2.261   0.072   0.813
 6189SOL     OW19465   5.110   4.184   3.929
 6189SOL    HW119466   5.178   4.177   3.856
 6189SOL    HW219467   5.042   4.254   3.906
 6190SOL     OW19468   0.378   3.683   5.467
 6190SOL    HW119469   0.472   3.685   5.501
 6190SOL    HW219470   0.376   3.644   5.375
 6191SOL     OW19471   3.783   1.910   6.999
 6191SOL    HW119472   3.788   2.004   6.966
 6191SOL    HW219473   3.875   1.870   7.001
 6192SOL     OW19474   3.936   2.532   6.550
 6192SOL    HW119475   3.949   2.467   6.625
 6192SOL    HW219476   4.017   2.532   6.492
 6193SOL     OW19477   4.903   1.308   2.382
 6193SOL    HW119478   4.829   1.282   2.444
 6193SOL    HW219479   4.918   1.235   2.315
 6194SOL     OW19480   1.530   0.224   0.908
 6194SOL    HW119481   1.507   0.127   0.919
 6194SOL    HW219482   1.451   0.274   0.874
 6195SOL     OW19483   4.709   6.632   5.404
 6195SOL    HW119484   4.789   6.600   5.455
 6195SOL    HW219485   4.671   6.556   5.351
 6196SOL     OW19486   5.799   2.482   1.736
 6196SOL    HW119487   5.831   2.487   1.641
 6196SOL    HW219488   5.835   2.399   1.778
 6197SOL     OW19489   4.506   4.589   0.901
 6197SOL    HW119490   4.592   4.577   0.851
 6197SOL    HW219491   4.431   4.599   0.835
 6198SOL     OW19492   4.074   6.276   2.238
 6198SOL    HW119493   4.129   6.203   2.199
 6198SOL    HW219494   3.992   6.237   2.280
 6199SOL     OW19495   1.114   0.745   1.021
 6199SOL    HW119496   1.119   0.844   1.035
 6199SOL    HW219497   1.040   0.725   0.956
 6200SOL     OW19498   1.430   1.203   5.554
 6200SOL    HW119499   1.450   1.217   5.651
 6200SOL    HW219500   1.513   1.170   5.508
 6201SOL     OW19501   0.901   3.369   5.609
 6201SOL    HW119502   0.802   3.379   5.606
 6201SOL    HW219503   0.927   3.315   5.689
 6202SOL     OW19504   3.749   1.839   2.412
 6202SOL    HW119505   3.814   1.850   2.487
 6202SOL    HW219506   3.666   1.795   2.446
 6203SOL     OW19507   6.930   6.363   2.964
 6203SOL    HW119508   6.848   6.363   3.022
 6203SOL    HW219509   6.982   6.446   2.982
 6204SOL     OW19510   0.672   5.514   4.970
 6204SOL    HW119511   0.765   5.493   4.937
 6204SOL    HW219512   0.617   5.549   4.894
 6205SOL     OW19513   6.074   6.257   0.806
 6205SOL    HW119514   6.133   6.319   0.859
 6205SOL    HW219515   6.043   6.182   0.865
 6206SOL     OW19516   0.128   1.255   3.315
 6206SOL    HW119517   0.191   1.251   3.393
 6206SOL    HW219518   0.034   1.247   3.347
 6207SOL     OW19519   1.380   4.907   5.111
 6207SOL    HW119520   1.345   4.840   5.045
 6207SOL    HW219521   1.313   4.981   5.121
 6208SOL     OW19522   5.835   1.603   6.114
 6208SOL    HW119523   5.850   1.541   6.191
 6208SOL    HW219524   5.909   1.592   6.048
 6209SOL     OW19525   4.547   5.731   7.022
 6209SOL    HW119526   4.543   5.712   6.924
 6209SOL    HW219527   4.459   5.769   0.030
 6210SOL     OW19528   5.170   3.418   3.213
 6210SOL    HW119529   5.208   3.331   3.247
 6210SOL    HW219530   5.200   3.493   3.271
 6211SOL     OW19531   3.172   6.158   5.287
 6211SOL    HW119532   3.200   6.209   5.368
 6211SOL    HW219533   3.084   6.114   5.305
 6212SOL     OW19534   1.630   5.356   3.936
 6212SOL    HW119535   1.655   5.407   3.854
 6212SOL    HW219536   1.702   5.291   3.959
 6213SOL     OW19537   5.812   0.317   0.171
 6213SOL    HW119538   5.785   0.224   0.198
 6213SOL    HW219539   5.909   0.317   0.147
 6214SOL     OW19540   5.247   4.748   4.432
 6214SOL    HW119541   5.212   4.714   4.519
 6214SOL    HW219542   5.177   4.736   4.361
 6215SOL     OW19543   4.203   1.269   0.503
 6215SOL    HW119544   4.157   1.190   0.461
 6215SOL    HW219545   4.207   1.256   0.602
 6216SOL     OW19546   5.775   1.496   2.095
 6216SOL    HW119547   5.840   1.469   2.024
 6216SOL    HW219548   5.811   1.472   2.185
 6217SOL     OW19549   0.112   3.823   2.624
 6217SOL    HW119550   0.100   3.877   2.541
 6217SOL    HW219551   0.035   3.760   2.634
 6218SOL     OW19552   3.873   5.805   6.071
 6218SOL    HW119553   3.881   5.884   6.132
 6218SOL    HW219554   3.861   5.723   6.126
 6219SOL     OW19555   0.726   2.868   4.303
 6219SOL    HW119556   0.820   2.851   4.275
 6219SOL    HW219557   0.713   2.836   4.397
 6220SOL     OW19558   1.819   2.067   5.377
 6220SOL    HW119559   1.724   2.076   5.408
 6220SOL    HW219560   1.820   2.047   5.280
 6221SOL     OW19561   5.709   5.466   6.868
 6221SOL    HW119562   5.649   5.389   6.889
 6221SOL    HW219563   5.773   5.481   6.943
 6222SOL     OW19564   0.581   6.896   1.735
 6222SOL    HW119565   0.597   6.994   1.726
 6222SOL    HW219566   0.666   6.846   1.715
 6223SOL     OW19567   0.628   5.156   4.295
 6223SOL    HW119568   0.563   5.081   4.282
 6223SOL    HW219569   0.582   5.243   4.281
 6224SOL     OW19570   2.605   1.954   6.207
 6224SOL    HW119571   2.654   2.036   6.238
 6224SOL    HW219572   2.670   1.894   6.159
 6225SOL     OW19573   3.642   4.018   6.584
 6225SOL    HW119574   3.597   4.108   6.588
 6225SOL    HW219575   3.624   3.976   6.496
 6226SOL     OW19576   6.781   1.618   5.026
 6226SOL    HW119577   6.728   1.638   5.108
 6226SOL    HW219578   6.877   1.643   5.041
 6227SOL     OW19579   3.815   5.765   5.240
 6227SOL    HW119580   3.750   5.836   5.213
 6227SOL    HW219581   3.896   5.769   5.181
 6228SOL     OW19582   1.339   2.507   2.976
 6228SOL    HW119583   1.347   2.438   2.904
 6228SOL    HW219584   1.322   2.462   3.063
 6229SOL     OW19585   0.374   2.146   2.960
 6229SOL    HW119586   0.275   2.136   2.975
 6229SOL    HW219587   0.424   2.097   3.031
 6230SOL     OW19588   0.989   1.789   3.593
 6230SOL    HW119589   0.892   1.769   3.577
 6230SOL    HW219590   1.032   1.713   3.641
 6231SOL     OW19591   6.255   5.944   1.421
 6231SOL    HW119592   6.218   6.034   1.447
 6231SOL    HW219593   6.217   5.874   1.482
 6232SOL     OW19594   6.833   0.332   1.034
 6232SOL    HW119595   6.816   0.383   0.949
 6232SOL    HW219596   6.869   0.394   1.103
 6233SOL     OW19597   6.947   0.933   0.941
 6233SOL    HW119598   7.013   0.861   0.966
 6233SOL    HW219599   6.855   0.902   0.964
 6234SOL     OW19600   6.227   1.166   5.734
 6234SOL    HW119601   6.281   1.231   5.680
 6234SOL    HW219602   6.288   1.096   5.772
 6235SOL     OW19603   0.901   6.622   1.265
 6235SOL    HW119604   0.850   6.586   1.343
 6235SOL    HW219605   0.908   6.552   1.194
 6236SOL     OW19606   0.525   3.763   0.659
 6236SOL    HW119607   0.570   3.749   0.571
 6236SOL    HW219608   0.486   3.855   0.663
 6237SOL     OW19609   3.433   0.066   6.406
 6237SOL    HW119610   3.418   0.102   6.498
 6237SOL    HW219611   3.375   7.008   6.392
 6238SOL     OW19612   3.838   4.851   2.615
 6238SOL    HW119613   3.907   4.838   2.544
 6238SOL    HW219614   3.820   4.764   2.661
 6239SOL     OW19615   2.258   0.448   1.817
 6239SOL    HW119616   2.207   0.428   1.733
 6239SOL    HW219617   2.198   0.440   1.896
 6240SOL     OW19618   2.026   2.964   5.461
 6240SOL    HW119619   1.966   2.982   5.540
 6240SOL    HW219620   2.111   3.015   5.472
 6241SOL     OW19621   3.680   7.007   1.814
 6241SOL    HW119622   3.591   0.016   1.782
 6241SOL    HW219623   3.680   7.004   1.914
 6242SOL     OW19624   4.751   0.302   3.931
 6242SOL    HW119625   4.829   0.313   3.869
 6242SOL    HW219626   4.667   0.293   3.878
 6243SOL     OW19627   6.330   6.430   4.102
 6243SOL    HW119628   6.247   6.479   4.074
 6243SOL    HW219629   6.377   6.397   4.020
 6244SOL     OW19630   7.021   2.430   1.397
 6244SOL    HW119631   0.063   2.424   1.472
 6244SOL    HW219632   6.981   2.522   1.394
 6245SOL     OW19633   1.585   4.160   0.483
 6245SOL    HW119634   1.578   4.221   0.563
 6245SOL    HW219635   1.679   4.127   0.474
 6246SOL     OW19636   2.257   2.183   5.711
 6246SOL    HW119637   2.333   2.209   5.651
 6246SOL    HW219638   2.244   2.084   5.707
 6247SOL     OW19639   0.540   6.097   4.712
 6247SOL    HW119640   0.582   6.107   4.622
 6247SOL    HW219641   0.494   6.183   4.736
 6248SOL     OW19642   3.787   3.037   0.537
 6248SOL    HW119643   3.822   3.043   0.630
 6248SOL    HW219644   3.843   2.974   0.484
 6249SOL     OW19645   0.846   4.116   0.781
 6249SOL    HW119646   0.752   4.113   0.814
 6249SOL    HW219647   0.877   4.023   0.761
 6250SOL     OW19648   6.986   6.740   0.149
 6250SOL    HW119649   7.008   6.660   0.205
 6250SOL    HW219650   6.943   6.810   0.206
 6251SOL     OW19651   4.292   5.532   6.287
 6251SOL    HW119652   4.366   5.499   6.345
 6251SOL    HW219653   4.253   5.454   6.237
 6252SOL     OW19654   1.692   6.107   5.313
 6252SOL    HW119655   1.666   6.182   5.374
 6252SOL    HW219656   1.611   6.073   5.266
 6253SOL     OW19657   2.455   4.547   3.346
 6253SOL    HW119658   2.385   4.539   3.274
 6253SOL    HW219659   2.523   4.615   3.319
 6254SOL     OW19660   5.301   1.586   1.462
 6254SOL    HW119661   5.213   1.610   1.502
 6254SOL    HW219662   5.297   1.597   1.363
 6255SOL     OW19663   3.300   0.488   1.126
 6255SOL    HW119664   3.321   0.584   1.106
 6255SOL    HW219665   3.208   0.466   1.093
 6256SOL     OW19666   3.210   5.291   1.788
 6256SOL    HW119667   3.224   5.357   1.714
 6256SOL    HW219668   3.203   5.199   1.750
 6257SOL     OW19669   4.845   2.011   1.102
 6257SOL    HW119670   4.889   2.101   1.099
 6257SOL    HW219671   4.795   1.995   1.016
 6258SOL     OW19672   3.745   0.087   3.766
 6258SOL    HW119673   3.789   0.159   3.819
 6258SOL    HW219674   3.669   0.049   3.819
 6259SOL     OW19675   2.276   2.479   0.104
 6259SOL    HW119676   2.278   2.518   0.012
 6259SOL    HW219677   2.241   2.546   0.168
 6260SOL     OW19678   3.204   5.496   0.008
 6260SOL    HW119679   3.226   5.582   6.985
 6260SOL    HW219680   3.264   5.424   6.996
 6261SOL     OW19681   3.437   1.258   6.677
 6261SOL    HW119682   3.384   1.174   6.669
 6261SOL    HW219683   3.408   1.309   6.757
 6262SOL     OW19684   2.698   6.292   1.284
 6262SOL    HW119685   2.641   6.248   1.214
 6262SOL    HW219686   2.733   6.223   1.347
 6263SOL     OW19687   6.539   0.874   5.526
 6263SOL    HW119688   6.569   0.955   5.476
 6263SOL    HW219689   6.570   0.792   5.478
 6264SOL     OW19690   1.494   0.078   2.347
 6264SOL    HW119691   1.565   0.058   2.415
 6264SOL    HW219692   1.483   0.177   2.338
 6265SOL     OW19693   3.792   3.498   0.172
 6265SOL    HW119694   3.823   3.576   0.118
 6265SOL    HW219695   3.751   3.529   0.257
 6266SOL     OW19696   4.053   1.128   4.767
 6266SOL    HW119697   3.976   1.169   4.815
 6266SOL    HW219698   4.100   1.198   4.713
 6267SOL     OW19699   2.314   0.029   6.322
 6267SOL    HW119700   2.269   0.070   6.402
 6267SOL    HW219701   2.331   6.955   6.340
 6268SOL     OW19702   2.452   0.118   3.407
 6268SOL    HW119703   2.494   0.207   3.419
 6268SOL    HW219704   2.386   0.122   3.332
 6269SOL     OW19705   6.704   6.397   1.916
 6269SOL    HW119706   6.785   6.342   1.937
 6269SOL    HW219707   6.627   6.336   1.894
 6270SOL     OW19708   1.707   0.083   5.591
 6270SOL    HW119709   1.720   0.153   5.520
 6270SOL    HW219710   1.689   0.128   5.678
 6271SOL     OW19711   6.758   2.195   6.526
 6271SOL    HW119712   6.840   2.246   6.550
 6271SOL    HW219713   6.692   2.200   6.601
 6272SOL     OW19714   0.501   2.824   0.030
 6272SOL    HW119715   0.449   2.797   6.972
 6272SOL    HW219716   0.475   2.766   0.108
 6273SOL     OW19717   1.011   6.495   2.545
 6273SOL    HW119718   1.104   6.529   2.530
 6273SOL    HW219719   0.954   6.518   2.466
 6274SOL     OW19720   3.129   5.520   5.726
 6274SOL    HW119721   3.186   5.470   5.792
 6274SOL    HW219722   3.088   5.455   5.662
 6275SOL     OW19723   2.303   6.375   6.444
 6275SOL    HW119724   2.395   6.377   6.406
 6275SOL    HW219725   2.256   6.292   6.413
 6276SOL     OW19726   1.559   4.109   3.280
 6276SOL    HW119727   1.478   4.144   3.234
 6276SOL    HW219728   1.534   4.076   3.371
 6277SOL     OW19729   5.320   3.828   2.240
 6277SOL    HW119730   5.394   3.886   2.207
 6277SOL    HW219731   5.300   3.850   2.336
 6278SOL     OW19732   4.959   5.972   4.807
 6278SOL    HW119733   5.030   5.990   4.876
 6278SOL    HW219734   4.975   5.883   4.764
 6279SOL     OW19735   3.814   7.020   6.708
 6279SOL    HW119736   3.819   6.967   6.793
 6279SOL    HW219737   3.823   6.959   6.630
 6280SOL     OW19738   1.000   2.118   5.177
 6280SOL    HW119739   1.012   2.214   5.151
 6280SOL    HW219740   0.999   2.062   5.094
 6281SOL     OW19741   0.984   5.241   4.008
 6281SOL    HW119742   0.900   5.271   3.963
 6281SOL    HW219743   0.968   5.234   4.106
 6282SOL     OW19744   0.618   6.430   5.365
 6282SOL    HW119745   0.528   6.428   5.321
 6282SOL    HW219746   0.682   6.481   5.306
 6283SOL     OW19747   6.005   3.336   5.178
 6283SOL    HW119748   6.003   3.399   5.257
 6283SOL    HW219749   6.064   3.374   5.107
 6284SOL     OW19750   0.907   5.428   4.869
 6284SOL    HW119751   0.893   5.385   4.780
 6284SOL    HW219752   0.987   5.489   4.864
 6285SOL     OW19753   0.425   3.498   4.912
 6285SOL    HW119754   0.475   3.543   4.986
 6285SOL    HW219755   0.374   3.420   4.949
 6286SOL     OW19756   5.881   1.558   3.610
 6286SOL    HW119757   5.937   1.477   3.626
 6286SOL    HW219758   5.903   1.628   3.678
 6287SOL     OW19759   3.776   4.920   4.310
 6287SOL    HW119760   3.853   4.921   4.246
 6287SOL    HW219761   3.692   4.897   4.261
 6288SOL     OW19762   4.911   4.361   3.058
 6288SOL    HW119763   4.991   4.302   3.066
 6288SOL    HW219764   4.929   4.449   3.102
 6289SOL     OW19765   2.195   4.751   1.045
 6289SOL    HW119766   2.099   4.775   1.065
 6289SOL    HW219767   2.254   4.786   1.118
 6290SOL     OW19768   6.713   4.896   5.588
 6290SOL    HW119769   6.624   4.928   5.555
 6290SOL    HW219770   6.721   4.914   5.685
 6291SOL     OW19771   4.108   3.504   4.661
 6291SOL    HW119772   4.162   3.498   4.746
 6291SOL    HW219773   4.106   3.415   4.617
 6292SOL     OW19774   1.579   2.101   4.405
 6292SOL    HW119775   1.619   2.186   4.370
 6292SOL    HW219776   1.580   2.032   4.333
 6293SOL     OW19777   3.344   0.923   0.316
 6293SOL    HW119778   3.313   1.018   0.325
 6293SOL    HW219779   3.444   0.920   0.323
 6294SOL     OW19780   4.088   5.748   4.125
 6294SOL    HW119781   4.069   5.756   4.028
 6294SOL    HW219782   4.043   5.667   4.161
 6295SOL     OW19783   5.328   4.730   6.286
 6295SOL    HW119784   5.358   4.689   6.373
 6295SOL    HW219785   5.374   4.817   6.272
 6296SOL     OW19786   0.655   6.553   5.883
 6296SOL    HW119787   0.706   6.576   5.966
 6296SOL    HW219788   0.717   6.556   5.804
 6297SOL     OW19789   4.885   0.010   3.803
 6297SOL    HW119790   4.932   0.097   3.792
 6297SOL    HW219791   4.932   6.963   3.748
 6298SOL     OW19792   1.475   2.395   6.711
 6298SOL    HW119793   1.405   2.460   6.740
 6298SOL    HW219794   1.492   2.406   6.613
 6299SOL     OW19795   5.672   2.200   0.432
 6299SOL    HW119796   5.710   2.292   0.425
 6299SOL    HW219797   5.572   2.206   0.427
 6300SOL     OW19798   6.013   0.587   0.475
 6300SOL    HW119799   6.089   0.539   0.520
 6300SOL    HW219800   6.025   0.685   0.486
 6301SOL     OW19801   3.818   6.929   6.963
 6301SOL    HW119802   3.755   6.979   7.022
 6301SOL    HW219803   3.886   6.881   7.018
 6302SOL     OW19804   1.593   1.013   3.266
 6302SOL    HW119805   1.636   0.982   3.351
 6302SOL    HW219806   1.641   1.095   3.233
 6303SOL     OW19807   2.106   1.233   4.129
 6303SOL    HW119808   2.154   1.260   4.213
 6303SOL    HW219809   2.123   1.300   4.058
 6304SOL     OW19810   2.186   0.680   1.554
 6304SOL    HW119811   2.194   0.584   1.579
 6304SOL    HW219812   2.273   0.726   1.568
 6305SOL     OW19813   6.716   6.824   1.365
 6305SOL    HW119814   6.769   6.765   1.305
 6305SOL    HW219815   6.621   6.826   1.335
 6306SOL     OW19816   0.605   4.339   3.879
 6306SOL    HW119817   0.635   4.246   3.858
 6306SOL    HW219818   0.656   4.373   3.959
 6307SOL     OW19819   3.652   4.411   5.268
 6307SOL    HW119820   3.673   4.361   5.352
 6307SOL    HW219821   3.590   4.487   5.288
 6308SOL     OW19822   2.138   2.237   4.691
 6308SOL    HW119823   2.156   2.320   4.639
 6308SOL    HW219824   2.122   2.260   4.787
 6309SOL     OW19825   5.603   4.606   5.048
 6309SOL    HW119826   5.612   4.539   4.975
 6309SOL    HW219827   5.689   4.611   5.099
 6310SOL     OW19828   1.915   5.989   2.538
 6310SOL    HW119829   1.845   5.958   2.602
 6310SOL    HW219830   1.908   5.936   2.453
 6311SOL     OW19831   4.781   0.916   6.168
 6311SOL    HW119832   4.747   1.006   6.195
 6311SOL    HW219833   4.816   0.921   6.075
 6312SOL     OW19834   6.424   6.197   5.510
 6312SOL    HW119835   6.371   6.240   5.438
 6312SOL    HW219836   6.498   6.143   5.469
 6313SOL     OW19837   0.384   6.339   4.766
 6313SOL    HW119838   0.349   6.312   4.855
 6313SOL    HW219839   0.322   6.307   4.694
 6314SOL     OW19840   3.897   6.570   1.845
 6314SOL    HW119841   3.836   6.633   1.798
 6314SOL    HW219842   3.972   6.621   1.887
 6315SOL     OW19843   2.049   2.534   5.288
 6315SOL    HW119844   2.078   2.526   5.193
 6315SOL    HW219845   2.066   2.448   5.336
 6316SOL     OW19846   4.982   1.698   6.926
 6316SOL    HW119847   4.970   1.604   6.894
 6316SOL    HW219848   5.060   1.739   6.879
 6317SOL     OW19849   4.360   5.457   1.559
 6317SOL    HW119850   4.283   5.414   1.606
 6317SOL    HW219851   4.346   5.454   1.460
 6318SOL     OW19852   3.781   1.109   5.374
 6318SOL    HW119853   3.789   1.178   5.446
 6318SOL    HW219854   3.693   1.061   5.384
 6319SOL     OW19855   6.222   1.379   4.801
 6319SOL    HW119856   6.245   1.423   4.714
 6319SOL    HW219857   6.134   1.413   4.833
 6320SOL     OW19858   5.942   6.369   5.157
 6320SOL    HW119859   5.980   6.318   5.080
 6320SOL    HW219860   5.854   6.330   5.183
 6321SOL     OW19861   3.279   3.057   1.279
 6321SOL    HW119862   3.244   2.977   1.327
 6321SOL    HW219863   3.365   3.086   1.320
 6322SOL     OW19864   1.706   2.322   0.576
 6322SOL    HW119865   1.786   2.275   0.613
 6322SOL    HW219866   1.735   2.402   0.523
 6323SOL     OW19867   3.123   2.708   1.802
 6323SOL    HW119868   3.165   2.687   1.714
 6323SOL    HW219869   3.081   2.626   1.840
 6324SOL     OW19870   5.135   0.313   6.855
 6324SOL    HW119871   5.206   0.368   6.812
 6324SOL    HW219872   5.163   0.217   6.855
 6325SOL     OW19873   2.011   1.954   2.384
 6325SOL    HW119874   1.919   1.949   2.344
 6325SOL    HW219875   2.062   2.029   2.341
 6326SOL     OW19876   4.550   5.092   1.815
 6326SOL    HW119877   4.645   5.091   1.783
 6326SOL    HW219878   4.545   5.042   1.902
 6327SOL     OW19879   6.556   0.660   4.817
 6327SOL    HW119880   6.604   0.744   4.793
 6327SOL    HW219881   6.469   0.656   4.769
 6328SOL     OW19882   3.432   3.466   0.537
 6328SOL    HW119883   3.418   3.382   0.485
 6328SOL    HW219884   3.415   3.449   0.634
 6329SOL     OW19885   2.112   2.485   3.511
 6329SOL    HW119886   2.098   2.539   3.428
 6329SOL    HW219887   2.197   2.513   3.555
 6330SOL     OW19888   5.118   0.739   0.879
 6330SOL    HW119889   5.209   0.778   0.889
 6330SOL    HW219890   5.049   0.809   0.900
 6331SOL     OW19891   6.505   2.763   5.264
 6331SOL    HW119892   6.434   2.693   5.264
 6331SOL    HW219893   6.505   2.811   5.352
 6332SOL     OW19894   6.772   3.688   1.017
 6332SOL    HW119895   6.682   3.688   0.973
 6332SOL    HW219896   6.766   3.732   1.106
 6333SOL     OW19897   4.471   5.848   5.006
 6333SOL    HW119898   4.424   5.828   5.092
 6333SOL    HW219899   4.549   5.786   4.996
 6334SOL     OW19900   3.236   0.462   2.028
 6334SOL    HW119901   3.222   0.521   2.108
 6334SOL    HW219902   3.231   0.518   1.945
 6335SOL     OW19903   3.589   0.640   0.409
 6335SOL    HW119904   3.595   0.652   0.509
 6335SOL    HW219905   3.498   0.609   0.385
 6336SOL     OW19906   0.761   2.044   5.697
 6336SOL    HW119907   0.740   2.089   5.783
 6336SOL    HW219908   0.827   2.099   5.645
 6337SOL     OW19909   5.189   4.847   5.997
 6337SOL    HW119910   5.246   4.776   5.956
 6337SOL    HW219911   5.212   4.857   6.094
 6338SOL     OW19912   3.283   1.806   4.573
 6338SOL    HW119913   3.232   1.806   4.659
 6338SOL    HW219914   3.377   1.837   4.590
 6339SOL     OW19915   1.227   3.685   3.240
 6339SOL    HW119916   1.140   3.726   3.266
 6339SOL    HW219917   1.243   3.603   3.294
 6340SOL     OW19918   1.523   5.125   2.536
 6340SOL    HW119919   1.441   5.080   2.571
 6340SOL    HW219920   1.561   5.072   2.460
 6341SOL     OW19921   0.976   4.377   4.442
 6341SOL    HW119922   0.967   4.439   4.520
 6341SOL    HW219923   1.059   4.400   4.391
 6342SOL     OW19924   1.946   1.593   1.672
 6342SOL    HW119925   2.028   1.544   1.703
 6342SOL    HW219926   1.971   1.657   1.600
 6343SOL     OW19927   5.094   2.376   6.977
 6343SOL    HW119928   5.117   2.409   0.046
 6343SOL    HW219929   5.077   2.455   6.917
 6344SOL     OW19930   5.758   3.358   4.370
 6344SOL    HW119931   5.806   3.418   4.434
 6344SOL    HW219932   5.801   3.268   4.371
 6345SOL     OW19933   5.912   2.796   2.260
 6345SOL    HW119934   5.936   2.883   2.218
 6345SOL    HW219935   5.947   2.721   2.204
 6346SOL     OW19936   6.614   5.377   3.900
 6346SOL    HW119937   6.612   5.284   3.863
 6346SOL    HW219938   6.561   5.381   3.984
 6347SOL     OW19939   2.006   0.017   0.403
 6347SOL    HW119940   2.083   6.982   0.376
 6347SOL    HW219941   1.980   0.076   0.326
 6348SOL     OW19942   0.865   3.733   5.411
 6348SOL    HW119943   0.918   3.758   5.330
 6348SOL    HW219944   0.778   3.782   5.410
 6349SOL     OW19945   2.010   0.339   1.377
 6349SOL    HW119946   2.017   0.315   1.474
 6349SOL    HW219947   1.936   0.287   1.335
 6350SOL     OW19948   1.037   5.552   4.023
 6350SOL    HW119949   1.120   5.496   4.019
 6350SOL    HW219950   0.964   5.509   3.970
 6351SOL     OW19951   6.601   4.130   3.669
 6351SOL    HW119952   6.687   4.158   3.627
 6351SOL    HW219953   6.577   4.037   3.639
 6352SOL     OW19954   3.895   6.210   4.776
 6352SOL    HW119955   3.893   6.159   4.862
 6352SOL    HW219956   3.970   6.176   4.719
 6353SOL     OW19957   0.671   6.819   6.233
 6353SOL    HW119958   0.668   6.867   6.145
 6353SOL    HW219959   0.655   6.884   6.307
 6354SOL     OW19960   2.113   5.729   2.711
 6354SOL    HW119961   2.210   5.729   2.734
 6354SOL    HW219962   2.060   5.751   2.793
 6355SOL     OW19963   0.942   5.252   6.893
 6355SOL    HW119964   0.864   5.314   6.881
 6355SOL    HW219965   0.918   5.161   6.858
 6356SOL     OW19966   4.591   5.608   1.830
 6356SOL    HW119967   4.516   5.673   1.815
 6356SOL    HW219968   4.623   5.573   1.742
 6357SOL     OW19969   5.997   3.510   2.860
 6357SOL    HW119970   6.023   3.575   2.789
 6357SOL    HW219971   6.070   3.444   2.873
 6358SOL     OW19972   0.674   2.189   6.370
 6358SOL    HW119973   0.604   2.119   6.382
 6358SOL    HW219974   0.715   2.181   6.279
 6359SOL     OW19975   5.575   6.649   6.792
 6359SOL    HW119976   5.614   6.724   6.737
 6359SOL    HW219977   5.650   6.598   6.835
 6360SOL     OW19978   1.284   4.241   3.707
 6360SOL    HW119979   1.224   4.302   3.759
 6360SOL    HW219980   1.325   4.175   3.769
 6361SOL     OW19981   0.644   0.152   1.682
 6361SOL    HW119982   0.637   0.101   1.596
 6361SOL    HW219983   0.707   0.228   1.670
 6362SOL     OW19984   6.547   6.061   0.088
 6362SOL    HW119985   6.611   6.135   0.110
 6362SOL    HW219986   6.579   6.012   0.007
 6363SOL     OW19987   1.524   4.829   3.342
 6363SOL    HW119988   1.492   4.775   3.420
 6363SOL    HW219989   1.544   4.768   3.265
 6364SOL     OW19990   2.620   1.056   5.876
 6364SOL    HW119991   2.584   1.095   5.961
 6364SOL    HW219992   2.583   0.964   5.863
 6365SOL     OW19993   5.637   0.167   4.287
 6365SOL    HW119994   5.656   0.265   4.278
 6365SOL    HW219995   5.539   0.152   4.281
 6366SOL     OW19996   0.822   6.280   6.032
 6366SOL    HW119997   0.846   6.205   6.094
 6366SOL    HW219998   0.727   6.269   6.002
 6367SOL     OW19999   4.628   1.355   5.415
 6367SOL    HW120000   4.607   1.418   5.490
 6367SOL    HW220001   4.554   1.358   5.348
 6368SOL     OW20002   3.911   4.859   3.397
 6368SOL    HW120003   3.916   4.951   3.437
 6368SOL    HW220004   3.823   4.817   3.421
 6369SOL     OW20005   2.335   5.475   3.540
 6369SOL    HW120006   2.260   5.479   3.473
 6369SOL    HW220007   2.418   5.443   3.495
 6370SOL     OW20008   0.520   3.084   3.582
 6370SOL    HW120009   0.432   3.109   3.543
 6370SOL    HW220010   0.507   3.019   3.657
 6371SOL     OW20011   5.134   4.485   3.708
 6371SOL    HW120012   5.216   4.436   3.736
 6371SOL    HW220013   5.085   4.432   3.639
 6372SOL     OW20014   1.886   0.654   2.003
 6372SOL    HW120015   1.967   0.637   2.059
 6372SOL    HW220016   1.911   0.707   1.923
 6373SOL     OW20017   5.068   3.703   2.568
 6373SOL    HW120018   5.009   3.625   2.552
 6373SOL    HW220019   5.158   3.671   2.600
 6374SOL     OW20020   3.081   3.986   3.615
 6374SOL    HW120021   3.036   3.898   3.629
 6374SOL    HW220022   3.094   4.002   3.517
 6375SOL     OW20023   0.113   2.229   3.815
 6375SOL    HW120024   0.043   2.238   3.743
 6375SOL    HW220025   0.081   2.166   3.885
 6376SOL     OW20026   6.038   2.391   4.687
 6376SOL    HW120027   6.017   2.428   4.778
 6376SOL    HW220028   5.994   2.302   4.677
 6377SOL     OW20029   6.180   1.838   5.192
 6377SOL    HW120030   6.258   1.824   5.131
 6377SOL    HW220031   6.211   1.882   5.277
 6378SOL     OW20032   4.154   5.346   4.017
 6378SOL    HW120033   4.239   5.296   4.032
 6378SOL    HW220034   4.172   5.426   3.959
 6379SOL     OW20035   1.787   3.858   4.314
 6379SOL    HW120036   1.720   3.932   4.315
 6379SOL    HW220037   1.783   3.811   4.226
 6380SOL     OW20038   0.518   1.730   5.438
 6380SOL    HW120039   0.587   1.657   5.434
 6380SOL    HW220040   0.428   1.690   5.459
 6381SOL     OW20041   4.015   3.250   1.762
 6381SOL    HW120042   4.031   3.152   1.778
 6381SOL    HW220043   4.013   3.268   1.663
 6382SOL     OW20044   1.428   1.971   0.960
 6382SOL    HW120045   1.377   1.897   1.005
 6382SOL    HW220046   1.463   2.034   1.029
 6383SOL     OW20047   1.643   2.108   2.566
 6383SOL    HW120048   1.596   2.054   2.636
 6383SOL    HW220049   1.578   2.136   2.496
 6384SOL     OW20050   6.276   3.999   1.934
 6384SOL    HW120051   6.213   4.000   1.856
 6384SOL    HW220052   6.233   4.042   2.012
 6385SOL     OW20053   0.267   4.472   4.029
 6385SOL    HW120054   0.259   4.410   3.951
 6385SOL    HW220055   0.297   4.562   3.998
 6386SOL     OW20056   2.213   4.636   5.882
 6386SOL    HW120057   2.251   4.623   5.791
 6386SOL    HW220058   2.152   4.559   5.905
 6387SOL     OW20059   0.245   1.951   6.260
 6387SOL    HW120060   0.194   1.865   6.261
 6387SOL    HW220061   0.257   1.982   6.166
 6388SOL     OW20062   3.532   5.193   1.641
 6388SOL    HW120063   3.562   5.112   1.692
 6388SOL    HW220064   3.461   5.166   1.575
 6389SOL     OW20065   0.771   5.765   2.018
 6389SOL    HW120066   0.847   5.823   1.989
 6389SOL    HW220067   0.746   5.787   2.112
 6390SOL     OW20068   1.114   1.085   6.137
 6390SOL    HW120069   1.182   1.140   6.089
 6390SOL    HW220070   1.158   1.004   6.176
 6391SOL     OW20071   2.698   0.044   5.894
 6391SOL    HW120072   2.727   0.072   5.985
 6391SOL    HW220073   2.611   0.088   5.871
 6392SOL     OW20074   2.671   5.644   2.518
 6392SOL    HW120075   2.593   5.664   2.458
 6392SOL    HW220076   2.678   5.713   2.589
 6393SOL     OW20077   6.816   6.952   2.578
 6393SOL    HW120078   6.888   7.020   2.571
 6393SOL    HW220079   6.795   6.916   2.487
 6394SOL     OW20080   2.162   5.342   0.452
 6394SOL    HW120081   2.081   5.327   0.509
 6394SOL    HW220082   2.216   5.416   0.491
 6395SOL     OW20083   6.795   2.068   0.798
 6395SOL    HW120084   6.824   2.080   0.703
 6395SOL    HW220085   6.813   2.152   0.849
 6396SOL     OW20086   4.522   3.130   6.029
 6396SOL    HW120087   4.451   3.070   6.067
 6396SOL    HW220088   4.498   3.154   5.935
 6397SOL     OW20089   5.569   2.346   7.014
 6397SOL    HW120090   5.487   2.368   0.045
 6397SOL    HW220091   5.604   2.430   6.971
 6398SOL     OW20092   2.051   6.712   1.694
 6398SOL    HW120093   2.060   6.747   1.600
 6398SOL    HW220094   2.105   6.629   1.704
 6399SOL     OW20095   1.453   6.155   6.883
 6399SOL    HW120096   1.467   6.106   6.797
 6399SOL    HW220097   1.513   6.235   6.885
 6400SOL     OW20098   2.339   6.456   2.214
 6400SOL    HW120099   2.381   6.430   2.301
 6400SOL    HW220100   2.377   6.400   2.141
 6401SOL     OW20101   5.702   4.846   3.309
 6401SOL    HW120102   5.684   4.773   3.376
 6401SOL    HW220103   5.616   4.886   3.279
 6402SOL     OW20104   3.439   1.811   3.110
 6402SOL    HW120105   3.420   1.870   3.189
 6402SOL    HW220106   3.353   1.787   3.065
 6403SOL     OW20107   6.720   6.361   6.952
 6403SOL    HW120108   6.790   6.333   6.886
 6403SOL    HW220109   6.695   6.457   6.935
 6404SOL     OW20110   4.005   1.666   2.025
 6404SOL    HW120111   3.921   1.710   2.056
 6404SOL    HW220112   4.052   1.727   1.961
 6405SOL     OW20113   2.918   0.238   3.972
 6405SOL    HW120114   2.846   0.178   4.008
 6405SOL    HW220115   2.987   0.253   4.043
 6406SOL     OW20116   0.921   2.539   2.764
 6406SOL    HW120117   0.878   2.552   2.853
 6406SOL    HW220118   0.986   2.463   2.769
 6407SOL     OW20119   2.490   6.007   4.356
 6407SOL    HW120120   2.546   5.951   4.296
 6407SOL    HW220121   2.394   5.998   4.331
 6408SOL     OW20122   5.583   2.086   6.967
 6408SOL    HW120123   5.575   2.185   6.979
 6408SOL    HW220124   5.597   2.066   6.870
 6409SOL     OW20125   0.146   4.605   3.715
 6409SOL    HW120126   0.164   4.618   3.618
 6409SOL    HW220127   0.090   4.681   3.749
 6410SOL     OW20128   1.441   1.595   0.268
 6410SOL    HW120129   1.509   1.661   0.300
 6410SOL    HW220130   1.409   1.540   0.345
 6411SOL     OW20131   1.080   2.593   3.056
 6411SOL    HW120132   1.062   2.671   2.997
 6411SOL    HW220133   1.178   2.572   3.054
 6412SOL     OW20134   0.814   2.346   5.350
 6412SOL    HW120135   0.811   2.384   5.442
 6412SOL    HW220136   0.907   2.352   5.314
 6413SOL     OW20137   4.473   4.565   3.938
 6413SOL    HW120138   4.381   4.573   3.976
 6413SOL    HW220139   4.496   4.650   3.891
 6414SOL     OW20140   5.824   0.930   0.706
 6414SOL    HW120141   5.769   0.925   0.622
 6414SOL    HW220142   5.895   0.999   0.695
 6415SOL     OW20143   1.875   2.894   3.027
 6415SOL    HW120144   1.835   2.938   2.947
 6415SOL    HW220145   1.953   2.838   3.000
 6416SOL     OW20146   1.072   1.391   6.787
 6416SOL    HW120147   1.146   1.390   6.721
 6416SOL    HW220148   0.984   1.385   6.739
 6417SOL     OW20149   6.432   5.360   1.237
 6417SOL    HW120150   6.416   5.410   1.321
 6417SOL    HW220151   6.505   5.404   1.185
 6418SOL     OW20152   4.597   4.066   1.709
 6418SOL    HW120153   4.649   4.132   1.654
 6418SOL    HW220154   4.552   4.114   1.785
 6419SOL     OW20155   2.220   4.498   3.185
 6419SOL    HW120156   2.228   4.535   3.093
 6419SOL    HW220157   2.124   4.494   3.212
 6420SOL     OW20158   3.213   5.115   4.776
 6420SOL    HW120159   3.270   5.148   4.701
 6420SOL    HW220160   3.259   5.133   4.863
 6421SOL     OW20161   4.900   0.389   2.833
 6421SOL    HW120162   4.916   0.357   2.926
 6421SOL    HW220163   4.878   0.487   2.834
 6422SOL     OW20164   0.036   0.986   4.413
 6422SOL    HW120165   0.051   1.084   4.399
 6422SOL    HW220166   6.968   0.972   4.454
 6423SOL     OW20167   4.709   5.672   3.106
 6423SOL    HW120168   4.642   5.716   3.166
 6423SOL    HW220169   4.774   5.740   3.073
 6424SOL     OW20170   6.728   6.069   6.218
 6424SOL    HW120171   6.711   6.073   6.119
 6424SOL    HW220172   6.677   5.992   6.257
 6425SOL     OW20173   6.729   6.581   2.768
 6425SOL    HW120174   6.797   6.616   2.703
 6425SOL    HW220175   6.666   6.654   2.793
 6426SOL     OW20176   1.293   5.022   2.712
 6426SOL    HW120177   1.248   4.935   2.733
 6426SOL    HW220178   1.351   5.049   2.789
 6427SOL     OW20179   3.592   3.146   4.735
 6427SOL    HW120180   3.681   3.105   4.715
 6427SOL    HW220181   3.604   3.220   4.802
 6428SOL     OW20182   5.800   3.426   6.324
 6428SOL    HW120183   5.776   3.519   6.355
 6428SOL    HW220184   5.792   3.422   6.224
 6429SOL     OW20185   1.924   1.669   6.362
 6429SOL    HW120186   1.971   1.727   6.429
 6429SOL    HW220187   1.839   1.634   6.402
 6430SOL     OW20188   6.010   1.224   2.070
 6430SOL    HW120189   6.050   1.139   2.034
 6430SOL    HW220190   5.931   1.202   2.127
 6431SOL     OW20191   5.247   6.901   3.745
 6431SOL    HW120192   5.318   6.831   3.740
 6431SOL    HW220193   5.276   6.972   3.810
 6432SOL     OW20194   3.879   3.948   6.453
 6432SOL    HW120195   3.957   3.993   6.495
 6432SOL    HW220196   3.796   4.002   6.471
 6433SOL     OW20197   2.521   4.666   6.610
 6433SOL    HW120198   2.530   4.572   6.578
 6433SOL    HW220199   2.447   4.712   6.560
 6434SOL     OW20200   2.211   4.311   0.021
 6434SOL    HW120201   2.281   4.294   6.974
 6434SOL    HW220202   2.249   4.368   0.093
 6435SOL     OW20203   4.870   6.628   0.330
 6435SOL    HW120204   4.898   6.542   0.371
 6435SOL    HW220205   4.877   6.701   0.398
 6436SOL     OW20206   2.156   3.062   3.496
 6436SOL    HW120207   2.097   3.039   3.419
 6436SOL    HW220208   2.251   3.057   3.467
 6437SOL     OW20209   2.410   1.784   0.929
 6437SOL    HW120210   2.324   1.798   0.879
 6437SOL    HW220211   2.410   1.838   1.013
 6438SOL     OW20212   6.538   4.818   6.300
 6438SOL    HW120213   6.578   4.883   6.365
 6438SOL    HW220214   6.460   4.773   6.342
 6439SOL     OW20215   5.482   1.171   1.501
 6439SOL    HW120216   5.456   1.235   1.574
 6439SOL    HW220217   5.497   1.080   1.539
 6440SOL     OW20218   2.317   1.391   6.400
 6440SOL    HW120219   2.334   1.293   6.409
 6440SOL    HW220220   2.236   1.405   6.343
 6441SOL     OW20221   6.985   6.313   1.973
 6441SOL    HW120222   6.999   6.277   2.065
 6441SOL    HW220223   6.988   6.413   1.975
 6442SOL     OW20224   2.039   0.623   4.649
 6442SOL    HW120225   1.956   0.596   4.601
 6442SOL    HW220226   2.118   0.603   4.591
 6443SOL     OW20227   3.964   2.458   5.332
 6443SOL    HW120228   4.037   2.503   5.280
 6443SOL    HW220229   3.970   2.359   5.318
 6444SOL     OW20230   6.406   2.996   4.023
 6444SOL    HW120231   6.308   2.990   4.040
 6444SOL    HW220232   6.455   2.959   4.102
 6445SOL     OW20233   4.013   3.299   5.405
 6445SOL    HW120234   4.064   3.348   5.476
 6445SOL    HW220235   4.076   3.263   5.337
 6446SOL     OW20236   1.615   1.027   6.659
 6446SOL    HW120237   1.696   1.059   6.708
 6446SOL    HW220238   1.533   1.059   6.706
 6447SOL     OW20239   5.264   5.096   3.126
 6447SOL    HW120240   5.192   5.028   3.109
 6447SOL    HW220241   5.243   5.180   3.075
 6448SOL     OW20242   4.093   5.697   2.116
 6448SOL    HW120243   4.118   5.642   2.037
 6448SOL    HW220244   4.030   5.646   2.175
 6449SOL     OW20245   3.347   4.822   0.565
 6449SOL    HW120246   3.423   4.877   0.528
 6449SOL    HW220247   3.377   4.777   0.649
 6450SOL     OW20248   1.107   4.007   1.039
 6450SOL    HW120249   1.070   4.099   1.024
 6450SOL    HW220250   1.109   3.958   0.952
 6451SOL     OW20251   2.690   0.397   4.790
 6451SOL    HW120252   2.733   0.361   4.873
 6451SOL    HW220253   2.759   0.445   4.736
 6452SOL     OW20254   3.948   6.497   4.562
 6452SOL    HW120255   4.027   6.480   4.503
 6452SOL    HW220256   3.976   6.549   4.642
 6453SOL     OW20257   2.564   6.223   1.059
 6453SOL    HW120258   2.590   6.208   0.963
 6453SOL    HW220259   2.542   6.135   1.101
 6454SOL     OW20260   2.011   1.639   3.444
 6454SOL    HW120261   1.985   1.602   3.355
 6454SOL    HW220262   1.940   1.617   3.511
 6455SOL     OW20263   0.541   2.628   3.891
 6455SOL    HW120264   0.602   2.549   3.898
 6455SOL    HW220265   0.469   2.609   3.824
 6456SOL     OW20266   1.404   1.134   3.538
 6456SOL    HW120267   1.460   1.052   3.544
 6456SOL    HW220268   1.323   1.124   3.596
 6457SOL     OW20269   5.323   1.587   0.789
 6457SOL    HW120270   5.232   1.622   0.809
 6457SOL    HW220271   5.391   1.637   0.843
 6458SOL     OW20272   0.592   6.670   3.830
 6458SOL    HW120273   0.575   6.768   3.842
 6458SOL    HW220274   0.507   6.625   3.804
 6459SOL     OW20275   6.082   3.804   0.226
 6459SOL    HW120276   6.178   3.808   0.256
 6459SOL    HW220277   6.050   3.896   0.206
 6460SOL     OW20278   5.335   6.399   5.838
 6460SOL    HW120279   5.279   6.317   5.842
 6460SOL    HW220280   5.291   6.472   5.891
 6461SOL     OW20281   2.566   4.797   5.690
 6461SOL    HW120282   2.630   4.873   5.689
 6461SOL    HW220283   2.497   4.810   5.619
 6462SOL     OW20284   2.488   2.585   4.589
 6462SOL    HW120285   2.511   2.492   4.562
 6462SOL    HW220286   2.539   2.650   4.533
 6463SOL     OW20287   6.428   3.786   6.280
 6463SOL    HW120288   6.420   3.768   6.378
 6463SOL    HW220289   6.364   3.728   6.230
 6464SOL     OW20290   1.366   6.051   4.520
 6464SOL    HW120291   1.434   6.019   4.454
 6464SOL    HW220292   1.327   5.973   4.568
 6465SOL     OW20293   6.764   2.942   2.950
 6465SOL    HW120294   6.852   2.919   2.992
 6465SOL    HW220295   6.774   3.024   2.894
 6466SOL     OW20296   1.334   1.497   6.327
 6466SOL    HW120297   1.340   1.578   6.268
 6466SOL    HW220298   1.412   1.437   6.307
 6467SOL     OW20299   2.967   1.489   6.974
 6467SOL    HW120300   3.016   1.413   6.932
 6467SOL    HW220301   2.987   1.491   0.050
 6468SOL     OW20302   3.448   5.961   0.475
 6468SOL    HW120303   3.458   6.027   0.400
 6468SOL    HW220304   3.473   6.004   0.561
 6469SOL     OW20305   5.126   1.065   4.759
 6469SOL    HW120306   5.036   1.056   4.802
 6469SOL    HW220307   5.157   1.159   4.765
 6470SOL     OW20308   6.064   4.000   0.616
 6470SOL    HW120309   6.152   4.042   0.591
 6470SOL    HW220310   6.081   3.913   0.661
 6471SOL     OW20311   6.164   6.877   5.818
 6471SOL    HW120312   6.226   6.929   5.760
 6471SOL    HW220313   6.091   6.838   5.762
 6472SOL     OW20314   0.567   5.885   0.989
 6472SOL    HW120315   0.622   5.826   0.931
 6472SOL    HW220316   0.522   5.831   1.060
 6473SOL     OW20317   3.525   0.943   4.603
 6473SOL    HW120318   3.434   0.981   4.620
 6473SOL    HW220319   3.594   0.999   4.649
 6474SOL     OW20320   2.057   4.407   5.949
 6474SOL    HW120321   2.049   4.416   6.048
 6474SOL    HW220322   2.115   4.328   5.927
 6475SOL     OW20323   6.202   5.156   3.956
 6475SOL    HW120324   6.223   5.142   4.053
 6475SOL    HW220325   6.216   5.070   3.906
 6476SOL     OW20326   4.608   3.373   1.027
 6476SOL    HW120327   4.515   3.403   1.004
 6476SOL    HW220328   4.636   3.416   1.113
 6477SOL     OW20329   6.325   4.811   1.373
 6477SOL    HW120330   6.392   4.884   1.384
 6477SOL    HW220331   6.242   4.835   1.423
 6478SOL     OW20332   3.414   0.095   2.126
 6478SOL    HW120333   3.499   0.132   2.089
 6478SOL    HW220334   3.435   0.028   2.197
 6479SOL     OW20335   3.960   5.510   4.167
 6479SOL    HW120336   4.027   5.447   4.129
 6479SOL    HW220337   3.875   5.505   4.115
 6480SOL     OW20338   2.628   2.345   5.793
 6480SOL    HW120339   2.541   2.377   5.830
 6480SOL    HW220340   2.680   2.423   5.759
 6481SOL     OW20341   3.796   1.899   1.760
 6481SOL    HW120342   3.845   1.926   1.842
 6481SOL    HW220343   3.815   1.964   1.686
 6482SOL     OW20344   0.492   0.778   6.320
 6482SOL    HW120345   0.453   0.711   6.258
 6482SOL    HW220346   0.448   0.771   6.410
 6483SOL     OW20347   0.875   6.145   1.479
 6483SOL    HW120348   0.969   6.153   1.446
 6483SOL    HW220349   0.825   6.229   1.459
 6484SOL     OW20350   3.286   6.823   1.591
 6484SOL    HW120351   3.327   6.914   1.592
 6484SOL    HW220352   3.213   6.819   1.660
 6485SOL     OW20353   1.921   4.879   3.723
 6485SOL    HW120354   1.853   4.872   3.650
 6485SOL    HW220355   2.008   4.839   3.693
 6486SOL     OW20356   2.479   4.876   3.525
 6486SOL    HW120357   2.465   4.889   3.623
 6486SOL    HW220358   2.506   4.963   3.484
 6487SOL     OW20359   0.108   6.750   4.931
 6487SOL    HW120360   0.046   6.815   4.975
 6487SOL    HW220361   0.138   6.786   4.843
 6488SOL     OW20362   3.820   6.470   4.304
 6488SOL    HW120363   3.878   6.394   4.277
 6488SOL    HW220364   3.853   6.510   4.390
 6489SOL     OW20365   2.912   2.518   6.983
 6489SOL    HW120366   2.855   2.581   6.930
 6489SOL    HW220367   2.981   2.569   0.011
 6490SOL     OW20368   4.169   1.164   6.555
 6490SOL    HW120369   4.147   1.260   6.577
 6490SOL    HW220370   4.233   1.161   6.479
 6491SOL     OW20371   3.509   0.768   0.654
 6491SOL    HW120372   3.535   0.749   0.749
 6491SOL    HW220373   3.564   0.843   0.618
 6492SOL     OW20374   4.932   5.036   0.483
 6492SOL    HW120375   4.954   4.943   0.451
 6492SOL    HW220376   4.935   5.099   0.406
 6493SOL     OW20377   1.128   5.202   4.926
 6493SOL    HW120378   1.215   5.208   4.877
 6493SOL    HW220379   1.052   5.198   4.860
 6494SOL     OW20380   0.094   0.971   3.314
 6494SOL    HW120381   0.065   0.950   3.407
 6494SOL    HW220382   0.106   1.070   3.304
 6495SOL     OW20383   5.500   6.745   4.652
 6495SOL    HW120384   5.411   6.706   4.677
 6495SOL    HW220385   5.560   6.672   4.620
 6496SOL     OW20386   6.768   0.729   3.095
 6496SOL    HW120387   6.736   0.689   3.181
 6496SOL    HW220388   6.712   0.694   3.020
 6497SOL     OW20389   2.562   2.776   1.052
 6497SOL    HW120390   2.474   2.815   1.025
 6497SOL    HW220391   2.557   2.746   1.148
 6498SOL     OW20392   2.241   4.078   3.511
 6498SOL    HW120393   2.216   4.067   3.415
 6498SOL    HW220394   2.286   4.166   3.524
 6499SOL     OW20395   4.884   2.680   5.042
 6499SOL    HW120396   4.944   2.682   5.123
 6499SOL    HW220397   4.849   2.772   5.024
 6500SOL     OW20398   0.106   4.071   4.046
 6500SOL    HW120399   0.074   4.143   4.107
 6500SOL    HW220400   0.031   4.041   3.987
 6501SOL     OW20401   6.735   2.156   6.849
 6501SOL    HW120402   6.828   2.175   6.819
 6501SOL    HW220403   6.716   2.206   6.934
 6502SOL     OW20404   6.101   2.662   1.659
 6502SOL    HW120405   6.196   2.644   1.686
 6502SOL    HW220406   6.073   2.595   1.590
 6503SOL     OW20407   4.618   1.320   3.029
 6503SOL    HW120408   4.570   1.348   3.112
 6503SOL    HW220409   4.677   1.241   3.049
 6504SOL     OW20410   4.821   5.896   5.577
 6504SOL    HW120411   4.753   5.873   5.507
 6504SOL    HW220412   4.794   5.980   5.624
 6505SOL     OW20413   5.512   5.964   1.541
 6505SOL    HW120414   5.548   6.015   1.462
 6505SOL    HW220415   5.478   6.028   1.609
 6506SOL     OW20416   6.589   2.513   2.056
 6506SOL    HW120417   6.565   2.417   2.039
 6506SOL    HW220418   6.513   2.571   2.030
 6507SOL     OW20419   2.036   4.983   5.456
 6507SOL    HW120420   2.044   4.911   5.388
 6507SOL    HW220421   1.992   4.946   5.538
 6508SOL     OW20422   1.428   1.218   2.704
 6508SOL    HW120423   1.467   1.147   2.644
 6508SOL    HW220424   1.329   1.203   2.711
 6509SOL     OW20425   2.983   1.944   4.680
 6509SOL    HW120426   3.026   1.857   4.706
 6509SOL    HW220427   2.885   1.939   4.701
 6510SOL     OW20428   6.880   4.825   6.990
 6510SOL    HW120429   6.795   4.780   6.962
 6510SOL    HW220430   6.905   4.794   0.059
 6511SOL     OW20431   4.455   1.370   4.465
 6511SOL    HW120432   4.446   1.461   4.426
 6511SOL    HW220433   4.511   1.374   4.548
 6512SOL     OW20434   4.982   6.529   1.856
 6512SOL    HW120435   4.906   6.467   1.834
 6512SOL    HW220436   4.968   6.617   1.813
 6513SOL     OW20437   3.171   5.427   3.428
 6513SOL    HW120438   3.080   5.394   3.405
 6513SOL    HW220439   3.222   5.445   3.344
 6514SOL     OW20440   5.655   1.106   4.070
 6514SOL    HW120441   5.671   1.008   4.081
 6514SOL    HW220442   5.641   1.126   3.973
 6515SOL     OW20443   0.347   5.045   4.561
 6515SOL    HW120444   0.414   5.020   4.491
 6515SOL    HW220445   0.394   5.088   4.638
 6516SOL     OW20446   0.171   3.290   1.613
 6516SOL    HW120447   0.144   3.325   1.523
 6516SOL    HW220448   0.246   3.345   1.649
 6517SOL     OW20449   6.408   0.177   0.588
 6517SOL    HW120450   6.386   0.087   0.548
 6517SOL    HW220451   6.325   0.233   0.590
 6518SOL     OW20452   6.906   6.587   6.660
 6518SOL    HW120453   6.903   6.628   6.569
 6518SOL    HW220454   7.002   6.572   6.686
 6519SOL     OW20455   2.100   1.183   3.709
 6519SOL    HW120456   2.058   1.182   3.800
 6519SOL    HW220457   2.199   1.194   3.719
 6520SOL     OW20458   5.501   5.528   2.589
 6520SOL    HW120459   5.532   5.519   2.683
 6520SOL    HW220460   5.573   5.571   2.534
 6521SOL     OW20461   2.238   3.114   4.504
 6521SOL    HW120462   2.305   3.107   4.579
 6521SOL    HW220463   2.208   3.023   4.478
 6522SOL     OW20464   3.959   4.491   0.249
 6522SOL    HW120465   4.002   4.513   0.161
 6522SOL    HW220466   4.024   4.509   0.323
 6523SOL     OW20467   4.120   1.454   6.561
 6523SOL    HW120468   4.208   1.441   6.606
 6523SOL    HW220469   4.111   1.550   6.534
 6524SOL     OW20470   2.825   4.130   1.728
 6524SOL    HW120471   2.889   4.205   1.745
 6524SOL    HW220472   2.739   4.167   1.693
 6525SOL     OW20473   1.934   4.721   2.450
 6525SOL    HW120474   1.926   4.712   2.351
 6525SOL    HW220475   1.928   4.818   2.476
 6526SOL     OW20476   2.190   6.802   6.567
 6526SOL    HW120477   2.184   6.729   6.500
 6526SOL    HW220478   2.258   6.778   6.637
 6527SOL     OW20479   0.829   2.666   4.758
 6527SOL    HW120480   0.861   2.572   4.753
 6527SOL    HW220481   0.772   2.677   4.840
 6528SOL     OW20482   6.759   0.856   4.849
 6528SOL    HW120483   6.788   0.944   4.812
 6528SOL    HW220484   6.838   0.810   4.890
 6529SOL     OW20485   1.020   1.759   2.571
 6529SOL    HW120486   1.056   1.828   2.509
 6529SOL    HW220487   1.023   1.793   2.665
 6530SOL     OW20488   6.964   3.718   0.400
 6530SOL    HW120489   6.967   3.648   0.471
 6530SOL    HW220490   6.906   3.687   0.325
 6531SOL     OW20491   5.581   3.199   4.879
 6531SOL    HW120492   5.518   3.137   4.832
 6531SOL    HW220493   5.646   3.237   4.813
 6532SOL     OW20494   6.292   0.525   0.110
 6532SOL    HW120495   6.251   0.523   0.019
 6532SOL    HW220496   6.228   0.569   0.174
 6533SOL     OW20497   4.731   6.887   1.233
 6533SOL    HW120498   4.820   6.853   1.204
 6533SOL    HW220499   4.743   6.978   1.274
 6534SOL     OW20500   3.309   4.281   1.209
 6534SOL    HW120501   3.317   4.210   1.278
 6534SOL    HW220502   3.324   4.241   1.118
 6535SOL     OW20503   6.377   4.144   4.494
 6535SOL    HW120504   6.308   4.176   4.430
 6535SOL    HW220505   6.462   4.195   4.480
 6536SOL     OW20506   1.150   1.274   5.774
 6536SOL    HW120507   1.074   1.228   5.728
 6536SOL    HW220508   1.183   1.349   5.717
 6537SOL     OW20509   6.615   5.055   0.415
 6537SOL    HW120510   6.528   5.057   0.366
 6537SOL    HW220511   6.689   5.084   0.355
 6538SOL     OW20512   2.670   3.298   6.558
 6538SOL    HW120513   2.601   3.344   6.614
 6538SOL    HW220514   2.688   3.353   6.477
 6539SOL     OW20515   3.378   0.599   6.282
 6539SOL    HW120516   3.304   0.634   6.224
 6539SOL    HW220517   3.374   0.499   6.283
 6540SOL     OW20518   4.859   1.627   5.306
 6540SOL    HW120519   4.768   1.664   5.323
 6540SOL    HW220520   4.857   1.528   5.319
 6541SOL     OW20521   4.971   1.740   5.530
 6541SOL    HW120522   4.962   1.839   5.520
 6541SOL    HW220523   4.946   1.695   5.444
 6542SOL     OW20524   6.519   4.393   4.304
 6542SOL    HW120525   6.608   4.427   4.275
 6542SOL    HW220526   6.451   4.413   4.234
 6543SOL     OW20527   5.711   3.394   5.669
 6543SOL    HW120528   5.653   3.393   5.750
 6543SOL    HW220529   5.692   3.314   5.613
 6544SOL     OW20530   0.546   6.011   2.635
 6544SOL    HW120531   0.630   5.958   2.646
 6544SOL    HW220532   0.566   6.096   2.586
 6545SOL     OW20533   4.873   1.904   0.281
 6545SOL    HW120534   4.939   1.829   0.287
 6545SOL    HW220535   4.833   1.906   0.190
 6546SOL     OW20536   3.771   4.553   6.887
 6546SOL    HW120537   3.731   4.593   6.969
 6546SOL    HW220538   3.709   4.485   6.848
 6547SOL     OW20539   4.855   1.573   5.729
 6547SOL    HW120540   4.883   1.647   5.669
 6547SOL    HW220541   4.880   1.595   5.823
 6548SOL     OW20542   0.992   4.401   6.796
 6548SOL    HW120543   1.017   4.304   6.796
 6548SOL    HW220544   0.896   4.410   6.771
 6549SOL     OW20545   4.723   0.856   1.412
 6549SOL    HW120546   4.644   0.810   1.452
 6549SOL    HW220547   4.780   0.789   1.363
 6550SOL     OW20548   0.679   6.852   4.126
 6550SOL    HW120549   0.675   6.758   4.093
 6550SOL    HW220550   0.591   6.897   4.112
 6551SOL     OW20551   1.158   4.785   2.771
 6551SOL    HW120552   1.085   4.808   2.836
 6551SOL    HW220553   1.200   4.698   2.799
 6552SOL     OW20554   1.951   6.749   5.355
 6552SOL    HW120555   1.919   6.804   5.433
 6552SOL    HW220556   1.939   6.652   5.375
 6553SOL     OW20557   0.242   1.853   3.083
 6553SOL    HW120558   0.314   1.851   3.014
 6553SOL    HW220559   0.283   1.851   3.174
 6554SOL     OW20560   6.112   0.978   5.042
 6554SOL    HW120561   6.106   1.078   5.049
 6554SOL    HW220562   6.129   0.939   5.133
 6555SOL     OW20563   0.221   2.067   2.208
 6555SOL    HW120564   0.133   2.113   2.222
 6555SOL    HW220565   0.282   2.089   2.284
 6556SOL     OW20566   5.077   4.181   4.977
 6556SOL    HW120567   5.077   4.097   4.922
 6556SOL    HW220568   4.983   4.212   4.990
 6557SOL     OW20569   3.283   6.027   1.304
 6557SOL    HW120570   3.343   6.107   1.312
 6557SOL    HW220571   3.282   5.995   1.209
 6558SOL     OW20572   6.123   4.521   0.254
 6558SOL    HW120573   6.038   4.468   0.251
 6558SOL    HW220574   6.109   4.609   0.210
 6559SOL     OW20575   0.768   4.220   5.948
 6559SOL    HW120576   0.786   4.235   5.851
 6559SOL    HW220577   0.845   4.252   6.003
 6560SOL     OW20578   4.255   5.104   1.018
 6560SOL    HW120579   4.217   5.145   1.102
 6560SOL    HW220580   4.228   5.007   1.014
 6561SOL     OW20581   3.873   3.972   2.180
 6561SOL    HW120582   3.793   4.011   2.135
 6561SOL    HW220583   3.874   3.998   2.276
 6562SOL     OW20584   5.684   4.012   1.149
 6562SOL    HW120585   5.726   4.102   1.136
 6562SOL    HW220586   5.746   3.941   1.117
 6563SOL     OW20587   6.069   6.787   0.540
 6563SOL    HW120588   5.986   6.731   0.543
 6563SOL    HW220589   6.079   6.826   0.448
 6564SOL     OW20590   6.831   4.206   3.040
 6564SOL    HW120591   6.827   4.137   2.968
 6564SOL    HW220592   6.914   4.261   3.028
 6565SOL     OW20593   6.985   2.747   3.819
 6565SOL    HW120594   6.991   2.665   3.877
 6565SOL    HW220595   0.034   2.811   3.844
 6566SOL     OW20596   3.573   6.252   2.668
 6566SOL    HW120597   3.505   6.190   2.707
 6566SOL    HW220598   3.665   6.215   2.685
 6567SOL     OW20599   3.892   1.290   1.449
 6567SOL    HW120600   3.929   1.361   1.508
 6567SOL    HW220601   3.960   1.217   1.438
 6568SOL     OW20602   4.406   0.782   3.711
 6568SOL    HW120603   4.499   0.798   3.743
 6568SOL    HW220604   4.383   0.847   3.639
 6569SOL     OW20605   2.956   3.537   6.659
 6569SOL    HW120606   2.927   3.523   6.565
 6569SOL    HW220607   2.877   3.525   6.720
 6570SOL     OW20608   3.953   0.048   2.459
 6570SOL    HW120609   3.970   0.034   2.361
 6570SOL    HW220610   3.922   0.142   2.474
 6571SOL     OW20611   2.598   5.462   2.226
 6571SOL    HW120612   2.608   5.374   2.179
 6571SOL    HW220613   2.634   5.454   2.319
 6572SOL     OW20614   6.790   5.057   5.851
 6572SOL    HW120615   6.801   5.150   5.886
 6572SOL    HW220616   6.694   5.029   5.860
 6573SOL     OW20617   2.671   1.530   2.205
 6573SOL    HW120618   2.674   1.547   2.106
 6573SOL    HW220619   2.717   1.605   2.252
 6574SOL     OW20620   3.475   5.860   2.805
 6574SOL    HW120621   3.570   5.834   2.822
 6574SOL    HW220622   3.414   5.793   2.849
 6575SOL     OW20623   1.258   0.623   2.043
 6575SOL    HW120624   1.248   0.709   1.994
 6575SOL    HW220625   1.212   0.629   2.132
 6576SOL     OW20626   2.378   5.949   6.532
 6576SOL    HW120627   2.385   6.003   6.615
 6576SOL    HW220628   2.307   5.988   6.472
 6577SOL     OW20629   0.751   1.231   4.120
 6577SOL    HW120630   0.741   1.142   4.074
 6577SOL    HW220631   0.816   1.288   4.070
 6578SOL     OW20632   0.749   4.351   3.223
 6578SOL    HW120633   0.812   4.281   3.190
 6578SOL    HW220634   0.799   4.438   3.233
 6579SOL     OW20635   0.177   3.299   4.943
 6579SOL    HW120636   0.122   3.225   4.981
 6579SOL    HW220637   0.118   3.362   4.893
 6580SOL     OW20638   6.439   2.249   0.825
 6580SOL    HW120639   6.426   2.182   0.752
 6580SOL    HW220640   6.404   2.338   0.795
 6581SOL     OW20641   2.578   1.587   0.220
 6581SOL    HW120642   2.586   1.520   0.293
 6581SOL    HW220643   2.481   1.599   0.196
 6582SOL     OW20644   1.525   1.524   1.600
 6582SOL    HW120645   1.546   1.427   1.613
 6582SOL    HW220646   1.425   1.535   1.594
 6583SOL     OW20647   3.551   0.058   4.681
 6583SOL    HW120648   3.564   6.993   4.632
 6583SOL    HW220649   3.494   0.043   4.761
 6584SOL     OW20650   4.374   2.103   0.179
 6584SOL    HW120651   4.425   2.058   0.106
 6584SOL    HW220652   4.276   2.096   0.160
 6585SOL     OW20653   6.636   6.395   0.382
 6585SOL    HW120654   6.571   6.360   0.450
 6585SOL    HW220655   6.661   6.488   0.406
 6586SOL     OW20656   6.526   1.540   5.413
 6586SOL    HW120657   6.542   1.449   5.374
 6586SOL    HW220658   6.608   1.569   5.463
 6587SOL     OW20659   2.715   6.013   4.999
 6587SOL    HW120660   2.701   6.105   4.962
 6587SOL    HW220661   2.728   5.949   4.924
 6588SOL     OW20662   1.311   3.948   1.995
 6588SOL    HW120663   1.268   3.862   1.970
 6588SOL    HW220664   1.299   3.964   2.093
 6589SOL     OW20665   5.017   0.286   0.614
 6589SOL    HW120666   5.112   0.319   0.617
 6589SOL    HW220667   4.955   0.363   0.604
 6590SOL     OW20668   0.987   1.097   5.258
 6590SOL    HW120669   0.924   1.166   5.292
 6590SOL    HW220670   1.081   1.130   5.267
 6591SOL     OW20671   5.451   6.047   1.793
 6591SOL    HW120672   5.400   6.127   1.824
 6591SOL    HW220673   5.544   6.051   1.830
 6592SOL     OW20674   6.080   6.951   4.123
 6592SOL    HW120675   6.082   0.027   4.144
 6592SOL    HW220676   6.034   6.902   4.197
 6593SOL     OW20677   2.683   1.776   3.091
 6593SOL    HW120678   2.697   1.743   3.184
 6593SOL    HW220679   2.692   1.876   3.089
 6594SOL     OW20680   3.824   1.670   0.342
 6594SOL    HW120681   3.750   1.657   0.277
 6594SOL    HW220682   3.894   1.600   0.327
 6595SOL     OW20683   0.956   3.297   0.182
 6595SOL    HW120684   0.962   3.397   0.189
 6595SOL    HW220685   0.970   3.270   0.087
 6596SOL     OW20686   3.295   6.607   4.312
 6596SOL    HW120687   3.258   6.679   4.370
 6596SOL    HW220688   3.395   6.614   4.309
 6597SOL     OW20689   2.943   6.107   2.254
 6597SOL    HW120690   2.963   6.013   2.226
 6597SOL    HW220691   3.028   6.159   2.261
 6598SOL     OW20692   1.124   6.811   4.189
 6598SOL    HW120693   1.059   6.735   4.182
 6598SOL    HW220694   1.212   6.776   4.222
 6599SOL     OW20695   5.114   6.875   5.346
 6599SOL    HW120696   5.116   6.828   5.435
 6599SOL    HW220697   5.170   6.957   5.351
 6600SOL     OW20698   5.213   5.197   6.074
 6600SOL    HW120699   5.205   5.146   5.989
 6600SOL    HW220700   5.164   5.284   6.066
 6601SOL     OW20701   1.026   2.086   5.439
 6601SOL    HW120702   1.003   1.989   5.453
 6601SOL    HW220703   1.023   2.106   5.341
 6602SOL     OW20704   0.640   1.533   1.385
 6602SOL    HW120705   0.716   1.479   1.422
 6602SOL    HW220706   0.604   1.488   1.303
 6603SOL     OW20707   0.776   2.858   3.899
 6603SOL    HW120708   0.741   2.772   3.936
 6603SOL    HW220709   0.844   2.840   3.829
 6604SOL     OW20710   2.000   6.672   1.034
 6604SOL    HW120711   2.099   6.687   1.035
 6604SOL    HW220712   1.961   6.701   1.122
 6605SOL     OW20713   5.656   4.156   1.494
 6605SOL    HW120714   5.741   4.104   1.483
 6605SOL    HW220715   5.615   4.136   1.582
 6606SOL     OW20716   0.008   6.320   2.475
 6606SOL    HW120717   0.081   6.318   2.543
 6606SOL    HW220718   6.954   6.263   2.506
 6607SOL     OW20719   1.412   2.962   2.481
 6607SOL    HW120720   1.472   2.882   2.484
 6607SOL    HW220721   1.357   2.965   2.565
 6608SOL     OW20722   6.255   6.572   1.775
 6608SOL    HW120723   6.323   6.580   1.847
 6608SOL    HW220724   6.215   6.481   1.776
 6609SOL     OW20725   4.956   1.314   5.645
 6609SOL    HW120726   4.897   1.251   5.595
 6609SOL    HW220727   4.904   1.395   5.672
 6610SOL     OW20728   2.289   0.679   6.622
 6610SOL    HW120729   2.235   0.609   6.575
 6610SOL    HW220730   2.268   0.677   6.720
 6611SOL     OW20731   6.285   3.196   3.835
 6611SOL    HW120732   6.324   3.164   3.749
 6611SOL    HW220733   6.353   3.188   3.908
 6612SOL     OW20734   6.225   1.912   6.665
 6612SOL    HW120735   6.199   1.968   6.587
 6612SOL    HW220736   6.245   1.971   6.743
 6613SOL     OW20737   6.443   6.556   5.310
 6613SOL    HW120738   6.392   6.639   5.290
 6613SOL    HW220739   6.524   6.578   5.364
 6614SOL     OW20740   5.482   5.900   0.983
 6614SOL    HW120741   5.547   5.836   1.023
 6614SOL    HW220742   5.526   5.949   0.908
 6615SOL     OW20743   1.206   4.760   2.485
 6615SOL    HW120744   1.170   4.752   2.578
 6615SOL    HW220745   1.168   4.842   2.442
 6616SOL     OW20746   3.693   1.303   6.039
 6616SOL    HW120747   3.785   1.343   6.035
 6616SOL    HW220748   3.662   1.302   6.134
 6617SOL     OW20749   3.404   5.481   2.644
 6617SOL    HW120750   3.423   5.399   2.589
 6617SOL    HW220751   3.308   5.507   2.632
 6618SOL     OW20752   0.991   2.789   2.852
 6618SOL    HW120753   0.940   2.871   2.826
 6618SOL    HW220754   0.960   2.711   2.798
 6619SOL     OW20755   6.069   0.188   4.411
 6619SOL    HW120756   5.998   0.123   4.386
 6619SOL    HW220757   6.078   0.191   4.511
 6620SOL     OW20758   1.635   2.709   5.369
 6620SOL    HW120759   1.642   2.808   5.381
 6620SOL    HW220760   1.721   2.666   5.396
 6621SOL     OW20761   2.171   3.184   6.198
 6621SOL    HW120762   2.241   3.182   6.128
 6621SOL    HW220763   2.206   3.143   6.282
 6622SOL     OW20764   6.137   0.123   1.560
 6622SOL    HW120765   6.103   0.216   1.554
 6622SOL    HW220766   6.095   0.067   1.488
 6623SOL     OW20767   2.346   3.015   6.371
 6623SOL    HW120768   2.429   3.067   6.391
 6623SOL    HW220769   2.281   3.026   6.446
 6624SOL     OW20770   0.662   6.053   4.467
 6624SOL    HW120771   0.741   6.021   4.520
 6624SOL    HW220772   0.643   5.989   4.393
 6625SOL     OW20773   5.147   1.822   5.713
 6625SOL    HW120774   5.141   1.922   5.714
 6625SOL    HW220775   5.061   1.784   5.678
 6626SOL     OW20776   4.612   5.355   5.489
 6626SOL    HW120777   4.678   5.427   5.512
 6626SOL    HW220778   4.652   5.295   5.420
 6627SOL     OW20779   2.571   0.285   5.390
 6627SOL    HW120780   2.596   0.237   5.306
 6627SOL    HW220781   2.515   0.224   5.447
 6628SOL     OW20782   4.587   4.448   4.661
 6628SOL    HW120783   4.565   4.386   4.586
 6628SOL    HW220784   4.667   4.503   4.636
 6629SOL     OW20785   4.450   6.201   0.214
 6629SOL    HW120786   4.472   6.116   0.262
 6629SOL    HW220787   4.506   6.275   0.250
 6630SOL     OW20788   4.021   1.014   1.585
 6630SOL    HW120789   3.978   1.075   1.652
 6630SOL    HW220790   3.996   0.920   1.604
 6631SOL     OW20791   2.603   6.106   2.686
 6631SOL    HW120792   2.570   6.162   2.610
 6631SOL    HW220793   2.694   6.136   2.713
 6632SOL     OW20794   0.494   6.000   1.525
 6632SOL    HW120795   0.552   5.988   1.605
 6632SOL    HW220796   0.534   6.069   1.464
 6633SOL     OW20797   0.723   4.223   6.512
 6633SOL    HW120798   0.741   4.276   6.429
 6633SOL    HW220799   0.634   4.178   6.504
 6634SOL     OW20800   6.211   2.232   4.023
 6634SOL    HW120801   6.116   2.206   4.013
 6634SOL    HW220802   6.248   2.195   4.108
 6635SOL     OW20803   3.960   4.852   2.957
 6635SOL    HW120804   3.915   4.939   2.933
 6635SOL    HW220805   4.035   4.835   2.893
 6636SOL     OW20806   5.003   2.440   5.491
 6636SOL    HW120807   5.011   2.380   5.571
 6636SOL    HW220808   5.063   2.520   5.503
 6637SOL     OW20809   1.365   0.100   6.326
 6637SOL    HW120810   1.318   0.033   6.270
 6637SOL    HW220811   1.416   0.163   6.267
 6638SOL     OW20812   3.195   3.886   4.123
 6638SOL    HW120813   3.230   3.801   4.162
 6638SOL    HW220814   3.217   3.962   4.184
 6639SOL     OW20815   5.959   4.936   6.682
 6639SOL    HW120816   6.016   4.947   6.600
 6639SOL    HW220817   5.937   5.026   6.720
 6640SOL     OW20818   1.194   1.802   5.077
 6640SOL    HW120819   1.276   1.759   5.040
 6640SOL    HW220820   1.206   1.817   5.175
 6641SOL     OW20821   2.320   2.241   0.216
 6641SOL    HW120822   2.289   2.329   0.181
 6641SOL    HW220823   2.420   2.242   0.223
 6642SOL     OW20824   3.382   4.812   6.125
 6642SOL    HW120825   3.439   4.766   6.194
 6642SOL    HW220826   3.303   4.853   6.170
 6643SOL     OW20827   6.275   5.359   0.341
 6643SOL    HW120828   6.199   5.356   0.405
 6643SOL    HW220829   6.304   5.265   0.319
 6644SOL     OW20830   2.694   4.641   2.199
 6644SOL    HW120831   2.745   4.616   2.117
 6644SOL    HW220832   2.626   4.570   2.219
 6645SOL     OW20833   6.461   5.049   0.652
 6645SOL    HW120834   6.465   4.951   0.668
 6645SOL    HW220835   6.520   5.073   0.575
 6646SOL     OW20836   4.081   6.975   5.214
 6646SOL    HW120837   4.167   7.005   5.172
 6646SOL    HW220838   4.006   6.987   5.149
 6647SOL     OW20839   4.507   0.789   2.239
 6647SOL    HW120840   4.487   0.726   2.314
 6647SOL    HW220841   4.503   0.883   2.272
 6648SOL     OW20842   3.981   6.709   2.681
 6648SOL    HW120843   3.931   6.749   2.758
 6648SOL    HW220844   3.970   6.610   2.682
 6649SOL     OW20845   5.972   0.843   6.622
 6649SOL    HW120846   5.978   0.745   6.607
 6649SOL    HW220847   5.887   0.864   6.672
 6650SOL     OW20848   3.134   1.732   5.067
 6650SOL    HW120849   3.210   1.798   5.066
 6650SOL    HW220850   3.048   1.781   5.053
 6651SOL     OW20851   2.068   1.496   6.224
 6651SOL    HW120852   2.123   1.553   6.163
 6651SOL    HW220853   2.010   1.555   6.281
 6652SOL     OW20854   0.116   4.088   0.514
 6652SOL    HW120855   0.046   4.049   0.573
 6652SOL    HW220856   0.147   4.019   0.449
 6653SOL     OW20857   3.057   3.035   2.363
 6653SOL    HW120858   3.093   3.036   2.270
 6653SOL    HW220859   2.964   2.997   2.362
 6654SOL     OW20860   1.862   3.436   1.718
 6654SOL    HW120861   1.862   3.353   1.663
 6654SOL    HW220862   1.885   3.515   1.661
 6655SOL     OW20863   1.735   6.769   2.500
 6655SOL    HW120864   1.679   6.845   2.466
 6655SOL    HW220865   1.804   6.746   2.431
 6656SOL     OW20866   5.875   1.861   2.367
 6656SOL    HW120867   5.791   1.912   2.385
 6656SOL    HW220868   5.887   1.790   2.435
 6657SOL     OW20869   5.910   6.154   6.770
 6657SOL    HW120870   5.850   6.233   6.755
 6657SOL    HW220871   5.924   6.105   6.684
 6658SOL     OW20872   5.967   1.213   5.214
 6658SOL    HW120873   5.924   1.247   5.298
 6658SOL    HW220874   5.900   1.158   5.163
 6659SOL     OW20875   2.289   2.707   0.625
 6659SOL    HW120876   2.349   2.742   0.553
 6659SOL    HW220877   2.203   2.675   0.585
 6660SOL     OW20878   0.980   5.558   0.529
 6660SOL    HW120879   0.993   5.601   0.618
 6660SOL    HW220880   0.882   5.550   0.510
 6661SOL     OW20881   1.171   6.633   4.807
 6661SOL    HW120882   1.073   6.618   4.822
 6661SOL    HW220883   1.199   6.592   4.720
 6662SOL     OW20884   0.864   1.431   0.258
 6662SOL    HW120885   0.810   1.430   0.342
 6662SOL    HW220886   0.851   1.517   0.210
 6663SOL     OW20887   0.462   5.460   3.945
 6663SOL    HW120888   0.427   5.457   4.039
 6663SOL    HW220889   0.396   5.419   3.883
 6664SOL     OW20890   2.752   6.051   0.104
 6664SOL    HW120891   2.679   6.046   0.171
 6664SOL    HW220892   2.745   5.973   0.041
 6665SOL     OW20893   1.524   6.785   3.893
 6665SOL    HW120894   1.431   6.806   3.920
 6665SOL    HW220895   1.556   6.855   3.828
 6666SOL     OW20896   5.372   6.821   5.994
 6666SOL    HW120897   5.297   6.884   5.972
 6666SOL    HW220898   5.449   6.873   6.032
 6667SOL     OW20899   6.334   5.719   6.520
 6667SOL    HW120900   6.256   5.694   6.577
 6667SOL    HW220901   6.372   5.636   6.478
 6668SOL     OW20902   0.082   5.541   1.702
 6668SOL    HW120903   0.066   5.443   1.690
 6668SOL    HW220904   0.170   5.555   1.748
 6669SOL     OW20905   1.968   2.470   3.758
 6669SOL    HW120906   1.882   2.519   3.740
 6669SOL    HW220907   2.024   2.472   3.675
 6670SOL     OW20908   4.069   2.507   5.578
 6670SOL    HW120909   4.162   2.472   5.590
 6670SOL    HW220910   4.042   2.499   5.483
 6671SOL     OW20911   5.892   5.740   1.475
 6671SOL    HW120912   5.806   5.711   1.431
 6671SOL    HW220913   5.906   5.838   1.457
 6672SOL     OW20914   6.831   1.657   6.108
 6672SOL    HW120915   6.827   1.570   6.157
 6672SOL    HW220916   6.879   1.644   6.021
 6673SOL     OW20917   5.105   5.681   3.708
 6673SOL    HW120918   5.043   5.759   3.716
 6673SOL    HW220919   5.196   5.713   3.682
 6674SOL     OW20920   0.787   4.857   5.645
 6674SOL    HW120921   0.862   4.793   5.665
 6674SOL    HW220922   0.705   4.805   5.620
 6675SOL     OW20923   4.861   3.452   1.826
 6675SOL    HW120924   4.880   3.549   1.840
 6675SOL    HW220925   4.872   3.430   1.729
 6676SOL     OW20926   6.739   4.579   5.610
 6676SOL    HW120927   6.663   4.601   5.671
 6676SOL    HW220928   6.723   4.618   5.520
 6677SOL     OW20929   0.989   1.849   5.889
 6677SOL    HW120930   0.943   1.857   5.801
 6677SOL    HW220931   1.044   1.766   5.891
 6678SOL     OW20932   2.824   3.063   6.590
 6678SOL    HW120933   2.764   3.143   6.579
 6678SOL    HW220934   2.865   3.065   6.682
 6679SOL     OW20935   2.278   1.742   3.459
 6679SOL    HW120936   2.181   1.760   3.479
 6679SOL    HW220937   2.318   1.690   3.534
 6680SOL     OW20938   4.462   0.414   6.627
 6680SOL    HW120939   4.506   0.431   6.716
 6680SOL    HW220940   4.532   0.400   6.557
 6681SOL     OW20941   4.338   5.753   0.599
 6681SOL    HW120942   4.272   5.773   0.526
 6681SOL    HW220943   4.348   5.654   0.609
 6682SOL     OW20944   1.505   4.439   3.389
 6682SOL    HW120945   1.467   4.525   3.421
 6682SOL    HW220946   1.560   4.397   3.462
 6683SOL     OW20947   6.026   2.986   5.093
 6683SOL    HW120948   6.076   2.900   5.081
 6683SOL    HW220949   5.938   2.981   5.046
 6684SOL     OW20950   2.544   6.539   1.545
 6684SOL    HW120951   2.477   6.518   1.473
 6684SOL    HW220952   2.637   6.527   1.509
 6685SOL     OW20953   6.068   3.223   6.047
 6685SOL    HW120954   5.995   3.289   6.063
 6685SOL    HW220955   6.047   3.169   5.965
 6686SOL     OW20956   5.371   5.909   4.883
 6686SOL    HW120957   5.437   5.893   4.809
 6686SOL    HW220958   5.398   5.856   4.963
 6687SOL     OW20959   0.936   2.955   0.508
 6687SOL    HW120960   0.984   3.017   0.445
 6687SOL    HW220961   0.838   2.971   0.502
 6688SOL     OW20962   6.864   4.472   1.495
 6688SOL    HW120963   6.951   4.521   1.501
 6688SOL    HW220964   6.868   4.404   1.422
 6689SOL     OW20965   4.705   3.170   6.946
 6689SOL    HW120966   4.654   3.102   6.997
 6689SOL    HW220967   4.679   3.262   6.977
 6690SOL     OW20968   2.525   0.814   1.099
 6690SOL    HW120969   2.575   0.795   1.014
 6690SOL    HW220970   2.504   0.728   1.145
 6691SOL     OW20971   2.999   6.480   1.017
 6691SOL    HW120972   2.983   6.429   1.101
 6691SOL    HW220973   3.069   6.550   1.033
 6692SOL     OW20974   4.050   3.702   5.413
 6692SOL    HW120975   3.957   3.679   5.387
 6692SOL    HW220976   4.059   3.802   5.420
 6693SOL     OW20977   4.154   4.003   5.654
 6693SOL    HW120978   4.163   4.051   5.566
 6693SOL    HW220979   4.240   3.958   5.676
 6694SOL     OW20980   4.916   5.049   0.757
 6694SOL    HW120981   4.928   5.041   0.658
 6694SOL    HW220982   4.860   4.973   0.790
 6695SOL     OW20983   2.661   1.327   6.822
 6695SOL    HW120984   2.730   1.296   6.757
 6695SOL    HW220985   2.605   1.398   6.781
 6696SOL     OW20986   1.074   2.798   6.038
 6696SOL    HW120987   0.974   2.802   6.035
 6696SOL    HW220988   1.111   2.881   5.998
 6697SOL     OW20989   4.532   2.367   2.454
 6697SOL    HW120990   4.605   2.428   2.425
 6697SOL    HW220991   4.542   2.278   2.409
 6698SOL     OW20992   2.940   2.658   1.160
 6698SOL    HW120993   2.925   2.590   1.232
 6698SOL    HW220994   2.860   2.719   1.156
 6699SOL     OW20995   3.171   5.203   6.047
 6699SOL    HW120996   3.118   5.128   6.007
 6699SOL    HW220997   3.171   5.194   6.147
 6700SOL     OW20998   6.895   6.871   0.593
 6700SOL    HW120999   6.993   6.857   0.580
 6700SOL    HW221000   6.880   6.923   0.678
 6701SOL     OW21001   5.464   2.862   1.563
 6701SOL    HW121002   5.560   2.847   1.585
 6701SOL    HW221003   5.409   2.855   1.647
 6702SOL     OW21004   2.746   2.150   1.737
 6702SOL    HW121005   2.828   2.106   1.701
 6702SOL    HW221006   2.753   2.249   1.726
 6703SOL     OW21007   6.498   2.105   6.600
 6703SOL    HW121008   6.537   2.032   6.657
 6703SOL    HW221009   6.456   2.174   6.659
 6704SOL     OW21010   3.357   2.134   2.912
 6704SOL    HW121011   3.262   2.137   2.882
 6704SOL    HW221012   3.418   2.141   2.833
 6705SOL     OW21013   6.606   1.999   0.994
 6705SOL    HW121014   6.669   2.020   0.920
 6705SOL    HW221015   6.604   2.075   1.058
 6706SOL     OW21016   1.176   3.569   2.292
 6706SOL    HW121017   1.120   3.509   2.234
 6706SOL    HW221018   1.155   3.664   2.271
 6707SOL     OW21019   0.205   6.045   3.688
 6707SOL    HW121020   0.158   6.072   3.604
 6707SOL    HW221021   0.140   5.998   3.749
 6708SOL     OW21022   0.005   5.364   2.207
 6708SOL    HW121023   7.005   5.454   2.170
 6708SOL    HW221024   0.096   5.367   2.249
 6709SOL     OW21025   2.733   6.942   2.162
 6709SOL    HW121026   2.782   0.005   2.183
 6709SOL    HW221027   2.774   6.867   2.214
 6710SOL     OW21028   3.136   1.131   5.613
 6710SOL    HW121029   3.152   1.215   5.663
 6710SOL    HW221030   3.082   1.068   5.669
 6711SOL     OW21031   5.066   5.209   0.277
 6711SOL    HW121032   5.026   5.228   0.187
 6711SOL    HW221033   5.148   5.266   0.289
 6712SOL     OW21034   4.715   5.059   0.194
 6712SOL    HW121035   4.738   4.961   0.196
 6712SOL    HW221036   4.697   5.086   0.100
 6713SOL     OW21037   2.649   0.766   2.187
 6713SOL    HW121038   2.748   0.760   2.200
 6713SOL    HW221039   2.607   0.680   2.215
 6714SOL     OW21040   6.349   1.126   6.868
 6714SOL    HW121041   6.398   1.214   6.868
 6714SOL    HW221042   6.386   1.068   6.941
 6715SOL     OW21043   6.970   0.084   5.992
 6715SOL    HW121044   6.929   0.026   6.061
 6715SOL    HW221045   0.047   0.081   5.999
 6716SOL     OW21046   0.703   5.509   1.598
 6716SOL    HW121047   0.758   5.565   1.661
 6716SOL    HW221048   0.680   5.422   1.641
 6717SOL     OW21049   4.535   2.577   0.462
 6717SOL    HW121050   4.475   2.609   0.387
 6717SOL    HW221051   4.483   2.577   0.547
 6718SOL     OW21052   4.856   0.201   6.170
 6718SOL    HW121053   4.931   0.135   6.161
 6718SOL    HW221054   4.826   0.230   6.079
 6719SOL     OW21055   1.741   6.790   6.344
 6719SOL    HW121056   1.660   6.848   6.348
 6719SOL    HW221057   1.798   6.808   6.424
 6720SOL     OW21058   0.678   5.878   3.792
 6720SOL    HW121059   0.614   5.801   3.789
 6720SOL    HW221060   0.628   5.963   3.780
 6721SOL     OW21061   6.127   0.554   5.806
 6721SOL    HW121062   6.122   0.648   5.838
 6721SOL    HW221063   6.138   0.493   5.885
 6722SOL     OW21064   6.981   3.618   1.375
 6722SOL    HW121065   6.884   3.599   1.387
 6722SOL    HW221066   0.008   3.533   1.356
 6723SOL     OW21067   1.973   6.786   3.144
 6723SOL    HW121068   1.996   6.852   3.216
 6723SOL    HW221069   2.036   6.708   3.149
 6724SOL     OW21070   1.146   3.840   5.602
 6724SOL    HW121071   1.133   3.743   5.580
 6724SOL    HW221072   1.118   3.896   5.523
 6725SOL     OW21073   1.303   3.877   1.166
 6725SOL    HW121074   1.250   3.937   1.107
 6725SOL    HW221075   1.330   3.927   1.249
 6726SOL     OW21076   0.627   2.203   5.038
 6726SOL    HW121077   0.553   2.226   4.974
 6726SOL    HW221078   0.633   2.104   5.049
 6727SOL     OW21079   6.119   3.647   5.674
 6727SOL    HW121080   6.170   3.715   5.622
 6727SOL    HW221081   6.057   3.598   5.613
 6728SOL     OW21082   4.139   1.296   3.688
 6728SOL    HW121083   4.211   1.293   3.757
 6728SOL    HW221084   4.177   1.330   3.602
 6729SOL     OW21085   0.055   1.494   2.475
 6729SOL    HW121086   0.060   1.487   2.376
 6729SOL    HW221087   0.045   1.589   2.501
 6730SOL     OW21088   2.853   6.075   6.769
 6730SOL    HW121089   2.931   6.099   6.827
 6730SOL    HW221090   2.796   6.156   6.755
 6731SOL     OW21091   1.057   5.078   1.347
 6731SOL    HW121092   0.991   5.041   1.412
 6731SOL    HW221093   1.048   5.177   1.344
 6732SOL     OW21094   4.506   4.931   5.847
 6732SOL    HW121095   4.435   4.941   5.776
 6732SOL    HW221096   4.590   4.976   5.817
 6733SOL     OW21097   4.083   4.890   0.512
 6733SOL    HW121098   4.039   4.857   0.429
 6733SOL    HW221099   4.148   4.962   0.489
 6734SOL     OW21100   6.487   2.341   4.654
 6734SOL    HW121101   6.417   2.377   4.716
 6734SOL    HW221102   6.493   2.400   4.574
 6735SOL     OW21103   6.843   4.881   4.611
 6735SOL    HW121104   6.941   4.896   4.622
 6735SOL    HW221105   6.812   4.812   4.676
 6736SOL     OW21106   3.543   3.695   0.167
 6736SOL    HW121107   3.480   3.726   0.238
 6736SOL    HW221108   3.596   3.773   0.133
 6737SOL     OW21109   2.316   2.858   0.872
 6737SOL    HW121110   2.272   2.948   0.874
 6737SOL    HW221111   2.344   2.837   0.778
 6738SOL     OW21112   1.809   4.111   2.846
 6738SOL    HW121113   1.765   4.059   2.919
 6738SOL    HW221114   1.908   4.102   2.854
 6739SOL     OW21115   3.727   4.865   5.707
 6739SOL    HW121116   3.704   4.923   5.785
 6739SOL    HW221117   3.740   4.922   5.626
 6740SOL     OW21118   1.777   1.220   4.435
 6740SOL    HW121119   1.692   1.204   4.486
 6740SOL    HW221120   1.787   1.317   4.415
 6741SOL     OW21121   4.721   1.268   5.897
 6741SOL    HW121122   4.764   1.325   5.967
 6741SOL    HW221123   4.630   1.305   5.875
 6742SOL     OW21124   6.569   5.963   2.924
 6742SOL    HW121125   6.499   5.960   2.995
 6742SOL    HW221126   6.561   5.883   2.865
 6743SOL     OW21127   4.322   4.481   0.647
 6743SOL    HW121128   4.264   4.532   0.584
 6743SOL    HW221129   4.416   4.480   0.612
 6744SOL     OW21130   5.221   6.105   6.174
 6744SOL    HW121131   5.188   6.197   6.154
 6744SOL    HW221132   5.181   6.041   6.109
 6745SOL     OW21133   0.360   6.578   2.258
 6745SOL    HW121134   0.440   6.639   2.260
 6745SOL    HW221135   0.391   6.483   2.256
 6746SOL     OW21136   0.752   1.031   3.073
 6746SOL    HW121137   0.809   1.087   3.013
 6746SOL    HW221138   0.657   1.033   3.041
 6747SOL     OW21139   5.372   0.491   5.036
 6747SOL    HW121140   5.363   0.468   5.133
 6747SOL    HW221141   5.324   0.422   4.981
 6748SOL     OW21142   1.157   0.062   3.381
 6748SOL    HW121143   1.115   0.144   3.420
 6748SOL    HW221144   1.182   0.079   3.286
 6749SOL     OW21145   2.901   5.604   0.327
 6749SOL    HW121146   2.927   5.513   0.358
 6749SOL    HW221147   2.942   5.673   0.388
 6750SOL     OW21148   4.588   1.150   5.222
 6750SOL    HW121149   4.520   1.193   5.163
 6750SOL    HW221150   4.667   1.122   5.167
 6751SOL     OW21151   3.531   1.337   3.416
 6751SOL    HW121152   3.535   1.237   3.413
 6751SOL    HW221153   3.468   1.365   3.489
 6752SOL     OW21154   6.982   3.184   3.058
 6752SOL    HW121155   0.028   3.255   3.043
 6752SOL    HW221156   7.021   3.095   3.033
 6753SOL     OW21157   4.336   1.147   6.310
 6753SOL    HW121158   4.314   1.121   6.216
 6753SOL    HW221159   4.398   1.226   6.310
 6754SOL     OW21160   6.964   1.329   6.743
 6754SOL    HW121161   6.996   1.420   6.770
 6754SOL    HW221162   6.952   1.326   6.643
 6755SOL     OW21163   4.703   1.715   3.340
 6755SOL    HW121164   4.670   1.709   3.245
 6755SOL    HW221165   4.802   1.704   3.342
 6756SOL     OW21166   4.240   4.709   4.340
 6756SOL    HW121167   4.310   4.685   4.408
 6756SOL    HW221168   4.195   4.794   4.367
 6757SOL     OW21169   4.332   6.965   1.515
 6757SOL    HW121170   4.339   6.867   1.531
 6757SOL    HW221171   4.311   6.982   1.419
 6758SOL     OW21172   6.947   3.518   0.603
 6758SOL    HW121173   6.877   3.469   0.552
 6758SOL    HW221174   6.937   3.497   0.701
 6759SOL     OW21175   0.866   4.133   4.744
 6759SOL    HW121176   0.934   4.173   4.806
 6759SOL    HW221177   0.913   4.082   4.672
 6760SOL     OW21178   6.688   5.091   4.290
 6760SOL    HW121179   6.734   5.179   4.286
 6760SOL    HW221180   6.597   5.098   4.248
 6761SOL     OW21181   6.457   2.595   6.252
 6761SOL    HW121182   6.380   2.596   6.188
 6761SOL    HW221183   6.456   2.678   6.307
 6762SOL     OW21184   6.770   5.380   3.222
 6762SOL    HW121185   6.766   5.344   3.129
 6762SOL    HW221186   6.862   5.367   3.259
 6763SOL     OW21187   6.851   5.470   3.790
 6763SOL    HW121188   6.829   5.541   3.723
 6763SOL    HW221189   6.766   5.433   3.829
 6764SOL     OW21190   3.354   5.097   6.489
 6764SOL    HW121191   3.279   5.077   6.552
 6764SOL    HW221192   3.390   5.011   6.451
 6765SOL     OW21193   4.847   4.940   3.795
 6765SOL    HW121194   4.918   4.871   3.782
 6765SOL    HW221195   4.757   4.897   3.789
 6766SOL     OW21196   4.436   6.966   6.701
 6766SOL    HW121197   4.488   6.894   6.747
 6766SOL    HW221198   4.341   6.965   6.734
 6767SOL     OW21199   0.967   2.518   0.773
 6767SOL    HW121200   0.946   2.510   0.870
 6767SOL    HW221201   0.968   2.428   0.730
 6768SOL     OW21202   0.367   6.510   3.787
 6768SOL    HW121203   0.294   6.567   3.748
 6768SOL    HW221204   0.403   6.450   3.716
 6769SOL     OW21205   2.837   0.911   5.397
 6769SOL    HW121206   2.830   0.854   5.316
 6769SOL    HW221207   2.934   0.929   5.417
 6770SOL     OW21208   6.835   1.963   3.331
 6770SOL    HW121209   6.756   2.010   3.291
 6770SOL    HW221210   6.903   1.946   3.259
 6771SOL     OW21211   3.511   1.316   2.841
 6771SOL    HW121212   3.536   1.285   2.749
 6771SOL    HW221213   3.414   1.338   2.842
 6772SOL     OW21214   5.587   2.200   2.850
 6772SOL    HW121215   5.545   2.286   2.881
 6772SOL    HW221216   5.548   2.174   2.762
 6773SOL     OW21217   6.921   6.692   1.540
 6773SOL    HW121218   6.858   6.634   1.592
 6773SOL    HW221219   6.888   6.787   1.542
 6774SOL     OW21220   1.824   2.317   4.655
 6774SOL    HW121221   1.896   2.351   4.595
 6774SOL    HW221222   1.769   2.393   4.688
 6775SOL     OW21223   0.293   2.068   3.614
 6775SOL    HW121224   0.388   2.100   3.611
 6775SOL    HW221225   0.241   2.124   3.679
 6776SOL     OW21226   4.050   3.294   1.479
 6776SOL    HW121227   3.991   3.244   1.415
 6776SOL    HW221228   4.143   3.257   1.474
 6777SOL     OW21229   4.229   5.517   1.099
 6777SOL    HW121230   4.248   5.505   1.001
 6777SOL    HW221231   4.245   5.612   1.124
 6778SOL     OW21232   5.937   3.309   2.537
 6778SOL    HW121233   5.853   3.290   2.588
 6778SOL    HW221234   5.914   3.357   2.452
 6779SOL     OW21235   5.155   4.927   6.862
 6779SOL    HW121236   5.117   4.988   6.793
 6779SOL    HW221237   5.254   4.920   6.850
 6780SOL     OW21238   2.090   3.668   2.798
 6780SOL    HW121239   2.112   3.587   2.744
 6780SOL    HW221240   2.020   3.645   2.866
 6781SOL     OW21241   6.647   1.282   3.458
 6781SOL    HW121242   6.588   1.207   3.489
 6781SOL    HW221243   6.607   1.370   3.485
 6782SOL     OW21244   0.746   0.999   3.358
 6782SOL    HW121245   0.822   1.008   3.422
 6782SOL    HW221246   0.779   1.005   3.264
 6783SOL     OW21247   0.674   4.075   4.984
 6783SOL    HW121248   0.667   4.162   5.033
 6783SOL    HW221249   0.742   4.083   4.911
 6784SOL     OW21250   2.131   4.303   2.038
 6784SOL    HW121251   2.198   4.237   2.002
 6784SOL    HW221252   2.043   4.290   1.992
 6785SOL     OW21253   5.506   5.256   5.699
 6785SOL    HW121254   5.457   5.186   5.751
 6785SOL    HW221255   5.440   5.313   5.650
 6786SOL     OW21256   6.828   2.985   6.495
 6786SOL    HW121257   6.841   3.030   6.583
 6786SOL    HW221258   6.753   3.029   6.446
 6787SOL     OW21259   2.963   2.433   1.305
 6787SOL    HW121260   2.928   2.358   1.361
 6787SOL    HW221261   3.020   2.397   1.232
 6788SOL     OW21262   0.364   4.103   2.818
 6788SOL    HW121263   0.333   4.147   2.735
 6788SOL    HW221264   0.288   4.054   2.861
 6789SOL     OW21265   0.049   4.676   4.528
 6789SOL    HW121266   0.082   4.755   4.581
 6789SOL    HW221267   0.017   4.605   4.592
 6790SOL     OW21268   0.315   4.240   6.686
 6790SOL    HW121269   0.295   4.224   6.783
 6790SOL    HW221270   0.374   4.320   6.678
 6791SOL     OW21271   4.136   1.878   3.261
 6791SOL    HW121272   4.207   1.945   3.283
 6791SOL    HW221273   4.126   1.872   3.162
 6792SOL     OW21274   4.444   0.049   5.630
 6792SOL    HW121275   4.521   0.106   5.658
 6792SOL    HW221276   4.368   0.107   5.600
 6793SOL     OW21277   3.292   1.997   6.888
 6793SOL    HW121278   3.235   1.916   6.872
 6793SOL    HW221279   3.280   2.028   6.983
 6794SOL     OW21280   4.803   1.139   5.503
 6794SOL    HW121281   4.755   1.116   5.587
 6794SOL    HW221282   4.751   1.206   5.451
 6795SOL     OW21283   0.907   6.862   0.068
 6795SOL    HW121284   0.936   6.827   0.157
 6795SOL    HW221285   0.820   6.821   0.042
 6796SOL     OW21286   5.678   0.490   2.707
 6796SOL    HW121287   5.588   0.471   2.669
 6796SOL    HW221288   5.673   0.570   2.767
 6797SOL     OW21289   6.932   1.840   0.508
 6797SOL    HW121290   6.881   1.763   0.547
 6797SOL    HW221291   7.015   1.807   0.465
 6798SOL     OW21292   6.387   0.325   1.458
 6798SOL    HW121293   6.424   0.398   1.516
 6798SOL    HW221294   6.362   0.247   1.514
 6799SOL     OW21295   5.230   0.539   2.596
 6799SOL    HW121296   5.208   0.472   2.668
 6799SOL    HW221297   5.302   0.600   2.628
 6800SOL     OW21298   2.087   2.447   1.520
 6800SOL    HW121299   2.080   2.354   1.483
 6800SOL    HW221300   2.114   2.510   1.447
 6801SOL     OW21301   0.368   0.040   3.419
 6801SOL    HW121302   0.364   6.989   3.352
 6801SOL    HW221303   0.276   0.078   3.431
 6802SOL     OW21304   3.622   5.714   0.450
 6802SOL    HW121305   3.549   5.782   0.445
 6802SOL    HW221306   3.696   5.748   0.508
 6803SOL     OW21307   4.699   3.508   0.247
 6803SOL    HW121308   4.758   3.459   0.311
 6803SOL    HW221309   4.610   3.525   0.290
 6804SOL     OW21310   3.221   4.922   2.692
 6804SOL    HW121311   3.159   4.924   2.613
 6804SOL    HW221312   3.302   4.869   2.669
 6805SOL     OW21313   0.853   5.146   0.263
 6805SOL    HW121314   0.783   5.151   0.192
 6805SOL    HW221315   0.934   5.196   0.234
 6806SOL     OW21316   6.817   0.627   4.170
 6806SOL    HW121317   6.914   0.649   4.164
 6806SOL    HW221318   6.798   0.546   4.115
 6807SOL     OW21319   3.533   3.828   3.456
 6807SOL    HW121320   3.558   3.908   3.401
 6807SOL    HW221321   3.553   3.846   3.552
 6808SOL     OW21322   5.827   1.019   5.069
 6808SOL    HW121323   5.886   0.940   5.087
 6808SOL    HW221324   5.736   0.987   5.045
 6809SOL     OW21325   6.137   3.974   0.907
 6809SOL    HW121326   6.112   3.965   1.003
 6809SOL    HW221327   6.101   3.895   0.856
 6810SOL     OW21328   3.512   1.090   3.179
 6810SOL    HW121329   3.441   1.150   3.142
 6810SOL    HW221330   3.499   0.998   3.145
 6811SOL     OW21331   6.632   3.111   2.134
 6811SOL    HW121332   6.681   3.029   2.103
 6811SOL    HW221333   6.567   3.086   2.205
 6812SOL     OW21334   3.556   3.405   4.858
 6812SOL    HW121335   3.617   3.438   4.786
 6812SOL    HW221336   3.480   3.470   4.870
 6813SOL     OW21337   5.708   3.522   2.636
 6813SOL    HW121338   5.657   3.521   2.549
 6813SOL    HW221339   5.673   3.450   2.696
 6814SOL     OW21340   5.074   1.440   6.791
 6814SOL    HW121341   5.028   1.353   6.807
 6814SOL    HW221342   5.126   1.435   6.706
 6815SOL     OW21343   1.479   5.522   6.711
 6815SOL    HW121344   1.424   5.444   6.679
 6815SOL    HW221345   1.566   5.522   6.663
 6816SOL     OW21346   6.918   1.368   4.248
 6816SOL    HW121347   6.819   1.383   4.256
 6816SOL    HW221348   6.960   1.448   4.207
 6817SOL     OW21349   2.769   2.300   3.999
 6817SOL    HW121350   2.809   2.374   4.053
 6817SOL    HW221351   2.685   2.269   4.043
 6818SOL     OW21352   2.102   6.467   0.185
 6818SOL    HW121353   2.050   6.418   0.255
 6818SOL    HW221354   2.170   6.525   0.229
 6819SOL     OW21355   4.314   0.178   2.423
 6819SOL    HW121356   4.334   0.147   2.516
 6819SOL    HW221357   4.223   0.221   2.422
 6820SOL     OW21358   1.462   5.697   1.557
 6820SOL    HW121359   1.367   5.666   1.565
 6820SOL    HW221360   1.502   5.705   1.648
 6821SOL     OW21361   4.688   2.869   5.953
 6821SOL    HW121362   4.649   2.950   5.996
 6821SOL    HW221363   4.785   2.861   5.978
 6822SOL     OW21364   6.738   2.728   6.526
 6822SOL    HW121365   6.792   2.811   6.509
 6822SOL    HW221366   6.775   2.653   6.471
 6823SOL     OW21367   4.839   4.452   6.228
 6823SOL    HW121368   4.938   4.463   6.224
 6823SOL    HW221369   4.795   4.535   6.192
 6824SOL     OW21370   1.817   1.449   0.160
 6824SOL    HW121371   1.775   1.381   0.220
 6824SOL    HW221372   1.745   1.491   0.104
 6825SOL     OW21373   6.474   5.902   0.811
 6825SOL    HW121374   6.558   5.908   0.865
 6825SOL    HW221375   6.497   5.908   0.714
 6826SOL     OW21376   0.766   3.513   3.600
 6826SOL    HW121377   0.827   3.486   3.525
 6826SOL    HW221378   0.686   3.453   3.602
 6827SOL     OW21379   5.001   5.170   5.715
 6827SOL    HW121380   5.048   5.232   5.779
 6827SOL    HW221381   5.055   5.161   5.632
 6828SOL     OW21382   3.745   1.545   2.628
 6828SOL    HW121383   3.795   1.582   2.707
 6828SOL    HW221384   3.685   1.616   2.591
 6829SOL     OW21385   5.306   0.236   5.157
 6829SOL    HW121386   5.224   0.262   5.106
 6829SOL    HW221387   5.354   0.163   5.109
 6830SOL     OW21388   6.048   1.354   3.615
 6830SOL    HW121389   6.147   1.361   3.625
 6830SOL    HW221390   6.015   1.272   3.664
 6831SOL     OW21391   1.438   0.913   6.217
 6831SOL    HW121392   1.354   0.864   6.242
 6831SOL    HW221393   1.501   0.912   6.295
 6832SOL     OW21394   2.438   3.392   0.288
 6832SOL    HW121395   2.386   3.477   0.295
 6832SOL    HW221396   2.532   3.413   0.261
 6833SOL     OW21397   3.300   5.388   5.913
 6833SOL    HW121398   3.396   5.363   5.911
 6833SOL    HW221399   3.251   5.327   5.976
 6834SOL     OW21400   5.376   0.001   0.825
 6834SOL    HW121401   5.370   0.087   0.876
 6834SOL    HW221402   5.284   6.987   0.812
 6835SOL     OW21403   3.880   1.681   4.922
 6835SOL    HW121404   3.924   1.754   4.974
 6835SOL    HW221405   3.824   1.721   4.849
 6836SOL     OW21406   2.121   4.356   6.193
 6836SOL    HW121407   2.052   4.299   6.238
 6836SOL    HW221408   2.153   4.426   6.256
 6837SOL     OW21409   0.517   1.013   2.793
 6837SOL    HW121410   0.492   1.008   2.890
 6837SOL    HW221411   0.563   1.100   2.775
 6838SOL     OW21412   2.415   4.446   5.314
 6838SOL    HW121413   2.433   4.457   5.412
 6838SOL    HW221414   2.377   4.355   5.297
 6839SOL     OW21415   5.820   2.169   3.829
 6839SOL    HW121416   5.737   2.162   3.774
 6839SOL    HW221417   5.899   2.180   3.769
 6840SOL     OW21418   2.733   6.225   5.419
 6840SOL    HW121419   2.649   6.209   5.471
 6840SOL    HW221420   2.720   6.303   5.357
 6841SOL     OW21421   3.908   4.702   1.244
 6841SOL    HW121422   3.920   4.784   1.188
 6841SOL    HW221423   3.997   4.668   1.274
 6842SOL     OW21424   1.767   2.454   6.699
 6842SOL    HW121425   1.723   2.390   6.762
 6842SOL    HW221426   1.866   2.451   6.711
 6843SOL     OW21427   5.136   0.810   1.600
 6843SOL    HW121428   5.121   0.829   1.697
 6843SOL    HW221429   5.148   0.712   1.587
 6844SOL     OW21430   5.296   5.950   4.091
 6844SOL    HW121431   5.342   5.901   4.166
 6844SOL    HW221432   5.336   5.923   4.004
 6845SOL     OW21433   5.127   4.226   2.339
 6845SOL    HW121434   5.108   4.179   2.253
 6845SOL    HW221435   5.162   4.318   2.321
 6846SOL     OW21436   4.170   2.944   1.388
 6846SOL    HW121437   4.209   3.031   1.419
 6846SOL    HW221438   4.078   2.933   1.426
 6847SOL     OW21439   5.803   3.950   1.988
 6847SOL    HW121440   5.870   4.022   2.006
 6847SOL    HW221441   5.824   3.870   2.043
 6848SOL     OW21442   2.254   6.121   3.143
 6848SOL    HW121443   2.300   6.081   3.222
 6848SOL    HW221444   2.170   6.168   3.174
 6849SOL     OW21445   3.268   5.604   4.205
 6849SOL    HW121446   3.215   5.633   4.125
 6849SOL    HW221447   3.366   5.609   4.184
 6850SOL     OW21448   5.453   2.669   2.656
 6850SOL    HW121449   5.358   2.700   2.660
 6850SOL    HW221450   5.514   2.748   2.666
 6851SOL     OW21451   1.486   3.568   4.729
 6851SOL    HW121452   1.523   3.614   4.648
 6851SOL    HW221453   1.440   3.484   4.701
 6852SOL     OW21454   1.343   4.787   0.954
 6852SOL    HW121455   1.313   4.856   0.889
 6852SOL    HW221456   1.403   4.721   0.908
 6853SOL     OW21457   6.671   3.792   6.913
 6853SOL    HW121458   6.603   3.863   6.895
 6853SOL    HW221459   6.665   3.721   6.843
 6854SOL     OW21460   5.794   0.870   5.894
 6854SOL    HW121461   5.778   0.774   5.873
 6854SOL    HW221462   5.835   0.879   5.984
 6855SOL     OW21463   3.859   6.124   2.327
 6855SOL    HW121464   3.770   6.136   2.283
 6855SOL    HW221465   3.864   6.032   2.367
 6856SOL     OW21466   4.670   4.322   5.553
 6856SOL    HW121467   4.709   4.232   5.573
 6856SOL    HW221468   4.573   4.313   5.533
 6857SOL     OW21469   3.366   1.618   6.829
 6857SOL    HW121470   3.294   1.662   6.776
 6857SOL    HW221471   3.446   1.679   6.833
 6858SOL     OW21472   4.233   3.481   4.935
 6858SOL    HW121473   4.301   3.459   5.005
 6858SOL    HW221474   4.169   3.405   4.925
 6859SOL     OW21475   1.516   6.607   0.945
 6859SOL    HW121476   1.616   6.615   0.939
 6859SOL    HW221477   1.485   6.647   1.031
 6860SOL     OW21478   5.409   5.322   1.818
 6860SOL    HW121479   5.337   5.295   1.883
 6860SOL    HW221480   5.484   5.256   1.822
 6861SOL     OW21481   5.493   4.164   1.700
 6861SOL    HW121482   5.404   4.207   1.686
 6861SOL    HW221483   5.538   4.206   1.779
 6862SOL     OW21484   2.270   4.219   4.579
 6862SOL    HW121485   2.286   4.286   4.506
 6862SOL    HW221486   2.285   4.262   4.668
 6863SOL     OW21487   5.615   1.693   4.186
 6863SOL    HW121488   5.633   1.598   4.211
 6863SOL    HW221489   5.701   1.739   4.166
 6864SOL     OW21490   3.340   5.839   3.914
 6864SOL    HW121491   3.256   5.868   3.868
 6864SOL    HW221492   3.376   5.915   3.968
 6865SOL     OW21493   6.533   5.748   3.135
 6865SOL    HW121494   6.579   5.693   3.205
 6865SOL    HW221495   6.446   5.781   3.172
 6866SOL     OW21496   6.301   4.175   2.308
 6866SOL    HW121497   6.397   4.157   2.288
 6866SOL    HW221498   6.263   4.237   2.240
 6867SOL     OW21499   1.266   4.772   1.364
 6867SOL    HW121500   1.317   4.835   1.305
 6867SOL    HW221501   1.314   4.684   1.367
 6868SOL     OW21502   1.569   5.457   5.164
 6868SOL    HW121503   1.587   5.451   5.066
 6868SOL    HW221504   1.625   5.529   5.204
 6869SOL     OW21505   6.088   2.697   5.060
 6869SOL    HW121506   6.083   2.668   4.964
 6869SOL    HW221507   6.172   2.663   5.102
 6870SOL     OW21508   6.693   3.462   2.250
 6870SOL    HW121509   6.616   3.448   2.312
 6870SOL    HW221510   6.667   3.432   2.158
 6871SOL     OW21511   6.058   4.938   2.530
 6871SOL    HW121512   6.154   4.919   2.552
 6871SOL    HW221513   6.002   4.857   2.551
 6872SOL     OW21514   1.779   3.568   0.699
 6872SOL    HW121515   1.754   3.479   0.661
 6872SOL    HW221516   1.713   3.637   0.670
 6873SOL     OW21517   5.833   3.716   4.834
 6873SOL    HW121518   5.825   3.688   4.930
 6873SOL    HW221519   5.815   3.814   4.827
 6874SOL     OW21520   0.453   4.638   3.163
 6874SOL    HW121521   0.371   4.670   3.115
 6874SOL    HW221522   0.491   4.559   3.115
 6875SOL     OW21523   1.651   2.568   3.419
 6875SOL    HW121524   1.583   2.618   3.366
 6875SOL    HW221525   1.742   2.600   3.393
 6876SOL     OW21526   4.147   5.185   5.709
 6876SOL    HW121527   4.124   5.230   5.795
 6876SOL    HW221528   4.214   5.240   5.659
 6877SOL     OW21529   2.371   4.307   6.071
 6877SOL    HW121530   2.288   4.352   6.104
 6877SOL    HW221531   2.358   4.280   5.976
 6878SOL     OW21532   2.214   2.192   5.189
 6878SOL    HW121533   2.305   2.227   5.167
 6878SOL    HW221534   2.177   2.242   5.267
 6879SOL     OW21535   1.233   1.758   0.137
 6879SOL    HW121536   1.212   1.707   0.053
 6879SOL    HW221537   1.292   1.702   0.196
 6880SOL     OW21538   2.192   3.326   4.827
 6880SOL    HW121539   2.233   3.236   4.838
 6880SOL    HW221540   2.114   3.320   4.766
 6881SOL     OW21541   6.769   3.739   2.411
 6881SOL    HW121542   6.860   3.780   2.414
 6881SOL    HW221543   6.766   3.671   2.337
 6882SOL     OW21544   2.921   0.128   5.729
 6882SOL    HW121545   2.840   0.071   5.740
 6882SOL    HW221546   2.963   0.143   5.818
 6883SOL     OW21547   3.608   1.244   1.501
 6883SOL    HW121548   3.691   1.295   1.483
 6883SOL    HW221549   3.600   1.169   1.435
 6884SOL     OW21550   1.625   3.417   4.310
 6884SOL    HW121551   1.695   3.346   4.302
 6884SOL    HW221552   1.587   3.435   4.219
 6885SOL     OW21553   3.706   5.623   4.685
 6885SOL    HW121554   3.636   5.563   4.645
 6885SOL    HW221555   3.797   5.585   4.667
 6886SOL     OW21556   0.009   0.842   2.801
 6886SOL    HW121557   0.029   0.744   2.797
 6886SOL    HW221558   0.079   0.892   2.751
 6887SOL     OW21559   4.774   7.012   5.562
 6887SOL    HW121560   4.856   6.972   5.521
 6887SOL    HW221561   4.722   6.941   5.608
 6888SOL     OW21562   5.739   6.374   6.698
 6888SOL    HW121563   5.799   6.449   6.670
 6888SOL    HW221564   5.685   6.344   6.619
 6889SOL     OW21565   1.092   2.296   6.330
 6889SOL    HW121566   1.120   2.389   6.303
 6889SOL    HW221567   1.171   2.247   6.367
 6890SOL     OW21568   2.995   5.986   1.317
 6890SOL    HW121569   3.093   5.974   1.301
 6890SOL    HW221570   2.981   6.055   1.387
 6891SOL     OW21571   2.072   3.688   4.501
 6891SOL    HW121572   2.128   3.619   4.547
 6891SOL    HW221573   2.008   3.728   4.567
 6892SOL     OW21574   3.267   0.496   3.562
 6892SOL    HW121575   3.238   0.551   3.641
 6892SOL    HW221576   3.366   0.496   3.556
 6893SOL     OW21577   5.402   6.118   1.115
 6893SOL    HW121578   5.466   6.123   1.192
 6893SOL    HW221579   5.419   6.035   1.063
 6894SOL     OW21580   6.348   5.423   6.929
 6894SOL    HW121581   6.445   5.403   6.911
 6894SOL    HW221582   6.339   5.516   6.964
 6895SOL     OW21583   2.936   5.229   6.575
 6895SOL    HW121584   2.914   5.144   6.527
 6895SOL    HW221585   2.853   5.282   6.590
 6896SOL     OW21586   2.816   6.667   4.071
 6896SOL    HW121587   2.859   6.699   3.987
 6896SOL    HW221588   2.839   6.571   4.086
 6897SOL     OW21589   2.297   3.642   0.289
 6897SOL    HW121590   2.226   3.665   0.222
 6897SOL    HW221591   2.257   3.587   0.362
 6898SOL     OW21592   3.381   1.584   2.066
 6898SOL    HW121593   3.427   1.669   2.093
 6898SOL    HW221594   3.361   1.587   1.968
 6899SOL     OW21595   4.936   0.068   0.718
 6899SOL    HW121596   4.963   0.151   0.670
 6899SOL    HW221597   4.879   0.011   0.659
 6900SOL     OW21598   5.956   0.669   6.269
 6900SOL    HW121599   5.880   0.705   6.324
 6900SOL    HW221600   5.920   0.609   6.198
 6901SOL     OW21601   0.699   0.355   6.135
 6901SOL    HW121602   0.633   0.389   6.202
 6901SOL    HW221603   0.769   0.425   6.120
 6902SOL     OW21604   6.852   6.206   0.646
 6902SOL    HW121605   6.929   6.200   0.710
 6902SOL    HW221606   6.766   6.209   0.697
 6903SOL     OW21607   4.074   4.745   5.502
 6903SOL    HW121608   4.166   4.709   5.484
 6903SOL    HW221609   4.022   4.678   5.554
 6904SOL     OW21610   6.025   1.580   4.194
 6904SOL    HW121611   6.050   1.483   4.203
 6904SOL    HW221612   5.932   1.594   4.228
 6905SOL     OW21613   6.156   6.510   0.282
 6905SOL    HW121614   6.144   6.593   0.227
 6905SOL    HW221615   6.235   6.459   0.250
 6906SOL     OW21616   4.074   0.898   3.821
 6906SOL    HW121617   4.146   0.923   3.885
 6906SOL    HW221618   4.024   0.819   3.856
 6907SOL     OW21619   4.827   0.973   1.120
 6907SOL    HW121620   4.916   0.981   1.076
 6907SOL    HW221621   4.832   0.905   1.194
 6908SOL     OW21622   1.147   6.601   5.606
 6908SOL    HW121623   1.155   6.664   5.684
 6908SOL    HW221624   1.209   6.630   5.533
 6909SOL     OW21625   5.555   4.804   1.354
 6909SOL    HW121626   5.559   4.896   1.316
 6909SOL    HW221627   5.482   4.752   1.309
 6910SOL     OW21628   6.609   2.621   3.298
 6910SOL    HW121629   6.695   2.620   3.247
 6910SOL    HW221630   6.624   2.585   3.389
 6911SOL     OW21631   4.040   7.001   3.201
 6911SOL    HW121632   4.035   0.035   3.118
 6911SOL    HW221633   3.979   0.017   3.270
 6912SOL     OW21634   4.657   4.575   1.319
 6912SOL    HW121635   4.591   4.535   1.384
 6912SOL    HW221636   4.614   4.653   1.273
 6913SOL     OW21637   4.727   5.126   5.744
 6913SOL    HW121638   4.724   5.038   5.697
 6913SOL    HW221639   4.821   5.157   5.752
 6914SOL     OW21640   6.186   4.751   0.046
 6914SOL    HW121641   6.147   4.842   0.031
 6914SOL    HW221642   6.140   4.685   7.009
 6915SOL     OW21643   6.643   4.626   1.810
 6915SOL    HW121644   6.726   4.572   1.794
 6915SOL    HW221645   6.575   4.602   1.741
 6916SOL     OW21646   5.998   4.046   0.132
 6916SOL    HW121647   6.010   4.132   0.083
 6916SOL    HW221648   5.907   4.009   0.113
 6917SOL     OW21649   3.305   5.371   0.716
 6917SOL    HW121650   3.328   5.432   0.640
 6917SOL    HW221651   3.345   5.281   0.699
 6918SOL     OW21652   1.313   3.796   4.684
 6918SOL    HW121653   1.365   3.840   4.610
 6918SOL    HW221654   1.363   3.716   4.717
 6919SOL     OW21655   0.561   5.689   3.405
 6919SOL    HW121656   0.487   5.712   3.468
 6919SOL    HW221657   0.569   5.760   3.335
 6920SOL     OW21658   4.025   6.204   5.882
 6920SOL    HW121659   3.981   6.264   5.949
 6920SOL    HW221660   3.997   6.231   5.790
 6921SOL     OW21661   4.838   5.477   3.240
 6921SOL    HW121662   4.780   5.416   3.294
 6921SOL    HW221663   4.781   5.536   3.183
 6922SOL     OW21664   1.684   5.851   6.776
 6922SOL    HW121665   1.595   5.896   6.777
 6922SOL    HW221666   1.741   5.892   6.705
 6923SOL     OW21667   5.668   6.392   3.461
 6923SOL    HW121668   5.715   6.460   3.516
 6923SOL    HW221669   5.575   6.379   3.496
 6924SOL     OW21670   0.530   3.968   6.744
 6924SOL    HW121671   0.627   3.944   6.733
 6924SOL    HW221672   0.505   4.038   6.677
 6925SOL     OW21673   3.612   6.272   4.362
 6925SOL    HW121674   3.644   6.367   4.357
 6925SOL    HW221675   3.643   6.231   4.447
 6926SOL     OW21676   2.851   3.426   2.455
 6926SOL    HW121677   2.754   3.407   2.436
 6926SOL    HW221678   2.879   3.377   2.537
 6927SOL     OW21679   5.359   4.291   5.722
 6927SOL    HW121680   5.402   4.345   5.650
 6927SOL    HW221681   5.416   4.291   5.803
 6928SOL     OW21682   6.422   6.345   0.660
 6928SOL    HW121683   6.426   6.277   0.733
 6928SOL    HW221684   6.326   6.369   0.642
 6929SOL     OW21685   4.887   5.646   1.107
 6929SOL    HW121686   4.802   5.607   1.142
 6929SOL    HW221687   4.877   5.745   1.098
 6930SOL     OW21688   0.019   6.804   1.846
 6930SOL    HW121689   0.085   6.877   1.865
 6930SOL    HW221690   7.012   6.809   1.750
 6931SOL     OW21691   1.173   0.999   2.467
 6931SOL    HW121692   1.115   0.954   2.534
 6931SOL    HW221693   1.143   0.973   2.375
 6932SOL     OW21694   3.959   0.719   0.831
 6932SOL    HW121695   4.055   0.747   0.830
 6932SOL    HW221696   3.945   0.646   0.764
 6933SOL     OW21697   4.062   6.085   4.597
 6933SOL    HW121698   4.124   6.094   4.519
 6933SOL    HW221699   4.103   6.025   4.665
 6934SOL     OW21700   4.855   4.233   5.912
 6934SOL    HW121701   4.837   4.170   5.836
 6934SOL    HW221702   4.954   4.247   5.920
 6935SOL     OW21703   4.254   5.950   3.546
 6935SOL    HW121704   4.292   5.873   3.495
 6935SOL    HW221705   4.318   6.027   3.543
 6936SOL     OW21706   6.779   2.949   2.512
 6936SOL    HW121707   6.870   2.992   2.512
 6936SOL    HW221708   6.780   2.868   2.571
 6937SOL     OW21709   6.445   6.113   0.349
 6937SOL    HW121710   6.449   6.058   0.432
 6937SOL    HW221711   6.509   6.076   0.281
 6938SOL     OW21712   4.844   3.739   5.307
 6938SOL    HW121713   4.846   3.685   5.392
 6938SOL    HW221714   4.806   3.683   5.234
 6939SOL     OW21715   7.003   4.381   1.032
 6939SOL    HW121716   0.019   4.345   1.117
 6939SOL    HW221717   0.015   4.474   1.017
 6940SOL     OW21718   5.064   1.398   0.545
 6940SOL    HW121719   5.052   1.353   0.456
 6940SOL    HW221720   5.009   1.351   0.613
 6941SOL     OW21721   3.526   3.247   2.987
 6941SOL    HW121722   3.516   3.169   3.048
 6941SOL    HW221723   3.623   3.271   2.978
 6942SOL     OW21724   6.725   2.711   0.533
 6942SOL    HW121725   6.701   2.782   0.599
 6942SOL    HW221726   6.742   2.753   0.444
 6943SOL     OW21727   4.664   6.486   0.098
 6943SOL    HW121728   4.706   6.576   0.106
 6943SOL    HW221729   4.695   6.443   0.013
 6944SOL     OW21730   1.473   4.625   5.878
 6944SOL    HW121731   1.538   4.613   5.803
 6944SOL    HW221732   1.506   4.576   5.959
 6945SOL     OW21733   6.159   2.820   6.120
 6945SOL    HW121734   6.210   2.796   6.038
 6945SOL    HW221735   6.063   2.837   6.096
 6946SOL     OW21736   6.463   6.356   2.464
 6946SOL    HW121737   6.530   6.428   2.446
 6946SOL    HW221738   6.396   6.389   2.530
 6947SOL     OW21739   3.015   6.646   5.312
 6947SOL    HW121740   3.021   6.639   5.411
 6947SOL    HW221741   3.015   6.554   5.272
 6948SOL     OW21742   6.759   0.813   6.987
 6948SOL    HW121743   6.791   0.719   7.004
 6948SOL    HW221744   6.713   0.847   0.046
 6949SOL     OW21745   5.259   0.134   3.950
 6949SOL    HW121746   5.347   0.126   3.997
 6949SOL    HW221747   5.244   0.229   3.922
 6950SOL     OW21748   2.127   0.306   3.594
 6950SOL    HW121749   2.157   0.340   3.505
 6950SOL    HW221750   2.079   0.379   3.642
 6951SOL     OW21751   6.287   6.361   6.218
 6951SOL    HW121752   6.330   6.360   6.127
 6951SOL    HW221753   6.219   6.288   6.223
 6952SOL     OW21754   0.083   5.617   3.550
 6952SOL    HW121755   0.110   5.545   3.486
 6952SOL    HW221756   7.006   5.628   3.546
 6953SOL     OW21757   4.732   0.255   6.741
 6953SOL    HW121758   4.733   0.166   6.694
 6953SOL    HW221759   4.674   0.249   6.821
 6954SOL     OW21760   0.870   3.730   4.404
 6954SOL    HW121761   0.892   3.813   4.355
 6954SOL    HW221762   0.834   3.662   4.341
 6955SOL     OW21763   6.865   0.453   3.020
 6955SOL    HW121764   6.821   0.430   2.933
 6955SOL    HW221765   6.847   0.548   3.043
 6956SOL     OW21766   4.856   6.491   2.284
 6956SOL    HW121767   4.774   6.542   2.257
 6956SOL    HW221768   4.857   6.403   2.237
 6957SOL     OW21769   5.587   4.907   1.674
 6957SOL    HW121770   5.520   4.914   1.748
 6957SOL    HW221771   5.567   4.826   1.619
 6958SOL     OW21772   3.099   4.188   5.252
 6958SOL    HW121773   3.067   4.115   5.191
 6958SOL    HW221774   3.129   4.149   5.339
 6959SOL     OW21775   2.630   1.011   4.780
 6959SOL    HW121776   2.696   1.084   4.766
 6959SOL    HW221777   2.617   0.995   4.878
 6960SOL     OW21778   1.353   5.250   1.314
 6960SOL    HW121779   1.264   5.294   1.327
 6960SOL    HW221780   1.423   5.301   1.363
 6961SOL     OW21781   6.567   2.837   4.420
 6961SOL    HW121782   6.550   2.796   4.331
 6961SOL    HW221783   6.616   2.924   4.408
 6962SOL     OW21784   5.066   5.493   2.411
 6962SOL    HW121785   5.025   5.584   2.395
 6962SOL    HW221786   5.105   5.459   2.325
 6963SOL     OW21787   6.946   5.454   1.055
 6963SOL    HW121788   6.954   5.475   0.958
 6963SOL    HW221789   6.864   5.498   1.092
 6964SOL     OW21790   4.334   5.442   4.295
 6964SOL    HW121791   4.263   5.494   4.248
 6964SOL    HW221792   4.324   5.345   4.275
 6965SOL     OW21793   0.749   3.773   6.102
 6965SOL    HW121794   0.716   3.680   6.116
 6965SOL    HW221795   0.814   3.796   6.174
 6966SOL     OW21796   6.639   2.187   3.010
 6966SOL    HW121797   6.676   2.154   2.923
 6966SOL    HW221798   6.539   2.187   3.005
 6967SOL     OW21799   1.752   0.262   5.821
 6967SOL    HW121800   1.705   0.231   5.903
 6967SOL    HW221801   1.803   0.345   5.841
 6968SOL     OW21802   3.642   6.760   2.240
 6968SOL    HW121803   3.701   6.681   2.260
 6968SOL    HW221804   3.626   6.812   2.323
 6969SOL     OW21805   3.217   2.133   1.508
 6969SOL    HW121806   3.182   2.196   1.577
 6969SOL    HW221807   3.228   2.042   1.549
 6970SOL     OW21808   4.251   3.726   0.239
 6970SOL    HW121809   4.256   3.792   0.314
 6970SOL    HW221810   4.266   3.772   0.152
 6971SOL     OW21811   6.764   4.114   1.768
 6971SOL    HW121812   6.760   4.193   1.829
 6971SOL    HW221813   6.764   4.144   1.673
 6972SOL     OW21814   5.308   5.117   4.035
 6972SOL    HW121815   5.221   5.165   4.023
 6972SOL    HW221816   5.356   5.155   4.115
 6973SOL     OW21817   1.044   3.772   5.222
 6973SOL    HW121818   1.137   3.742   5.244
 6973SOL    HW221819   1.030   3.767   5.123
 6974SOL     OW21820   3.692   2.964   3.203
 6974SOL    HW121821   3.767   2.940   3.141
 6974SOL    HW221822   3.606   2.930   3.165
 6975SOL     OW21823   2.392   6.184   5.764
 6975SOL    HW121824   2.474   6.227   5.803
 6975SOL    HW221825   2.319   6.252   5.758
 6976SOL     OW21826   4.233   5.530   5.545
 6976SOL    HW121827   4.213   5.577   5.459
 6976SOL    HW221828   4.212   5.433   5.536
 6977SOL     OW21829   4.391   2.467   1.864
 6977SOL    HW121830   4.321   2.465   1.935
 6977SOL    HW221831   4.352   2.504   1.779
 6978SOL     OW21832   6.216   2.310   1.666
 6978SOL    HW121833   6.228   2.249   1.588
 6978SOL    HW221834   6.262   2.397   1.647
 6979SOL     OW21835   1.510   5.184   0.479
 6979SOL    HW121836   1.593   5.186   0.535
 6979SOL    HW221837   1.497   5.093   0.441
 6980SOL     OW21838   1.672   0.928   3.559
 6980SOL    HW121839   1.726   0.851   3.591
 6980SOL    HW221840   1.727   1.012   3.565
 6981SOL     OW21841   2.615   2.831   6.356
 6981SOL    HW121842   2.591   2.927   6.371
 6981SOL    HW221843   2.655   2.820   6.265
 6982SOL     OW21844   1.193   1.121   3.704
 6982SOL    HW121845   1.096   1.128   3.680
 6982SOL    HW221846   1.214   1.027   3.732
 6983SOL     OW21847   5.130   1.816   3.223
 6983SOL    HW121848   5.117   1.797   3.125
 6983SOL    HW221849   5.227   1.807   3.246
 6984SOL     OW21850   2.744   1.969   4.285
 6984SOL    HW121851   2.685   1.933   4.213
 6984SOL    HW221852   2.809   1.898   4.312
 6985SOL     OW21853   4.025   5.665   1.305
 6985SOL    HW121854   3.993   5.707   1.390
 6985SOL    HW221855   3.947   5.650   1.244
 6986SOL     OW21856   1.792   6.461   6.473
 6986SOL    HW121857   1.849   6.403   6.416
 6986SOL    HW221858   1.789   6.554   6.436
 6987SOL     OW21859   0.098   2.090   5.822
 6987SOL    HW121860   0.117   2.180   5.861
 6987SOL    HW221861   0.110   2.094   5.722
 6988SOL     OW21862   6.720   1.048   5.739
 6988SOL    HW121863   6.653   0.981   5.710
 6988SOL    HW221864   6.687   1.096   5.820
 6989SOL     OW21865   0.404   3.448   3.227
 6989SOL    HW121866   0.443   3.534   3.193
 6989SOL    HW221867   0.477   3.384   3.249
 6990SOL     OW21868   5.324   2.354   1.433
 6990SOL    HW121869   5.340   2.287   1.361
 6990SOL    HW221870   5.307   2.306   1.519
 6991SOL     OW21871   2.994   4.835   4.143
 6991SOL    HW121872   3.093   4.849   4.138
 6991SOL    HW221873   2.951   4.862   4.057
 6992SOL     OW21874   5.261   6.486   5.062
 6992SOL    HW121875   5.196   6.455   5.132
 6992SOL    HW221876   5.212   6.511   4.979
 6993SOL     OW21877   6.730   0.799   2.768
 6993SOL    HW121878   6.661   0.869   2.784
 6993SOL    HW221879   6.820   0.836   2.789
 6994SOL     OW21880   1.007   3.449   5.045
 6994SOL    HW121881   0.939   3.419   5.111
 6994SOL    HW221882   0.984   3.540   5.012
 6995SOL     OW21883   6.478   5.276   6.357
 6995SOL    HW121884   6.578   5.279   6.357
 6995SOL    HW221885   6.443   5.293   6.265
 6996SOL     OW21886   2.486   0.282   6.437
 6996SOL    HW121887   2.468   0.245   6.529
 6996SOL    HW221888   2.579   0.318   6.434
 6997SOL     OW21889   5.971   6.364   5.413
 6997SOL    HW121890   6.033   6.433   5.451
 6997SOL    HW221891   5.961   6.378   5.315
 6998SOL     OW21892   2.531   2.662   1.321
 6998SOL    HW121893   2.613   2.633   1.370
 6998SOL    HW221894   2.479   2.727   1.377
 6999SOL     OW21895   2.116   2.743   6.318
 6999SOL    HW121896   2.053   2.712   6.246
 6999SOL    HW221897   2.204   2.764   6.277
 7000SOL     OW21898   6.208   5.980   1.828
 7000SOL    HW121899   6.261   5.901   1.798
 7000SOL    HW221900   6.210   5.987   1.927
 7001SOL     OW21901   2.694   3.215   5.333
 7001SOL    HW121902   2.623   3.157   5.295
 7001SOL    HW221903   2.774   3.160   5.354
 7002SOL     OW21904   1.728   4.990   2.754
 7002SOL    HW121905   1.787   4.962   2.830
 7002SOL    HW221906   1.681   5.075   2.778
 7003SOL     OW21907   4.022   5.320   0.067
 7003SOL    HW121908   4.062   5.374   0.141
 7003SOL    HW221909   4.062   5.228   0.068
 7004SOL     OW21910   1.704   4.602   1.529
 7004SOL    HW121911   1.644   4.667   1.482
 7004SOL    HW221912   1.754   4.649   1.600
 7005SOL     OW21913   1.730   6.626   6.742
 7005SOL    HW121914   1.735   6.679   6.826
 7005SOL    HW221915   1.808   6.650   6.683
 7006SOL     OW21916   5.153   4.747   4.676
 7006SOL    HW121917   5.068   4.799   4.689
 7006SOL    HW221918   5.196   4.732   4.765
 7007SOL     OW21919   5.066   6.744   3.606
 7007SOL    HW121920   5.139   6.692   3.562
 7007SOL    HW221921   5.105   6.806   3.674
 7008SOL     OW21922   1.666   5.023   5.158
 7008SOL    HW121923   1.673   5.079   5.240
 7008SOL    HW221924   1.570   5.016   5.130
 7009SOL     OW21925   6.062   5.662   2.526
 7009SOL    HW121926   6.016   5.638   2.612
 7009SOL    HW221927   6.148   5.613   2.519
 7010SOL     OW21928   4.185   4.330   6.060
 7010SOL    HW121929   4.133   4.415   6.058
 7010SOL    HW221930   4.170   4.284   6.147
 7011SOL     OW21931   2.471   0.557   6.134
 7011SOL    HW121932   2.480   0.553   6.233
 7011SOL    HW221933   2.541   0.499   6.092
 7012SOL     OW21934   1.492   1.195   2.406
 7012SOL    HW121935   1.409   1.224   2.454
 7012SOL    HW221936   1.568   1.254   2.430
 7013SOL     OW21937   0.610   0.063   0.395
 7013SOL    HW121938   0.664   0.115   0.328
 7013SOL    HW221939   0.513   0.070   0.372
 7014SOL     OW21940   5.009   2.984   1.546
 7014SOL    HW121941   4.956   2.941   1.619
 7014SOL    HW221942   5.104   2.956   1.552
 7015SOL     OW21943   5.721   4.926   2.511
 7015SOL    HW121944   5.640   4.920   2.569
 7015SOL    HW221945   5.789   4.860   2.541
 7016SOL     OW21946   3.592   4.934   1.764
 7016SOL    HW121947   3.541   4.884   1.693
 7016SOL    HW221948   3.616   4.870   1.837
 7017SOL     OW21949   2.239   6.678   2.311
 7017SOL    HW121950   2.280   6.760   2.273
 7017SOL    HW221951   2.261   6.599   2.254
 7018SOL     OW21952   5.877   4.297   4.971
 7018SOL    HW121953   5.904   4.258   4.883
 7018SOL    HW221954   5.815   4.233   5.017
 7019SOL     OW21955   2.350   3.426   6.445
 7019SOL    HW121956   2.410   3.435   6.365
 7019SOL    HW221957   2.266   3.478   6.429
 7020SOL     OW21958   6.264   6.954   6.665
 7020SOL    HW121959   6.274   0.022   6.707
 7020SOL    HW221960   6.175   6.915   6.690
 7021SOL     OW21961   2.073   1.199   5.859
 7021SOL    HW121962   2.151   1.211   5.798
 7021SOL    HW221963   2.037   1.106   5.850
 7022SOL     OW21964   4.484   5.856   0.827
 7022SOL    HW121965   4.412   5.853   0.757
 7022SOL    HW221966   4.554   5.788   0.806
 7023SOL     OW21967   0.508   1.849   3.583
 7023SOL    HW121968   0.415   1.881   3.598
 7023SOL    HW221969   0.571   1.926   3.594
 7024SOL     OW21970   1.220   4.845   5.598
 7024SOL    HW121971   1.257   4.837   5.691
 7024SOL    HW221972   1.124   4.873   5.603
 7025SOL     OW21973   2.639   1.343   0.059
 7025SOL    HW121974   2.638   1.443   0.067
 7025SOL    HW221975   2.633   1.317   6.985
 7026SOL     OW21976   2.879   1.696   2.288
 7026SOL    HW121977   2.956   1.670   2.231
 7026SOL    HW221978   2.837   1.779   2.252
 7027SOL     OW21979   2.808   4.708   3.847
 7027SOL    HW121980   2.803   4.713   3.747
 7027SOL    HW221981   2.747   4.637   3.880
 7028SOL     OW21982   5.522   6.579   4.134
 7028SOL    HW121983   5.510   6.661   4.077
 7028SOL    HW221984   5.446   6.573   4.199
 7029SOL     OW21985   4.183   5.962   6.148
 7029SOL    HW121986   4.251   6.035   6.133
 7029SOL    HW221987   4.114   5.965   6.076
 7030SOL     OW21988   6.793   2.233   5.023
 7030SOL    HW121989   6.761   2.288   4.945
 7030SOL    HW221990   6.892   2.243   5.032
 7031SOL     OW21991   2.327   6.400   4.806
 7031SOL    HW121992   2.273   6.335   4.860
 7031SOL    HW221993   2.272   6.433   4.729
 7032SOL     OW21994   3.402   0.027   3.594
 7032SOL    HW121995   3.383   0.096   3.663
 7032SOL    HW221996   3.337   6.974   3.602
 7033SOL     OW21997   0.711   1.926   3.790
 7033SOL    HW121998   0.725   1.827   3.784
 7033SOL    HW221999   0.800   1.971   3.796
 7034SOL     OW22000   5.851   0.066   3.054
 7034SOL    HW122001   5.951   0.072   3.043
 7034SOL    HW222002   5.809   0.147   3.013
 7035SOL     OW22003   1.300   6.517   1.751
 7035SOL    HW122004   1.388   6.505   1.706
 7035SOL    HW222005   1.239   6.443   1.723
 7036SOL     OW22006   6.930   1.039   2.019
 7036SOL    HW122007   0.004   1.030   1.993
 7036SOL    HW222008   6.923   1.091   2.104
 7037SOL     OW22009   1.595   0.517   6.335
 7037SOL    HW122010   1.688   0.548   6.358
 7037SOL    HW222011   1.530   0.557   6.401
 7038SOL     OW22012   1.674   2.871   4.367
 7038SOL    HW122013   1.602   2.879   4.435
 7038SOL    HW222014   1.640   2.904   4.279
 7039SOL     OW22015   2.839   5.303   1.455
 7039SOL    HW122016   2.793   5.318   1.543
 7039SOL    HW222017   2.828   5.207   1.429
 7040SOL     OW22018   5.921   2.157   4.700
 7040SOL    HW122019   5.930   2.074   4.646
 7040SOL    HW222020   5.839   2.151   4.757
 7041SOL     OW22021   0.928   2.245   1.904
 7041SOL    HW122022   0.915   2.207   1.813
 7041SOL    HW222023   0.842   2.240   1.955
 7042SOL     OW22024   5.374   5.570   6.648
 7042SOL    HW122025   5.346   5.592   6.555
 7042SOL    HW222026   5.463   5.524   6.646
 7043SOL     OW22027   2.384   2.728   3.105
 7043SOL    HW122028   2.338   2.650   3.064
 7043SOL    HW222029   2.460   2.696   3.161
 7044SOL     OW22030   4.846   5.103   2.568
 7044SOL    HW122031   4.892   5.191   2.578
 7044SOL    HW222032   4.850   5.074   2.472
 7045SOL     OW22033   4.718   5.547   2.658
 7045SOL    HW122034   4.629   5.571   2.617
 7045SOL    HW222035   4.764   5.631   2.688
 7046SOL     OW22036   3.750   1.825   3.229
 7046SOL    HW122037   3.752   1.892   3.155
 7046SOL    HW222038   3.767   1.734   3.192
 7047SOL     OW22039   0.871   2.772   2.437
 7047SOL    HW122040   0.928   2.700   2.476
 7047SOL    HW222041   0.829   2.740   2.352
 7048SOL     OW22042   0.142   5.841   2.188
 7048SOL    HW122043   0.111   5.808   2.099
 7048SOL    HW222044   0.195   5.925   2.175
 7049SOL     OW22045   2.640   1.696   1.286
 7049SOL    HW122046   2.686   1.612   1.258
 7049SOL    HW222047   2.696   1.775   1.260
 7050SOL     OW22048   3.839   3.670   2.265
 7050SOL    HW122049   3.856   3.673   2.363
 7050SOL    HW222050   3.877   3.751   2.221
 7051SOL     OW22051   0.236   0.317   1.309
 7051SOL    HW122052   0.242   0.219   1.288
 7051SOL    HW222053   0.268   0.333   1.402
 7052SOL     OW22054   6.280   2.774   3.541
 7052SOL    HW122055   6.362   2.825   3.517
 7052SOL    HW222056   6.268   2.775   3.640
 7053SOL     OW22057   0.889   3.775   4.685
 7053SOL    HW122058   0.801   3.807   4.719
 7053SOL    HW222059   0.884   3.764   4.585
 7054SOL     OW22060   0.609   6.500   0.730
 7054SOL    HW122061   0.587   6.591   0.763
 7054SOL    HW222062   0.670   6.506   0.651
 7055SOL     OW22063   4.034   6.045   5.230
 7055SOL    HW122064   4.131   6.067   5.226
 7055SOL    HW222065   4.017   5.982   5.306
 7056SOL     OW22066   5.239   5.740   2.508
 7056SOL    HW122067   5.270   5.645   2.503
 7056SOL    HW222068   5.318   5.801   2.507
 7057SOL     OW22069   1.098   6.154   3.507
 7057SOL    HW122070   1.105   6.174   3.409
 7057SOL    HW222071   1.060   6.063   3.520
 7058SOL     OW22072   6.613   5.864   6.350
 7058SOL    HW122073   6.568   5.917   6.421
 7058SOL    HW222074   6.644   5.777   6.388
 7059SOL     OW22075   6.853   0.959   3.208
 7059SOL    HW122076   6.804   0.887   3.158
 7059SOL    HW222077   6.931   0.919   3.255
 7060SOL     OW22078   4.283   0.245   1.883
 7060SOL    HW122079   4.252   0.280   1.795
 7060SOL    HW222080   4.351   0.307   1.921
 7061SOL     OW22081   0.290   3.066   4.139
 7061SOL    HW122082   0.375   3.066   4.192
 7061SOL    HW222083   0.309   3.103   4.047
 7062SOL     OW22084   5.355   1.619   5.248
 7062SOL    HW122085   5.284   1.549   5.239
 7062SOL    HW222086   5.434   1.594   5.193
 7063SOL     OW22087   0.639   0.436   1.466
 7063SOL    HW122088   0.572   0.414   1.395
 7063SOL    HW222089   0.591   0.465   1.549
 7064SOL     OW22090   4.143   1.786   2.270
 7064SOL    HW122091   4.212   1.771   2.341
 7064SOL    HW222092   4.131   1.703   2.216
 7065SOL     OW22093   3.871   3.168   6.269
 7065SOL    HW122094   3.856   3.250   6.326
 7065SOL    HW222095   3.894   3.197   6.176
 7066SOL     OW22096   4.262   0.475   0.487
 7066SOL    HW122097   4.323   0.436   0.418
 7066SOL    HW222098   4.175   0.502   0.444
 7067SOL     OW22099   1.608   1.636   5.613
 7067SOL    HW122100   1.630   1.561   5.676
 7067SOL    HW222101   1.634   1.723   5.654
 7068SOL     OW22102   0.654   4.363   4.509
 7068SOL    HW122103   0.744   4.405   4.498
 7068SOL    HW222104   0.645   4.327   4.602
 7069SOL     OW22105   6.282   1.974   3.720
 7069SOL    HW122106   6.378   1.979   3.693
 7069SOL    HW222107   6.230   1.922   3.652
 7070SOL     OW22108   6.817   6.218   4.375
 7070SOL    HW122109   6.816   6.120   4.354
 7070SOL    HW222110   6.730   6.258   4.347
 7071SOL     OW22111   1.681   6.250   6.060
 7071SOL    HW122112   1.614   6.202   6.117
 7071SOL    HW222113   1.641   6.269   5.970
 7072SOL     OW22114   0.581   6.367   6.279
 7072SOL    HW122115   0.595   6.334   6.186
 7072SOL    HW222116   0.664   6.354   6.333
 7073SOL     OW22117   5.259   6.830   4.902
 7073SOL    HW122118   5.165   6.832   4.937
 7073SOL    HW222119   5.310   6.756   4.946
 7074SOL     OW22120   4.223   2.101   1.706
 7074SOL    HW122121   4.203   2.009   1.673
 7074SOL    HW222122   4.147   2.134   1.762
 7075SOL     OW22123   1.393   5.304   5.271
 7075SOL    HW122124   1.347   5.359   5.340
 7075SOL    HW222125   1.466   5.358   5.228
 7076SOL     OW22126   5.619   2.373   6.363
 7076SOL    HW122127   5.665   2.456   6.330
 7076SOL    HW222128   5.603   2.311   6.287
 7077SOL     OW22129   2.105   4.159   4.221
 7077SOL    HW122130   2.093   4.082   4.284
 7077SOL    HW222131   2.157   4.129   4.142
 7078SOL     OW22132   6.656   0.572   1.485
 7078SOL    HW122133   6.585   0.561   1.554
 7078SOL    HW222134   6.744   0.588   1.529
 7079SOL     OW22135   6.534   6.401   5.102
 7079SOL    HW122136   6.538   6.309   5.141
 7079SOL    HW222137   6.532   6.469   5.175
 7080SOL     OW22138   3.057   2.194   4.256
 7080SOL    HW122139   3.024   2.141   4.178
 7080SOL    HW222140   2.985   2.254   4.289
 7081SOL     OW22141   2.614   1.828   6.812
 7081SOL    HW122142   2.654   1.920   6.807
 7081SOL    HW222143   2.679   1.765   6.853
 7082SOL     OW22144   6.318   4.389   6.692
 7082SOL    HW122145   6.347   4.463   6.752
 7082SOL    HW222146   6.220   4.375   6.702
 7083SOL     OW22147   2.938   0.554   0.142
 7083SOL    HW122148   2.900   0.507   0.222
 7083SOL    HW222149   2.958   0.487   0.071
 7084SOL     OW22150   0.296   6.315   5.301
 7084SOL    HW122151   0.322   6.373   5.223
 7084SOL    HW222152   0.264   6.226   5.266
 7085SOL     OW22153   1.604   2.257   1.854
 7085SOL    HW122154   1.698   2.240   1.882
 7085SOL    HW222155   1.597   2.349   1.815
 7086SOL     OW22156   5.294   1.177   5.135
 7086SOL    HW122157   5.388   1.199   5.159
 7086SOL    HW222158   5.247   1.260   5.104
 7087SOL     OW22159   6.148   4.574   3.702
 7087SOL    HW122160   6.121   4.487   3.743
 7087SOL    HW222161   6.105   4.585   3.613
 7088SOL     OW22162   5.634   2.628   3.651
 7088SOL    HW122163   5.731   2.607   3.635
 7088SOL    HW222164   5.579   2.585   3.579
 7089SOL     OW22165   3.255   2.114   4.884
 7089SOL    HW122166   3.193   2.185   4.920
 7089SOL    HW222167   3.245   2.109   4.785
 7090SOL     OW22168   2.188   0.719   6.870
 7090SOL    HW122169   2.131   0.801   6.862
 7090SOL    HW222170   2.209   0.702   6.966
 7091SOL     OW22171   0.299   1.660   6.598
 7091SOL    HW122172   0.235   1.720   6.646
 7091SOL    HW222173   0.298   1.683   6.500
 7092SOL     OW22174   4.495   2.728   6.237
 7092SOL    HW122175   4.457   2.747   6.146
 7092SOL    HW222176   4.494   2.812   6.291
 7093SOL     OW22177   2.891   3.568   3.373
 7093SOL    HW122178   2.879   3.666   3.358
 7093SOL    HW222179   2.858   3.544   3.465
 7094SOL     OW22180   1.013   5.963   5.548
 7094SOL    HW122181   0.959   5.970   5.632
 7094SOL    HW222182   1.015   5.867   5.517
 7095SOL     OW22183   2.830   3.916   5.849
 7095SOL    HW122184   2.754   3.872   5.802
 7095SOL    HW222185   2.908   3.854   5.852
 7096SOL     OW22186   6.183   1.038   3.740
 7096SOL    HW122187   6.153   0.986   3.661
 7096SOL    HW222188   6.230   0.977   3.804
 7097SOL     OW22189   5.863   1.616   1.133
 7097SOL    HW122190   5.830   1.602   1.040
 7097SOL    HW222191   5.807   1.564   1.197
 7098SOL     OW22192   0.636   0.715   4.859
 7098SOL    HW122193   0.635   0.813   4.839
 7098SOL    HW222194   0.721   0.676   4.825
 7099SOL     OW22195   2.591   0.999   5.048
 7099SOL    HW122196   2.623   1.092   5.068
 7099SOL    HW222197   2.492   0.994   5.062
 7100SOL     OW22198   5.701   2.853   1.092
 7100SOL    HW122199   5.705   2.883   1.188
 7100SOL    HW222200   5.607   2.861   1.058
 7101SOL     OW22201   2.198   0.891   4.858
 7101SOL    HW122202   2.170   0.915   4.951
 7101SOL    HW222203   2.243   0.969   4.815
 7102SOL     OW22204   4.587   0.628   1.065
 7102SOL    HW122205   4.666   0.627   1.003
 7102SOL    HW222206   4.565   0.722   1.090
 7103SOL     OW22207   4.389   4.968   1.643
 7103SOL    HW122208   4.299   5.007   1.624
 7103SOL    HW222209   4.439   5.027   1.706
 7104SOL     OW22210   0.817   3.149   4.465
 7104SOL    HW122211   0.755   3.218   4.504
 7104SOL    HW222212   0.848   3.088   4.538
 7105SOL     OW22213   3.048   2.667   5.367
 7105SOL    HW122214   2.967   2.609   5.377
 7105SOL    HW222215   3.130   2.614   5.387
 7106SOL     OW22216   2.932   3.326   3.267
 7106SOL    HW122217   2.858   3.281   3.317
 7106SOL    HW222218   2.930   3.424   3.287
 7107SOL     OW22219   2.623   1.993   0.449
 7107SOL    HW122220   2.571   1.947   0.377
 7107SOL    HW222221   2.566   2.000   0.531
 7108SOL     OW22222   3.908   6.514   2.896
 7108SOL    HW122223   3.992   6.476   2.857
 7108SOL    HW222224   3.898   6.482   2.990
 7109SOL     OW22225   3.002   0.454   6.428
 7109SOL    HW122226   3.063   0.481   6.503
 7109SOL    HW222227   3.036   0.371   6.385
 7110SOL     OW22228   3.350   5.927   4.515
 7110SOL    HW122229   3.283   5.854   4.499
 7110SOL    HW222230   3.346   5.993   4.440
 7111SOL     OW22231   2.148   1.770   4.297
 7111SOL    HW122232   2.137   1.694   4.361
 7111SOL    HW222233   2.202   1.739   4.218
 7112SOL     OW22234   1.325   5.877   4.118
 7112SOL    HW122235   1.347   5.878   4.021
 7112SOL    HW222236   1.341   5.786   4.155
 7113SOL     OW22237   3.553   4.207   5.102
 7113SOL    HW122238   3.593   4.283   5.154
 7113SOL    HW222239   3.611   4.188   5.022
 7114SOL     OW22240   4.068   6.439   1.535
 7114SOL    HW122241   4.066   6.345   1.502
 7114SOL    HW222242   3.978   6.481   1.519
 7115SOL     OW22243   5.510   3.273   2.248
 7115SOL    HW122244   5.427   3.329   2.246
 7115SOL    HW222245   5.523   3.231   2.158
 7116SOL     OW22246   5.819   3.919   3.275
 7116SOL    HW122247   5.856   4.006   3.240
 7116SOL    HW222248   5.893   3.851   3.278
 7117SOL     OW22249   6.791   6.322   4.968
 7117SOL    HW122250   6.720   6.386   4.999
 7117SOL    HW222251   6.848   6.366   4.899
 7118SOL     OW22252   2.800   3.649   1.354
 7118SOL    HW122253   2.825   3.732   1.405
 7118SOL    HW222254   2.882   3.603   1.321
 7119SOL     OW22255   5.005   1.354   2.744
 7119SOL    HW122256   4.921   1.302   2.730
 7119SOL    HW222257   5.013   1.424   2.673
 7120SOL     OW22258   3.767   2.129   2.748
 7120SOL    HW122259   3.795   2.222   2.724
 7120SOL    HW222260   3.675   2.112   2.713
 7121SOL     OW22261   1.923   6.696   2.711
 7121SOL    HW122262   1.969   6.623   2.661
 7121SOL    HW222263   1.852   6.736   2.653
 7122SOL     OW22264   1.141   0.171   5.940
 7122SOL    HW122265   1.158   0.233   5.864
 7122SOL    HW222266   1.113   0.223   6.020
 7123SOL     OW22267   2.394   4.880   2.872
 7123SOL    HW122268   2.455   4.957   2.854
 7123SOL    HW222269   2.359   4.886   2.965
 7124SOL     OW22270   6.959   2.576   0.507
 7124SOL    HW122271   6.947   2.539   0.415
 7124SOL    HW222272   6.871   2.605   0.544
 7125SOL     OW22273   6.277   6.754   0.761
 7125SOL    HW122274   6.317   6.843   0.784
 7125SOL    HW222275   6.180   6.765   0.739
 7126SOL     OW22276   3.489   4.442   0.086
 7126SOL    HW122277   3.552   4.407   0.017
 7126SOL    HW222278   3.402   4.394   0.081
 7127SOL     OW22279   1.728   5.777   4.736
 7127SOL    HW122280   1.757   5.709   4.669
 7127SOL    HW222281   1.654   5.739   4.793
 7128SOL     OW22282   3.180   4.792   0.023
 7128SOL    HW122283   3.215   4.762   0.112
 7128SOL    HW222284   3.166   4.891   0.024
 7129SOL     OW22285   2.298   1.595   0.174
 7129SOL    HW122286   2.286   1.694   0.160
 7129SOL    HW222287   2.236   1.545   0.114
 7130SOL     OW22288   4.055   5.498   5.292
 7130SOL    HW122289   4.066   5.560   5.214
 7130SOL    HW222290   4.020   5.549   5.370
 7131SOL     OW22291   2.363   1.224   0.661
 7131SOL    HW122292   2.363   1.127   0.686
 7131SOL    HW222293   2.435   1.271   0.712
 7132SOL     OW22294   3.853   3.504   6.795
 7132SOL    HW122295   3.788   3.473   6.863
 7132SOL    HW222296   3.943   3.517   6.838
 7133SOL     OW22297   5.358   5.563   5.160
 7133SOL    HW122298   5.418   5.537   5.084
 7133SOL    HW222299   5.335   5.481   5.213
 7134SOL     OW22300   5.638   6.696   2.011
 7134SOL    HW122301   5.569   6.649   1.956
 7134SOL    HW222302   5.595   6.767   2.066
 7135SOL     OW22303   0.920   3.206   2.900
 7135SOL    HW122304   0.891   3.298   2.925
 7135SOL    HW222305   1.014   3.208   2.865
 7136SOL     OW22306   1.981   2.875   1.085
 7136SOL    HW122307   2.064   2.925   1.109
 7136SOL    HW222308   1.916   2.880   1.161
 7137SOL     OW22309   3.990   0.187   6.637
 7137SOL    HW122310   4.003   0.194   6.539
 7137SOL    HW222311   3.907   0.135   6.657
 7138SOL     OW22312   1.682   3.210   6.986
 7138SOL    HW122313   1.645   3.275   0.030
 7138SOL    HW222314   1.648   3.118   7.005
 7139SOL     OW22315   5.434   3.606   2.209
 7139SOL    HW122316   5.390   3.695   2.223
 7139SOL    HW222317   5.371   3.533   2.237
 7140SOL     OW22318   5.809   4.431   4.518
 7140SOL    HW122319   5.782   4.512   4.571
 7140SOL    HW222320   5.758   4.352   4.550
 7141SOL     OW22321   3.457   6.253   1.311
 7141SOL    HW122322   3.475   6.346   1.343
 7141SOL    HW222323   3.542   6.211   1.280
 7142SOL     OW22324   4.147   6.931   3.620
 7142SOL    HW122325   4.150   6.931   3.720
 7142SOL    HW222326   4.075   6.869   3.589
 7143SOL     OW22327   1.281   2.836   6.276
 7143SOL    HW122328   1.237   2.828   6.187
 7143SOL    HW222329   1.377   2.862   6.264
 7144SOL     OW22330   2.020   1.887   2.754
 7144SOL    HW122331   2.088   1.846   2.692
 7144SOL    HW222332   2.038   1.857   2.848
 7145SOL     OW22333   4.178   0.056   0.400
 7145SOL    HW122334   4.166   6.984   0.430
 7145SOL    HW222335   4.176   0.116   0.480
 7146SOL     OW22336   2.491   0.396   0.395
 7146SOL    HW122337   2.408   0.359   0.352
 7146SOL    HW222338   2.473   0.413   0.492
 7147SOL     OW22339   0.157   6.440   3.149
 7147SOL    HW122340   0.217   6.469   3.075
 7147SOL    HW222341   0.093   6.515   3.171
 7148SOL     OW22342   0.983   6.636   6.865
 7148SOL    HW122343   0.886   6.624   6.846
 7148SOL    HW222344   1.001   6.731   6.891
 7149SOL     OW22345   5.785   6.881   2.714
 7149SOL    HW122346   5.846   6.803   2.702
 7149SOL    HW222347   5.700   6.850   2.758
 7150SOL     OW22348   3.237   1.507   2.309
 7150SOL    HW122349   3.199   1.459   2.230
 7150SOL    HW222350   3.319   1.558   2.281
 7151SOL     OW22351   1.965   6.388   0.422
 7151SOL    HW122352   1.891   6.339   0.467
 7151SOL    HW222353   2.047   6.331   0.423
 7152SOL     OW22354   1.303   1.274   4.885
 7152SOL    HW122355   1.287   1.176   4.901
 7152SOL    HW222356   1.320   1.320   4.972
 7153SOL     OW22357   3.343   5.562   1.848
 7153SOL    HW122358   3.251   5.585   1.879
 7153SOL    HW222359   3.402   5.543   1.927
 7154SOL     OW22360   3.379   0.237   3.936
 7154SOL    HW122361   3.394   0.247   4.034
 7154SOL    HW222362   3.310   0.304   3.906
 7155SOL     OW22363   2.079   3.678   1.900
 7155SOL    HW122364   1.994   3.681   1.951
 7155SOL    HW222365   2.142   3.614   1.944
 7156SOL     OW22366   0.322   4.044   4.721
 7156SOL    HW122367   0.308   4.060   4.623
 7156SOL    HW222368   0.358   3.952   4.734
 7157SOL     OW22369   6.035   4.093   2.064
 7157SOL    HW122370   6.067   4.183   2.092
 7157SOL    HW222371   6.042   4.030   2.141
 7158SOL     OW22372   1.209   6.989   2.843
 7158SOL    HW122373   1.155   6.943   2.773
 7158SOL    HW222374   1.242   0.054   2.807
 7159SOL     OW22375   0.536   4.343   2.419
 7159SOL    HW122376   0.616   4.303   2.465
 7159SOL    HW222377   0.565   4.424   2.368
 7160SOL     OW22378   5.183   0.484   3.054
 7160SOL    HW122379   5.179   0.396   3.006
 7160SOL    HW222380   5.227   0.552   2.995
 7161SOL     OW22381   2.932   3.545   4.945
 7161SOL    HW122382   2.975   3.458   4.971
 7161SOL    HW222383   2.840   3.549   4.984
 7162SOL     OW22384   1.971   5.652   5.869
 7162SOL    HW122385   1.927   5.714   5.804
 7162SOL    HW222386   2.019   5.580   5.818
 7163SOL     OW22387   2.897   6.705   3.029
 7163SOL    HW122388   2.806   6.674   3.001
 7163SOL    HW222389   2.949   6.627   3.065
 7164SOL     OW22390   1.803   0.732   4.236
 7164SOL    HW122391   1.852   0.769   4.314
 7164SOL    HW222392   1.825   0.785   4.154
 7165SOL     OW22393   7.015   1.636   1.918
 7165SOL    HW122394   6.998   1.550   1.869
 7165SOL    HW222395   7.019   1.618   2.016
 7166SOL     OW22396   5.881   3.155   0.718
 7166SOL    HW122397   5.791   3.140   0.676
 7166SOL    HW222398   5.950   3.107   0.664
 7167SOL     OW22399   4.919   3.306   4.029
 7167SOL    HW122400   4.970   3.245   3.969
 7167SOL    HW222401   4.832   3.330   3.985
 7168SOL     OW22402   1.900   2.141   3.582
 7168SOL    HW122403   1.914   2.074   3.509
 7168SOL    HW222404   1.803   2.166   3.585
 7169SOL     OW22405   6.297   3.250   5.105
 7169SOL    HW122406   6.319   3.188   5.181
 7169SOL    HW222407   6.257   3.197   5.030
 7170SOL     OW22408   5.013   5.869   3.184
 7170SOL    HW122409   5.097   5.923   3.182
 7170SOL    HW222410   5.005   5.824   3.273
 7171SOL     OW22411   4.956   4.085   6.857
 7171SOL    HW122412   5.055   4.079   6.871
 7171SOL    HW222413   4.937   4.137   6.774
 7172SOL     OW22414   1.379   0.828   5.431
 7172SOL    HW122415   1.459   0.783   5.470
 7172SOL    HW222416   1.383   0.821   5.331
 7173SOL     OW22417   0.179   4.190   5.808
 7173SOL    HW122418   0.250   4.119   5.804
 7173SOL    HW222419   0.094   4.153   5.772
 7174SOL     OW22420   0.567   4.288   0.792
 7174SOL    HW122421   0.603   4.380   0.778
 7174SOL    HW222422   0.501   4.289   0.867
 7175SOL     OW22423   4.871   2.584   6.529
 7175SOL    HW122424   4.879   2.634   6.615
 7175SOL    HW222425   4.878   2.486   6.546
 7176SOL     OW22426   1.229   6.089   2.658
 7176SOL    HW122427   1.194   5.996   2.664
 7176SOL    HW222428   1.194   6.143   2.735
 7177SOL     OW22429   1.824   5.897   4.415
 7177SOL    HW122430   1.907   5.843   4.424
 7177SOL    HW222431   1.842   5.978   4.360
 7178SOL     OW22432   1.871   2.601   5.476
 7178SOL    HW122433   1.934   2.615   5.399
 7178SOL    HW222434   1.919   2.618   5.562
 7179SOL     OW22435   1.976   3.632   4.243
 7179SOL    HW122436   2.032   3.636   4.326
 7179SOL    HW222437   1.892   3.581   4.262
 7180SOL     OW22438   2.166   4.945   0.063
 7180SOL    HW122439   2.202   4.873   0.122
 7180SOL    HW222440   2.066   4.944   0.068
 7181SOL     OW22441   2.234   6.229   0.346
 7181SOL    HW122442   2.247   6.211   0.248
 7181SOL    HW222443   2.223   6.143   0.395
 7182SOL     OW22444   1.522   2.757   5.127
 7182SOL    HW122445   1.583   2.826   5.088
 7182SOL    HW222446   1.551   2.736   5.220
 7183SOL     OW22447   2.511   5.936   0.244
 7183SOL    HW122448   2.448   5.873   0.289
 7183SOL    HW222449   2.551   5.997   0.312
 7184SOL     OW22450   0.253   1.191   3.072
 7184SOL    HW122451   0.245   1.237   3.160
 7184SOL    HW222452   0.172   1.133   3.057
 7185SOL     OW22453   5.475   0.463   5.399
 7185SOL    HW122454   5.515   0.554   5.389
 7185SOL    HW222455   5.378   0.466   5.373
 7186SOL     OW22456   6.518   0.431   0.260
 7186SOL    HW122457   6.480   0.340   0.276
 7186SOL    HW222458   6.444   0.495   0.241
 7187SOL     OW22459   3.570   3.788   6.717
 7187SOL    HW122460   3.471   3.789   6.703
 7187SOL    HW222461   3.611   3.868   6.675
 7188SOL     OW22462   6.215   0.305   0.969
 7188SOL    HW122463   6.148   0.284   0.899
 7188SOL    HW222464   6.286   0.364   0.930
 7189SOL     OW22465   0.483   0.988   6.064
 7189SOL    HW122466   0.424   1.068   6.074
 7189SOL    HW222467   0.479   0.933   6.148
 7190SOL     OW22468   7.020   3.642   3.147
 7190SOL    HW122469   0.085   3.676   3.112
 7190SOL    HW222470   7.019   3.542   3.143
 7191SOL     OW22471   0.060   4.289   2.975
 7191SOL    HW122472   0.041   4.223   2.902
 7191SOL    HW222473   0.039   4.381   2.942
 7192SOL     OW22474   3.380   4.713   5.607
 7192SOL    HW122475   3.472   4.682   5.585
 7192SOL    HW222476   3.382   4.765   5.693
 7193SOL     OW22477   1.638   2.719   2.331
 7193SOL    HW122478   1.669   2.664   2.254
 7193SOL    HW222479   1.667   2.814   2.319
 7194SOL     OW22480   2.970   2.226   0.950
 7194SOL    HW122481   2.883   2.267   0.978
 7194SOL    HW222482   3.043   2.292   0.962
 7195SOL     OW22483   6.884   4.440   6.798
 7195SOL    HW122484   6.801   4.386   6.809
 7195SOL    HW222485   6.937   4.403   6.721
 7196SOL     OW22486   3.256   4.229   0.930
 7196SOL    HW122487   3.239   4.314   0.880
 7196SOL    HW222488   3.187   4.161   0.904
 7197SOL     OW22489   6.847   2.640   5.841
 7197SOL    HW122490   6.835   2.557   5.787
 7197SOL    HW222491   6.771   2.649   5.905
 7198SOL     OW22492   0.830   0.931   6.565
 7198SOL    HW122493   0.831   0.944   6.466
 7198SOL    HW222494   0.799   0.838   6.586
 7199SOL     OW22495   2.023   0.874   2.364
 7199SOL    HW122496   1.938   0.916   2.394
 7199SOL    HW222497   2.024   0.869   2.264
 7200SOL     OW22498   2.879   2.005   0.817
 7200SOL    HW122499   2.881   2.021   0.718
 7200SOL    HW222500   2.902   2.090   0.865
 7201SOL     OW22501   0.997   5.901   4.471
 7201SOL    HW122502   1.095   5.905   4.453
 7201SOL    HW222503   0.981   5.911   4.569
 7202SOL     OW22504   4.274   0.795   6.189
 7202SOL    HW122505   4.371   0.817   6.202
 7202SOL    HW222506   4.264   0.733   6.112
 7203SOL     OW22507   7.008   1.838   0.863
 7203SOL    HW122508   6.914   1.817   0.833
 7203SOL    HW222509   7.017   1.936   0.880
 7204SOL     OW22510   0.354   6.924   5.707
 7204SOL    HW122511   0.364   6.969   5.618
 7204SOL    HW222512   0.256   6.909   5.725
 7205SOL     OW22513   1.107   5.429   3.245
 7205SOL    HW122514   1.043   5.354   3.228
 7205SOL    HW222515   1.167   5.405   3.321
 7206SOL     OW22516   2.057   0.312   0.925
 7206SOL    HW122517   2.022   0.258   1.001
 7206SOL    HW222518   2.040   0.263   0.839
 7207SOL     OW22519   3.663   0.149   2.059
 7207SOL    HW122520   3.725   0.071   2.068
 7207SOL    HW222521   3.716   0.230   2.033
 7208SOL     OW22522   4.097   6.380   3.298
 7208SOL    HW122523   4.145   6.294   3.286
 7208SOL    HW222524   4.159   6.448   3.338
 7209SOL     OW22525   2.913   3.736   2.707
 7209SOL    HW122526   2.986   3.803   2.719
 7209SOL    HW222527   2.900   3.719   2.609
 7210SOL     OW22528   4.669   0.718   3.922
 7210SOL    HW122529   4.627   0.632   3.895
 7210SOL    HW222530   4.650   0.736   4.018
 7211SOL     OW22531   2.486   5.623   4.139
 7211SOL    HW122532   2.421   5.664   4.203
 7211SOL    HW222533   2.479   5.670   4.051
 7212SOL     OW22534   0.406   6.866   4.553
 7212SOL    HW122535   0.444   6.782   4.592
 7212SOL    HW222536   0.366   6.845   4.464
 7213SOL     OW22537   5.345   0.443   6.735
 7213SOL    HW122538   5.423   0.381   6.728
 7213SOL    HW222539   5.369   0.533   6.698
 7214SOL     OW22540   0.577   5.416   5.216
 7214SOL    HW122541   0.498   5.445   5.269
 7214SOL    HW222542   0.568   5.449   5.122
 7215SOL     OW22543   0.421   3.270   5.221
 7215SOL    HW122544   0.475   3.241   5.142
 7215SOL    HW222545   0.363   3.348   5.195
 7216SOL     OW22546   3.030   5.942   0.071
 7216SOL    HW122547   3.004   6.012   0.006
 7216SOL    HW222548   3.124   5.914   0.055
 7217SOL     OW22549   2.298   4.225   2.797
 7217SOL    HW122550   2.366   4.284   2.754
 7217SOL    HW222551   2.208   4.268   2.789
 7218SOL     OW22552   5.026   2.346   5.235
 7218SOL    HW122553   5.009   2.362   5.333
 7218SOL    HW222554   5.102   2.403   5.204
 7219SOL     OW22555   4.641   6.535   4.675
 7219SOL    HW122556   4.561   6.554   4.731
 7219SOL    HW222557   4.723   6.535   4.733
 7220SOL     OW22558   0.415   5.863   4.594
 7220SOL    HW122559   0.469   5.886   4.675
 7220SOL    HW222560   0.462   5.793   4.541
 7221SOL     OW22561   4.251   5.707   4.448
 7221SOL    HW122562   4.286   5.613   4.450
 7221SOL    HW222563   4.151   5.706   4.449
 7222SOL     OW22564   5.940   0.419   3.010
 7222SOL    HW122565   5.859   0.374   2.973
 7222SOL    HW222566   5.946   0.512   2.975
 7223SOL     OW22567   2.880   2.172   1.402
 7223SOL    HW122568   2.835   2.153   1.315
 7223SOL    HW222569   2.855   2.103   1.469
 7224SOL     OW22570   5.878   2.285   4.277
 7224SOL    HW122571   5.861   2.352   4.205
 7224SOL    HW222572   5.970   2.298   4.313
 7225SOL     OW22573   0.908   6.302   6.666
 7225SOL    HW122574   0.952   6.221   6.703
 7225SOL    HW222575   0.871   6.357   6.740
 7226SOL     OW22576   7.012   1.254   0.808
 7226SOL    HW122577   6.962   1.271   0.723
 7226SOL    HW222578   0.088   1.248   0.787
 7227SOL     OW22579   0.302   2.268   0.977
 7227SOL    HW122580   0.312   2.353   1.029
 7227SOL    HW222581   0.299   2.289   0.879
 7228SOL     OW22582   0.900   1.170   2.197
 7228SOL    HW122583   0.892   1.151   2.295
 7228SOL    HW222584   0.883   1.267   2.179
 7229SOL     OW22585   1.436   0.002   4.891
 7229SOL    HW122586   1.359   6.960   4.893
 7229SOL    HW222587   1.434   0.058   4.974
 7230SOL     OW22588   4.708   5.151   4.278
 7230SOL    HW122589   4.648   5.136   4.199
 7230SOL    HW222590   4.680   5.234   4.326
 7231SOL     OW22591   4.809   6.999   0.262
 7231SOL    HW122592   4.885   0.017   0.312
 7231SOL    HW222593   4.817   7.020   0.165
 7232SOL     OW22594   4.951   5.359   2.971
 7232SOL    HW122595   4.918   5.392   3.060
 7232SOL    HW222596   5.043   5.322   2.982
 7233SOL     OW22597   0.573   2.582   4.356
 7233SOL    HW122598   0.553   2.641   4.278
 7233SOL    HW222599   0.616   2.636   4.428
 7234SOL     OW22600   5.361   3.206   3.697
 7234SOL    HW122601   5.451   3.163   3.710
 7234SOL    HW222602   5.374   3.305   3.686
 7235SOL     OW22603   6.832   4.079   2.136
 7235SOL    HW122604   6.864   4.002   2.081
 7235SOL    HW222605   6.862   4.067   2.231
 7236SOL     OW22606   2.466   1.402   2.492
 7236SOL    HW122607   2.413   1.419   2.409
 7236SOL    HW222608   2.530   1.328   2.476
 7237SOL     OW22609   6.250   6.926   5.003
 7237SOL    HW122610   6.175   6.941   4.939
 7237SOL    HW222611   6.315   6.862   4.963
 7238SOL     OW22612   3.074   1.848   1.448
 7238SOL    HW122613   3.131   1.883   1.374
 7238SOL    HW222614   3.041   1.756   1.425
 7239SOL     OW22615   2.265   1.790   2.622
 7239SOL    HW122616   2.352   1.828   2.591
 7239SOL    HW222617   2.233   1.722   2.556
 7240SOL     OW22618   2.125   4.882   6.018
 7240SOL    HW122619   2.164   4.967   5.983
 7240SOL    HW222620   2.166   4.804   5.970
 7241SOL     OW22621   2.940   0.858   0.358
 7241SOL    HW122622   2.880   0.793   0.404
 7241SOL    HW222623   2.940   0.841   0.260
 7242SOL     OW22624   6.460   5.861   0.524
 7242SOL    HW122625   6.491   5.819   0.438
 7242SOL    HW222626   6.360   5.854   0.530
 7243SOL     OW22627   6.888   4.715   6.211
 7243SOL    HW122628   6.844   4.798   6.242
 7243SOL    HW222629   6.820   4.651   6.176
 7244SOL     OW22630   5.750   0.483   0.967
 7244SOL    HW122631   5.771   0.514   1.059
 7244SOL    HW222632   5.749   0.383   0.964
 7245SOL     OW22633   0.609   1.935   5.119
 7245SOL    HW122634   0.648   1.966   5.206
 7245SOL    HW222635   0.547   1.858   5.135
 7246SOL     OW22636   6.064   0.193   4.673
 7246SOL    HW122637   6.047   0.167   4.768
 7246SOL    HW222638   6.114   0.279   4.670
 7247SOL     OW22639   3.031   6.640   3.896
 7247SOL    HW122640   3.125   6.657   3.928
 7247SOL    HW222641   3.028   6.649   3.797
 7248SOL     OW22642   3.585   0.750   3.169
 7248SOL    HW122643   3.511   0.693   3.204
 7248SOL    HW222644   3.668   0.732   3.220
 7249SOL     OW22645   5.258   4.670   1.846
 7249SOL    HW122646   5.244   4.615   1.764
 7249SOL    HW222647   5.237   4.766   1.826
 7250SOL     OW22648   4.070   6.341   6.159
 7250SOL    HW122649   4.154   6.290   6.176
 7250SOL    HW222650   4.092   6.437   6.142
 7251SOL     OW22651   0.538   6.771   5.425
 7251SOL    HW122652   0.571   6.820   5.344
 7251SOL    HW222653   0.587   6.806   5.506
 7252SOL     OW22654   4.024   3.086   3.670
 7252SOL    HW122655   4.006   3.050   3.762
 7252SOL    HW222656   3.987   3.024   3.601
 7253SOL     OW22657   1.948   6.376   6.702
 7253SOL    HW122658   1.885   6.381   6.780
 7253SOL    HW222659   1.901   6.408   6.620
 7254SOL     OW22660   4.718   5.755   4.898
 7254SOL    HW122661   4.762   5.675   4.939
 7254SOL    HW222662   4.705   5.739   4.800
 7255SOL     OW22663   3.707   3.402   1.345
 7255SOL    HW122664   3.729   3.327   1.283
 7255SOL    HW222665   3.715   3.369   1.440
 7256SOL     OW22666   4.878   4.485   4.394
 7256SOL    HW122667   4.898   4.466   4.490
 7256SOL    HW222668   4.936   4.560   4.362
 7257SOL     OW22669   4.795   3.070   3.915
 7257SOL    HW122670   4.703   3.065   3.877
 7257SOL    HW222671   4.814   2.987   3.968
 7258SOL     OW22672   4.009   1.189   3.406
 7258SOL    HW122673   3.953   1.271   3.412
 7258SOL    HW222674   3.974   1.119   3.468
 7259SOL     OW22675   3.329   3.458   1.822
 7259SOL    HW122676   3.304   3.451   1.919
 7259SOL    HW222677   3.427   3.474   1.815
 7260SOL     OW22678   2.774   2.339   2.902
 7260SOL    HW122679   2.713   2.357   2.824
 7260SOL    HW222680   2.739   2.387   2.982
 7261SOL     OW22681   2.253   3.132   1.065
 7261SOL    HW122682   2.191   3.182   1.125
 7261SOL    HW222683   2.348   3.153   1.090
 7262SOL     OW22684   5.545   2.238   4.180
 7262SOL    HW122685   5.494   2.244   4.266
 7262SOL    HW222686   5.643   2.238   4.199
 7263SOL     OW22687   0.248   6.315   2.629
 7263SOL    HW122688   0.231   6.323   2.727
 7263SOL    HW222689   0.254   6.219   2.604
 7264SOL     OW22690   6.289   1.481   6.650
 7264SOL    HW122691   6.322   1.570   6.682
 7264SOL    HW222692   6.365   1.416   6.648
 7265SOL     OW22693   5.390   6.048   5.733
 7265SOL    HW122694   5.348   5.970   5.779
 7265SOL    HW222695   5.335   6.130   5.750
 7266SOL     OW22696   4.210   0.095   1.159
 7266SOL    HW122697   4.153   0.078   1.240
 7266SOL    HW222698   4.306   0.096   1.186
 7267SOL     OW22699   6.862   5.759   5.692
 7267SOL    HW122700   6.776   5.800   5.724
 7267SOL    HW222701   6.920   5.738   5.771
 7268SOL     OW22702   4.463   4.897   2.718
 7268SOL    HW122703   4.450   4.815   2.775
 7268SOL    HW222704   4.386   4.959   2.732
 7269SOL     OW22705   6.857   6.097   1.131
 7269SOL    HW122706   6.879   6.109   1.228
 7269SOL    HW222707   6.875   6.182   1.082
 7270SOL     OW22708   1.346   2.741   4.426
 7270SOL    HW122709   1.260   2.786   4.403
 7270SOL    HW222710   1.399   2.799   4.488
 7271SOL     OW22711   0.366   4.721   4.242
 7271SOL    HW122712   0.358   4.713   4.143
 7271SOL    HW222713   0.414   4.642   4.279
 7272SOL     OW22714   5.814   4.702   1.906
 7272SOL    HW122715   5.791   4.686   2.002
 7272SOL    HW222716   5.731   4.695   1.851
 7273SOL     OW22717   5.412   4.711   2.563
 7273SOL    HW122718   5.387   4.615   2.572
 7273SOL    HW222719   5.486   4.721   2.496
 7274SOL     OW22720   1.148   6.110   6.238
 7274SOL    HW122721   1.223   6.046   6.216
 7274SOL    HW222722   1.144   6.181   6.168
 7275SOL     OW22723   6.740   1.197   2.568
 7275SOL    HW122724   6.647   1.227   2.589
 7275SOL    HW222725   6.737   1.117   2.508
 7276SOL     OW22726   3.370   1.369   3.634
 7276SOL    HW122727   3.415   1.405   3.715
 7276SOL    HW222728   3.270   1.379   3.643
 7277SOL     OW22729   5.473   1.443   4.495
 7277SOL    HW122730   5.416   1.519   4.464
 7277SOL    HW222731   5.514   1.397   4.417
 7278SOL     OW22732   3.054   1.925   2.397
 7278SOL    HW122733   3.021   1.987   2.326
 7278SOL    HW222734   2.997   1.936   2.479
 7279SOL     OW22735   4.092   2.987   6.559
 7279SOL    HW122736   4.100   2.897   6.601
 7279SOL    HW222737   3.998   3.020   6.569
 7280SOL     OW22738   6.612   2.475   4.413
 7280SOL    HW122739   6.626   2.390   4.362
 7280SOL    HW222740   6.529   2.520   4.379
 7281SOL     OW22741   2.228   0.279   0.313
 7281SOL    HW122742   2.136   0.288   0.277
 7281SOL    HW222743   2.270   0.194   0.279
 7282SOL     OW22744   6.515   6.612   0.683
 7282SOL    HW122745   6.428   6.657   0.700
 7282SOL    HW222746   6.505   6.513   0.695
 7283SOL     OW22747   2.468   6.761   1.974
 7283SOL    HW122748   2.545   6.741   2.035
 7283SOL    HW222749   2.457   6.860   1.966
 7284SOL     OW22750   0.420   2.940   4.619
 7284SOL    HW122751   0.343   2.897   4.666
 7284SOL    HW222752   0.476   2.991   4.684
 7285SOL     OW22753   5.574   3.707   1.651
 7285SOL    HW122754   5.569   3.659   1.738
 7285SOL    HW222755   5.513   3.786   1.653
 7286SOL     OW22756   0.976   0.584   0.579
 7286SOL    HW122757   1.046   0.559   0.512
 7286SOL    HW222758   0.885   0.580   0.535
 7287SOL     OW22759   0.009   3.398   4.765
 7287SOL    HW122760   0.013   3.491   4.802
 7287SOL    HW222761   0.030   3.400   4.668
 7288SOL     OW22762   1.191   2.815   2.152
 7288SOL    HW122763   1.164   2.719   2.158
 7288SOL    HW222764   1.180   2.847   2.058
 7289SOL     OW22765   6.673   2.530   2.831
 7289SOL    HW122766   6.646   2.534   2.735
 7289SOL    HW222767   6.597   2.495   2.885
 7290SOL     OW22768   3.132   0.995   5.376
 7290SOL    HW122769   3.217   0.967   5.331
 7290SOL    HW222770   3.153   1.058   5.451
 7291SOL     OW22771   3.273   0.053   0.647
 7291SOL    HW122772   3.361   0.005   0.637
 7291SOL    HW222773   3.223   0.015   0.725
 7292SOL     OW22774   2.526   6.915   2.986
 7292SOL    HW122775   2.574   6.898   3.072
 7292SOL    HW222776   2.430   6.887   2.996
 7293SOL     OW22777   1.750   1.065   5.814
 7293SOL    HW122778   1.782   1.153   5.849
 7293SOL    HW222779   1.673   1.033   5.869
 7294SOL     OW22780   3.081   4.419   0.197
 7294SOL    HW122781   2.987   4.453   0.201
 7294SOL    HW222782   3.099   4.359   0.275
 7295SOL     OW22783   6.862   4.259   1.334
 7295SOL    HW122784   6.865   4.164   1.363
 7295SOL    HW222785   6.801   4.269   1.255
 7296SOL     OW22786   4.490   4.846   2.455
 7296SOL    HW122787   4.520   4.885   2.542
 7296SOL    HW222788   4.432   4.912   2.407
 7297SOL     OW22789   2.698   6.651   2.866
 7297SOL    HW122790   2.636   6.708   2.811
 7297SOL    HW222791   2.758   6.599   2.806
 7298SOL     OW22792   5.337   5.275   0.225
 7298SOL    HW122793   5.383   5.293   0.312
 7298SOL    HW222794   5.346   5.355   0.166
 7299SOL     OW22795   0.876   1.762   0.781
 7299SOL    HW122796   0.887   1.713   0.695
 7299SOL    HW222797   0.786   1.740   0.821
 7300SOL     OW22798   0.709   5.293   2.051
 7300SOL    HW122799   0.718   5.258   1.957
 7300SOL    HW222800   0.793   5.341   2.077
 7301SOL     OW22801   6.875   1.730   5.769
 7301SOL    HW122802   6.787   1.690   5.795
 7301SOL    HW222803   6.871   1.829   5.785
 7302SOL     OW22804   0.401   1.977   5.369
 7302SOL    HW122805   0.406   1.879   5.349
 7302SOL    HW222806   0.473   2.025   5.320
 7303SOL     OW22807   3.305   1.009   6.594
 7303SOL    HW122808   3.341   0.918   6.572
 7303SOL    HW222809   3.273   1.010   6.689
 7304SOL     OW22810   1.985   5.748   1.691
 7304SOL    HW122811   2.074   5.704   1.706
 7304SOL    HW222812   1.990   5.844   1.721
 7305SOL     OW22813   6.054   2.220   1.252
 7305SOL    HW122814   6.006   2.270   1.180
 7305SOL    HW222815   5.995   2.210   1.332
 7306SOL     OW22816   3.540   1.552   1.602
 7306SOL    HW122817   3.536   1.479   1.533
 7306SOL    HW222818   3.458   1.609   1.595
 7307SOL     OW22819   4.277   6.955   2.319
 7307SOL    HW122820   4.291   0.016   2.373
 7307SOL    HW222821   4.258   6.879   2.381
 7308SOL     OW22822   0.011   1.556   3.469
 7308SOL    HW122823   0.023   1.460   3.493
 7308SOL    HW222824   0.010   1.565   3.369
 7309SOL     OW22825   2.408   6.308   1.982
 7309SOL    HW122826   2.450   6.221   1.956
 7309SOL    HW222827   2.443   6.381   1.922
 7310SOL     OW22828   1.719   3.220   6.239
 7310SOL    HW122829   1.703   3.285   6.165
 7310SOL    HW222830   1.780   3.147   6.207
 7311SOL     OW22831   0.786   0.043   0.630
 7311SOL    HW122832   0.712   0.022   0.567
 7311SOL    HW222833   0.872   0.051   0.580
 7312SOL     OW22834   0.832   1.916   4.942
 7312SOL    HW122835   0.766   1.877   4.877
 7312SOL    HW222836   0.784   1.951   5.022
 7313SOL     OW22837   2.850   1.734   0.476
 7313SOL    HW122838   2.931   1.739   0.419
 7313SOL    HW222839   2.801   1.822   0.473
 7314SOL     OW22840   6.888   4.118   6.017
 7314SOL    HW122841   6.886   4.095   6.114
 7314SOL    HW222842   6.919   4.038   5.965
 7315SOL     OW22843   5.798   5.531   2.489
 7315SOL    HW122844   5.886   5.520   2.443
 7315SOL    HW222845   5.812   5.568   2.581
 7316SOL     OW22846   3.409   2.257   6.239
 7316SOL    HW122847   3.370   2.180   6.189
 7316SOL    HW222848   3.337   2.303   6.291
 7317SOL     OW22849   3.739   1.085   2.145
 7317SOL    HW122850   3.806   1.099   2.072
 7317SOL    HW222851   3.752   1.154   2.216
 7318SOL     OW22852   3.251   6.452   2.488
 7318SOL    HW122853   3.348   6.440   2.467
 7318SOL    HW222854   3.241   6.513   2.566
 7319SOL     OW22855   6.141   3.732   6.149
 7319SOL    HW122856   6.141   3.652   6.209
 7319SOL    HW222857   6.208   3.719   6.076
 7320SOL     OW22858   0.598   3.308   0.013
 7320SOL    HW122859   0.499   3.299   0.000
 7320SOL    HW222860   0.617   3.380   0.079
 7321SOL     OW22861   2.055   6.558   6.152
 7321SOL    HW122862   1.960   6.589   6.149
 7321SOL    HW222863   2.062   6.467   6.111
 7322SOL     OW22864   0.062   2.952   2.935
 7322SOL    HW122865   0.081   2.975   2.840
 7322SOL    HW222866   0.033   2.857   2.942
 7323SOL     OW22867   2.667   2.091   1.151
 7323SOL    HW122868   2.727   2.015   1.176
 7323SOL    HW222869   2.632   2.077   1.059
 7324SOL     OW22870   5.850   4.415   2.687
 7324SOL    HW122871   5.935   4.459   2.658
 7324SOL    HW222872   5.862   4.375   2.778
 7325SOL     OW22873   2.924   0.026   5.205
 7325SOL    HW122874   2.936   0.044   5.302
 7325SOL    HW222875   2.896   6.953   5.192
 7326SOL     OW22876   3.895   0.685   6.454
 7326SOL    HW122877   3.818   0.670   6.392
 7326SOL    HW222878   3.968   0.733   6.405
 7327SOL     OW22879   5.701   3.734   3.980
 7327SOL    HW122880   5.743   3.807   4.033
 7327SOL    HW222881   5.704   3.649   4.032
 7328SOL     OW22882   4.569   6.501   6.171
 7328SOL    HW122883   4.667   6.512   6.153
 7328SOL    HW222884   4.533   6.426   6.115
 7329SOL     OW22885   1.242   2.864   6.982
 7329SOL    HW122886   1.240   2.780   0.014
 7329SOL    HW222887   1.220   2.942   0.018
 7330SOL     OW22888   2.843   2.803   1.447
 7330SOL    HW122889   2.794   2.717   1.459
 7330SOL    HW222890   2.832   2.834   1.353
 7331SOL     OW22891   4.887   6.259   2.160
 7331SOL    HW122892   4.969   6.289   2.112
 7331SOL    HW222893   4.870   6.162   2.139
 7332SOL     OW22894   3.841   4.136   6.719
 7332SOL    HW122895   3.759   4.081   6.703
 7332SOL    HW222896   3.831   4.225   6.676
 7333SOL     OW22897   6.302   3.352   3.205
 7333SOL    HW122898   6.337   3.445   3.202
 7333SOL    HW222899   6.230   3.341   3.136
 7334SOL     OW22900   2.941   5.361   5.591
 7334SOL    HW122901   2.847   5.384   5.615
 7334SOL    HW222902   2.946   5.265   5.563
 7335SOL     OW22903   0.238   2.575   2.979
 7335SOL    HW122904   0.224   2.476   2.975
 7335SOL    HW222905   0.335   2.596   2.969
 7336SOL     OW22906   2.284   6.100   1.054
 7336SOL    HW122907   2.268   6.130   0.960
 7336SOL    HW222908   2.242   6.164   1.118
 7337SOL     OW22909   2.719   3.123   1.522
 7337SOL    HW122910   2.718   3.223   1.525
 7337SOL    HW222911   2.796   3.089   1.576
 7338SOL     OW22912   6.244   2.128   1.459
 7338SOL    HW122913   6.251   2.143   1.360
 7338SOL    HW222914   6.175   2.058   1.478
 7339SOL     OW22915   6.842   6.622   5.685
 7339SOL    HW122916   6.806   6.702   5.732
 7339SOL    HW222917   6.932   6.599   5.723
 7340SOL     OW22918   4.224   1.902   6.953
 7340SOL    HW122919   4.197   1.931   0.023
 7340SOL    HW222920   4.277   1.974   6.909
 7341SOL     OW22921   1.191   5.096   5.180
 7341SOL    HW122922   1.228   5.163   5.244
 7341SOL    HW222923   1.165   5.143   5.095
 7342SOL     OW22924   6.088   6.938   0.306
 7342SOL    HW122925   6.125   6.869   0.243
 7342SOL    HW222926   6.014   6.988   0.260
 7343SOL     OW22927   5.624   2.904   2.053
 7343SOL    HW122928   5.579   2.838   2.113
 7343SOL    HW222929   5.667   2.855   1.977
 7344SOL     OW22930   1.675   0.002   6.640
 7344SOL    HW122931   1.644   0.092   6.668
 7344SOL    HW222932   1.736   6.987   6.711
 7345SOL     OW22933   4.855   5.518   5.550
 7345SOL    HW122934   4.928   5.573   5.590
 7345SOL    HW222935   4.783   5.579   5.516
 7346SOL     OW22936   3.949   3.866   1.335
 7346SOL    HW122937   3.878   3.796   1.333
 7346SOL    HW222938   4.031   3.831   1.290
 7347SOL     OW22939   6.651   2.245   1.319
 7347SOL    HW122940   6.738   2.277   1.280
 7347SOL    HW222941   6.582   2.317   1.308
 7348SOL     OW22942   1.571   3.248   3.694
 7348SOL    HW122943   1.646   3.307   3.722
 7348SOL    HW222944   1.485   3.297   3.703
 7349SOL     OW22945   3.472   1.910   1.431
 7349SOL    HW122946   3.421   1.910   1.517
 7349SOL    HW222947   3.412   1.881   1.357
 7350SOL     OW22948   1.235   3.117   3.900
 7350SOL    HW122949   1.164   3.087   3.963
 7350SOL    HW222950   1.265   3.039   3.845
 7351SOL     OW22951   4.409   5.071   6.263
 7351SOL    HW122952   4.483   5.090   6.328
 7351SOL    HW222953   4.358   5.156   6.246
 7352SOL     OW22954   1.900   2.666   3.291
 7352SOL    HW122955   1.885   2.758   3.328
 7352SOL    HW222956   1.998   2.648   3.286
 7353SOL     OW22957   0.660   0.573   5.794
 7353SOL    HW122958   0.716   0.507   5.843
 7353SOL    HW222959   0.601   0.525   5.729
 7354SOL     OW22960   0.314   1.242   6.101
 7354SOL    HW122961   0.380   1.316   6.102
 7354SOL    HW222962   0.256   1.250   6.019
 7355SOL     OW22963   1.544   6.515   0.141
 7355SOL    HW122964   1.569   6.512   0.044
 7355SOL    HW222965   1.448   6.542   0.150
 7356SOL     OW22966   5.320   3.139   6.183
 7356SOL    HW122967   5.248   3.206   6.166
 7356SOL    HW222968   5.323   3.116   6.280
 7357SOL     OW22969   4.573   1.402   1.020
 7357SOL    HW122970   4.496   1.369   1.075
 7357SOL    HW222971   4.643   1.330   1.014
 7358SOL     OW22972   1.904   2.492   2.365
 7358SOL    HW122973   1.840   2.514   2.292
 7358SOL    HW222974   1.923   2.394   2.365
 7359SOL     OW22975   3.365   2.223   1.034
 7359SOL    HW122976   3.350   2.286   0.958
 7359SOL    HW222977   3.289   2.231   1.100
 7360SOL     OW22978   3.273   2.054   6.120
 7360SOL    HW122979   3.204   2.107   6.069
 7360SOL    HW222980   3.270   1.959   6.090
 7361SOL     OW22981   4.144   6.766   1.961
 7361SOL    HW122982   4.137   6.828   1.883
 7361SOL    HW222983   4.132   6.817   2.046
 7362SOL     OW22984   0.445   0.168   4.927
 7362SOL    HW122985   0.436   0.073   4.897
 7362SOL    HW222986   0.414   0.228   4.854
 7363SOL     OW22987   3.858   1.453   1.221
 7363SOL    HW122988   3.869   1.381   1.289
 7363SOL    HW222989   3.763   1.456   1.190
 7364SOL     OW22990   4.060   6.822   1.403
 7364SOL    HW122991   4.042   6.787   1.311
 7364SOL    HW222992   4.115   6.757   1.454
 7365SOL     OW22993   1.471   5.994   2.006
 7365SOL    HW122994   1.405   6.067   1.992
 7365SOL    HW222995   1.548   6.028   2.059
 7366SOL     OW22996   1.637   5.823   0.536
 7366SOL    HW122997   1.656   5.732   0.571
 7366SOL    HW222998   1.549   5.822   0.488
 7367SOL     OW22999   4.439   3.799   1.115
 7367SOL    HW123000   4.376   3.851   1.174
 7367SOL    HW223001   4.519   3.773   1.168
 7368SOL     OW23002   3.776   2.936   4.127
 7368SOL    HW123003   3.843   2.883   4.178
 7368SOL    HW223004   3.692   2.944   4.181
 7369SOL     OW23005   5.222   3.277   0.865
 7369SOL    HW123006   5.304   3.284   0.920
 7369SOL    HW223007   5.165   3.202   0.899
 7370SOL     OW23008   2.182   0.481   5.382
 7370SOL    HW123009   2.170   0.575   5.349
 7370SOL    HW223010   2.279   0.457   5.379
 7371SOL     OW23011   2.329   5.542   3.810
 7371SOL    HW123012   2.245   5.535   3.864
 7371SOL    HW223013   2.305   5.540   3.712
 7372SOL     OW23014   3.234   0.581   5.674
 7372SOL    HW123015   3.151   0.584   5.730
 7372SOL    HW223016   3.299   0.648   5.708
 7373SOL     OW23017   5.317   1.480   3.390
 7373SOL    HW123018   5.311   1.401   3.451
 7373SOL    HW223019   5.293   1.563   3.440
 7374SOL     OW23020   2.926   2.417   5.310
 7374SOL    HW123021   3.006   2.387   5.258
 7374SOL    HW223022   2.934   2.387   5.405
 7375SOL     OW23023   1.969   2.304   3.345
 7375SOL    HW123024   1.931   2.251   3.421
 7375SOL    HW223025   2.055   2.346   3.374
 7376SOL     OW23026   3.767   1.392   0.427
 7376SOL    HW123027   3.727   1.472   0.382
 7376SOL    HW223028   3.820   1.421   0.506
 7377SOL     OW23029   4.810   6.028   1.986
 7377SOL    HW123030   4.813   6.054   1.889
 7377SOL    HW223031   4.826   5.930   1.994
 7378SOL     OW23032   0.389   2.317   4.881
 7378SOL    HW123033   0.379   2.246   4.950
 7378SOL    HW223034   0.312   2.311   4.816
 7379SOL     OW23035   4.003   2.204   2.971
 7379SOL    HW123036   3.944   2.137   2.927
 7379SOL    HW223037   4.069   2.240   2.904
 7380SOL     OW23038   6.474   3.446   5.106
 7380SOL    HW123039   6.521   3.463   5.019
 7380SOL    HW223040   6.404   3.376   5.093
 7381SOL     OW23041   4.938   3.942   2.540
 7381SOL    HW123042   4.991   3.859   2.560
 7381SOL    HW223043   4.878   3.925   2.463
 7382SOL     OW23044   0.219   5.726   6.056
 7382SOL    HW123045   0.273   5.751   6.136
 7382SOL    HW223046   0.280   5.693   5.984
 7383SOL     OW23047   0.267   6.783   2.078
 7383SOL    HW123048   0.322   6.700   2.093
 7383SOL    HW223049   0.327   6.863   2.074
 7384SOL     OW23050   5.047   0.749   2.065
 7384SOL    HW123051   5.108   0.817   2.105
 7384SOL    HW223052   4.985   0.714   2.136
 7385SOL     OW23053   4.300   6.560   1.975
 7385SOL    HW123054   4.252   6.502   1.909
 7385SOL    HW223055   4.248   6.643   1.990
 7386SOL     OW23056   0.334   2.254   5.307
 7386SOL    HW123057   0.344   2.179   5.242
 7386SOL    HW223058   0.395   2.328   5.283
 7387SOL     OW23059   4.196   0.099   4.640
 7387SOL    HW123060   4.204   0.110   4.739
 7387SOL    HW223061   4.239   0.012   4.613
 7388SOL     OW23062   6.489   5.246   3.495
 7388SOL    HW123063   6.461   5.273   3.403
 7388SOL    HW223064   6.416   5.193   3.538
 7389SOL     OW23065   1.133   4.975   0.117
 7389SOL    HW123066   1.223   4.987   0.076
 7389SOL    HW223067   1.136   5.006   0.213
 7390SOL     OW23068   1.596   1.240   0.006
 7390SOL    HW123069   1.504   1.248   6.988
 7390SOL    HW223070   1.636   1.331   0.016
 7391SOL     OW23071   4.893   4.407   4.646
 7391SOL    HW123072   4.951   4.426   4.725
 7391SOL    HW223073   4.833   4.330   4.665
 7392SOL     OW23074   3.262   5.803   6.412
 7392SOL    HW123075   3.328   5.833   6.481
 7392SOL    HW223076   3.233   5.882   6.358
 7393SOL     OW23077   6.032   5.550   1.537
 7393SOL    HW123078   5.969   5.627   1.526
 7393SOL    HW223079   6.066   5.522   1.447
 7394SOL     OW23080   3.251   2.648   6.426
 7394SOL    HW123081   3.176   2.665   6.490
 7394SOL    HW223082   3.337   2.680   6.467
 7395SOL     OW23083   2.029   0.905   0.121
 7395SOL    HW123084   2.058   0.996   0.091
 7395SOL    HW223085   1.934   0.890   0.096
 7396SOL     OW23086   1.023   0.193   0.503
 7396SOL    HW123087   0.945   0.243   0.465
 7396SOL    HW223088   1.095   0.187   0.435
 7397SOL     OW23089   5.161   5.375   4.560
 7397SOL    HW123090   5.090   5.339   4.620
 7397SOL    HW223091   5.118   5.429   4.487
 7398SOL     OW23092   3.302   5.176   3.983
 7398SOL    HW123093   3.354   5.197   4.065
 7398SOL    HW223094   3.236   5.249   3.966
 7399SOL     OW23095   0.076   3.474   5.361
 7399SOL    HW123096   0.115   3.511   5.445
 7399SOL    HW223097   0.143   3.483   5.287
 7400SOL     OW23098   2.726   3.513   6.810
 7400SOL    HW123099   2.768   3.434   6.855
 7400SOL    HW223100   2.653   3.482   6.750
 7401SOL     OW23101   0.766   0.984   3.973
 7401SOL    HW123102   0.679   0.998   3.925
 7401SOL    HW223103   0.780   0.886   3.987
 7402SOL     OW23104   1.712   5.435   4.889
 7402SOL    HW123105   1.677   5.526   4.865
 7402SOL    HW223106   1.810   5.439   4.904
 7403SOL     OW23107   1.582   3.409   3.320
 7403SOL    HW123108   1.626   3.445   3.237
 7403SOL    HW223109   1.517   3.477   3.355
 7404SOL     OW23110   2.528   6.032   1.756
 7404SOL    HW123111   2.622   5.997   1.754
 7404SOL    HW223112   2.512   6.087   1.674
 7405SOL     OW23113   1.985   4.927   4.350
 7405SOL    HW123114   2.000   4.880   4.263
 7405SOL    HW223115   2.073   4.945   4.394
 7406SOL     OW23116   1.322   3.501   3.418
 7406SOL    HW123117   1.288   3.543   3.502
 7406SOL    HW223118   1.287   3.408   3.410
 7407SOL     OW23119   6.856   6.116   5.118
 7407SOL    HW123120   6.850   6.201   5.067
 7407SOL    HW223121   6.949   6.103   5.153
 7408SOL     OW23122   1.044   3.578   5.567
 7408SOL    HW123123   0.995   3.495   5.594
 7408SOL    HW223124   0.982   3.639   5.517
 7409SOL     OW23125   0.131   1.431   4.964
 7409SOL    HW123126   0.062   1.366   4.932
 7409SOL    HW223127   0.221   1.387   4.963
 7410SOL     OW23128   0.058   4.630   0.985
 7410SOL    HW123129   6.996   4.664   0.944
 7410SOL    HW223130   0.131   4.697   0.970
 7411SOL     OW23131   3.160   6.370   4.291
 7411SOL    HW123132   3.225   6.445   4.289
 7411SOL    HW223133   3.081   6.391   4.233
 7412SOL     OW23134   4.191   0.777   2.254
 7412SOL    HW123135   4.287   0.754   2.264
 7412SOL    HW223136   4.177   0.873   2.279
 7413SOL     OW23137   6.045   5.438   4.750
 7413SOL    HW123138   6.087   5.393   4.672
 7413SOL    HW223139   6.116   5.464   4.817
 7414SOL     OW23140   0.307   6.900   3.676
 7414SOL    HW123141   0.220   6.863   3.643
 7414SOL    HW223142   0.334   6.977   3.619
 7415SOL     OW23143   0.920   4.146   3.144
 7415SOL    HW123144   1.016   4.118   3.145
 7415SOL    HW223145   0.863   4.072   3.180
 7416SOL     OW23146   3.133   0.330   4.134
 7416SOL    HW123147   3.214   0.307   4.186
 7416SOL    HW223148   3.093   0.414   4.170
 7417SOL     OW23149   2.254   0.305   6.297
 7417SOL    HW123150   2.326   0.329   6.362
 7417SOL    HW223151   2.270   0.213   6.262
 7418SOL     OW23152   4.017   5.307   0.882
 7418SOL    HW123153   4.104   5.328   0.926
 7418SOL    HW223154   4.033   5.287   0.785
 7419SOL     OW23155   6.637   2.690   4.619
 7419SOL    HW123156   6.588   2.758   4.565
 7419SOL    HW223157   6.698   2.638   4.559
 7420SOL     OW23158   6.709   6.495   2.359
 7420SOL    HW123159   6.797   6.465   2.395
 7420SOL    HW223160   6.721   6.532   2.267
 7421SOL     OW23161   3.328   3.736   1.820
 7421SOL    HW123162   3.368   3.724   1.729
 7421SOL    HW223163   3.393   3.704   1.889
 7422SOL     OW23164   0.294   3.737   1.861
 7422SOL    HW123165   0.196   3.745   1.880
 7422SOL    HW223166   0.344   3.730   1.948
 7423SOL     OW23167   6.488   4.406   6.010
 7423SOL    HW123168   6.403   4.356   6.029
 7423SOL    HW223169   6.546   4.351   5.950
 7424SOL     OW23170   6.377   0.825   4.473
 7424SOL    HW123171   6.392   0.766   4.394
 7424SOL    HW223172   6.285   0.809   4.509
 7425SOL     OW23173   4.441   5.971   6.634
 7425SOL    HW123174   4.391   5.920   6.704
 7425SOL    HW223175   4.383   6.043   6.597
 7426SOL     OW23176   1.056   2.116   5.845
 7426SOL    HW123177   1.025   2.021   5.844
 7426SOL    HW223178   1.002   2.170   5.781
 7427SOL     OW23179   3.560   6.136   4.613
 7427SOL    HW123180   3.473   6.089   4.628
 7427SOL    HW223181   3.632   6.088   4.663
 7428SOL     OW23182   3.904   1.550   5.227
 7428SOL    HW123183   4.003   1.543   5.244
 7428SOL    HW223184   3.865   1.621   5.285
 7429SOL     OW23185   5.331   0.585   3.253
 7429SOL    HW123186   5.336   0.529   3.336
 7429SOL    HW223187   5.282   0.535   3.182
 7430SOL     OW23188   0.265   3.743   6.602
 7430SOL    HW123189   0.304   3.835   6.608
 7430SOL    HW223190   0.319   3.688   6.538
 7431SOL     OW23191   0.355   3.654   2.117
 7431SOL    HW123192   0.309   3.573   2.080
 7431SOL    HW223193   0.361   3.646   2.217
 7432SOL     OW23194   0.336   6.825   3.272
 7432SOL    HW123195   0.387   6.740   3.260
 7432SOL    HW223196   0.313   6.863   3.183
 7433SOL     OW23197   5.939   5.137   0.898
 7433SOL    HW123198   5.942   5.199   0.976
 7433SOL    HW223199   5.961   5.044   0.928
 7434SOL     OW23200   4.406   0.909   6.474
 7434SOL    HW123201   4.431   0.988   6.419
 7434SOL    HW223202   4.475   0.837   6.463
 7435SOL     OW23203   3.724   5.780   6.974
 7435SOL    HW123204   3.673   5.838   0.016
 7435SOL    HW223205   3.677   5.692   6.964
 7436SOL     OW23206   5.823   3.366   6.043
 7436SOL    HW123207   5.839   3.430   5.968
 7436SOL    HW223208   5.747   3.305   6.019
 7437SOL     OW23209   0.208   5.887   0.169
 7437SOL    HW123210   0.167   5.978   0.173
 7437SOL    HW223211   0.136   5.819   0.160
 7438SOL     OW23212   0.893   5.424   1.092
 7438SOL    HW123213   0.857   5.332   1.074
 7438SOL    HW223214   0.896   5.476   1.007
 7439SOL     OW23215   1.407   6.485   4.752
 7439SOL    HW123216   1.468   6.406   4.751
 7439SOL    HW223217   1.326   6.464   4.807
 7440SOL     OW23218   0.979   3.050   4.040
 7440SOL    HW123219   0.995   3.099   4.126
 7440SOL    HW223220   0.907   3.096   3.988
 7441SOL     OW23221   5.096   6.216   4.703
 7441SOL    HW123222   5.084   6.123   4.739
 7441SOL    HW223223   5.187   6.249   4.727
 7442SOL     OW23224   1.282   1.385   6.617
 7442SOL    HW123225   1.292   1.420   6.524
 7442SOL    HW223226   1.260   1.287   6.614
 7443SOL     OW23227   0.345   0.746   1.254
 7443SOL    HW123228   0.268   0.793   1.297
 7443SOL    HW223229   0.423   0.746   1.316
 7444SOL     OW23230   6.858   3.821   4.973
 7444SOL    HW123231   6.904   3.872   4.900
 7444SOL    HW223232   6.912   3.827   5.057
 7445SOL     OW23233   3.705   0.445   1.239
 7445SOL    HW123234   3.779   0.478   1.297
 7445SOL    HW223235   3.741   0.423   1.148
 7446SOL     OW23236   5.525   4.391   0.744
 7446SOL    HW123237   5.565   4.321   0.684
 7446SOL    HW223238   5.521   4.356   0.837
 7447SOL     OW23239   1.633   2.958   5.412
 7447SOL    HW123240   1.622   3.025   5.337
 7447SOL    HW223241   1.653   3.007   5.497
 7448SOL     OW23242   5.602   6.869   5.122
 7448SOL    HW123243   5.546   6.788   5.105
 7448SOL    HW223244   5.629   6.910   5.035
 7449SOL     OW23245   6.498   2.220   2.014
 7449SOL    HW123246   6.481   2.131   1.971
 7449SOL    HW223247   6.424   2.241   2.078
 7450SOL     OW23248   5.022   2.106   4.071
 7450SOL    HW123249   4.980   2.123   4.160
 7450SOL    HW223250   5.073   2.187   4.041
 7451SOL     OW23251   1.533   0.188   2.678
 7451SOL    HW123252   1.574   0.180   2.769
 7451SOL    HW223253   1.433   0.188   2.687
 7452SOL     OW23254   0.443   6.600   4.668
 7452SOL    HW123255   0.347   6.627   4.674
 7452SOL    HW223256   0.450   6.500   4.674
 7453SOL     OW23257   5.087   5.810   6.214
 7453SOL    HW123258   5.090   5.862   6.299
 7453SOL    HW223259   5.033   5.727   6.227
 7454SOL     OW23260   1.112   2.778   1.879
 7454SOL    HW123261   1.025   2.731   1.892
 7454SOL    HW223262   1.110   2.830   1.794
 7455SOL     OW23263   0.246   1.489   1.846
 7455SOL    HW123264   0.169   1.554   1.845
 7455SOL    HW223265   0.244   1.434   1.762
 7456SOL     OW23266   0.726   2.393   4.156
 7456SOL    HW123267   0.712   2.482   4.198
 7456SOL    HW223268   0.688   2.393   4.063
 7457SOL     OW23269   3.591   0.947   5.471
 7457SOL    HW123270   3.642   0.862   5.482
 7457SOL    HW223271   3.551   0.973   5.559
 7458SOL     OW23272   2.527   0.139   6.147
 7458SOL    HW123273   2.568   0.228   6.170
 7458SOL    HW223274   2.481   0.103   6.228
 7459SOL     OW23275   4.774   0.625   0.861
 7459SOL    HW123276   4.812   0.555   0.801
 7459SOL    HW223277   4.744   0.703   0.806
 7460SOL     OW23278   1.846   4.514   1.216
 7460SOL    HW123279   1.863   4.420   1.187
 7460SOL    HW223280   1.758   4.518   1.264
 7461SOL     OW23281   6.138   1.465   6.407
 7461SOL    HW123282   6.174   1.443   6.498
 7461SOL    HW223283   6.051   1.419   6.393
 7462SOL     OW23284   2.156   3.173   2.807
 7462SOL    HW123285   2.129   3.267   2.789
 7462SOL    HW223286   2.147   3.154   2.905
 7463SOL     OW23287   3.332   4.939   1.459
 7463SOL    HW123288   3.277   4.875   1.406
 7463SOL    HW223289   3.400   4.888   1.512
 7464SOL     OW23290   3.259   6.890   6.352
 7464SOL    HW123291   3.167   6.857   6.369
 7464SOL    HW223292   3.320   6.812   6.335
 7465SOL     OW23293   1.260   6.861   0.202
 7465SOL    HW123294   1.332   6.931   0.200
 7465SOL    HW223295   1.174   6.902   0.171
 7466SOL     OW23296   0.447   0.154   6.358
 7466SOL    HW123297   0.517   0.132   6.291
 7466SOL    HW223298   0.362   0.107   6.334
 7467SOL     OW23299   6.757   1.246   0.662
 7467SOL    HW123300   6.781   1.303   0.584
 7467SOL    HW223301   6.661   1.219   0.655
 7468SOL     OW23302   6.157   2.876   2.450
 7468SOL    HW123303   6.081   2.828   2.493
 7468SOL    HW223304   6.134   2.973   2.437
 7469SOL     OW23305   6.685   0.030   0.078
 7469SOL    HW123306   6.733   0.102   0.129
 7469SOL    HW223307   6.595   0.063   0.051
 7470SOL     OW23308   0.504   3.073   4.332
 7470SOL    HW123309   0.435   3.039   4.396
 7470SOL    HW223310   0.588   3.019   4.343
 7471SOL     OW23311   5.675   5.998   5.819
 7471SOL    HW123312   5.585   6.030   5.791
 7471SOL    HW223313   5.742   6.070   5.802
 7472SOL     OW23314   5.679   6.531   4.595
 7472SOL    HW123315   5.707   6.443   4.555
 7472SOL    HW223316   5.695   6.604   4.529
 7473SOL     OW23317   0.337   4.187   2.533
 7473SOL    HW123318   0.391   4.258   2.489
 7473SOL    HW223319   0.311   4.118   2.465
 7474SOL     OW23320   2.289   1.562   5.405
 7474SOL    HW123321   2.379   1.596   5.377
 7474SOL    HW223322   2.292   1.462   5.409
 7475SOL     OW23323   3.551   1.364   2.099
 7475SOL    HW123324   3.487   1.432   2.135
 7475SOL    HW223325   3.630   1.357   2.160
 7476SOL     OW23326   3.703   5.465   4.347
 7476SOL    HW123327   3.650   5.463   4.432
 7476SOL    HW223328   3.642   5.453   4.269
 7477SOL     OW23329   6.253   1.552   4.572
 7477SOL    HW123330   6.314   1.538   4.494
 7477SOL    HW223331   6.186   1.622   4.551
 7478SOL     OW23332   4.541   4.849   7.009
 7478SOL    HW123333   4.567   4.940   6.978
 7478SOL    HW223334   4.623   4.800   0.018
 7479SOL     OW23335   3.923   2.479   1.090
 7479SOL    HW123336   3.834   2.489   1.047
 7479SOL    HW223337   3.913   2.484   1.190
 7480SOL     OW23338   6.424   4.208   1.577
 7480SOL    HW123339   6.397   4.172   1.488
 7480SOL    HW223340   6.476   4.293   1.564
 7481SOL     OW23341   6.122   5.372   2.590
 7481SOL    HW123342   6.116   5.305   2.664
 7481SOL    HW223343   6.103   5.329   2.503
 7482SOL     OW23344   5.490   1.982   3.016
 7482SOL    HW123345   5.509   2.072   2.977
 7482SOL    HW223346   5.492   1.913   2.943
 7483SOL     OW23347   4.533   2.261   5.183
 7483SOL    HW123348   4.618   2.292   5.141
 7483SOL    HW223349   4.552   2.187   5.247
 7484SOL     OW23350   0.748   6.936   3.324
 7484SOL    HW123351   0.703   6.879   3.256
 7484SOL    HW223352   0.772   6.881   3.404
 7485SOL     OW23353   3.023   6.801   4.680
 7485SOL    HW123354   3.078   6.808   4.597
 7485SOL    HW223355   2.928   6.822   4.659
 7486SOL     OW23356   2.984   0.573   6.105
 7486SOL    HW123357   2.933   0.633   6.166
 7486SOL    HW223358   2.944   0.482   6.107
 7487SOL     OW23359   2.533   6.493   2.450
 7487SOL    HW123360   2.606   6.476   2.517
 7487SOL    HW223361   2.555   6.575   2.397
 7488SOL     OW23362   1.933   0.076   4.763
 7488SOL    HW123363   1.853   0.022   4.789
 7488SOL    HW223364   1.912   0.131   4.682
 7489SOL     OW23365   5.386   2.474   4.745
 7489SOL    HW123366   5.400   2.385   4.789
 7489SOL    HW223367   5.422   2.546   4.804
 7490SOL     OW23368   1.053   1.844   0.981
 7490SOL    HW123369   1.071   1.792   1.064
 7490SOL    HW223370   0.980   1.800   0.929
 7491SOL     OW23371   6.642   3.588   6.749
 7491SOL    HW123372   6.570   3.533   6.705
 7491SOL    HW223373   6.732   3.554   6.722
 7492SOL     OW23374   2.770   1.072   4.472
 7492SOL    HW123375   2.747   1.087   4.568
 7492SOL    HW223376   2.868   1.090   4.459
 7493SOL     OW23377   6.808   4.098   6.724
 7493SOL    HW123378   6.793   4.150   6.809
 7493SOL    HW223379   6.862   4.153   6.661
 7494SOL     OW23380   5.852   0.754   2.545
 7494SOL    HW123381   5.915   0.685   2.582
 7494SOL    HW223382   5.884   0.845   2.571
 7495SOL     OW23383   2.398   0.933   0.681
 7495SOL    HW123384   2.366   0.857   0.737
 7495SOL    HW223385   2.428   0.899   0.592
 7496SOL     OW23386   0.223   3.593   6.832
 7496SOL    HW123387   0.223   3.654   6.754
 7496SOL    HW223388   0.179   3.638   6.910
 7497SOL     OW23389   2.923   4.127   0.153
 7497SOL    HW123390   2.920   4.226   0.145
 7497SOL    HW223391   2.971   4.088   0.075
 7498SOL     OW23392   2.235   1.274   5.424
 7498SOL    HW123393   2.140   1.283   5.396
 7498SOL    HW223394   2.270   1.184   5.397
 7499SOL     OW23395   4.982   1.072   3.482
 7499SOL    HW123396   4.924   1.152   3.500
 7499SOL    HW223397   4.976   1.048   3.385
 7500SOL     OW23398   3.746   5.770   4.238
 7500SOL    HW123399   3.711   5.819   4.318
 7500SOL    HW223400   3.734   5.672   4.251
 7501SOL     OW23401   6.763   4.561   4.298
 7501SOL    HW123402   6.811   4.538   4.213
 7501SOL    HW223403   6.791   4.651   4.330
 7502SOL     OW23404   1.203   0.344   4.900
 7502SOL    HW123405   1.217   0.296   4.814
 7502SOL    HW223406   1.203   0.277   4.975
 7503SOL     OW23407   2.122   1.315   0.577
 7503SOL    HW123408   2.215   1.282   0.592
 7503SOL    HW223409   2.091   1.365   0.658
 7504SOL     OW23410   2.347   0.149   3.167
 7504SOL    HW123411   2.291   0.158   3.085
 7504SOL    HW223412   2.444   0.153   3.143
 7505SOL     OW23413   2.307   1.974   5.516
 7505SOL    HW123414   2.213   1.942   5.508
 7505SOL    HW223415   2.349   1.977   5.426
 7506SOL     OW23416   4.771   6.316   2.804
 7506SOL    HW123417   4.780   6.410   2.834
 7506SOL    HW223418   4.703   6.310   2.731
 7507SOL     OW23419   0.676   0.748   1.942
 7507SOL    HW123420   0.772   0.728   1.962
 7507SOL    HW223421   0.621   0.667   1.960
 7508SOL     OW23422   6.693   6.610   2.102
 7508SOL    HW123423   6.773   6.667   2.083
 7508SOL    HW223424   6.702   6.524   2.052
 7509SOL     OW23425   5.681   4.434   1.590
 7509SOL    HW123426   5.705   4.498   1.517
 7509SOL    HW223427   5.692   4.340   1.557
 7510SOL     OW23428   2.673   4.666   5.315
 7510SOL    HW123429   2.750   4.624   5.268
 7510SOL    HW223430   2.609   4.702   5.247
 7511SOL     OW23431   1.821   0.085   3.369
 7511SOL    HW123432   1.734   0.130   3.390
 7511SOL    HW223433   1.861   0.125   3.286
 7512SOL     OW23434   3.367   4.859   6.741
 7512SOL    HW123435   3.304   4.937   6.743
 7512SOL    HW223436   3.415   4.857   6.654
 7513SOL     OW23437   2.035   1.816   1.539
 7513SOL    HW123438   2.087   1.881   1.595
 7513SOL    HW223439   2.086   1.797   1.455
 7514SOL     OW23440   2.355   5.182   1.863
 7514SOL    HW123441   2.308   5.268   1.886
 7514SOL    HW223442   2.453   5.200   1.853
 7515SOL     OW23443   0.253   5.566   2.145
 7515SOL    HW123444   0.217   5.623   2.218
 7515SOL    HW223445   0.314   5.620   2.087
 7516SOL     OW23446   6.400   5.909   4.280
 7516SOL    HW123447   6.439   5.953   4.361
 7516SOL    HW223448   6.312   5.952   4.258
 7517SOL     OW23449   0.044   3.344   1.316
 7517SOL    HW123450   0.036   3.320   1.220
 7517SOL    HW223451   6.990   3.305   1.368
 7518SOL     OW23452   4.187   5.229   3.284
 7518SOL    HW123453   4.261   5.290   3.313
 7518SOL    HW223454   4.101   5.279   3.285
 7519SOL     OW23455   0.416   6.935   4.085
 7519SOL    HW123456   0.351   6.919   4.012
 7519SOL    HW223457   0.430   0.011   4.097
 7520SOL     OW23458   3.068   6.815   1.773
 7520SOL    HW123459   2.991   6.858   1.727
 7520SOL    HW223460   3.090   6.865   1.857
 7521SOL     OW23461   4.585   4.694   5.946
 7521SOL    HW123462   4.512   4.626   5.960
 7521SOL    HW223463   4.544   4.783   5.928
 7522SOL     OW23464   2.818   6.491   6.334
 7522SOL    HW123465   2.803   6.564   6.268
 7522SOL    HW223466   2.790   6.521   6.425
 7523SOL     OW23467   5.709   0.769   6.407
 7523SOL    HW123468   5.716   0.711   6.488
 7523SOL    HW223469   5.671   0.858   6.432
 7524SOL     OW23470   2.056   2.421   6.710
 7524SOL    HW123471   2.115   2.467   6.643
 7524SOL    HW223472   2.075   2.323   6.708
 7525SOL     OW23473   2.794   0.545   6.725
 7525SOL    HW123474   2.721   0.591   6.775
 7525SOL    HW223475   2.859   0.613   6.691
 7526SOL     OW23476   3.357   3.382   2.382
 7526SOL    HW123477   3.350   3.285   2.405
 7526SOL    HW223478   3.266   3.424   2.387
 7527SOL     OW23479   4.177   5.805   3.140
 7527SOL    HW123480   4.121   5.808   3.222
 7527SOL    HW223481   4.152   5.881   3.079
 7528SOL     OW23482   4.490   1.792   6.835
 7528SOL    HW123483   4.585   1.781   6.805
 7528SOL    HW223484   4.452   1.875   6.795
 7529SOL     OW23485   6.016   0.544   4.597
 7529SOL    HW123486   5.964   0.508   4.675
 7529SOL    HW223487   5.960   0.540   4.515
 7530SOL     OW23488   6.987   3.989   1.873
 7530SOL    HW123489   6.916   4.027   1.814
 7530SOL    HW223490   6.993   3.890   1.858
 7531SOL     OW23491   4.729   2.139   3.954
 7531SOL    HW123492   4.824   2.125   3.980
 7531SOL    HW223493   4.724   2.166   3.858
 7532SOL     OW23494   5.624   5.159   1.475
 7532SOL    HW123495   5.644   5.087   1.541
 7532SOL    HW223496   5.644   5.248   1.515
 7533SOL     OW23497   2.697   1.538   2.648
 7533SOL    HW123498   2.672   1.506   2.739
 7533SOL    HW223499   2.638   1.495   2.579
 7534SOL     OW23500   4.252   6.856   6.238
 7534SOL    HW123501   4.275   6.775   6.293
 7534SOL    HW223502   4.326   6.874   6.173
 7535SOL     OW23503   3.174   0.374   5.906
 7535SOL    HW123504   3.192   0.451   5.967
 7535SOL    HW223505   3.082   0.382   5.869
 7536SOL     OW23506   5.294   5.304   5.256
 7536SOL    HW123507   5.347   5.219   5.257
 7536SOL    HW223508   5.198   5.282   5.240
 7537SOL     OW23509   2.562   5.401   3.387
 7537SOL    HW123510   2.634   5.365   3.327
 7537SOL    HW223511   2.601   5.468   3.450
 7538SOL     OW23512   3.609   3.435   2.087
 7538SOL    HW123513   3.574   3.346   2.116
 7538SOL    HW223514   3.708   3.432   2.083
 7539SOL     OW23515   2.070   2.707   3.866
 7539SOL    HW123516   2.023   2.620   3.850
 7539SOL    HW223517   2.104   2.743   3.780
 7540SOL     OW23518   3.101   6.647   5.597
 7540SOL    HW123519   3.095   6.550   5.575
 7540SOL    HW223520   3.135   6.658   5.691
 7541SOL     OW23521   0.009   4.253   4.225
 7541SOL    HW123522   0.052   4.333   4.267
 7541SOL    HW223523   6.942   4.237   4.267
 7542SOL     OW23524   0.710   5.398   6.832
 7542SOL    HW123525   0.690   5.457   6.754
 7542SOL    HW223526   0.631   5.340   6.852
 7543SOL     OW23527   3.891   1.895   1.108
 7543SOL    HW123528   3.793   1.903   1.126
 7543SOL    HW223529   3.935   1.845   1.183
 7544SOL     OW23530   0.715   2.572   3.044
 7544SOL    HW123531   0.699   2.477   3.019
 7544SOL    HW223532   0.770   2.576   3.128
 7545SOL     OW23533   5.933   6.332   2.533
 7545SOL    HW123534   5.942   6.382   2.619
 7545SOL    HW223535   5.904   6.396   2.461
 7546SOL     OW23536   3.512   0.506   2.080
 7546SOL    HW123537   3.513   0.470   2.174
 7546SOL    HW223538   3.417   0.507   2.047
 7547SOL     OW23539   4.525   0.276   0.399
 7547SOL    HW123540   4.449   0.243   0.342
 7547SOL    HW223541   4.611   0.264   0.350
 7548SOL     OW23542   3.660   1.972   0.353
 7548SOL    HW123543   3.718   2.053   0.345
 7548SOL    HW223544   3.718   1.891   0.361
 7549SOL     OW23545   5.509   1.922   0.792
 7549SOL    HW123546   5.467   1.854   0.853
 7549SOL    HW223547   5.446   1.998   0.779
 7550SOL     OW23548   2.488   4.491   2.275
 7550SOL    HW123549   2.429   4.465   2.352
 7550SOL    HW223550   2.431   4.524   2.199
 7551SOL     OW23551   4.748   3.682   6.452
 7551SOL    HW123552   4.787   3.604   6.402
 7551SOL    HW223553   4.748   3.662   6.550
 7552SOL     OW23554   1.711   5.835   3.176
 7552SOL    HW123555   1.698   5.866   3.271
 7552SOL    HW223556   1.739   5.912   3.119
 7553SOL     OW23557   4.376   5.132   5.408
 7553SOL    HW123558   4.393   5.198   5.481
 7553SOL    HW223559   4.338   5.179   5.329
 7554SOL     OW23560   4.530   0.974   1.714
 7554SOL    HW123561   4.560   0.886   1.676
 7554SOL    HW223562   4.447   1.003   1.668
 7555SOL     OW23563   1.700   4.736   5.214
 7555SOL    HW123564   1.700   4.821   5.161
 7555SOL    HW223565   1.738   4.662   5.159
 7556SOL     OW23566   0.915   2.977   5.719
 7556SOL    HW123567   0.947   3.069   5.741
 7556SOL    HW223568   0.818   2.980   5.693
 7557SOL     OW23569   5.145   2.476   5.957
 7557SOL    HW123570   5.216   2.438   5.899
 7557SOL    HW223571   5.184   2.502   6.046
 7558SOL     OW23572   2.284   2.709   4.026
 7558SOL    HW123573   2.270   2.788   4.086
 7558SOL    HW223574   2.213   2.708   3.955
 7559SOL     OW23575   6.463   4.916   0.085
 7559SOL    HW123576   6.404   4.836   0.073
 7559SOL    HW223577   6.471   4.964   7.020
 7560SOL     OW23578   5.492   6.532   0.871
 7560SOL    HW123579   5.510   6.446   0.823
 7560SOL    HW223580   5.476   6.605   0.805
 7561SOL     OW23581   0.838   3.283   6.679
 7561SOL    HW123582   0.832   3.199   6.734
 7561SOL    HW223583   0.817   3.362   6.737
 7562SOL     OW23584   6.021   6.005   5.150
 7562SOL    HW123585   6.005   5.948   5.230
 7562SOL    HW223586   6.095   5.966   5.095
 7563SOL     OW23587   2.671   6.053   0.826
 7563SOL    HW123588   2.718   5.968   0.849
 7563SOL    HW223589   2.587   6.031   0.777
 7564SOL     OW23590   5.018   1.246   3.023
 7564SOL    HW123591   5.089   1.292   3.076
 7564SOL    HW223592   4.988   1.305   2.948
 7565SOL     OW23593   5.242   4.236   0.101
 7565SOL    HW123594   5.211   4.147   0.067
 7565SOL    HW223595   5.316   4.223   0.167
 7566SOL     OW23596   6.976   5.215   3.827
 7566SOL    HW123597   6.911   5.147   3.863
 7566SOL    HW223598   6.932   5.305   3.824
 7567SOL     OW23599   1.881   1.993   5.124
 7567SOL    HW123600   1.872   2.084   5.084
 7567SOL    HW223601   1.943   1.938   5.068
 7568SOL     OW23602   5.517   6.192   3.325
 7568SOL    HW123603   5.567   6.191   3.411
 7568SOL    HW223604   5.580   6.209   3.250
 7569SOL     OW23605   4.109   4.929   6.526
 7569SOL    HW123606   4.018   4.901   6.557
 7569SOL    HW223607   4.178   4.865   6.560
 7570SOL     OW23608   5.449   5.040   5.199
 7570SOL    HW123609   5.380   4.968   5.208
 7570SOL    HW223610   5.505   5.044   5.282
 7571SOL     OW23611   4.400   5.776   3.416
 7571SOL    HW123612   4.431   5.792   3.322
 7571SOL    HW223613   4.432   5.687   3.447
 7572SOL     OW23614   4.236   1.309   2.763
 7572SOL    HW123615   4.261   1.284   2.670
 7572SOL    HW223616   4.280   1.246   2.827
 7573SOL     OW23617   6.634   6.822   5.004
 7573SOL    HW123618   6.690   6.816   5.087
 7573SOL    HW223619   6.675   6.764   4.933
 7574SOL     OW23620   6.340   1.087   4.619
 7574SOL    HW123621   6.349   0.990   4.594
 7574SOL    HW223622   6.362   1.098   4.716
 7575SOL     OW23623   4.232   0.683   5.949
 7575SOL    HW123624   4.146   0.633   5.949
 7575SOL    HW223625   4.242   0.732   5.862
 7576SOL     OW23626   5.943   5.043   0.514
 7576SOL    HW123627   6.032   5.063   0.554
 7576SOL    HW223628   5.918   4.948   0.533
 7577SOL     OW23629   0.051   6.342   5.831
 7577SOL    HW123630   7.008   6.280   5.788
 7577SOL    HW223631   0.046   6.431   5.785
 7578SOL     OW23632   2.849   6.128   2.506
 7578SOL    HW123633   2.876   6.125   2.409
 7578SOL    HW223634   2.779   6.058   2.523
 7579SOL     OW23635   5.728   2.374   2.065
 7579SOL    HW123636   5.807   2.336   2.016
 7579SOL    HW223637   5.679   2.437   2.006
 7580SOL     OW23638   1.562   4.201   4.027
 7580SOL    HW123639   1.651   4.213   4.070
 7580SOL    HW223640   1.518   4.120   4.065
 7581SOL     OW23641   6.712   0.046   1.472
 7581SOL    HW123642   6.719   6.982   1.423
 7581SOL    HW223643   6.730   0.031   1.569
 7582SOL     OW23644   2.586   0.624   0.162
 7582SOL    HW123645   2.555   0.718   0.176
 7582SOL    HW223646   2.685   0.623   0.148
 7583SOL     OW23647   6.290   3.156   0.835
 7583SOL    HW123648   6.382   3.117   0.845
 7583SOL    HW223649   6.231   3.119   0.906
 7584SOL     OW23650   2.269   6.696   1.012
 7584SOL    HW123651   2.296   6.742   0.927
 7584SOL    HW223652   2.315   6.608   1.018
 7585SOL     OW23653   2.000   2.907   5.935
 7585SOL    HW123654   2.094   2.877   5.921
 7585SOL    HW223655   1.964   2.944   5.850
 7586SOL     OW23656   3.510   0.817   3.581
 7586SOL    HW123657   3.471   0.800   3.672
 7586SOL    HW223658   3.561   0.736   3.551
 7587SOL     OW23659   3.017   2.083   6.510
 7587SOL    HW123660   2.933   2.037   6.478
 7587SOL    HW223661   2.997   2.179   6.527
 7588SOL     OW23662   1.191   3.267   2.861
 7588SOL    HW123663   1.243   3.194   2.817
 7588SOL    HW223664   1.236   3.294   2.946
 7589SOL     OW23665   6.923   0.050   2.082
 7589SOL    HW123666   7.004   0.069   2.027
 7589SOL    HW223667   6.846   0.102   2.046
 7590SOL     OW23668   4.411   2.054   6.769
 7590SOL    HW123669   4.499   2.100   6.767
 7590SOL    HW223670   4.362   2.071   6.683
 7591SOL     OW23671   0.045   4.291   0.271
 7591SOL    HW123672   0.131   4.319   0.230
 7591SOL    HW223673   7.019   4.230   0.209
 7592SOL     OW23674   6.253   4.080   6.527
 7592SOL    HW123675   6.203   4.011   6.475
 7592SOL    HW223676   6.346   4.048   6.545
 7593SOL     OW23677   5.521   2.529   1.245
 7593SOL    HW123678   5.486   2.544   1.338
 7593SOL    HW223679   5.459   2.571   1.179
 7594SOL     OW23680   0.425   4.817   1.794
 7594SOL    HW123681   0.473   4.742   1.840
 7594SOL    HW223682   0.395   4.884   1.861
 7595SOL     OW23683   6.861   2.854   6.046
 7595SOL    HW123684   6.906   2.821   5.963
 7595SOL    HW223685   6.891   2.947   6.066
 7596SOL     OW23686   4.803   6.081   3.619
 7596SOL    HW123687   4.874   6.123   3.563
 7596SOL    HW223688   4.834   5.992   3.653
 7597SOL     OW23689   3.240   6.185   2.611
 7597SOL    HW123690   3.216   6.255   2.543
 7597SOL    HW223691   3.209   6.096   2.578
 7598SOL     OW23692   0.047   1.444   3.849
 7598SOL    HW123693   0.002   1.373   3.795
 7598SOL    HW223694   0.146   1.435   3.840
 7599SOL     OW23695   5.528   1.761   2.861
 7599SOL    HW123696   5.441   1.740   2.816
 7599SOL    HW223697   5.603   1.742   2.798
 7600SOL     OW23698   1.400   1.547   2.644
 7600SOL    HW123699   1.483   1.495   2.626
 7600SOL    HW223700   1.408   1.593   2.733
 7601SOL     OW23701   1.876   5.281   2.586
 7601SOL    HW123702   1.798   5.293   2.647
 7601SOL    HW223703   1.892   5.366   2.536
 7602SOL     OW23704   0.950   4.415   0.045
 7602SOL    HW123705   0.956   4.435   6.970
 7602SOL    HW223706   0.924   4.319   0.058
 7603SOL     OW23707   1.731   5.171   5.679
 7603SOL    HW123708   1.812   5.204   5.728
 7603SOL    HW223709   1.721   5.073   5.692
 7604SOL     OW23710   1.449   4.747   4.458
 7604SOL    HW123711   1.397   4.817   4.410
 7604SOL    HW223712   1.402   4.659   4.450
 7605SOL     OW23713   0.517   0.006   0.822
 7605SOL    HW123714   0.567   0.090   0.841
 7605SOL    HW223715   0.452   0.021   0.748
 7606SOL     OW23716   6.606   3.376   3.770
 7606SOL    HW123717   6.633   3.315   3.696
 7606SOL    HW223718   6.673   3.449   3.779
 7607SOL     OW23719   4.660   5.095   0.568
 7607SOL    HW123720   4.753   5.060   0.555
 7607SOL    HW223721   4.632   5.145   0.486
 7608SOL     OW23722   3.282   3.780   3.442
 7608SOL    HW123723   3.381   3.766   3.448
 7608SOL    HW223724   3.249   3.818   3.529
 7609SOL     OW23725   0.502   3.798   3.895
 7609SOL    HW123726   0.563   3.751   3.959
 7609SOL    HW223727   0.469   3.883   3.936
 7610SOL     OW23728   5.764   6.202   0.472
 7610SOL    HW123729   5.774   6.110   0.434
 7610SOL    HW223730   5.846   6.256   0.451
 7611SOL     OW23731   0.524   1.719   6.814
 7611SOL    HW123732   0.465   1.756   6.743
 7611SOL    HW223733   0.551   1.793   6.876
 7612SOL     OW23734   5.068   3.188   5.246
 7612SOL    HW123735   4.977   3.183   5.204
 7612SOL    HW223736   5.062   3.236   5.333
 7613SOL     OW23737   6.065   3.294   1.156
 7613SOL    HW123738   6.037   3.243   1.075
 7613SOL    HW223739   6.046   3.240   1.238
 7614SOL     OW23740   5.220   3.978   0.973
 7614SOL    HW123741   5.157   4.055   0.987
 7614SOL    HW223742   5.293   3.983   1.041
 7615SOL     OW23743   4.174   3.656   5.936
 7615SOL    HW123744   4.194   3.694   6.026
 7615SOL    HW223745   4.109   3.716   5.889
 7616SOL     OW23746   6.499   5.010   5.467
 7616SOL    HW123747   6.464   4.923   5.431
 7616SOL    HW223748   6.451   5.086   5.423
 7617SOL     OW23749   3.623   5.639   2.618
 7617SOL    HW123750   3.534   5.595   2.609
 7617SOL    HW223751   3.662   5.619   2.707
 7618SOL     OW23752   0.700   1.529   6.038
 7618SOL    HW123753   0.629   1.577   5.988
 7618SOL    HW223754   0.751   1.469   5.976
 7619SOL     OW23755   5.690   3.249   5.421
 7619SOL    HW123756   5.710   3.155   5.393
 7619SOL    HW223757   5.594   3.269   5.406
 7620SOL     OW23758   4.163   5.317   0.392
 7620SOL    HW123759   4.065   5.303   0.381
 7620SOL    HW223760   4.211   5.231   0.376
 7621SOL     OW23761   0.135   1.810   0.357
 7621SOL    HW123762   0.210   1.849   0.411
 7621SOL    HW223763   0.140   1.711   0.360
 7622SOL     OW23764   5.204   5.428   1.617
 7622SOL    HW123765   5.214   5.353   1.553
 7622SOL    HW223766   5.264   5.413   1.696
 7623SOL     OW23767   4.454   3.596   6.795
 7623SOL    HW123768   4.436   3.545   6.710
 7623SOL    HW223769   4.388   3.567   6.865
 7624SOL     OW23770   0.208   2.884   4.758
 7624SOL    HW123771   0.189   2.978   4.732
 7624SOL    HW223772   0.241   2.881   4.853
 7625SOL     OW23773   4.890   0.720   1.232
 7625SOL    HW123774   4.873   0.668   1.148
 7625SOL    HW223775   4.980   0.698   1.267
 7626SOL     OW23776   5.964   6.787   4.312
 7626SOL    HW123777   6.029   6.714   4.336
 7626SOL    HW223778   5.872   6.748   4.304
 7627SOL     OW23779   5.539   2.678   6.733
 7627SOL    HW123780   5.542   2.773   6.765
 7627SOL    HW223781   5.623   2.656   6.684
 7628SOL     OW23782   4.072   0.088   2.684
 7628SOL    HW123783   4.164   0.050   2.690
 7628SOL    HW223784   4.026   0.052   2.602
 7629SOL     OW23785   6.678   0.168   2.878
 7629SOL    HW123786   6.710   0.262   2.867
 7629SOL    HW223787   6.752   0.104   2.855
 7630SOL     OW23788   6.457   0.322   1.890
 7630SOL    HW123789   6.416   0.250   1.834
 7630SOL    HW223790   6.552   0.335   1.862
 7631SOL     OW23791   0.824   0.642   6.072
 7631SOL    HW123792   0.805   0.691   6.157
 7631SOL    HW223793   0.781   0.689   5.995
 7632SOL     OW23794   3.628   2.504   1.679
 7632SOL    HW123795   3.529   2.514   1.687
 7632SOL    HW223796   3.662   2.443   1.751
 7633SOL     OW23797   5.006   1.381   0.997
 7633SOL    HW123798   4.925   1.369   1.054
 7633SOL    HW223799   5.088   1.382   1.054
 7634SOL     OW23800   0.690   1.715   2.778
 7634SOL    HW123801   0.606   1.745   2.823
 7634SOL    HW223802   0.769   1.759   2.821
 7635SOL     OW23803   3.236   5.543   5.225
 7635SOL    HW123804   3.273   5.492   5.147
 7635SOL    HW223805   3.302   5.612   5.253
 7636SOL     OW23806   1.309   2.688   4.107
 7636SOL    HW123807   1.305   2.698   4.206
 7636SOL    HW223808   1.231   2.735   4.065
 7637SOL     OW23809   2.602   5.003   1.925
 7637SOL    HW123810   2.564   4.959   2.006
 7637SOL    HW223811   2.581   4.948   1.844
 7638SOL     OW23812   4.010   6.339   0.678
 7638SOL    HW123813   3.925   6.380   0.645
 7638SOL    HW223814   3.990   6.250   0.719
 7639SOL     OW23815   1.072   1.895   0.377
 7639SOL    HW123816   1.018   1.978   0.362
 7639SOL    HW223817   1.152   1.897   0.317
 7640SOL     OW23818   3.442   1.834   6.533
 7640SOL    HW123819   3.417   1.892   6.456
 7640SOL    HW223820   3.362   1.815   6.589
 7641SOL     OW23821   1.187   4.235   1.319
 7641SOL    HW123822   1.218   4.159   1.376
 7641SOL    HW223823   1.246   4.242   1.238
 7642SOL     OW23824   3.755   0.617   3.011
 7642SOL    HW123825   3.801   0.677   2.946
 7642SOL    HW223826   3.689   0.670   3.064
 7643SOL     OW23827   4.847   3.128   4.401
 7643SOL    HW123828   4.931   3.087   4.363
 7643SOL    HW223829   4.771   3.064   4.390
 7644SOL     OW23830   5.834   2.476   2.292
 7644SOL    HW123831   5.776   2.497   2.371
 7644SOL    HW223832   5.777   2.443   2.217
 7645SOL     OW23833   3.850   4.208   5.687
 7645SOL    HW123834   3.842   4.260   5.772
 7645SOL    HW223835   3.861   4.111   5.709
 7646SOL     OW23836   1.675   3.111   2.655
 7646SOL    HW123837   1.768   3.081   2.676
 7646SOL    HW223838   1.609   3.054   2.703
 7647SOL     OW23839   6.406   3.612   2.127
 7647SOL    HW123840   6.472   3.553   2.080
 7647SOL    HW223841   6.418   3.707   2.096
 7648SOL     OW23842   3.233   1.690   3.661
 7648SOL    HW123843   3.223   1.603   3.710
 7648SOL    HW223844   3.319   1.732   3.686
 7649SOL     OW23845   0.597   0.497   3.079
 7649SOL    HW123846   0.524   0.435   3.109
 7649SOL    HW223847   0.639   0.541   3.158
 7650SOL     OW23848   4.617   2.902   1.339
 7650SOL    HW123849   4.574   2.921   1.427
 7650SOL    HW223850   4.560   2.839   1.287
 7651SOL     OW23851   2.635   0.530   4.454
 7651SOL    HW123852   2.575   0.555   4.378
 7651SOL    HW223853   2.613   0.586   4.534
 7652SOL     OW23854   6.708   3.752   4.423
 7652SOL    HW123855   6.637   3.749   4.353
 7652SOL    HW223856   6.715   3.664   4.468
 7653SOL     OW23857   2.765   2.021   0.083
 7653SOL    HW123858   2.701   1.951   0.113
 7653SOL    HW223859   2.765   2.027   7.005
 7654SOL     OW23860   4.801   2.871   3.674
 7654SOL    HW123861   4.813   2.958   3.721
 7654SOL    HW223862   4.887   2.820   3.676
 7655SOL     OW23863   3.961   0.345   3.530
 7655SOL    HW123864   3.876   0.295   3.514
 7655SOL    HW223865   4.029   0.284   3.570
 7656SOL     OW23866   2.053   5.420   6.056
 7656SOL    HW123867   2.133   5.461   6.100
 7656SOL    HW223868   2.039   5.462   5.966
 7657SOL     OW23869   2.358   2.693   3.542
 7657SOL    HW123870   2.397   2.657   3.627
 7657SOL    HW223871   2.268   2.733   3.561
 7658SOL     OW23872   3.276   0.185   5.729
 7658SOL    HW123873   3.234   0.259   5.782
 7658SOL    HW223874   3.288   0.215   5.634
 7659SOL     OW23875   6.043   5.158   0.301
 7659SOL    HW123876   5.983   5.108   0.363
 7659SOL    HW223877   6.024   5.255   0.307
 7660SOL     OW23878   0.549   6.357   3.678
 7660SOL    HW123879   0.593   6.444   3.702
 7660SOL    HW223880   0.568   6.289   3.748
 7661SOL     OW23881   6.167   2.580   4.171
 7661SOL    HW123882   6.219   2.539   4.096
 7661SOL    HW223883   6.133   2.670   4.143
 7662SOL     OW23884   0.723   3.038   2.984
 7662SOL    HW123885   0.799   3.099   2.964
 7662SOL    HW223886   0.736   2.996   3.074
 7663SOL     OW23887   1.517   6.036   5.578
 7663SOL    HW123888   1.604   6.069   5.614
 7663SOL    HW223889   1.514   6.052   5.479
 7664SOL     OW23890   3.585   0.368   1.667
 7664SOL    HW123891   3.612   0.461   1.641
 7664SOL    HW223892   3.607   0.352   1.763
 7665SOL     OW23893   4.361   0.295   5.149
 7665SOL    HW123894   4.380   0.324   5.055
 7665SOL    HW223895   4.399   0.361   5.213
 7666SOL     OW23896   0.565   6.517   1.587
 7666SOL    HW123897   0.664   6.521   1.602
 7666SOL    HW223898   0.544   6.444   1.522
 7667SOL     OW23899   4.696   5.206   2.224
 7667SOL    HW123900   4.738   5.276   2.166
 7667SOL    HW223901   4.602   5.234   2.247
 7668SOL     OW23902   3.164   4.749   1.036
 7668SOL    HW123903   3.252   4.708   1.012
 7668SOL    HW223904   3.090   4.688   1.010
 7669SOL     OW23905   5.634   1.966   5.553
 7669SOL    HW123906   5.566   1.900   5.521
 7669SOL    HW223907   5.603   2.059   5.531
 7670SOL     OW23908   0.812   5.088   6.667
 7670SOL    HW123909   0.715   5.070   6.649
 7670SOL    HW223910   0.851   5.013   6.720
 7671SOL     OW23911   4.266   1.339   3.439
 7671SOL    HW123912   4.356   1.310   3.406
 7671SOL    HW223913   4.196   1.280   3.399
 7672SOL     OW23914   6.444   6.630   3.063
 7672SOL    HW123915   6.418   6.582   2.979
 7672SOL    HW223916   6.544   6.625   3.074
 7673SOL     OW23917   1.566   5.454   0.291
 7673SOL    HW123918   1.612   5.428   0.206
 7673SOL    HW223919   1.603   5.400   0.366
 7674SOL     OW23920   5.614   1.535   3.858
 7674SOL    HW123921   5.642   1.625   3.826
 7674SOL    HW223922   5.678   1.503   3.928
 7675SOL     OW23923   6.066   7.002   2.453
 7675SOL    HW123924   6.028   6.932   2.513
 7675SOL    HW223925   6.119   0.045   2.507
 7676SOL     OW23926   2.061   2.596   0.528
 7676SOL    HW123927   2.073   2.511   0.580
 7676SOL    HW223928   1.965   2.625   0.535
 7677SOL     OW23929   0.621   4.640   1.915
 7677SOL    HW123930   0.630   4.716   1.979
 7677SOL    HW223931   0.711   4.617   1.878
 7678SOL     OW23932   2.335   1.481   5.028
 7678SOL    HW123933   2.266   1.537   5.074
 7678SOL    HW223934   2.422   1.529   5.026
 7679SOL     OW23935   3.114   5.600   6.289
 7679SOL    HW123936   3.089   5.542   6.367
 7679SOL    HW223937   3.166   5.679   6.322
 7680SOL     OW23938   1.787   1.743   0.642
 7680SOL    HW123939   1.787   1.783   0.734
 7680SOL    HW223940   1.882   1.725   0.614
 7681SOL     OW23941   2.609   6.698   0.620
 7681SOL    HW123942   2.596   6.607   0.660
 7681SOL    HW223943   2.625   6.689   0.521
 7682SOL     OW23944   2.979   0.068   2.288
 7682SOL    HW123945   3.019   0.147   2.242
 7682SOL    HW223946   2.957   0.092   2.382
 7683SOL     OW23947   6.517   1.490   3.576
 7683SOL    HW123948   6.475   1.507   3.665
 7683SOL    HW223949   6.606   1.535   3.572
 7684SOL     OW23950   4.044   2.039   2.233
 7684SOL    HW123951   4.096   1.954   2.243
 7684SOL    HW223952   3.971   2.025   2.166
 7685SOL     OW23953   3.574   2.324   0.106
 7685SOL    HW123954   3.577   2.423   0.106
 7685SOL    HW223955   3.583   2.290   0.012
 7686SOL     OW23956   6.212   0.086   2.968
 7686SOL    HW123957   6.309   0.089   2.944
 7686SOL    HW223958   6.163   0.028   2.903
 7687SOL     OW23959   5.923   4.779   4.348
 7687SOL    HW123960   5.982   4.715   4.299
 7687SOL    HW223961   5.936   4.769   4.446
 7688SOL     OW23962   0.445   6.117   5.506
 7688SOL    HW123963   0.475   6.085   5.596
 7688SOL    HW223964   0.469   6.214   5.496
 7689SOL     OW23965   5.635   6.238   3.080
 7689SOL    HW123966   5.637   6.170   3.007
 7689SOL    HW223967   5.729   6.267   3.101
 7690SOL     OW23968   6.183   5.073   0.655
 7690SOL    HW123969   6.164   5.144   0.723
 7690SOL    HW223970   6.281   5.069   0.636
 7691SOL     OW23971   5.112   2.524   4.697
 7691SOL    HW123972   5.210   2.504   4.702
 7691SOL    HW223973   5.098   2.623   4.698
 7692SOL     OW23974   0.716   6.254   2.153
 7692SOL    HW123975   0.668   6.166   2.145
 7692SOL    HW223976   0.742   6.286   2.062
 7693SOL     OW23977   3.741   0.289   1.001
 7693SOL    HW123978   3.754   0.194   0.972
 7693SOL    HW223979   3.655   0.324   0.965
 7694SOL     OW23980   0.116   4.944   4.973
 7694SOL    HW123981   0.074   4.853   4.970
 7694SOL    HW223982   0.061   5.004   5.031
 7695SOL     OW23983   4.271   6.145   0.926
 7695SOL    HW123984   4.210   6.067   0.909
 7695SOL    HW223985   4.276   6.201   0.843
 7696SOL     OW23986   6.893   1.593   4.620
 7696SOL    HW123987   6.924   1.652   4.545
 7696SOL    HW223988   6.863   1.649   4.697
 7697SOL     OW23989   3.081   6.360   2.040
 7697SOL    HW123990   3.170   6.379   1.999
 7697SOL    HW223991   3.012   6.421   2.000
 7698SOL     OW23992   6.601   2.062   3.257
 7698SOL    HW123993   6.640   2.106   3.176
 7698SOL    HW223994   6.505   2.039   3.239
 7699SOL     OW23995   3.771   5.827   6.711
 7699SOL    HW123996   3.854   5.787   6.671
 7699SOL    HW223997   3.773   5.816   6.811
 7700SOL     OW23998   5.235   6.208   4.428
 7700SOL    HW123999   5.165   6.136   4.419
 7700SOL    HW224000   5.192   6.290   4.465
 7701SOL     OW24001   6.990   1.472   0.185
 7701SOL    HW124002   7.004   1.373   0.177
 7701SOL    HW224003   0.018   1.507   0.264
 7702SOL     OW24004   3.441   6.304   6.179
 7702SOL    HW124005   3.351   6.329   6.215
 7702SOL    HW224006   3.467   6.369   6.107
 7703SOL     OW24007   6.184   0.548   5.530
 7703SOL    HW124008   6.228   0.621   5.477
 7703SOL    HW224009   6.178   0.577   5.626
 7704SOL     OW24010   5.156   5.015   5.538
 7704SOL    HW124011   5.161   5.041   5.441
 7704SOL    HW224012   5.128   4.919   5.545
 7705SOL     OW24013   3.604   5.488   5.788
 7705SOL    HW124014   3.628   5.583   5.805
 7705SOL    HW224015   3.577   5.444   5.874
 7706SOL     OW24016   4.456   2.929   5.458
 7706SOL    HW124017   4.421   2.852   5.512
 7706SOL    HW224018   4.539   2.900   5.410
 7707SOL     OW24019   0.648   5.761   6.275
 7707SOL    HW124020   0.695   5.678   6.246
 7707SOL    HW224021   0.713   5.821   6.321
 7708SOL     OW24022   6.117   0.187   5.870
 7708SOL    HW124023   6.134   0.250   5.946
 7708SOL    HW224024   6.204   0.159   5.829
 7709SOL     OW24025   5.326   4.519   1.634
 7709SOL    HW124026   5.300   4.455   1.562
 7709SOL    HW224027   5.405   4.483   1.684
 7710SOL     OW24028   3.117   0.600   0.493
 7710SOL    HW124029   3.017   0.603   0.493
 7710SOL    HW224030   3.153   0.655   0.568
 7711SOL     OW24031   6.604   6.172   5.228
 7711SOL    HW124032   6.628   6.220   5.312
 7711SOL    HW224033   6.687   6.153   5.175
 7712SOL     OW24034   5.104   5.985   2.573
 7712SOL    HW124035   5.144   5.893   2.578
 7712SOL    HW224036   5.013   5.979   2.532
 7713SOL     OW24037   1.700   4.478   0.509
 7713SOL    HW124038   1.642   4.539   0.456
 7713SOL    HW224039   1.770   4.438   0.450
 7714SOL     OW24040   6.133   4.215   5.514
 7714SOL    HW124041   6.228   4.190   5.495
 7714SOL    HW224042   6.088   4.245   5.430
 7715SOL     OW24043   3.957   2.125   6.847
 7715SOL    HW124044   3.988   2.207   6.798
 7715SOL    HW224045   3.969   2.045   6.788
 7716SOL     OW24046   6.477   4.352   3.731
 7716SOL    HW124047   6.438   4.386   3.645
 7716SOL    HW224048   6.504   4.257   3.719
 7717SOL     OW24049   1.647   0.909   4.887
 7717SOL    HW124050   1.702   0.969   4.828
 7717SOL    HW224051   1.661   0.814   4.861
 7718SOL     OW24052   1.625   2.113   3.290
 7718SOL    HW124053   1.679   2.082   3.212
 7718SOL    HW224054   1.646   2.209   3.310
 7719SOL     OW24055   0.007   3.954   4.794
 7719SOL    HW124056   0.062   4.019   4.846
 7719SOL    HW224057   0.022   3.967   4.696
 7720SOL     OW24058   0.438   1.005   7.019
 7720SOL    HW124059   0.422   0.976   6.924
 7720SOL    HW224060   0.446   0.924   0.055
 7721SOL     OW24061   0.380   5.237   2.462
 7721SOL    HW124062   0.464   5.261   2.414
 7721SOL    HW224063   0.398   5.231   2.560
 7722SOL     OW24064   0.579   5.872   3.217
 7722SOL    HW124065   0.576   5.856   3.119
 7722SOL    HW224066   0.568   5.970   3.236
 7723SOL     OW24067   5.289   3.150   6.674
 7723SOL    HW124068   5.244   3.099   6.748
 7723SOL    HW224069   5.222   3.206   6.626
 7724SOL     OW24070   3.050   4.344   1.370
 7724SOL    HW124071   3.132   4.356   1.426
 7724SOL    HW224072   3.076   4.342   1.273
 7725SOL     OW24073   5.980   2.694   3.137
 7725SOL    HW124074   5.969   2.794   3.141
 7725SOL    HW224075   5.974   2.656   3.229
 7726SOL     OW24076   2.049   6.033   4.998
 7726SOL    HW124077   1.955   6.050   4.968
 7726SOL    HW224078   2.047   5.981   5.083
 7727SOL     OW24079   0.227   0.724   2.338
 7727SOL    HW124080   0.187   0.812   2.364
 7727SOL    HW224081   0.327   0.732   2.338
 7728SOL     OW24082   1.020   4.744   3.522
 7728SOL    HW124083   1.113   4.753   3.486
 7728SOL    HW224084   0.975   4.833   3.521
 7729SOL     OW24085   5.941   2.803   0.941
 7729SOL    HW124086   5.934   2.793   0.842
 7729SOL    HW224087   5.849   2.811   0.980
 7730SOL     OW24088   5.951   6.002   1.444
 7730SOL    HW124089   5.977   6.057   1.365
 7730SOL    HW224090   5.996   6.036   1.525
 7731SOL     OW24091   6.923   0.462   0.532
 7731SOL    HW124092   6.894   0.374   0.570
 7731SOL    HW224093   6.939   0.526   0.606
 7732SOL     OW24094   4.383   6.305   0.699
 7732SOL    HW124095   4.474   6.268   0.716
 7732SOL    HW224096   4.339   6.251   0.627
 7733SOL     OW24097   4.737   6.917   2.461
 7733SOL    HW124098   4.672   6.916   2.385
 7733SOL    HW224099   4.712   6.989   2.526
 7734SOL     OW24100   2.922   5.438   2.795
 7734SOL    HW124101   2.999   5.410   2.853
 7734SOL    HW224102   2.841   5.385   2.821
 7735SOL     OW24103   4.739   6.277   6.616
 7735SOL    HW124104   4.831   6.294   6.653
 7735SOL    HW224105   4.733   6.183   6.584
 7736SOL     OW24106   3.544   3.566   6.959
 7736SOL    HW124107   3.459   3.594   6.914
 7736SOL    HW224108   3.545   3.600   0.031
 7737SOL     OW24109   3.655   0.679   2.437
 7737SOL    HW124110   3.646   0.759   2.378
 7737SOL    HW224111   3.584   0.612   2.413
 7738SOL     OW24112   2.855   5.744   0.089
 7738SOL    HW124113   2.903   5.832   0.091
 7738SOL    HW224114   2.883   5.689   0.169
 7739SOL     OW24115   0.842   2.015   1.305
 7739SOL    HW124116   0.862   1.918   1.296
 7739SOL    HW224117   0.809   2.050   1.217
 7740SOL     OW24118   1.927   0.826   3.372
 7740SOL    HW124119   1.895   0.834   3.466
 7740SOL    HW224120   1.870   0.760   3.323
 7741SOL     OW24121   0.673   4.664   5.329
 7741SOL    HW124122   0.617   4.626   5.256
 7741SOL    HW224123   0.623   4.738   5.374
 7742SOL     OW24124   6.072   1.917   3.293
 7742SOL    HW124125   6.016   1.858   3.351
 7742SOL    HW224126   6.104   1.865   3.214
 7743SOL     OW24127   5.592   1.665   0.290
 7743SOL    HW124128   5.628   1.757   0.280
 7743SOL    HW224129   5.529   1.645   0.215
 7744SOL     OW24130   0.748   6.035   3.546
 7744SOL    HW124131   0.838   6.029   3.502
 7744SOL    HW224132   0.735   5.955   3.606
 7745SOL     OW24133   3.523   1.029   5.718
 7745SOL    HW124134   3.500   1.120   5.682
 7745SOL    HW224135   3.593   1.038   5.789
 7746SOL     OW24136   2.753   6.321   0.135
 7746SOL    HW124137   2.794   6.232   0.154
 7746SOL    HW224138   2.782   6.353   0.045
 7747SOL     OW24139   4.838   6.065   1.696
 7747SOL    HW124140   4.887   5.984   1.666
 7747SOL    HW224141   4.757   6.078   1.639
 7748SOL     OW24142   2.770   3.435   5.204
 7748SOL    HW124143   2.733   3.523   5.234
 7748SOL    HW224144   2.711   3.362   5.237
 7749SOL     OW24145   2.763   2.881   5.699
 7749SOL    HW124146   2.751   2.909   5.604
 7749SOL    HW224147   2.797   2.786   5.702
 7750SOL     OW24148   0.386   6.427   1.408
 7750SOL    HW124149   0.346   6.336   1.399
 7750SOL    HW224150   0.314   6.492   1.434
 7751SOL     OW24151   1.410   2.443   2.364
 7751SOL    HW124152   1.420   2.483   2.273
 7751SOL    HW224153   1.381   2.514   2.429
 7752SOL     OW24154   5.042   0.370   5.850
 7752SOL    HW124155   5.082   0.413   5.769
 7752SOL    HW224156   4.956   0.326   5.825
 7753SOL     OW24157   2.656   1.218   4.277
 7753SOL    HW124158   2.674   1.178   4.367
 7753SOL    HW224159   2.613   1.149   4.218
 7754SOL     OW24160   3.242   5.934   1.052
 7754SOL    HW124161   3.152   5.964   1.020
 7754SOL    HW224162   3.274   5.858   0.996
 7755SOL     OW24163   1.866   2.502   5.935
 7755SOL    HW124164   1.916   2.428   5.979
 7755SOL    HW224165   1.769   2.492   5.953
 7756SOL     OW24166   2.522   0.029   2.430
 7756SOL    HW124167   2.595   7.004   2.479
 7756SOL    HW224168   2.562   0.096   2.367
 7757SOL     OW24169   5.837   5.075   1.289
 7757SOL    HW124170   5.915   5.025   1.252
 7757SOL    HW224171   5.822   5.049   1.384
 7758SOL     OW24172   2.169   0.048   6.578
 7758SOL    HW124173   2.073   0.068   6.560
 7758SOL    HW224174   2.179   6.974   6.600
 7759SOL     OW24175   1.862   1.409   5.428
 7759SOL    HW124176   1.876   1.357   5.344
 7759SOL    HW224177   1.786   1.370   5.480
 7760SOL     OW24178   5.669   3.061   2.841
 7760SOL    HW124179   5.745   2.999   2.818
 7760SOL    HW224180   5.626   3.030   2.926
 7761SOL     OW24181   6.657   6.334   4.687
 7761SOL    HW124182   6.669   6.303   4.781
 7761SOL    HW224183   6.738   6.310   4.633
 7762SOL     OW24184   2.207   0.238   4.048
 7762SOL    HW124185   2.122   0.190   4.027
 7762SOL    HW224186   2.270   0.176   4.094
 7763SOL     OW24187   2.387   0.171   6.716
 7763SOL    HW124188   2.293   0.158   6.686
 7763SOL    HW224189   2.398   0.264   6.752
 7764SOL     OW24190   3.186   4.076   5.483
 7764SOL    HW124191   3.116   4.067   5.553
 7764SOL    HW224192   3.275   4.089   5.526
 7765SOL     OW24193   6.087   2.818   4.091
 7765SOL    HW124194   6.109   2.912   4.117
 7765SOL    HW224195   6.035   2.817   4.006
 7766SOL     OW24196   6.916   3.922   0.647
 7766SOL    HW124197   6.968   3.899   0.729
 7766SOL    HW224198   6.871   3.840   0.612
 7767SOL     OW24199   4.534   6.389   2.129
 7767SOL    HW124200   4.566   6.332   2.204
 7767SOL    HW224201   4.498   6.475   2.165
 7768SOL     OW24202   4.929   4.589   3.193
 7768SOL    HW124203   4.897   4.639   3.273
 7768SOL    HW224204   5.006   4.638   3.151
 7769SOL     OW24205   5.097   1.395   4.354
 7769SOL    HW124206   5.109   1.457   4.432
 7769SOL    HW224207   5.001   1.372   4.345
 7770SOL     OW24208   0.790   3.229   5.243
 7770SOL    HW124209   0.871   3.214   5.300
 7770SOL    HW224210   0.752   3.319   5.263
 7771SOL     OW24211   3.106   1.620   5.623
 7771SOL    HW124212   3.012   1.645   5.648
 7771SOL    HW224213   3.117   1.628   5.524
 7772SOL     OW24214   5.399   6.718   1.508
 7772SOL    HW124215   5.310   6.742   1.546
 7772SOL    HW224216   5.401   6.741   1.411
 7773SOL     OW24217   1.595   5.147   5.392
 7773SOL    HW124218   1.518   5.193   5.347
 7773SOL    HW224219   1.601   5.177   5.487
 7774SOL     OW24220   5.121   2.653   4.346
 7774SOL    HW124221   5.022   2.666   4.349
 7774SOL    HW224222   5.166   2.725   4.399
 7775SOL     OW24223   4.381   0.022   0.252
 7775SOL    HW124224   4.298   0.036   0.305
 7775SOL    HW224225   4.365   0.049   0.157
 7776SOL     OW24226   0.929   5.557   6.623
 7776SOL    HW124227   0.913   5.458   6.628
 7776SOL    HW224228   0.842   5.606   6.632
 7777SOL     OW24229   5.861   5.504   4.315
 7777SOL    HW124230   5.778   5.553   4.344
 7777SOL    HW224231   5.850   5.476   4.220
 7778SOL     OW24232   5.693   3.651   2.304
 7778SOL    HW124233   5.759   3.656   2.229
 7778SOL    HW224234   5.600   3.648   2.268
 7779SOL     OW24235   2.701   0.879   1.935
 7779SOL    HW124236   2.718   0.879   2.034
 7779SOL    HW224237   2.650   0.961   1.910
 7780SOL     OW24238   0.979   5.002   5.527
 7780SOL    HW124239   0.946   5.071   5.462
 7780SOL    HW224240   0.903   4.942   5.551
 7781SOL     OW24241   1.353   4.026   1.432
 7781SOL    HW124242   1.384   3.942   1.478
 7781SOL    HW224243   1.407   4.103   1.463
 7782SOL     OW24244   5.003   5.235   4.045
 7782SOL    HW124245   5.030   5.325   4.012
 7782SOL    HW224246   4.912   5.213   4.010
 7783SOL     OW24247   0.908   0.405   5.891
 7783SOL    HW124248   0.978   0.401   5.819
 7783SOL    HW224249   0.939   0.467   5.963
 7784SOL     OW24250   3.295   2.417   1.376
 7784SOL    HW124251   3.206   2.410   1.421
 7784SOL    HW224252   3.344   2.497   1.409
 7785SOL     OW24253   1.919   6.101   4.285
 7785SOL    HW124254   1.889   6.134   4.196
 7785SOL    HW224255   2.004   6.146   4.310
 7786SOL     OW24256   3.719   0.297   0.024
 7786SOL    HW124257   3.741   0.330   6.955
 7786SOL    HW224258   3.731   0.372   0.090
 7787SOL     OW24259   1.989   3.058   6.942
 7787SOL    HW124260   1.955   3.136   6.889
 7787SOL    HW224261   2.080   3.079   6.976
 7788SOL     OW24262   1.447   4.621   1.680
 7788SOL    HW124263   1.405   4.531   1.693
 7788SOL    HW224264   1.539   4.610   1.643
 7789SOL     OW24265   3.082   0.162   6.355
 7789SOL    HW124266   3.106   0.117   6.441
 7789SOL    HW224267   3.157   0.153   6.290
 7790SOL     OW24268   5.230   5.720   2.986
 7790SOL    HW124269   5.172   5.751   3.061
 7790SOL    HW224270   5.183   5.649   2.934
 7791SOL     OW24271   2.101   5.100   2.314
 7791SOL    HW124272   2.116   5.018   2.369
 7791SOL    HW224273   2.016   5.090   2.262
 7792SOL     OW24274   1.364   6.513   3.936
 7792SOL    HW124275   1.417   6.575   3.878
 7792SOL    HW224276   1.267   6.526   3.919
 7793SOL     OW24277   3.937   0.676   0.114
 7793SOL    HW124278   4.004   0.652   0.043
 7793SOL    HW224279   3.956   0.623   0.196
 7794SOL     OW24280   0.439   4.173   1.938
 7794SOL    HW124281   0.469   4.094   1.886
 7794SOL    HW224282   0.343   4.192   1.918
 7795SOL     OW24283   2.622   4.994   4.912
 7795SOL    HW124284   2.670   4.968   4.996
 7795SOL    HW224285   2.649   4.934   4.838
 7796SOL     OW24286   3.702   2.564   5.334
 7796SOL    HW124287   3.711   2.661   5.354
 7796SOL    HW224288   3.793   2.523   5.328
 7797SOL     OW24289   0.731   6.391   1.249
 7797SOL    HW124290   0.680   6.476   1.246
 7797SOL    HW224291   0.809   6.396   1.187
 7798SOL     OW24292   1.103   2.245   3.234
 7798SOL    HW124293   1.093   2.211   3.140
 7798SOL    HW224294   1.184   2.303   3.240
 7799SOL     OW24295   1.857   5.214   2.210
 7799SOL    HW124296   1.785   5.240   2.275
 7799SOL    HW224297   1.937   5.272   2.225
 7800SOL     OW24298   0.958   5.672   3.362
 7800SOL    HW124299   1.009   5.617   3.296
 7800SOL    HW224300   0.873   5.626   3.385
 7801SOL     OW24301   1.621   1.929   2.769
 7801SOL    HW124302   1.639   1.968   2.859
 7801SOL    HW224303   1.685   1.854   2.752
 7802SOL     OW24304   6.574   3.185   0.276
 7802SOL    HW124305   6.595   3.130   0.357
 7802SOL    HW224306   6.513   3.260   0.300
 7803SOL     OW24307   4.140   2.153   0.055
 7803SOL    HW124308   4.085   2.162   6.994
 7803SOL    HW224309   4.099   2.209   0.127
 7804SOL     OW24310   4.874   1.879   4.773
 7804SOL    HW124311   4.829   1.965   4.746
 7804SOL    HW224312   4.863   1.866   4.872
 7805SOL     OW24313   5.156   3.316   2.949
 7805SOL    HW124314   5.140   3.343   3.044
 7805SOL    HW224315   5.249   3.341   2.922
 7806SOL     OW24316   5.866   1.434   6.320
 7806SOL    HW124317   5.810   1.449   6.401
 7806SOL    HW224318   5.866   1.337   6.296
 7807SOL     OW24319   0.886   4.521   5.106
 7807SOL    HW124320   0.958   4.572   5.152
 7807SOL    HW224321   0.865   4.566   5.019
 7808SOL     OW24322   5.857   3.241   3.565
 7808SOL    HW124323   5.931   3.203   3.511
 7808SOL    HW224324   5.818   3.320   3.517
 7809SOL     OW24325   5.195   5.377   4.986
 7809SOL    HW124326   5.264   5.307   4.969
 7809SOL    HW224327   5.235   5.451   5.040
 7810SOL     OW24328   2.799   6.645   5.593
 7810SOL    HW124329   2.874   6.701   5.627
 7810SOL    HW224330   2.835   6.557   5.561
 7811SOL     OW24331   1.291   5.787   1.961
 7811SOL    HW124332   1.364   5.848   1.991
 7811SOL    HW224333   1.240   5.830   1.887
 7812SOL     OW24334   2.284   2.379   4.401
 7812SOL    HW124335   2.359   2.427   4.446
 7812SOL    HW224336   2.310   2.283   4.385
 7813SOL     OW24337   4.369   2.327   1.282
 7813SOL    HW124338   4.459   2.367   1.261
 7813SOL    HW224339   4.382   2.232   1.310
 7814SOL     OW24340   6.900   3.252   3.478
 7814SOL    HW124341   6.919   3.202   3.393
 7814SOL    HW224342   6.985   3.263   3.530
 7815SOL     OW24343   5.813   2.037   4.362
 7815SOL    HW124344   5.819   2.132   4.330
 7815SOL    HW224345   5.862   2.029   4.449
 7816SOL     OW24346   0.710   2.447   6.715
 7816SOL    HW124347   0.787   2.483   6.663
 7816SOL    HW224348   0.714   2.347   6.715
 7817SOL     OW24349   4.812   4.364   5.300
 7817SOL    HW124350   4.762   4.345   5.385
 7817SOL    HW224351   4.749   4.399   5.231
 7818SOL     OW24352   4.482   0.682   3.236
 7818SOL    HW124353   4.493   0.765   3.291
 7818SOL    HW224354   4.511   0.700   3.142
 7819SOL     OW24355   0.331   3.541   3.644
 7819SOL    HW124356   0.408   3.490   3.606
 7819SOL    HW224357   0.344   3.554   3.742
 7820SOL     OW24358   1.794   1.011   5.562
 7820SOL    HW124359   1.891   0.999   5.544
 7820SOL    HW224360   1.781   1.034   5.659
 7821SOL     OW24361   5.855   6.061   0.757
 7821SOL    HW124362   5.916   6.135   0.728
 7821SOL    HW224363   5.805   6.090   0.838
 7822SOL     OW24364   1.176   1.545   6.992
 7822SOL    HW124365   1.109   1.514   6.924
 7822SOL    HW224366   1.251   1.479   6.997
 7823SOL     OW24367   2.215   4.006   6.161
 7823SOL    HW124368   2.265   3.965   6.237
 7823SOL    HW224369   2.243   4.101   6.149
 7824SOL     OW24370   5.632   0.714   4.663
 7824SOL    HW124371   5.552   0.735   4.719
 7824SOL    HW224372   5.713   0.710   4.722
 7825SOL     OW24373   1.291   3.449   0.550
 7825SOL    HW124374   1.344   3.491   0.623
 7825SOL    HW224375   1.260   3.358   0.580
 7826SOL     OW24376   5.872   1.970   6.664
 7826SOL    HW124377   5.785   2.008   6.632
 7826SOL    HW224378   5.901   1.896   6.602
 7827SOL     OW24379   3.282   4.466   0.810
 7827SOL    HW124380   3.262   4.509   0.721
 7827SOL    HW224381   3.347   4.523   0.860
 7828SOL     OW24382   0.338   5.145   0.809
 7828SOL    HW124383   0.429   5.181   0.828
 7828SOL    HW224384   0.273   5.183   0.876
 7829SOL     OW24385   2.103   2.950   0.302
 7829SOL    HW124386   2.014   2.962   0.257
 7829SOL    HW224387   2.097   2.981   0.397
 7830SOL     OW24388   4.503   3.866   6.020
 7830SOL    HW124389   4.586   3.918   6.002
 7830SOL    HW224390   4.479   3.874   6.117
 7831SOL     OW24391   1.468   5.476   0.826
 7831SOL    HW124392   1.385   5.492   0.772
 7831SOL    HW224393   1.445   5.416   0.904
 7832SOL     OW24394   3.519   0.840   4.340
 7832SOL    HW124395   3.533   0.870   4.434
 7832SOL    HW224396   3.477   0.914   4.287
 7833SOL     OW24397   0.407   0.535   6.707
 7833SOL    HW124398   0.352   0.510   6.787
 7833SOL    HW224399   0.436   0.452   6.660
 7834SOL     OW24400   0.510   1.592   3.694
 7834SOL    HW124401   0.512   1.676   3.640
 7834SOL    HW224402   0.505   1.614   3.791
 7835SOL     OW24403   2.081   2.574   5.021
 7835SOL    HW124404   2.054   2.639   4.950
 7835SOL    HW224405   2.072   2.480   4.986
 7836SOL     OW24406   3.829   2.374   6.046
 7836SOL    HW124407   3.823   2.458   5.992
 7836SOL    HW224408   3.738   2.332   6.052
 7837SOL     OW24409   6.484   6.193   1.961
 7837SOL    HW124410   6.407   6.257   1.964
 7837SOL    HW224411   6.517   6.184   1.867
 7838SOL     OW24412   4.176   6.175   0.314
 7838SOL    HW124413   4.124   6.109   0.261
 7838SOL    HW224414   4.265   6.191   0.270
 7839SOL     OW24415   6.187   4.996   5.774
 7839SOL    HW124416   6.280   5.024   5.798
 7839SOL    HW224417   6.190   4.911   5.721
 7840SOL     OW24418   5.191   3.407   4.509
 7840SOL    HW124419   5.263   3.437   4.447
 7840SOL    HW224420   5.193   3.463   4.592
 7841SOL     OW24421   5.807   1.093   0.392
 7841SOL    HW124422   5.752   1.165   0.351
 7841SOL    HW224423   5.848   1.126   0.477
 7842SOL     OW24424   2.462   1.608   3.038
 7842SOL    HW124425   2.418   1.580   3.124
 7842SOL    HW224426   2.540   1.668   3.058
 7843SOL     OW24427   5.048   4.375   1.859
 7843SOL    HW124428   4.962   4.340   1.895
 7843SOL    HW224429   5.029   4.439   1.785
 7844SOL     OW24430   4.307   0.768   3.963
 7844SOL    HW124431   4.395   0.799   4.000
 7844SOL    HW224432   4.313   0.764   3.863
 7845SOL     OW24433   6.465   1.597   4.067
 7845SOL    HW124434   6.375   1.617   4.029
 7845SOL    HW224435   6.492   1.504   4.041
 7846SOL     OW24436   1.537   0.870   1.482
 7846SOL    HW124437   1.481   0.787   1.488
 7846SOL    HW224438   1.477   0.950   1.471
 7847SOL     OW24439   6.675   1.648   1.457
 7847SOL    HW124440   6.657   1.713   1.383
 7847SOL    HW224441   6.692   1.699   1.542
 7848SOL     OW24442   3.285   3.633   1.343
 7848SOL    HW124443   3.307   3.559   1.406
 7848SOL    HW224444   3.321   3.613   1.252
 7849SOL     OW24445   5.686   4.090   3.897
 7849SOL    HW124446   5.678   4.086   3.797
 7849SOL    HW224447   5.767   4.038   3.926
 7850SOL     OW24448   0.171   1.748   3.924
 7850SOL    HW124449   0.107   1.758   3.847
 7850SOL    HW224450   0.252   1.804   3.907
 7851SOL     OW24451   6.733   0.079   1.005
 7851SOL    HW124452   6.649   0.081   1.058
 7851SOL    HW224453   6.782   0.165   1.016
 7852SOL     OW24454   2.819   0.590   5.438
 7852SOL    HW124455   2.729   0.619   5.405
 7852SOL    HW224456   2.835   0.630   5.528
 7853SOL     OW24457   4.001   1.450   1.630
 7853SOL    HW124458   3.940   1.528   1.616
 7853SOL    HW224459   4.004   1.427   1.727
 7854SOL     OW24460   3.603   3.890   1.117
 7854SOL    HW124461   3.533   3.826   1.148
 7854SOL    HW224462   3.560   3.958   1.057
 7855SOL     OW24463   3.124   5.864   5.485
 7855SOL    HW124464   3.024   5.865   5.495
 7855SOL    HW224465   3.150   5.918   5.406
 7856SOL     OW24466   5.536   4.766   3.698
 7856SOL    HW124467   5.482   4.700   3.750
 7856SOL    HW224468   5.478   4.841   3.669
 7857SOL     OW24469   6.181   3.108   4.890
 7857SOL    HW124470   6.123   3.061   4.957
 7857SOL    HW224471   6.241   3.041   4.846
 7858SOL     OW24472   4.405   5.332   3.708
 7858SOL    HW124473   4.343   5.369   3.777
 7858SOL    HW224474   4.374   5.241   3.680
 7859SOL     OW24475   6.413   4.211   5.559
 7859SOL    HW124476   6.512   4.215   5.546
 7859SOL    HW224477   6.382   4.290   5.611
 7860SOL     OW24478   4.277   0.215   3.281
 7860SOL    HW124479   4.371   0.243   3.266
 7860SOL    HW224480   4.273   0.116   3.292
 7861SOL     OW24481   3.794   5.290   1.731
 7861SOL    HW124482   3.697   5.288   1.754
 7861SOL    HW224483   3.805   5.309   1.634
 7862SOL     OW24484   3.070   4.691   1.788
 7862SOL    HW124485   3.006   4.634   1.839
 7862SOL    HW224486   3.121   4.634   1.723
 7863SOL     OW24487   6.827   6.481   3.723
 7863SOL    HW124488   6.739   6.462   3.767
 7863SOL    HW224489   6.892   6.514   3.791
 7864SOL     OW24490   0.182   6.447   5.491
 7864SOL    HW124491   0.225   6.392   5.419
 7864SOL    HW224492   0.210   6.412   5.581
 7865SOL     OW24493   4.768   6.810   4.126
 7865SOL    HW124494   4.728   6.901   4.114
 7865SOL    HW224495   4.787   6.794   4.222
 7866SOL     OW24496   2.741   2.072   6.835
 7866SOL    HW124497   2.676   2.121   6.777
 7866SOL    HW224498   2.829   2.065   6.788
 7867SOL     OW24499   4.906   6.085   2.816
 7867SOL    HW124500   4.953   6.071   2.729
 7867SOL    HW224501   4.843   6.163   2.808
 7868SOL     OW24502   5.474   6.943   2.246
 7868SOL    HW124503   5.511   6.918   2.335
 7868SOL    HW224504   5.501   0.014   2.223
 7869SOL     OW24505   5.568   3.759   0.495
 7869SOL    HW124506   5.491   3.791   0.440
 7869SOL    HW224507   5.650   3.813   0.473
 7870SOL     OW24508   4.845   5.544   4.304
 7870SOL    HW124509   4.758   5.503   4.277
 7870SOL    HW224510   4.913   5.472   4.316
 7871SOL     OW24511   5.600   3.780   2.749
 7871SOL    HW124512   5.631   3.715   2.681
 7871SOL    HW224513   5.504   3.764   2.770
 7872SOL     OW24514   2.005   4.476   2.492
 7872SOL    HW124515   1.931   4.423   2.452
 7872SOL    HW224516   1.981   4.573   2.491
 7873SOL     OW24517   5.204   0.444   5.312
 7873SOL    HW124518   5.125   0.500   5.286
 7873SOL    HW224519   5.178   0.347   5.309
 7874SOL     OW24520   4.754   1.469   0.593
 7874SOL    HW124521   4.827   1.417   0.637
 7874SOL    HW224522   4.733   1.550   0.648
 7875SOL     OW24523   4.609   2.500   6.731
 7875SOL    HW124524   4.682   2.433   6.743
 7875SOL    HW224525   4.629   2.583   6.783
 7876SOL     OW24526   6.958   0.183   5.039
 7876SOL    HW124527   6.876   0.182   4.982
 7876SOL    HW224528   0.000   0.250   5.004
 7877SOL     OW24529   0.076   3.047   2.436
 7877SOL    HW124530   0.155   3.059   2.496
 7877SOL    HW224531   0.063   2.950   2.418
 7878SOL     OW24532   4.910   4.923   4.103
 7878SOL    HW124533   4.872   5.012   4.131
 7878SOL    HW224534   4.908   4.916   4.003
 7879SOL     OW24535   4.747   5.604   3.694
 7879SOL    HW124536   4.749   5.671   3.768
 7879SOL    HW224537   4.841   5.582   3.667
 7880SOL     OW24538   0.861   5.191   0.896
 7880SOL    HW124539   0.952   5.212   0.863
 7880SOL    HW224540   0.793   5.232   0.836
 7881SOL     OW24541   6.050   3.787   4.653
 7881SOL    HW124542   6.144   3.801   4.687
 7881SOL    HW224543   5.996   3.743   4.725
 7882SOL     OW24544   1.537   2.705   3.202
 7882SOL    HW124545   1.454   2.752   3.234
 7882SOL    HW224546   1.526   2.681   3.106
 7883SOL     OW24547   1.418   6.727   1.189
 7883SOL    HW124548   1.477   6.708   1.268
 7883SOL    HW224549   1.327   6.689   1.205
 7884SOL     OW24550   2.012   4.469   3.615
 7884SOL    HW124551   2.074   4.526   3.668
 7884SOL    HW224552   1.975   4.396   3.672
 7885SOL     OW24553   6.280   6.464   2.305
 7885SOL    HW124554   6.337   6.411   2.368
 7885SOL    HW224555   6.201   6.408   2.278
 7886SOL     OW24556   4.196   4.307   0.811
 7886SOL    HW124557   4.233   4.398   0.792
 7886SOL    HW224558   4.100   4.314   0.838
 7887SOL     OW24559   3.449   2.359   5.510
 7887SOL    HW124560   3.535   2.314   5.485
 7887SOL    HW224561   3.425   2.335   5.604
 7888SOL     OW24562   0.052   0.506   5.366
 7888SOL    HW124563   0.108   0.554   5.298
 7888SOL    HW224564   0.014   0.423   5.326
 7889SOL     OW24565   0.819   4.875   0.317
 7889SOL    HW124566   0.911   4.839   0.334
 7889SOL    HW224567   0.825   4.972   0.294
 7890SOL     OW24568   0.416   3.454   3.933
 7890SOL    HW124569   0.376   3.489   4.017
 7890SOL    HW224570   0.510   3.424   3.951
 7891SOL     OW24571   1.226   3.780   4.222
 7891SOL    HW124572   1.254   3.746   4.133
 7891SOL    HW224573   1.192   3.704   4.278
 7892SOL     OW24574   1.603   2.223   4.073
 7892SOL    HW124575   1.597   2.217   3.974
 7892SOL    HW224576   1.511   2.228   4.112
 7893SOL     OW24577   6.011   6.966   2.201
 7893SOL    HW124578   6.036   6.972   2.297
 7893SOL    HW224579   5.951   6.887   2.187
 7894SOL     OW24580   3.054   0.783   1.191
 7894SOL    HW124581   3.042   0.882   1.184
 7894SOL    HW224582   3.078   0.760   1.286
 7895SOL     OW24583   4.986   6.734   5.149
 7895SOL    HW124584   5.048   6.769   5.219
 7895SOL    HW224585   4.985   6.796   5.071
 7896SOL     OW24586   5.593   3.509   1.120
 7896SOL    HW124587   5.508   3.525   1.170
 7896SOL    HW224588   5.636   3.597   1.098
 7897SOL     OW24589   3.638   2.976   1.274
 7897SOL    HW124590   3.666   2.992   1.180
 7897SOL    HW224591   3.559   3.032   1.297
 7898SOL     OW24592   3.708   0.234   3.547
 7898SOL    HW124593   3.723   0.157   3.609
 7898SOL    HW224594   3.618   0.225   3.504
 7899SOL     OW24595   6.021   0.051   1.797
 7899SOL    HW124596   5.928   0.064   1.763
 7899SOL    HW224597   6.087   0.074   1.725
 7900SOL     OW24598   0.898   5.016   1.551
 7900SOL    HW124599   0.950   4.999   1.635
 7900SOL    HW224600   0.836   4.940   1.534
 7901SOL     OW24601   4.768   0.942   6.463
 7901SOL    HW124602   4.752   0.865   6.524
 7901SOL    HW224603   4.761   0.912   6.368
 7902SOL     OW24604   6.278   6.233   2.974
 7902SOL    HW124605   6.191   6.189   2.998
 7902SOL    HW224606   6.349   6.164   2.964
 7903SOL     OW24607   4.557   2.091   2.776
 7903SOL    HW124608   4.507   2.118   2.858
 7903SOL    HW224609   4.493   2.078   2.700
 7904SOL     OW24610   5.485   0.247   2.718
 7904SOL    HW124611   5.578   0.232   2.681
 7904SOL    HW224612   5.451   0.161   2.756
 7905SOL     OW24613   5.396   2.488   0.248
 7905SOL    HW124614   5.412   2.406   0.303
 7905SOL    HW224615   5.347   2.556   0.302
 7906SOL     OW24616   0.988   6.099   0.716
 7906SOL    HW124617   0.918   6.030   0.698
 7906SOL    HW224618   1.069   6.080   0.660
 7907SOL     OW24619   6.543   0.986   2.827
 7907SOL    HW124620   6.478   1.043   2.777
 7907SOL    HW224621   6.567   1.030   2.913
 7908SOL     OW24622   0.788   1.300   5.855
 7908SOL    HW124623   0.689   1.283   5.851
 7908SOL    HW224624   0.805   1.397   5.842
 7909SOL     OW24625   4.753   4.155   3.789
 7909SOL    HW124626   4.719   4.181   3.880
 7909SOL    HW224627   4.760   4.055   3.784
 7910SOL     OW24628   1.868   3.236   0.372
 7910SOL    HW124629   1.871   3.172   0.295
 7910SOL    HW224630   1.959   3.274   0.386
 7911SOL     OW24631   1.163   5.022   1.109
 7911SOL    HW124632   1.257   4.987   1.117
 7911SOL    HW224633   1.131   5.050   1.199
 7912SOL     OW24634   6.040   4.663   1.375
 7912SOL    HW124635   6.110   4.625   1.314
 7912SOL    HW224636   6.004   4.591   1.434
 7913SOL     OW24637   1.791   3.958   1.958
 7913SOL    HW124638   1.703   3.994   1.992
 7913SOL    HW224639   1.814   3.875   2.009
 7914SOL     OW24640   0.222   4.564   1.237
 7914SOL    HW124641   0.149   4.609   1.185
 7914SOL    HW224642   0.285   4.634   1.271
 7915SOL     OW24643   4.935   1.975   2.704
 7915SOL    HW124644   4.873   1.898   2.690
 7915SOL    HW224645   4.882   2.060   2.705
 7916SOL     OW24646   0.365   6.362   5.709
 7916SOL    HW124647   0.358   6.378   5.808
 7916SOL    HW224648   0.461   6.369   5.681
 7917SOL     OW24649   4.291   3.120   5.755
 7917SOL    HW124650   4.348   3.160   5.684
 7917SOL    HW224651   4.216   3.182   5.777
 7918SOL     OW24652   6.501   1.027   4.328
 7918SOL    HW124653   6.448   0.970   4.392
 7918SOL    HW224654   6.515   0.977   4.243
 7919SOL     OW24655   1.436   4.736   2.952
 7919SOL    HW124656   1.436   4.643   2.990
 7919SOL    HW224657   1.449   4.731   2.853
 7920SOL     OW24658   6.309   6.607   1.509
 7920SOL    HW124659   6.266   6.695   1.488
 7920SOL    HW224660   6.326   6.602   1.607
 7921SOL     OW24661   5.596   5.748   2.324
 7921SOL    HW124662   5.596   5.824   2.259
 7921SOL    HW224663   5.688   5.709   2.330
 7922SOL     OW24664   0.802   6.144   0.025
 7922SOL    HW124665   0.709   6.171   7.021
 7922SOL    HW224666   0.868   6.196   6.994
 7923SOL     OW24667   4.199   1.466   6.250
 7923SOL    HW124668   4.159   1.376   6.265
 7923SOL    HW224669   4.298   1.457   6.235
 7924SOL     OW24670   4.917   0.262   1.172
 7924SOL    HW124671   5.004   0.215   1.186
 7924SOL    HW224672   4.933   0.356   1.143
 7925SOL     OW24673   0.804   0.122   0.117
 7925SOL    HW124674   0.853   0.182   0.053
 7925SOL    HW224675   0.846   0.031   0.116
 7926SOL     OW24676   5.547   1.515   6.174
 7926SOL    HW124677   5.612   1.561   6.235
 7926SOL    HW224678   5.483   1.581   6.136
 7927SOL     OW24679   4.962   6.911   2.334
 7927SOL    HW124680   4.945   6.962   2.250
 7927SOL    HW224681   4.878   6.904   2.387
 7928SOL     OW24682   1.054   2.111   4.009
 7928SOL    HW124683   0.990   2.119   4.086
 7928SOL    HW224684   1.008   2.066   3.932
 7929SOL     OW24685   3.610   3.451   5.761
 7929SOL    HW124686   3.679   3.433   5.691
 7929SOL    HW224687   3.537   3.508   5.722
 7930SOL     OW24688   4.331   4.959   5.632
 7930SOL    HW124689   4.339   4.985   5.536
 7930SOL    HW224690   4.291   5.035   5.684
 7931SOL     OW24691   3.548   3.071   0.719
 7931SOL    HW124692   3.626   3.043   0.664
 7931SOL    HW224693   3.477   3.001   0.713
 7932SOL     OW24694   1.054   5.526   6.331
 7932SOL    HW124695   1.018   5.567   6.415
 7932SOL    HW224696   1.132   5.580   6.299
 7933SOL     OW24697   6.568   0.844   6.344
 7933SOL    HW124698   6.662   0.811   6.346
 7933SOL    HW224699   6.521   0.815   6.428
 7934SOL     OW24700   1.327   5.273   6.643
 7934SOL    HW124701   1.272   5.324   6.710
 7934SOL    HW224702   1.345   5.181   6.677
 7935SOL     OW24703   5.749   6.281   1.237
 7935SOL    HW124704   5.697   6.366   1.233
 7935SOL    HW224705   5.799   6.277   1.324
 7936SOL     OW24706   3.044   5.988   2.966
 7936SOL    HW124707   3.040   5.931   3.047
 7936SOL    HW224708   3.119   5.958   2.907
 7937SOL     OW24709   0.350   6.129   4.371
 7937SOL    HW124710   0.402   6.044   4.359
 7937SOL    HW224711   0.412   6.207   4.363
 7938SOL     OW24712   6.316   6.377   4.955
 7938SOL    HW124713   6.395   6.395   5.013
 7938SOL    HW224714   6.314   6.280   4.931
 7939SOL     OW24715   1.894   1.906   5.814
 7939SOL    HW124716   1.891   1.817   5.860
 7939SOL    HW224717   1.985   1.920   5.775
 7940SOL     OW24718   2.407   2.655   2.485
 7940SOL    HW124719   2.378   2.707   2.404
 7940SOL    HW224720   2.472   2.585   2.458
 7941SOL     OW24721   5.654   6.012   2.233
 7941SOL    HW124722   5.726   6.053   2.289
 7941SOL    HW224723   5.564   6.041   2.266
 7942SOL     OW24724   0.605   4.055   2.890
 7942SOL    HW124725   0.664   4.131   2.862
 7942SOL    HW224726   0.513   4.067   2.852
 7943SOL     OW24727   0.582   4.426   6.009
 7943SOL    HW124728   0.535   4.416   6.097
 7943SOL    HW224729   0.634   4.343   5.989
 7944SOL     OW24730   0.523   3.084   0.706
 7944SOL    HW124731   0.477   3.030   0.635
 7944SOL    HW224732   0.534   3.028   0.788
 7945SOL     OW24733   6.551   5.916   1.778
 7945SOL    HW124734   6.608   5.971   1.838
 7945SOL    HW224735   6.521   5.971   1.700
 7946SOL     OW24736   3.508   0.412   5.667
 7946SOL    HW124737   3.414   0.436   5.646
 7946SOL    HW224738   3.548   0.482   5.725
 7947SOL     OW24739   2.639   1.646   5.669
 7947SOL    HW124740   2.666   1.618   5.577
 7947SOL    HW224741   2.585   1.730   5.664
 7948SOL     OW24742   0.839   6.171   0.937
 7948SOL    HW124743   0.900   6.144   0.863
 7948SOL    HW224744   0.745   6.148   0.912
 7949SOL     OW24745   4.392   3.849   5.727
 7949SOL    HW124746   4.397   3.857   5.827
 7949SOL    HW224747   4.429   3.760   5.699
 7950SOL     OW24748   4.843   5.992   4.539
 7950SOL    HW124749   4.877   5.995   4.632
 7950SOL    HW224750   4.916   5.962   4.477
 7951SOL     OW24751   1.943   4.460   2.161
 7951SOL    HW124752   2.026   4.417   2.127
 7951SOL    HW224753   1.908   4.409   2.240
 7952SOL     OW24754   0.463   3.323   6.656
 7952SOL    HW124755   0.507   3.246   6.702
 7952SOL    HW224756   0.513   3.407   6.676
 7953SOL     OW24757   4.303   2.263   2.560
 7953SOL    HW124758   4.325   2.169   2.589
 7953SOL    HW224759   4.386   2.306   2.524
 7954SOL     OW24760   2.952   4.167   6.128
 7954SOL    HW124761   3.001   4.083   6.106
 7954SOL    HW224762   2.883   4.149   6.198
 7955SOL     OW24763   2.289   1.148   6.786
 7955SOL    HW124764   2.265   1.242   6.812
 7955SOL    HW224765   2.210   1.089   6.800
 7956SOL     OW24766   5.253   0.502   2.121
 7956SOL    HW124767   5.234   0.475   2.027
 7956SOL    HW224768   5.337   0.557   2.124
 7957SOL     OW24769   1.566   0.285   0.560
 7957SOL    HW124770   1.607   0.243   0.641
 7957SOL    HW224771   1.486   0.338   0.588
 7958SOL     OW24772   4.678   5.301   5.986
 7958SOL    HW124773   4.694   5.237   5.910
 7958SOL    HW224774   4.732   5.383   5.971
 7959SOL     OW24775   5.141   6.900   1.178
 7959SOL    HW124776   5.184   6.989   1.164
 7959SOL    HW224777   5.054   6.897   1.127
 7960SOL     OW24778   2.198   0.603   5.886
 7960SOL    HW124779   2.292   0.636   5.894
 7960SOL    HW224780   2.185   0.558   5.798
 7961SOL     OW24781   0.010   0.933   0.505
 7961SOL    HW124782   6.953   0.961   0.559
 7961SOL    HW224783   7.009   0.932   0.408
 7962SOL     OW24784   1.176   0.943   5.536
 7962SOL    HW124785   1.207   1.035   5.563
 7962SOL    HW224786   1.252   0.894   5.494
 7963SOL     OW24787   5.865   5.998   4.464
 7963SOL    HW124788   5.790   6.014   4.529
 7963SOL    HW224789   5.924   6.079   4.461
 7964SOL     OW24790   6.855   3.979   2.876
 7964SOL    HW124791   6.834   3.881   2.868
 7964SOL    HW224792   6.833   4.024   2.790
 7965SOL     OW24793   4.087   2.311   6.120
 7965SOL    HW124794   3.990   2.312   6.095
 7965SOL    HW224795   4.136   2.381   6.068
 7966SOL     OW24796   3.004   3.038   5.761
 7966SOL    HW124797   2.915   2.995   5.781
 7966SOL    HW224798   3.063   2.972   5.714
 7967SOL     OW24799   3.316   6.122   1.668
 7967SOL    HW124800   3.398   6.064   1.666
 7967SOL    HW224801   3.252   6.087   1.737
 7968SOL     OW24802   6.561   2.430   4.055
 7968SOL    HW124803   6.554   2.331   4.060
 7968SOL    HW224804   6.657   2.457   4.050
 7969SOL     OW24805   5.664   5.756   1.123
 7969SOL    HW124806   5.758   5.785   1.108
 7969SOL    HW224807   5.635   5.783   1.215
 7970SOL     OW24808   6.444   2.809   2.101
 7970SOL    HW124809   6.408   2.874   2.167
 7970SOL    HW224810   6.380   2.732   2.092
 7971SOL     OW24811   3.271   1.834   1.259
 7971SOL    HW124812   3.245   1.743   1.226
 7971SOL    HW224813   3.268   1.899   1.183
 7972SOL     OW24814   2.847   3.049   0.952
 7972SOL    HW124815   2.900   3.097   0.882
 7972SOL    HW224816   2.878   3.077   1.043
 7973SOL     OW24817   4.478   4.452   4.187
 7973SOL    HW124818   4.470   4.510   4.107
 7973SOL    HW224819   4.401   4.470   4.249
 7974SOL     OW24820   5.758   1.113   5.806
 7974SOL    HW124821   5.782   1.019   5.831
 7974SOL    HW224822   5.816   1.177   5.857
 7975SOL     OW24823   6.469   0.756   1.392
 7975SOL    HW124824   6.534   0.685   1.366
 7975SOL    HW224825   6.515   0.825   1.448
 7976SOL     OW24826   1.365   0.465   5.957
 7976SOL    HW124827   1.410   0.431   5.874
 7976SOL    HW224828   1.299   0.535   5.933
 7977SOL     OW24829   4.475   5.832   3.149
 7977SOL    HW124830   4.537   5.900   3.111
 7977SOL    HW224831   4.390   5.832   3.097
 7978SOL     OW24832   6.542   2.355   6.180
 7978SOL    HW124833   6.507   2.334   6.089
 7978SOL    HW224834   6.505   2.443   6.209
 7979SOL     OW24835   3.598   5.208   5.320
 7979SOL    HW124836   3.562   5.261   5.396
 7979SOL    HW224837   3.689   5.242   5.296
 7980SOL     OW24838   3.506   5.604   6.311
 7980SOL    HW124839   3.443   5.606   6.234
 7980SOL    HW224840   3.541   5.696   6.327
 7981SOL     OW24841   0.833   4.490   1.448
 7981SOL    HW124842   0.904   4.554   1.420
 7981SOL    HW224843   0.774   4.469   1.370
 7982SOL     OW24844   1.264   1.209   0.510
 7982SOL    HW124845   1.202   1.215   0.432
 7982SOL    HW224846   1.273   1.113   0.539
 7983SOL     OW24847   5.869   2.528   0.408
 7983SOL    HW124848   5.878   2.625   0.431
 7983SOL    HW224849   5.870   2.474   0.491
 7984SOL     OW24850   1.267   1.215   0.938
 7984SOL    HW124851   1.261   1.307   0.899
 7984SOL    HW224852   1.335   1.162   0.889
 7985SOL     OW24853   2.842   1.576   4.562
 7985SOL    HW124854   2.746   1.551   4.551
 7985SOL    HW224855   2.895   1.496   4.588
 7986SOL     OW24856   2.852   0.689   6.318
 7986SOL    HW124857   2.755   0.675   6.337
 7986SOL    HW224858   2.905   0.619   6.365
 7987SOL     OW24859   1.543   2.445   0.361
 7987SOL    HW124860   1.467   2.412   0.306
 7987SOL    HW224861   1.554   2.386   0.442
 7988SOL     OW24862   1.043   1.662   2.920
 7988SOL    HW124863   1.034   1.746   2.865
 7988SOL    HW224864   1.019   1.583   2.863
 7989SOL     OW24865   3.028   3.216   0.401
 7989SOL    HW124866   3.056   3.298   0.352
 7989SOL    HW224867   2.936   3.229   0.439
 7990SOL     OW24868   1.664   5.147   4.866
 7990SOL    HW124869   1.684   5.117   4.959
 7990SOL    HW224870   1.676   5.246   4.859
 7991SOL     OW24871   6.255   1.272   3.840
 7991SOL    HW124872   6.240   1.188   3.788
 7991SOL    HW224873   6.274   1.249   3.935
 7992SOL     OW24874   1.112   0.570   0.332
 7992SOL    HW124875   1.127   0.668   0.323
 7992SOL    HW224876   1.083   0.532   0.244
 7993SOL     OW24877   0.146   0.110   0.897
 7993SOL    HW124878   0.124   0.205   0.875
 7993SOL    HW224879   0.192   0.067   0.820
 7994SOL     OW24880   3.346   0.190   3.376
 7994SOL    HW124881   3.421   0.253   3.358
 7994SOL    HW224882   3.382   0.107   3.418
 7995SOL     OW24883   6.034   5.689   3.569
 7995SOL    HW124884   6.025   5.715   3.473
 7995SOL    HW224885   6.130   5.670   3.590
 7996SOL     OW24886   3.573   6.591   4.243
 7996SOL    HW124887   3.659   6.595   4.293
 7996SOL    HW224888   3.587   6.622   4.149
 7997SOL     OW24889   7.001   1.239   1.076
 7997SOL    HW124890   6.982   1.261   0.980
 7997SOL    HW224891   0.074   1.213   1.086
 7998SOL     OW24892   2.840   0.634   0.501
 7998SOL    HW124893   2.814   0.638   0.597
 7998SOL    HW224894   2.768   0.590   0.448
 7999SOL     OW24895   0.711   0.893   5.940
 7999SOL    HW124896   0.796   0.944   5.938
 7999SOL    HW224897   0.636   0.954   5.965
 8000SOL     OW24898   5.020   0.072   6.603
 8000SOL    HW124899   4.939   0.055   6.659
 8000SOL    HW224900   5.102   0.063   6.659
 8001SOL     OW24901   4.418   6.330   1.599
 8001SOL    HW124902   4.452   6.408   1.547
 8001SOL    HW224903   4.448   6.337   1.694
 8002SOL     OW24904   1.780   0.685   6.669
 8002SOL    HW124905   1.799   0.620   6.742
 8002SOL    HW224906   1.702   0.742   6.694
 8003SOL     OW24907   2.752   5.345   1.702
 8003SOL    HW124908   2.736   5.247   1.700
 8003SOL    HW224909   2.668   5.393   1.676
 8004SOL     OW24910   2.245   2.967   3.130
 8004SOL    HW124911   2.190   2.907   3.071
 8004SOL    HW224912   2.331   2.921   3.154
 8005SOL     OW24913   2.826   0.789   3.377
 8005SOL    HW124914   2.811   0.700   3.420
 8005SOL    HW224915   2.924   0.809   3.377
 8006SOL     OW24916   2.406   5.920   5.352
 8006SOL    HW124917   2.436   5.992   5.416
 8006SOL    HW224918   2.309   5.932   5.333
 8007SOL     OW24919   5.953   1.287   5.910
 8007SOL    HW124920   6.023   1.356   5.892
 8007SOL    HW224921   5.994   1.210   5.960
 8008SOL     OW24922   3.989   6.370   6.451
 8008SOL    HW124923   4.078   6.411   6.471
 8008SOL    HW224924   3.993   6.325   6.361
 8009SOL     OW24925   5.809   0.572   1.217
 8009SOL    HW124926   5.899   0.602   1.184
 8009SOL    HW224927   5.756   0.652   1.247
 8010SOL     OW24928   2.000   1.636   5.421
 8010SOL    HW124929   1.992   1.661   5.324
 8010SOL    HW224930   1.953   1.549   5.437
 8011SOL     OW24931   3.052   2.028   1.122
 8011SOL    HW124932   3.024   2.075   1.039
 8011SOL    HW224933   3.119   2.085   1.171
 8012SOL     OW24934   2.695   3.492   0.204
 8012SOL    HW124935   2.750   3.561   0.158
 8012SOL    HW224936   2.731   3.401   0.183
 8013SOL     OW24937   1.462   5.491   3.124
 8013SOL    HW124938   1.444   5.565   3.188
 8013SOL    HW224939   1.525   5.426   3.165
 8014SOL     OW24940   1.162   6.639   4.525
 8014SOL    HW124941   1.218   6.562   4.493
 8014SOL    HW224942   1.067   6.624   4.500
 8015SOL     OW24943   2.613   0.655   6.445
 8015SOL    HW124944   2.603   0.586   6.517
 8015SOL    HW224945   2.524   0.697   6.427
 8016SOL     OW24946   3.996   0.544   5.944
 8016SOL    HW124947   3.960   0.458   5.978
 8016SOL    HW224948   3.924   0.613   5.940
 8017SOL     OW24949   5.691   0.103   0.279
 8017SOL    HW124950   5.610   0.160   0.290
 8017SOL    HW224951   5.741   0.098   0.365
 8018SOL     OW24952   3.244   2.100   0.112
 8018SOL    HW124953   3.305   2.093   0.191
 8018SOL    HW224954   3.178   2.173   0.127
 8019SOL     OW24955   2.613   4.860   1.083
 8019SOL    HW124956   2.679   4.935   1.080
 8019SOL    HW224957   2.602   4.821   0.992
 8020SOL     OW24958   6.292   0.179   6.785
 8020SOL    HW124959   6.223   0.251   6.779
 8020SOL    HW224960   6.362   0.194   6.715
 8021SOL     OW24961   0.987   2.940   0.812
 8021SOL    HW124962   0.969   2.929   0.714
 8021SOL    HW224963   0.986   3.037   0.836
 8022SOL     OW24964   5.939   0.552   2.213
 8022SOL    HW124965   5.977   0.577   2.302
 8022SOL    HW224966   5.847   0.515   2.224
 8023SOL     OW24967   6.220   4.562   2.854
 8023SOL    HW124968   6.182   4.531   2.766
 8023SOL    HW224969   6.193   4.657   2.869
 8024SOL     OW24970   1.139   5.163   5.684
 8024SOL    HW124971   1.071   5.100   5.649
 8024SOL    HW224972   1.223   5.155   5.630
 8025SOL     OW24973   2.240   5.771   0.820
 8025SOL    HW124974   2.153   5.816   0.798
 8025SOL    HW224975   2.221   5.683   0.863
 8026SOL     OW24976   6.776   4.140   0.825
 8026SOL    HW124977   6.678   4.157   0.838
 8026SOL    HW224978   6.788   4.077   0.749
 8027SOL     OW24979   3.990   0.138   5.410
 8027SOL    HW124980   3.896   0.104   5.422
 8027SOL    HW224981   4.048   0.063   5.376
 8028SOL     OW24982   4.197   5.819   5.448
 8028SOL    HW124983   4.185   5.907   5.494
 8028SOL    HW224984   4.128   5.754   5.480
 8029SOL     OW24985   5.424   3.084   1.770
 8029SOL    HW124986   5.362   3.006   1.776
 8029SOL    HW224987   5.374   3.164   1.736
 8030SOL     OW24988   5.278   4.948   0.538
 8030SOL    HW124989   5.336   5.021   0.501
 8030SOL    HW224990   5.234   4.900   0.462
 8031SOL     OW24991   6.313   6.714   2.352
 8031SOL    HW124992   6.319   6.615   2.347
 8031SOL    HW224993   6.399   6.752   2.385
 8032SOL     OW24994   6.260   4.572   1.653
 8032SOL    HW124995   6.270   4.503   1.724
 8032SOL    HW224996   6.333   4.561   1.585
 8033SOL     OW24997   4.673   2.159   6.821
 8033SOL    HW124998   4.625   2.138   6.907
 8033SOL    HW224999   4.770   2.177   6.840
 8034SOL     OW25000   4.357   0.775   5.092
 8034SOL    HW125001   4.432   0.722   5.054
 8034SOL    HW225002   4.287   0.789   5.022
 8035SOL     OW25003   5.228   1.631   2.390
 8035SOL    HW125004   5.260   1.548   2.345
 8035SOL    HW225005   5.281   1.709   2.360
 8036SOL     OW25006   6.891   4.025   3.864
 8036SOL    HW125007   6.833   4.106   3.873
 8036SOL    HW225008   6.866   3.975   3.781
 8037SOL     OW25009   2.565   3.270   6.989
 8037SOL    HW125010   2.485   3.329   6.985
 8037SOL    HW225011   2.556   3.204   0.040
 8038SOL     OW25012   4.586   0.412   2.340
 8038SOL    HW125013   4.573   0.496   2.392
 8038SOL    HW225014   4.511   0.349   2.359
 8039SOL     OW25015   0.228   1.425   5.389
 8039SOL    HW125016   0.312   1.410   5.337
 8039SOL    HW225017   0.150   1.425   5.326
 8040SOL     OW25018   1.297   5.520   0.282
 8040SOL    HW125019   1.394   5.502   0.297
 8040SOL    HW225020   1.268   5.598   0.337
 8041SOL     OW25021   3.041   0.756   2.899
 8041SOL    HW125022   3.112   0.801   2.845
 8041SOL    HW225023   3.082   0.691   2.961
 8042SOL     OW25024   3.793   2.822   5.171
 8042SOL    HW125025   3.831   2.898   5.224
 8042SOL    HW225026   3.840   2.737   5.195
 8043SOL     OW25027   3.838   6.086   0.710
 8043SOL    HW125028   3.875   6.120   0.796
 8043SOL    HW225029   3.743   6.118   0.700
 8044SOL     OW25030   4.955   3.189   0.618
 8044SOL    HW125031   4.888   3.175   0.691
 8044SOL    HW225032   4.987   3.283   0.620
 8045SOL     OW25033   6.384   2.266   2.492
 8045SOL    HW125034   6.368   2.311   2.404
 8045SOL    HW225035   6.379   2.335   2.565
 8046SOL     OW25036   0.884   4.569   1.867
 8046SOL    HW125037   0.879   4.493   1.802
 8046SOL    HW225038   0.858   4.536   1.958
 8047SOL     OW25039   3.909   6.075   6.189
 8047SOL    HW125040   3.819   6.103   6.154
 8047SOL    HW225041   3.966   6.156   6.202
 8048SOL     OW25042   3.926   1.440   6.926
 8048SOL    HW125043   3.957   1.410   7.016
 8048SOL    HW225044   3.983   1.515   6.895
 8049SOL     OW25045   0.940   0.062   6.748
 8049SOL    HW125046   1.025   0.114   6.756
 8049SOL    HW225047   0.957   7.000   6.698
 8050SOL     OW25048   2.068   3.497   3.581
 8050SOL    HW125049   2.070   3.460   3.488
 8050SOL    HW225050   2.080   3.596   3.578
 8051SOL     OW25051   4.712   6.414   4.216
 8051SOL    HW125052   4.706   6.328   4.267
 8051SOL    HW225053   4.807   6.432   4.192
 8052SOL     OW25054   3.164   1.595   1.185
 8052SOL    HW125055   3.092   1.553   1.240
 8052SOL    HW225056   3.251   1.548   1.203
 8053SOL     OW25057   3.862   2.999   4.810
 8053SOL    HW125058   3.779   2.943   4.797
 8053SOL    HW225059   3.935   2.942   4.846
 8054SOL     OW25060   6.865   4.236   4.832
 8054SOL    HW125061   6.826   4.144   4.824
 8054SOL    HW225062   6.797   4.298   4.871
 8055SOL     OW25063   6.967   0.638   5.586
 8055SOL    HW125064   7.001   0.725   5.622
 8055SOL    HW225065   7.001   0.624   5.493
 8056SOL     OW25066   3.069   0.800   4.891
 8056SOL    HW125067   3.012   0.734   4.940
 8056SOL    HW225068   3.052   0.892   4.927
 8057SOL     OW25069   2.946   2.190   3.089
 8057SOL    HW125070   2.987   2.100   3.071
 8057SOL    HW225071   2.918   2.232   3.003
 8058SOL     OW25072   3.088   0.085   3.303
 8058SOL    HW125073   3.160   0.152   3.321
 8058SOL    HW225074   3.129   0.001   3.269
 8059SOL     OW25075   2.566   1.565   4.539
 8059SOL    HW125076   2.529   1.590   4.629
 8059SOL    HW225077   2.520   1.618   4.468
 8060SOL     OW25078   6.770   2.261   6.259
 8060SOL    HW125079   6.680   2.296   6.232
 8060SOL    HW225080   6.768   2.236   6.356
 8061SOL     OW25081   0.069   0.538   2.883
 8061SOL    HW125082   0.085   0.464   2.817
 8061SOL    HW225083   7.022   0.510   2.948
 8062SOL     OW25084   3.887   4.841   3.819
 8062SOL    HW125085   3.965   4.827   3.759
 8062SOL    HW225086   3.806   4.863   3.765
 8063SOL     OW25087   2.510   1.946   2.725
 8063SOL    HW125088   2.589   1.885   2.721
 8063SOL    HW225089   2.488   1.965   2.821
 8064SOL     OW25090   6.614   2.302   1.010
 8064SOL    HW125091   6.551   2.329   1.083
 8064SOL    HW225092   6.566   2.243   0.945
 8065SOL     OW25093   2.520   5.339   3.889
 8065SOL    HW125094   2.480   5.428   3.866
 8065SOL    HW225095   2.535   5.334   3.988
 8066SOL     OW25096   0.397   1.109   5.604
 8066SOL    HW125097   0.372   1.075   5.695
 8066SOL    HW225098   0.322   1.166   5.568
 8067SOL     OW25099   5.533   2.474   2.846
 8067SOL    HW125100   5.514   2.535   2.769
 8067SOL    HW225101   5.542   2.527   2.930
 8068SOL     OW25102   0.146   4.293   1.226
 8068SOL    HW125103   0.162   4.234   1.306
 8068SOL    HW225104   0.204   4.374   1.233
 8069SOL     OW25105   1.918   5.255   1.060
 8069SOL    HW125106   1.955   5.163   1.054
 8069SOL    HW225107   1.839   5.263   1.000
 8070SOL     OW25108   4.648   3.183   0.714
 8070SOL    HW125109   4.614   3.089   0.714
 8070SOL    HW225110   4.615   3.230   0.796
 8071SOL     OW25111   3.579   6.452   5.156
 8071SOL    HW125112   3.550   6.503   5.075
 8071SOL    HW225113   3.604   6.359   5.129
 8072SOL     OW25114   3.509   1.405   0.807
 8072SOL    HW125115   3.475   1.364   0.723
 8072SOL    HW225116   3.472   1.498   0.816
 8073SOL     OW25117   3.422   5.722   5.309
 8073SOL    HW125118   3.464   5.707   5.398
 8073SOL    HW225119   3.468   5.798   5.263
 8074SOL     OW25120   3.359   2.984   1.011
 8074SOL    HW125121   3.319   2.987   1.102
 8074SOL    HW225122   3.352   2.891   0.974
 8075SOL     OW25123   6.368   7.019   0.818
 8075SOL    HW125124   6.365   0.037   0.909
 8075SOL    HW225125   6.411   0.062   0.754
 8076SOL     OW25126   5.910   0.800   5.553
 8076SOL    HW125127   5.817   0.832   5.570
 8076SOL    HW225128   5.975   0.859   5.601
 8077SOL     OW25129   3.512   6.425   2.450
 8077SOL    HW125130   3.572   6.408   2.372
 8077SOL    HW225131   3.524   6.352   2.518
 8078SOL     OW25132   0.073   2.148   0.361
 8078SOL    HW125133   0.022   2.181   0.282
 8078SOL    HW225134   0.122   2.064   0.337
 8079SOL     OW25135   6.486   1.084   3.788
 8079SOL    HW125136   6.494   1.067   3.690
 8079SOL    HW225137   6.476   0.996   3.835
 8080SOL     OW25138   0.665   2.837   2.588
 8080SOL    HW125139   0.747   2.801   2.544
 8080SOL    HW225140   0.588   2.776   2.571
 8081SOL     OW25141   6.057   5.843   6.169
 8081SOL    HW125142   6.013   5.812   6.253
 8081SOL    HW225143   6.050   5.943   6.162
 8082SOL     OW25144   4.119   0.953   1.925
 8082SOL    HW125145   4.219   0.957   1.922
 8082SOL    HW225146   4.087   0.877   1.869
 8083SOL     OW25147   4.780   2.775   3.381
 8083SOL    HW125148   4.805   2.828   3.300
 8083SOL    HW225149   4.763   2.837   3.458
 8084SOL     OW25150   3.909   6.667   6.827
 8084SOL    HW125151   3.944   6.720   6.749
 8084SOL    HW225152   3.816   6.696   6.847
 8085SOL     OW25153   5.509   6.245   2.335
 8085SOL    HW125154   5.526   6.322   2.273
 8085SOL    HW225155   5.485   6.281   2.426
 8086SOL     OW25156   6.510   0.402   2.491
 8086SOL    HW125157   6.583   0.338   2.467
 8086SOL    HW225158   6.442   0.404   2.418
 8087SOL     OW25159   2.005   0.098   6.871
 8087SOL    HW125160   2.057   0.182   6.854
 8087SOL    HW225161   2.068   0.023   6.887
 8088SOL     OW25162   6.043   1.241   1.527
 8088SOL    HW125163   6.012   1.152   1.558
 8088SOL    HW225164   6.072   1.236   1.431
 8089SOL     OW25165   5.925   2.814   0.672
 8089SOL    HW125166   5.828   2.808   0.647
 8089SOL    HW225167   5.981   2.814   0.589
 8090SOL     OW25168   3.715   1.137   6.623
 8090SOL    HW125169   3.636   1.176   6.669
 8090SOL    HW225170   3.790   1.203   6.624
 8091SOL     OW25171   1.933   3.788   4.695
 8091SOL    HW125172   2.010   3.789   4.758
 8091SOL    HW225173   1.880   3.872   4.705
 8092SOL     OW25174   5.579   2.238   5.457
 8092SOL    HW125175   5.594   2.225   5.555
 8092SOL    HW225176   5.656   2.289   5.418
 8093SOL     OW25177   3.214   5.010   3.236
 8093SOL    HW125178   3.133   4.973   3.189
 8093SOL    HW225179   3.208   4.988   3.334
 8094SOL     OW25180   0.388   3.553   4.500
 8094SOL    HW125181   0.445   3.480   4.462
 8094SOL    HW225182   0.399   3.555   4.599
 8095SOL     OW25183   0.436   4.544   4.437
 8095SOL    HW125184   0.419   4.616   4.505
 8095SOL    HW225185   0.533   4.518   4.440
 8096SOL     OW25186   2.111   6.898   2.668
 8096SOL    HW125187   2.044   6.825   2.682
 8096SOL    HW225188   2.190   6.862   2.618
 8097SOL     OW25189   4.195   6.814   4.428
 8097SOL    HW125190   4.199   6.901   4.378
 8097SOL    HW225191   4.109   6.809   4.478
 8098SOL     OW25192   1.985   6.492   3.313
 8098SOL    HW125193   2.015   6.565   3.375
 8098SOL    HW225194   1.888   6.475   3.327
 8099SOL     OW25195   4.106   5.881   4.838
 8099SOL    HW125196   4.177   5.942   4.805
 8099SOL    HW225197   4.024   5.934   4.860
 8100SOL     OW25198   0.372   0.279   6.602
 8100SOL    HW125199   0.291   0.230   6.635
 8100SOL    HW225200   0.404   0.237   6.517
 8101SOL     OW25201   1.401   6.135   1.702
 8101SOL    HW125202   1.332   6.189   1.751
 8101SOL    HW225203   1.485   6.131   1.758
 8102SOL     OW25204   0.399   3.910   3.365
 8102SOL    HW125205   0.466   3.983   3.378
 8102SOL    HW225206   0.410   3.841   3.436
 8103SOL     OW25207   2.797   6.752   1.407
 8103SOL    HW125208   2.864   6.684   1.437
 8103SOL    HW225209   2.717   6.706   1.370
 8104SOL     OW25210   2.110   0.432   6.091
 8104SOL    HW125211   2.172   0.471   6.022
 8104SOL    HW225212   2.164   0.388   6.163
 8105SOL     OW25213   0.455   3.000   3.171
 8105SOL    HW125214   0.369   2.960   3.203
 8105SOL    HW225215   0.504   2.934   3.114
 8106SOL     OW25216   3.102   6.219   3.136
 8106SOL    HW125217   3.189   6.174   3.154
 8106SOL    HW225218   3.042   6.158   3.084
 8107SOL     OW25219   0.889   5.234   4.335
 8107SOL    HW125220   0.814   5.178   4.300
 8107SOL    HW225221   0.961   5.175   4.372
 8108SOL     OW25222   6.299   2.547   6.025
 8108SOL    HW125223   6.345   2.463   5.997
 8108SOL    HW225224   6.256   2.590   5.945
 8109SOL     OW25225   6.952   4.147   5.725
 8109SOL    HW125226   6.907   4.175   5.810
 8109SOL    HW225227   6.959   4.225   5.663
 8110SOL     OW25228   4.211   6.051   2.490
 8110SOL    HW125229   4.156   5.986   2.438
 8110SOL    HW225230   4.282   6.090   2.431
 8111SOL     OW25231   5.113   0.982   4.175
 8111SOL    HW125232   5.160   0.998   4.261
 8111SOL    HW225233   5.105   1.067   4.124
 8112SOL     OW25234   2.536   1.970   4.512
 8112SOL    HW125235   2.483   2.055   4.508
 8112SOL    HW225236   2.616   1.977   4.453
 8113SOL     OW25237   1.538   3.439   0.039
 8113SOL    HW125238   1.588   3.524   0.029
 8113SOL    HW225239   1.445   3.458   0.070
 8114SOL     OW25240   1.422   4.166   3.031
 8114SOL    HW125241   1.414   4.101   2.955
 8114SOL    HW225242   1.480   4.243   3.004
 8115SOL     OW25243   3.752   0.657   6.830
 8115SOL    HW125244   3.728   0.725   6.761
 8115SOL    HW225245   3.817   0.698   6.895
 8116SOL     OW25246   4.484   4.438   0.019
 8116SOL    HW125247   4.540   4.511   7.002
 8116SOL    HW225248   4.483   4.448   0.119
 8117SOL     OW25249   1.937   0.119   3.665
 8117SOL    HW125250   1.888   0.047   3.615
 8117SOL    HW225251   2.012   0.153   3.609
 8118SOL     OW25252   4.972   4.408   6.848
 8118SOL    HW125253   4.994   4.502   6.821
 8118SOL    HW225254   5.044   4.372   6.908
 8119SOL     OW25255   4.916   5.506   6.651
 8119SOL    HW125256   4.951   5.587   6.604
 8119SOL    HW225257   4.948   5.424   6.604
 8120SOL     OW25258   2.930   4.956   1.144
 8120SOL    HW125259   2.940   4.901   1.061
 8120SOL    HW225260   3.003   5.024   1.148
 8121SOL     OW25261   6.741   4.899   2.308
 8121SOL    HW125262   6.696   4.988   2.308
 8121SOL    HW225263   6.791   4.887   2.394
 8122SOL     OW25264   0.241   4.946   3.720
 8122SOL    HW125265   0.321   4.918   3.667
 8122SOL    HW225266   0.165   4.884   3.702
 8123SOL     OW25267   6.836   1.930   6.537
 8123SOL    HW125268   6.781   1.850   6.559
 8123SOL    HW225269   6.777   2.004   6.506
 8124SOL     OW25270   5.354   6.285   1.861
 8124SOL    HW125271   5.436   6.329   1.897
 8124SOL    HW225272   5.274   6.340   1.886
 8125SOL     OW25273   1.431   1.910   3.072
 8125SOL    HW125274   1.380   1.903   3.158
 8125SOL    HW225275   1.459   2.005   3.057
 8126SOL     OW25276   4.793   4.114   2.715
 8126SOL    HW125277   4.736   4.170   2.655
 8126SOL    HW225278   4.851   4.054   2.659
 8127SOL     OW25279   2.535   4.389   6.529
 8127SOL    HW125280   2.544   4.354   6.436
 8127SOL    HW225281   2.584   4.329   6.592
 8128SOL     OW25282   2.948   2.226   2.292
 8128SOL    HW125283   2.936   2.233   2.193
 8128SOL    HW225284   3.046   2.228   2.313
 8129SOL     OW25285   3.966   1.421   6.032
 8129SOL    HW125286   3.969   1.459   5.939
 8129SOL    HW225287   3.991   1.492   6.098
 8130SOL     OW25288   0.383   3.960   6.977
 8130SOL    HW125289   0.433   3.977   6.893
 8130SOL    HW225290   0.285   3.958   6.958
 8131SOL     OW25291   2.434   1.941   1.172
 8131SOL    HW125292   2.511   2.002   1.190
 8131SOL    HW225293   2.354   1.995   1.144
 8132SOL     OW25294   5.882   7.012   5.937
 8132SOL    HW125295   5.940   0.070   5.918
 8132SOL    HW225296   5.884   6.992   6.035
 8133SOL     OW25297   3.433   5.721   1.635
 8133SOL    HW125298   3.396   5.654   1.701
 8133SOL    HW225299   3.363   5.741   1.567
 8134SOL     OW25300   6.523   2.898   5.513
 8134SOL    HW125301   6.572   2.971   5.561
 8134SOL    HW225302   6.554   2.809   5.546
 8135SOL     OW25303   3.263   6.570   1.474
 8135SOL    HW125304   3.271   6.665   1.505
 8135SOL    HW225305   3.335   6.551   1.407
 8136SOL     OW25306   4.662   6.058   3.123
 8136SOL    HW125307   4.742   6.020   3.077
 8136SOL    HW225308   4.584   6.057   3.060
 8137SOL     OW25309   3.585   1.499   5.114
 8137SOL    HW125310   3.559   1.576   5.172
 8137SOL    HW225311   3.654   1.444   5.160
 8138SOL     OW25312   5.077   0.755   0.615
 8138SOL    HW125313   5.139   0.833   0.606
 8138SOL    HW225314   5.065   0.733   0.711
 8139SOL     OW25315   0.440   1.113   2.443
 8139SOL    HW125316   0.506   1.103   2.518
 8139SOL    HW225317   0.461   1.047   2.371
 8140SOL     OW25318   5.715   0.821   6.743
 8140SOL    HW125319   5.719   0.752   6.815
 8140SOL    HW225320   5.620   0.850   6.730
 8141SOL     OW25321   4.549   5.919   4.538
 8141SOL    HW125322   4.522   5.842   4.595
 8141SOL    HW225323   4.645   5.942   4.556
 8142SOL     OW25324   6.990   5.461   6.937
 8142SOL    HW125325   6.963   5.543   6.886
 8142SOL    HW225326   0.019   5.489   7.018
 8143SOL     OW25327   5.832   4.258   1.067
 8143SOL    HW125328   5.863   4.329   1.005
 8143SOL    HW225329   5.892   4.255   1.147
 8144SOL     OW25330   6.152   6.007   6.740
 8144SOL    HW125331   6.202   6.061   6.673
 8144SOL    HW225332   6.054   6.026   6.731
 8145SOL     OW25333   5.686   6.054   1.946
 8145SOL    HW125334   5.700   5.962   1.909
 8145SOL    HW225335   5.688   6.050   2.046
 8146SOL     OW25336   3.949   1.161   4.229
 8146SOL    HW125337   3.978   1.238   4.286
 8146SOL    HW225338   3.906   1.092   4.287
 8147SOL     OW25339   6.236   2.082   1.844
 8147SOL    HW125340   6.249   2.158   1.781
 8147SOL    HW225341   6.324   2.035   1.856
 8148SOL     OW25342   4.680   4.303   0.832
 8148SOL    HW125343   4.749   4.283   0.902
 8148SOL    HW225344   4.589   4.295   0.873
 8149SOL     OW25345   2.724   6.203   2.097
 8149SOL    HW125346   2.697   6.295   2.124
 8149SOL    HW225347   2.792   6.167   2.162
 8150SOL     OW25348   1.934   4.201   0.659
 8150SOL    HW125349   2.014   4.147   0.635
 8150SOL    HW225350   1.912   4.263   0.583
 8151SOL     OW25351   6.470   2.426   1.244
 8151SOL    HW125352   6.527   2.508   1.254
 8151SOL    HW225353   6.381   2.453   1.208
 8152SOL     OW25354   0.166   1.442   2.756
 8152SOL    HW125355   0.145   1.508   2.828
 8152SOL    HW225356   0.132   1.477   2.669
 8153SOL     OW25357   2.317   0.251   3.781
 8153SOL    HW125358   2.297   0.224   3.875
 8153SOL    HW225359   2.232   0.280   3.736
 8154SOL     OW25360   2.723   5.129   2.538
 8154SOL    HW125361   2.666   5.209   2.522
 8154SOL    HW225362   2.720   5.069   2.458
 8155SOL     OW25363   1.856   3.699   2.055
 8155SOL    HW125364   1.808   3.638   1.992
 8155SOL    HW225365   1.852   3.662   2.147
 8156SOL     OW25366   5.272   6.798   0.366
 8156SOL    HW125367   5.274   6.821   0.269
 8156SOL    HW225368   5.273   6.882   0.421
 8157SOL     OW25369   6.929   5.034   6.681
 8157SOL    HW125370   6.914   4.936   6.692
 8157SOL    HW225371   7.018   5.059   6.719
 8158SOL     OW25372   5.339   5.097   1.029
 8158SOL    HW125373   5.268   5.029   1.013
 8158SOL    HW225374   5.417   5.054   1.074
 8159SOL     OW25375   3.107   6.459   2.772
 8159SOL    HW125376   3.055   6.383   2.733
 8159SOL    HW225377   3.192   6.425   2.813
 8160SOL     OW25378   4.867   1.084   2.748
 8160SOL    HW125379   4.906   0.993   2.757
 8160SOL    HW225380   4.767   1.079   2.755
 8161SOL     OW25381   5.219   1.500   6.522
 8161SOL    HW125382   5.139   1.552   6.492
 8161SOL    HW225383   5.271   1.554   6.587
 8162SOL     OW25384   5.940   6.636   5.992
 8162SOL    HW125385   5.980   6.608   5.904
 8162SOL    HW225386   5.970   6.730   6.013
 8163SOL     OW25387   2.669   4.051   5.297
 8163SOL    HW125388   2.585   4.023   5.251
 8163SOL    HW225389   2.692   4.145   5.271
 8164SOL     OW25390   5.883   3.675   0.914
 8164SOL    HW125391   5.833   3.735   0.853
 8164SOL    HW225392   5.867   3.580   0.888
 8165SOL     OW25393   0.933   4.833   0.013
 8165SOL    HW125394   0.860   4.813   0.077
 8165SOL    HW225395   1.009   4.878   0.061
 8166SOL     OW25396   1.667   0.543   2.205
 8166SOL    HW125397   1.684   0.629   2.155
 8166SOL    HW225398   1.742   0.526   2.269
 8167SOL     OW25399   6.566   0.036   4.852
 8167SOL    HW125400   6.504   0.095   4.904
 8167SOL    HW225401   6.586   6.977   4.905
 8168SOL     OW25402   2.822   1.569   4.028
 8168SOL    HW125403   2.851   1.665   4.026
 8168SOL    HW225404   2.797   1.540   3.936
 8169SOL     OW25405   4.901   2.810   1.364
 8169SOL    HW125406   4.820   2.865   1.384
 8169SOL    HW225407   4.978   2.843   1.419
 8170SOL     OW25408   1.646   5.353   2.345
 8170SOL    HW125409   1.602   5.314   2.427
 8170SOL    HW225410   1.608   5.444   2.328
 8171SOL     OW25411   1.455   1.429   0.496
 8171SOL    HW125412   1.391   1.354   0.513
 8171SOL    HW225413   1.526   1.398   0.433
 8172SOL     OW25414   0.793   1.413   1.914
 8172SOL    HW125415   0.880   1.462   1.911
 8172SOL    HW225416   0.724   1.463   1.862
 8173SOL     OW25417   3.978   1.151   1.140
 8173SOL    HW125418   3.918   1.213   1.090
 8173SOL    HW225419   3.924   1.095   1.203
 8174SOL     OW25420   5.959   2.384   0.626
 8174SOL    HW125421   5.978   2.334   0.711
 8174SOL    HW225422   6.040   2.379   0.567
 8175SOL     OW25423   0.184   3.313   6.526
 8175SOL    HW125424   0.274   3.286   6.559
 8175SOL    HW225425   0.123   3.328   6.603
 8176SOL     OW25426   2.840   5.480   2.403
 8176SOL    HW125427   2.784   5.546   2.454
 8176SOL    HW225428   2.889   5.422   2.468
 8177SOL     OW25429   2.498   5.812   3.858
 8177SOL    HW125430   2.594   5.799   3.834
 8177SOL    HW225431   2.483   5.907   3.885
 8178SOL     OW25432   2.805   5.859   6.334
 8178SOL    HW125433   2.862   5.941   6.324
 8178SOL    HW225434   2.743   5.872   6.411
 8179SOL     OW25435   4.311   2.478   5.981
 8179SOL    HW125436   4.380   2.550   5.981
 8179SOL    HW225437   4.343   2.401   6.036
 8180SOL     OW25438   6.765   0.253   4.879
 8180SOL    HW125439   6.704   0.200   4.820
 8180SOL    HW225440   6.819   0.316   4.823
 8181SOL     OW25441   1.896   1.852   1.831
 8181SOL    HW125442   1.944   1.894   1.753
 8181SOL    HW225443   1.935   1.762   1.849
 8182SOL     OW25444   3.466   2.103   6.711
 8182SOL    HW125445   3.398   2.043   6.754
 8182SOL    HW225446   3.474   2.080   6.614
 8183SOL     OW25447   0.642   2.287   4.560
 8183SOL    HW125448   0.722   2.294   4.500
 8183SOL    HW225449   0.605   2.378   4.576
 8184SOL     OW25450   5.155   2.089   5.694
 8184SOL    HW125451   5.179   2.104   5.598
 8184SOL    HW225452   5.237   2.068   5.747
 8185SOL     OW25453   2.597   6.227   0.345
 8185SOL    HW125454   2.651   6.284   0.283
 8185SOL    HW225455   2.532   6.284   0.395
 8186SOL     OW25456   3.551   5.558   6.578
 8186SOL    HW125457   3.588   5.466   6.596
 8186SOL    HW225458   3.501   5.557   6.492
 8187SOL     OW25459   2.152   1.898   5.748
 8187SOL    HW125460   2.193   1.810   5.770
 8187SOL    HW225461   2.118   1.897   5.655
 8188SOL     OW25462   5.417   2.324   2.069
 8188SOL    HW125463   5.387   2.348   2.162
 8188SOL    HW225464   5.512   2.351   2.057
 8189SOL     OW25465   4.923   4.759   2.212
 8189SOL    HW125466   4.868   4.765   2.295
 8189SOL    HW225467   4.862   4.749   2.132
 8190SOL     OW25468   4.612   5.392   4.346
 8190SOL    HW125469   4.623   5.416   4.442
 8190SOL    HW225470   4.521   5.419   4.314
 8191SOL     OW25471   3.189   5.657   3.570
 8191SOL    HW125472   3.164   5.729   3.505
 8191SOL    HW225473   3.166   5.568   3.530
 8192SOL     OW25474   3.673   5.169   0.256
 8192SOL    HW125475   3.594   5.108   0.259
 8192SOL    HW225476   3.662   5.235   0.181
 8193SOL     OW25477   6.804   0.256   3.832
 8193SOL    HW125478   6.767   0.163   3.833
 8193SOL    HW225479   6.893   0.256   3.786
 8194SOL     OW25480   6.347   2.676   0.402
 8194SOL    HW125481   6.414   2.625   0.349
 8194SOL    HW225482   6.370   2.773   0.400
 8195SOL     OW25483   0.680   0.259   0.773
 8195SOL    HW125484   0.742   0.337   0.785
 8195SOL    HW225485   0.727   0.188   0.721
 8196SOL     OW25486   3.271   0.227   5.465
 8196SOL    HW125487   3.352   0.230   5.406
 8196SOL    HW225488   3.229   0.317   5.469
 8197SOL     OW25489   4.371   1.188   6.041
 8197SOL    HW125490   4.274   1.203   6.022
 8197SOL    HW225491   4.425   1.264   6.005
 8198SOL     OW25492   2.715   6.284   3.187
 8198SOL    HW125493   2.628   6.332   3.177
 8198SOL    HW225494   2.775   6.307   3.111
 8199SOL     OW25495   0.355   2.862   6.587
 8199SOL    HW125496   0.430   2.874   6.521
 8199SOL    HW225497   0.269   2.889   6.544
 8200SOL     OW25498   4.683   3.725   1.215
 8200SOL    HW125499   4.744   3.651   1.242
 8200SOL    HW225500   4.724   3.776   1.140
 8201SOL     OW25501   4.985   0.733   4.586
 8201SOL    HW125502   5.060   0.679   4.624
 8201SOL    HW225503   5.021   0.815   4.542
 8202SOL     OW25504   0.607   5.678   4.127
 8202SOL    HW125505   0.704   5.688   4.147
 8202SOL    HW225506   0.592   5.688   4.028
 8203SOL     OW25507   4.919   2.811   0.117
 8203SOL    HW125508   4.936   2.832   0.213
 8203SOL    HW225509   4.924   2.712   0.103
 8204SOL     OW25510   2.998   5.565   0.859
 8204SOL    HW125511   3.061   5.640   0.839
 8204SOL    HW225512   3.039   5.478   0.832
 8205SOL     OW25513   6.674   4.678   1.501
 8205SOL    HW125514   6.729   4.599   1.528
 8205SOL    HW225515   6.692   4.699   1.405
 8206SOL     OW25516   3.613   3.054   5.899
 8206SOL    HW125517   3.632   3.044   5.801
 8206SOL    HW225518   3.531   3.002   5.923
 8207SOL     OW25519   3.860   4.596   5.317
 8207SOL    HW125520   3.797   4.525   5.286
 8207SOL    HW225521   3.890   4.575   5.410
 8208SOL     OW25522   2.480   6.169   1.504
 8208SOL    HW125523   2.390   6.206   1.528
 8208SOL    HW225524   2.520   6.225   1.431
 8209SOL     OW25525   0.732   2.057   5.320
 8209SOL    HW125526   0.733   2.154   5.345
 8209SOL    HW225527   0.823   2.018   5.336
 8210SOL     OW25528   2.951   0.983   1.574
 8210SOL    HW125529   2.884   1.053   1.599
 8210SOL    HW225530   2.906   0.912   1.519
 8211SOL     OW25531   3.621   3.914   3.688
 8211SOL    HW125532   3.566   3.997   3.688
 8211SOL    HW225533   3.638   3.884   3.782
 8212SOL     OW25534   3.344   1.255   1.596
 8212SOL    HW125535   3.323   1.173   1.650
 8212SOL    HW225536   3.440   1.252   1.568
 8213SOL     OW25537   5.351   4.456   2.604
 8213SOL    HW125538   5.270   4.421   2.650
 8213SOL    HW225539   5.432   4.405   2.634
 8214SOL     OW25540   1.773   5.870   3.946
 8214SOL    HW125541   1.729   5.957   3.967
 8214SOL    HW225542   1.741   5.800   4.011
 8215SOL     OW25543   4.367   5.319   6.973
 8215SOL    HW125544   4.379   5.331   0.049
 8215SOL    HW225545   4.315   5.395   6.936
 8216SOL     OW25546   4.917   6.897   3.207
 8216SOL    HW125547   4.891   6.865   3.298
 8216SOL    HW225548   4.990   6.839   3.171
 8217SOL     OW25549   2.187   3.964   2.388
 8217SOL    HW125550   2.243   3.898   2.338
 8217SOL    HW225551   2.237   4.051   2.396
 8218SOL     OW25552   1.695   7.012   4.335
 8218SOL    HW125553   1.794   0.002   4.338
 8218SOL    HW225554   1.672   6.933   4.278
 8219SOL     OW25555   3.872   3.996   1.556
 8219SOL    HW125556   3.903   3.943   1.478
 8219SOL    HW225557   3.869   4.093   1.532
 8220SOL     OW25558   3.366   4.448   5.373
 8220SOL    HW125559   3.375   4.546   5.358
 8220SOL    HW225560   3.270   4.422   5.360
 8221SOL     OW25561   6.562   4.149   2.983
 8221SOL    HW125562   6.497   4.215   2.944
 8221SOL    HW225563   6.645   4.197   3.011
 8222SOL     OW25564   5.350   2.239   0.899
 8222SOL    HW125565   5.303   2.177   0.837
 8222SOL    HW225566   5.423   2.287   0.850
 8223SOL     OW25567   0.179   4.788   6.018
 8223SOL    HW125568   0.195   4.795   5.919
 8223SOL    HW225569   0.146   4.696   6.040
 8224SOL     OW25570   5.098   1.868   1.759
 8224SOL    HW125571   5.053   1.798   1.704
 8224SOL    HW225572   5.099   1.840   1.855
 8225SOL     OW25573   3.582   1.062   1.013
 8225SOL    HW125574   3.491   1.035   0.981
 8225SOL    HW225575   3.595   1.160   0.997
 8226SOL     OW25576   2.705   0.264   1.188
 8226SOL    HW125577   2.615   0.222   1.174
 8226SOL    HW225578   2.775   0.209   1.143
 8227SOL     OW25579   0.196   1.209   2.271
 8227SOL    HW125580   0.266   1.263   2.320
 8227SOL    HW225581   0.238   1.126   2.234
 8228SOL     OW25582   0.536   1.702   5.893
 8228SOL    HW125583   0.441   1.687   5.865
 8228SOL    HW225584   0.558   1.800   5.886
 8229SOL     OW25585   4.597   3.991   0.784
 8229SOL    HW125586   4.582   3.965   0.689
 8229SOL    HW225587   4.663   4.066   0.789
 8230SOL     OW25588   3.872   6.655   5.869
 8230SOL    HW125589   3.835   6.563   5.869
 8230SOL    HW225590   3.874   6.691   5.962
 8231SOL     OW25591   3.407   2.091   2.123
 8231SOL    HW125592   3.333   2.076   2.057
 8231SOL    HW225593   3.480   2.144   2.079
 8232SOL     OW25594   5.205   1.913   2.581
 8232SOL    HW125595   5.241   1.836   2.635
 8232SOL    HW225596   5.113   1.936   2.613
 8233SOL     OW25597   1.052   6.950   6.009
 8233SOL    HW125598   1.083   0.016   5.972
 8233SOL    HW225599   0.953   6.943   5.999
 8234SOL     OW25600   3.174   3.413   0.275
 8234SOL    HW125601   3.266   3.380   0.251
 8234SOL    HW225602   3.125   3.439   0.192
 8235SOL     OW25603   0.611   4.013   0.119
 8235SOL    HW125604   0.529   4.007   0.062
 8235SOL    HW225605   0.589   3.984   0.212
 8236SOL     OW25606   0.326   5.262   6.037
 8236SOL    HW125607   0.248   5.322   6.020
 8236SOL    HW225608   0.410   5.306   6.007
 8237SOL     OW25609   4.674   6.026   6.015
 8237SOL    HW125610   4.674   5.936   6.058
 8237SOL    HW225611   4.729   6.090   6.070
 8238SOL     OW25612   0.519   5.851   0.106
 8238SOL    HW125613   0.559   5.941   0.088
 8238SOL    HW225614   0.487   5.848   0.201
 8239SOL     OW25615   0.222   1.198   5.199
 8239SOL    HW125616   0.167   1.176   5.119
 8239SOL    HW225617   0.201   1.134   5.273
 8240SOL     OW25618   2.923   3.525   2.934
 8240SOL    HW125619   2.876   3.607   2.901
 8240SOL    HW225620   3.018   3.548   2.956
 8241SOL     OW25621   2.077   4.902   6.312
 8241SOL    HW125622   2.087   4.970   6.384
 8241SOL    HW225623   2.092   4.945   6.223
 8242SOL     OW25624   0.967   3.695   4.943
 8242SOL    HW125625   0.919   3.736   4.865
 8242SOL    HW225626   1.063   3.720   4.940
 8243SOL     OW25627   0.219   4.488   6.880
 8243SOL    HW125628   0.178   4.577   6.860
 8243SOL    HW225629   0.317   4.492   6.861
 8244SOL     OW25630   0.382   0.177   3.750
 8244SOL    HW125631   0.419   0.203   3.661
 8244SOL    HW225632   0.287   0.209   3.756
 8245SOL     OW25633   3.489   1.755   3.769
 8245SOL    HW125634   3.566   1.817   3.783
 8245SOL    HW225635   3.523   1.664   3.745
 8246SOL     OW25636   0.476   4.463   6.567
 8246SOL    HW125637   0.411   4.494   6.636
 8246SOL    HW225638   0.562   4.514   6.576
 8247SOL     OW25639   2.815   5.999   3.813
 8247SOL    HW125640   2.806   5.900   3.805
 8247SOL    HW225641   2.891   6.021   3.873
 8248SOL     OW25642   0.793   5.653   5.189
 8248SOL    HW125643   0.742   5.595   5.124
 8248SOL    HW225644   0.733   5.726   5.222
 8249SOL     OW25645   2.809   1.328   5.520
 8249SOL    HW125646   2.773   1.253   5.463
 8249SOL    HW225647   2.756   1.333   5.605
 8250SOL     OW25648   3.121   1.852   0.824
 8250SOL    HW125649   3.177   1.841   0.907
 8250SOL    HW225650   3.028   1.878   0.850
 8251SOL     OW25651   5.918   1.167   4.109
 8251SOL    HW125652   5.821   1.145   4.113
 8251SOL    HW225653   5.972   1.084   4.127
 8252SOL     OW25654   3.535   1.929   0.752
 8252SOL    HW125655   3.508   1.877   0.672
 8252SOL    HW225656   3.635   1.933   0.757
 8253SOL     OW25657   3.642   6.108   6.826
 8253SOL    HW125658   3.654   6.012   6.852
 8253SOL    HW225659   3.725   6.159   6.848
 8254SOL     OW25660   5.550   4.510   5.783
 8254SOL    HW125661   5.543   4.456   5.867
 8254SOL    HW225662   5.646   4.516   5.755
 8255SOL     OW25663   1.197   6.922   6.244
 8255SOL    HW125664   1.137   6.950   6.169
 8255SOL    HW225665   1.158   6.841   6.289
 8256SOL     OW25666   6.137   0.307   3.167
 8256SOL    HW125667   6.051   0.337   3.125
 8256SOL    HW225668   6.199   0.274   3.096
 8257SOL     OW25669   5.883   4.792   3.985
 8257SOL    HW125670   5.840   4.826   4.069
 8257SOL    HW225671   5.854   4.848   3.908
 8258SOL     OW25672   5.278   2.856   1.786
 8258SOL    HW125673   5.190   2.869   1.833
 8258SOL    HW225674   5.317   2.768   1.814
 8259SOL     OW25675   4.042   1.899   5.054
 8259SOL    HW125676   4.133   1.931   5.029
 8259SOL    HW225677   4.027   1.915   5.152
 8260SOL     OW25678   2.147   5.990   1.330
 8260SOL    HW125679   2.121   6.009   1.425
 8260SOL    HW225680   2.147   6.075   1.278
 8261SOL     OW25681   5.404   6.364   2.971
 8261SOL    HW125682   5.461   6.322   3.042
 8261SOL    HW225683   5.314   6.321   2.970
 8262SOL     OW25684   0.710   4.520   0.733
 8262SOL    HW125685   0.768   4.530   0.813
 8262SOL    HW225686   0.765   4.487   0.656
 8263SOL     OW25687   6.807   3.147   6.729
 8263SOL    HW125688   6.891   3.193   6.757
 8263SOL    HW225689   6.729   3.204   6.754
 8264SOL     OW25690   1.614   0.238   1.510
 8264SOL    HW125691   1.592   0.254   1.413
 8264SOL    HW225692   1.608   0.324   1.560
 8265SOL     OW25693   4.624   0.271   1.579
 8265SOL    HW125694   4.603   0.222   1.664
 8265SOL    HW225695   4.703   0.331   1.594
 8266SOL     OW25696   3.273   0.300   5.027
 8266SOL    HW125697   3.277   0.398   5.049
 8266SOL    HW225698   3.180   0.267   5.037
 8267SOL     OW25699   1.546   4.820   1.416
 8267SOL    HW125700   1.476   4.877   1.459
 8267SOL    HW225701   1.553   4.844   1.319
 8268SOL     OW25702   2.857   4.577   5.818
 8268SOL    HW125703   2.815   4.591   5.729
 8268SOL    HW225704   2.956   4.588   5.811
 8269SOL     OW25705   4.436   2.358   2.946
 8269SOL    HW125706   4.353   2.302   2.953
 8269SOL    HW225707   4.447   2.389   2.852
 8270SOL     OW25708   2.873   5.601   5.833
 8270SOL    HW125709   2.962   5.580   5.792
 8270SOL    HW225710   2.886   5.639   5.924
 8271SOL     OW25711   6.957   6.703   3.898
 8271SOL    HW125712   0.032   6.683   3.907
 8271SOL    HW225713   6.925   6.753   3.978
 8272SOL     OW25714   0.476   0.718   2.808
 8272SOL    HW125715   0.462   0.692   2.903
 8272SOL    HW225716   0.503   0.814   2.803
 8273SOL     OW25717   2.859   1.207   0.148
 8273SOL    HW125718   2.820   1.119   0.120
 8273SOL    HW225719   2.789   1.278   0.141
 8274SOL     OW25720   4.091   4.587   6.525
 8274SOL    HW125721   4.015   4.605   6.463
 8274SOL    HW225722   4.110   4.489   6.527
 8275SOL     OW25723   5.546   0.307   4.554
 8275SOL    HW125724   5.610   0.233   4.577
 8275SOL    HW225725   5.465   0.268   4.510
 8276SOL     OW25726   6.279   2.051   5.396
 8276SOL    HW125727   6.302   1.963   5.438
 8276SOL    HW225728   6.188   2.079   5.424
 8277SOL     OW25729   2.443   5.987   5.034
 8277SOL    HW125730   2.423   5.915   5.100
 8277SOL    HW225731   2.542   5.994   5.021
 8278SOL     OW25732   2.612   1.261   6.340
 8278SOL    HW125733   2.611   1.188   6.408
 8278SOL    HW225734   2.701   1.263   6.294
 8279SOL     OW25735   5.748   5.533   5.999
 8279SOL    HW125736   5.720   5.606   5.936
 8279SOL    HW225737   5.848   5.527   6.000
 8280SOL     OW25738   5.020   2.567   0.495
 8280SOL    HW125739   5.025   2.496   0.565
 8280SOL    HW225740   5.111   2.580   0.454
 8281SOL     OW25741   2.000   4.784   1.235
 8281SOL    HW125742   1.960   4.698   1.203
 8281SOL    HW225743   2.032   4.773   1.329
 8282SOL     OW25744   2.935   3.190   0.729
 8282SOL    HW125745   2.869   3.210   0.657
 8282SOL    HW225746   3.019   3.243   0.712
 8283SOL     OW25747   0.603   4.564   3.735
 8283SOL    HW125748   0.579   4.477   3.777
 8283SOL    HW225749   0.689   4.554   3.685
 8284SOL     OW25750   1.278   3.295   2.498
 8284SOL    HW125751   1.340   3.258   2.429
 8284SOL    HW225752   1.185   3.295   2.464
 8285SOL     OW25753   3.179   2.990   5.970
 8285SOL    HW125754   3.261   2.972   5.915
 8285SOL    HW225755   3.107   3.027   5.912
 8286SOL     OW25756   5.691   1.874   5.243
 8286SOL    HW125757   5.618   1.858   5.176
 8286SOL    HW225758   5.653   1.920   5.323
 8287SOL     OW25759   1.476   6.670   3.328
 8287SOL    HW125760   1.504   6.676   3.232
 8287SOL    HW225761   1.486   6.760   3.371
 8288SOL     OW25762   1.334   2.299   2.778
 8288SOL    HW125763   1.432   2.311   2.764
 8288SOL    HW225764   1.310   2.203   2.760
 8289SOL     OW25765   6.316   0.623   6.515
 8289SOL    HW125766   6.389   0.681   6.551
 8289SOL    HW225767   6.280   0.663   6.431
 8290SOL     OW25768   4.256   2.569   1.617
 8290SOL    HW125769   4.198   2.511   1.559
 8290SOL    HW225770   4.337   2.597   1.564
 8291SOL     OW25771   5.665   5.747   6.780
 8291SOL    HW125772   5.690   5.723   6.686
 8291SOL    HW225773   5.692   5.673   6.842
 8292SOL     OW25774   2.105   5.491   5.697
 8292SOL    HW125775   2.205   5.491   5.706
 8292SOL    HW225776   2.080   5.500   5.601
 8293SOL     OW25777   1.565   4.179   1.568
 8293SOL    HW125778   1.623   4.100   1.552
 8293SOL    HW225779   1.493   4.155   1.633
 8294SOL     OW25780   5.804   3.277   4.745
 8294SOL    HW125781   5.853   3.232   4.820
 8294SOL    HW225782   5.855   3.265   4.660
 8295SOL     OW25783   5.395   3.425   2.902
 8295SOL    HW125784   5.434   3.484   2.973
 8295SOL    HW225785   5.469   3.374   2.857
 8296SOL     OW25786   3.759   5.372   6.620
 8296SOL    HW125787   3.676   5.316   6.613
 8296SOL    HW225788   3.811   5.366   6.535
 8297SOL     OW25789   6.426   3.472   2.365
 8297SOL    HW125790   6.408   3.529   2.285
 8297SOL    HW225791   6.419   3.528   2.448
 8298SOL     OW25792   0.143   0.302   6.244
 8298SOL    HW125793   0.177   0.212   6.271
 8298SOL    HW225794   0.050   0.314   6.279
 8299SOL     OW25795   0.704   3.323   0.868
 8299SOL    HW125796   0.624   3.264   0.878
 8299SOL    HW225797   0.714   3.348   0.772
 8300SOL     OW25798   6.332   0.058   4.663
 8300SOL    HW125799   6.405   0.096   4.719
 8300SOL    HW225800   6.251   0.117   4.670
 8301SOL     OW25801   4.844   6.958   6.797
 8301SOL    HW125802   4.819   6.863   6.818
 8301SOL    HW225803   4.779   6.995   6.730
 8302SOL     OW25804   3.947   6.883   5.679
 8302SOL    HW125805   3.939   6.820   5.757
 8302SOL    HW225806   3.979   6.833   5.599
 8303SOL     OW25807   6.975   0.263   3.206
 8303SOL    HW125808   6.959   0.344   3.149
 8303SOL    HW225809   6.917   0.268   3.287
 8304SOL     OW25810   5.752   4.610   2.181
 8304SOL    HW125811   5.676   4.655   2.227
 8304SOL    HW225812   5.836   4.622   2.235
 8305SOL     OW25813   4.063   5.144   3.818
 8305SOL    HW125814   4.134   5.078   3.795
 8305SOL    HW225815   4.103   5.216   3.876
 8306SOL     OW25816   6.524   1.479   2.814
 8306SOL    HW125817   6.457   1.545   2.779
 8306SOL    HW225818   6.559   1.510   2.902
 8307SOL     OW25819   3.157   4.988   1.678
 8307SOL    HW125820   3.233   4.997   1.615
 8307SOL    HW225821   3.072   4.974   1.626
 8308SOL     OW25822   2.025   4.648   0.314
 8308SOL    HW125823   2.104   4.669   0.257
 8308SOL    HW225824   2.044   4.566   0.368
 8309SOL     OW25825   6.236   4.884   3.813
 8309SOL    HW125826   6.229   4.786   3.832
 8309SOL    HW225827   6.320   4.920   3.853
 8310SOL     OW25828   1.119   5.324   0.446
 8310SOL    HW125829   1.076   5.399   0.495
 8310SOL    HW225830   1.155   5.357   0.359
 8311SOL     OW25831   4.789   0.409   4.883
 8311SOL    HW125832   4.878   0.455   4.880
 8311SOL    HW225833   4.720   0.467   4.841
 8312SOL     OW25834   5.549   0.996   0.516
 8312SOL    HW125835   5.544   0.898   0.497
 8312SOL    HW225836   5.618   1.037   0.456
 8313SOL     OW25837   4.388   6.802   5.720
 8313SOL    HW125838   4.388   6.901   5.734
 8313SOL    HW225839   4.295   6.767   5.724
 8314SOL     OW25840   5.912   6.610   6.632
 8314SOL    HW125841   5.946   6.605   6.726
 8314SOL    HW225842   5.836   6.675   6.627
 8315SOL     OW25843   3.905   3.978   3.059
 8315SOL    HW125844   3.926   3.889   3.100
 8315SOL    HW225845   3.948   3.985   2.969
 8316SOL     OW25846   2.073   3.452   6.964
 8316SOL    HW125847   2.000   3.435   0.008
 8316SOL    HW225848   2.085   3.371   6.906
 8317SOL     OW25849   3.251   1.703   4.330
 8317SOL    HW125850   3.255   1.737   4.424
 8317SOL    HW225851   3.282   1.608   4.328
 8318SOL     OW25852   4.962   0.797   5.846
 8318SOL    HW125853   4.895   0.723   5.839
 8318SOL    HW225854   4.914   0.884   5.850
 8319SOL     OW25855   1.810   6.930   6.857
 8319SOL    HW125856   1.828   6.858   6.924
 8319SOL    HW225857   1.876   7.004   6.868
 8320SOL     OW25858   3.745   3.601   3.640
 8320SOL    HW125859   3.687   3.682   3.651
 8320SOL    HW225860   3.707   3.543   3.569
 8321SOL     OW25861   0.197   0.402   5.992
 8321SOL    HW125862   0.190   0.349   6.077
 8321SOL    HW225863   0.146   0.356   5.919
 8322SOL     OW25864   0.277   1.276   0.307
 8322SOL    HW125865   0.377   1.282   0.315
 8322SOL    HW225866   0.252   1.258   0.212
 8323SOL     OW25867   3.754   4.512   1.441
 8323SOL    HW125868   3.804   4.579   1.386
 8323SOL    HW225869   3.661   4.502   1.405
 8324SOL     OW25870   5.759   0.549   0.320
 8324SOL    HW125871   5.767   0.473   0.256
 8324SOL    HW225872   5.850   0.572   0.355
 8325SOL     OW25873   1.143   3.993   4.773
 8325SOL    HW125874   1.161   4.079   4.727
 8325SOL    HW225875   1.189   3.918   4.724
 8326SOL     OW25876   4.403   3.331   6.978
 8326SOL    HW125877   4.370   3.349   0.048
 8326SOL    HW225878   4.351   3.256   6.937
 8327SOL     OW25879   0.764   0.345   5.569
 8327SOL    HW125880   0.744   0.402   5.489
 8327SOL    HW225881   0.750   0.249   5.546
 8328SOL     OW25882   1.525   6.568   5.732
 8328SOL    HW125883   1.550   6.550   5.637
 8328SOL    HW225884   1.495   6.483   5.775
 8329SOL     OW25885   0.160   2.597   4.948
 8329SOL    HW125886   0.199   2.525   4.890
 8329SOL    HW225887   0.200   2.685   4.924
 8330SOL     OW25888   3.784   1.604   6.511
 8330SOL    HW125889   3.727   1.652   6.577
 8330SOL    HW225890   3.815   1.518   6.551
 8331SOL     OW25891   2.950   0.726   0.776
 8331SOL    HW125892   3.038   0.750   0.737
 8331SOL    HW225893   2.950   0.629   0.803
 8332SOL     OW25894   5.416   5.537   2.261
 8332SOL    HW125895   5.478   5.458   2.261
 8332SOL    HW225896   5.465   5.618   2.290
 8333SOL     OW25897   2.369   5.407   0.098
 8333SOL    HW125898   2.398   5.499   0.074
 8333SOL    HW225899   2.291   5.411   0.161
 8334SOL     OW25900   2.364   2.790   6.177
 8334SOL    HW125901   2.373   2.887   6.199
 8334SOL    HW225902   2.439   2.740   6.220
 8335SOL     OW25903   4.377   2.926   6.836
 8335SOL    HW125904   4.417   2.893   6.921
 8335SOL    HW225905   4.350   3.022   6.847
 8336SOL     OW25906   1.199   3.647   3.650
 8336SOL    HW125907   1.164   3.718   3.588
 8336SOL    HW225908   1.131   3.629   3.721
 8337SOL     OW25909   0.782   6.843   4.391
 8337SOL    HW125910   0.721   6.826   4.314
 8337SOL    HW225911   0.823   6.934   4.382
 8338SOL     OW25912   3.687   5.569   1.600
 8338SOL    HW125913   3.688   5.488   1.543
 8338SOL    HW225914   3.598   5.615   1.592
 8339SOL     OW25915   0.164   1.006   1.656
 8339SOL    HW125916   0.245   0.947   1.658
 8339SOL    HW225917   0.191   1.101   1.669
 8340SOL     OW25918   4.825   4.078   0.622
 8340SOL    HW125919   4.755   4.088   0.551
 8340SOL    HW225920   4.884   4.158   0.622
 8341SOL     OW25921   3.479   0.702   6.977
 8341SOL    HW125922   3.457   0.669   6.885
 8341SOL    HW225923   3.575   0.730   6.981
 8342SOL     OW25924   3.710   0.028   0.149
 8342SOL    HW125925   3.787   0.020   0.213
 8342SOL    HW225926   3.696   0.124   0.126
 8343SOL     OW25927   6.174   5.878   3.913
 8343SOL    HW125928   6.132   5.856   4.001
 8343SOL    HW225929   6.105   5.916   3.852
 8344SOL     OW25930   6.920   5.242   4.896
 8344SOL    HW125931   7.019   5.228   4.886
 8344SOL    HW225932   6.895   5.331   4.859
 8345SOL     OW25933   4.858   1.929   3.562
 8345SOL    HW125934   4.820   2.011   3.519
 8345SOL    HW225935   4.917   1.956   3.639
 8346SOL     OW25936   3.486   3.236   6.190
 8346SOL    HW125937   3.560   3.232   6.123
 8346SOL    HW225938   3.446   3.327   6.190
 8347SOL     OW25939   3.620   6.621   6.450
 8347SOL    HW125940   3.657   6.528   6.453
 8347SOL    HW225941   3.569   6.639   6.534
 8348SOL     OW25942   2.195   6.912   1.182
 8348SOL    HW125943   2.241   6.858   1.112
 8348SOL    HW225944   2.127   6.972   1.140
 8349SOL     OW25945   0.828   6.807   1.675
 8349SOL    HW125946   0.830   6.865   1.593
 8349SOL    HW225947   0.913   6.756   1.681
 8350SOL     OW25948   2.677   6.046   6.075
 8350SOL    HW125949   2.734   5.979   6.028
 8350SOL    HW225950   2.715   6.066   6.165
 8351SOL     OW25951   5.396   5.207   3.395
 8351SOL    HW125952   5.332   5.190   3.320
 8351SOL    HW225953   5.408   5.124   3.448
 8352SOL     OW25954   1.783   6.838   2.927
 8352SOL    HW125955   1.821   6.820   2.837
 8352SOL    HW225956   1.852   6.821   2.997
 8353SOL     OW25957   1.228   3.739   1.435
 8353SOL    HW125958   1.224   3.805   1.361
 8353SOL    HW225959   1.135   3.715   1.463
 8354SOL     OW25960   3.701   6.364   3.744
 8354SOL    HW125961   3.792   6.347   3.781
 8354SOL    HW225962   3.686   6.463   3.737
 8355SOL     OW25963   2.352   0.781   5.416
 8355SOL    HW125964   2.407   0.710   5.460
 8355SOL    HW225965   2.409   0.861   5.398
 8356SOL     OW25966   0.729   5.963   1.246
 8356SOL    HW125967   0.663   6.026   1.287
 8356SOL    HW225968   0.681   5.900   1.184
 8357SOL     OW25969   3.934   5.642   5.494
 8357SOL    HW125970   3.858   5.704   5.474
 8357SOL    HW225971   3.903   5.570   5.557
 8358SOL     OW25972   0.881   2.839   5.055
 8358SOL    HW125973   0.887   2.778   5.134
 8358SOL    HW225974   0.937   2.921   5.071
 8359SOL     OW25975   2.148   1.312   4.687
 8359SOL    HW125976   2.103   1.323   4.598
 8359SOL    HW225977   2.209   1.390   4.703
 8360SOL     OW25978   4.633   6.768   0.998
 8360SOL    HW125979   4.614   6.810   1.086
 8360SOL    HW225980   4.588   6.820   0.926
 8361SOL     OW25981   2.980   0.265   6.876
 8361SOL    HW125982   2.881   0.274   6.884
 8361SOL    HW225983   3.020   0.352   6.847
 8362SOL     OW25984   5.595   2.272   1.307
 8362SOL    HW125985   5.616   2.267   1.405
 8362SOL    HW225986   5.586   2.368   1.280
 8363SOL     OW25987   4.716   1.585   1.194
 8363SOL    HW125988   4.697   1.533   1.110
 8363SOL    HW225989   4.651   1.559   1.265
 8364SOL     OW25990   0.528   3.347   3.620
 8364SOL    HW125991   0.542   3.364   3.718
 8364SOL    HW225992   0.551   3.252   3.599
 8365SOL     OW25993   1.809   2.322   2.827
 8365SOL    HW125994   1.779   2.293   2.918
 8365SOL    HW225995   1.883   2.262   2.795
 8366SOL     OW25996   3.829   5.093   0.942
 8366SOL    HW125997   3.879   5.167   0.896
 8366SOL    HW225998   3.739   5.127   0.971
 8367SOL     OW25999   3.570   5.114   5.070
 8367SOL    HW126000   3.474   5.123   5.044
 8367SOL    HW226001   3.586   5.162   5.156
 8368SOL     OW26002   0.913   5.895   0.035
 8368SOL    HW126003   0.855   5.975   0.019
 8368SOL    HW226004   0.857   5.812   0.029
 8369SOL     OW26005   0.649   1.176   7.019
 8369SOL    HW126006   0.671   1.244   6.949
 8369SOL    HW226007   0.571   1.121   6.988
 8370SOL     OW26008   2.364   0.791   6.383
 8370SOL    HW126009   2.291   0.849   6.347
 8370SOL    HW226010   2.334   0.746   6.466
 8371SOL     OW26011   1.664   3.690   6.228
 8371SOL    HW126012   1.735   3.733   6.285
 8371SOL    HW226013   1.706   3.654   6.144
 8372SOL     OW26014   1.620   5.604   1.983
 8372SOL    HW126015   1.570   5.517   1.979
 8372SOL    HW226016   1.600   5.649   2.070
 8373SOL     OW26017   1.617   1.171   4.697
 8373SOL    HW126018   1.539   1.229   4.720
 8373SOL    HW226019   1.694   1.194   4.756
 8374SOL     OW26020   0.095   0.859   4.770
 8374SOL    HW126021   0.055   0.918   4.840
 8374SOL    HW226022   0.023   0.825   4.710
 8375SOL     OW26023   3.761   0.345   5.960
 8375SOL    HW126024   3.800   0.374   6.048
 8375SOL    HW226025   3.661   0.349   5.965
 8376SOL     OW26026   1.507   1.364   3.845
 8376SOL    HW126027   1.540   1.356   3.939
 8376SOL    HW226028   1.413   1.398   3.846
 8377SOL     OW26029   5.910   5.956   0.448
 8377SOL    HW126030   5.952   5.964   0.539
 8377SOL    HW226031   5.974   5.988   0.379
 8378SOL     OW26032   4.137   4.822   3.723
 8378SOL    HW126033   4.145   4.806   3.625
 8378SOL    HW226034   4.224   4.857   3.758
 8379SOL     OW26035   4.719   2.401   2.112
 8379SOL    HW126036   4.701   2.464   2.036
 8379SOL    HW226037   4.709   2.450   2.198
 8380SOL     OW26038   0.531   6.411   6.739
 8380SOL    HW126039   0.472   6.356   6.680
 8380SOL    HW226040   0.476   6.482   6.783
 8381SOL     OW26041   6.965   2.615   3.455
 8381SOL    HW126042   6.961   2.709   3.421
 8381SOL    HW226043   7.020   2.560   3.393
 8382SOL     OW26044   2.343   6.815   0.795
 8382SOL    HW126045   2.438   6.827   0.766
 8382SOL    HW226046   2.306   6.903   0.825
 8383SOL     OW26047   2.485   0.214   5.763
 8383SOL    HW126048   2.406   0.192   5.820
 8383SOL    HW226049   2.503   0.313   5.768
 8384SOL     OW26050   0.147   1.583   7.015
 8384SOL    HW126051   0.102   1.611   6.930
 8384SOL    HW226052   0.080   1.537   0.051
 8385SOL     OW26053   4.473   2.086   1.042
 8385SOL    HW126054   4.488   1.992   1.013
 8385SOL    HW226055   4.432   2.087   1.133
 8386SOL     OW26056   1.710   5.519   1.224
 8386SOL    HW126057   1.613   5.511   1.203
 8386SOL    HW226058   1.762   5.456   1.165
 8387SOL     OW26059   1.556   2.129   1.164
 8387SOL    HW126060   1.590   2.212   1.207
 8387SOL    HW226061   1.475   2.097   1.213
 8388SOL     OW26062   1.430   7.007   0.954
 8388SOL    HW126063   1.335   6.988   0.928
 8388SOL    HW226064   1.492   6.955   0.896
 8389SOL     OW26065   0.909   3.527   4.205
 8389SOL    HW126066   0.993   3.542   4.257
 8389SOL    HW226067   0.914   3.439   4.158
 8390SOL     OW26068   4.107   0.001   6.856
 8390SOL    HW126069   4.054   0.014   6.939
 8390SOL    HW226070   4.055   0.033   6.777
 8391SOL     OW26071   4.817   5.094   1.476
 8391SOL    HW126072   4.838   4.996   1.468
 8391SOL    HW226073   4.792   5.130   1.387
 8392SOL     OW26074   6.586   5.561   6.183
 8392SOL    HW126075   6.509   5.602   6.135
 8392SOL    HW226076   6.661   5.628   6.189
 8393SOL     OW26077   6.947   0.123   4.126
 8393SOL    HW126078   6.856   0.116   4.085
 8393SOL    HW226079   7.015   0.130   4.053
 8394SOL     OW26080   6.668   2.818   1.655
 8394SOL    HW126081   6.737   2.807   1.583
 8394SOL    HW226082   6.679   2.745   1.722
 8395SOL     OW26083   1.886   6.602   4.114
 8395SOL    HW126084   1.827   6.563   4.043
 8395SOL    HW226085   1.973   6.553   4.117
 8396SOL     OW26086   4.511   4.473   2.281
 8396SOL    HW126087   4.559   4.385   2.276
 8396SOL    HW226088   4.458   4.487   2.197
 8397SOL     OW26089   2.679   0.298   2.990
 8397SOL    HW126090   2.725   0.262   3.070
 8397SOL    HW226091   2.663   0.225   2.924
 8398SOL     OW26092   4.434   2.003   6.384
 8398SOL    HW126093   4.364   1.997   6.456
 8398SOL    HW226094   4.394   2.046   6.303
 8399SOL     OW26095   6.450   0.132   7.000
 8399SOL    HW126096   6.470   0.228   7.018
 8399SOL    HW226097   6.371   0.125   6.939
 8400SOL     OW26098   1.028   0.451   3.775
 8400SOL    HW126099   0.941   0.470   3.821
 8400SOL    HW226100   1.078   0.381   3.826
 8401SOL     OW26101   3.598   2.460   6.465
 8401SOL    HW126102   3.602   2.374   6.515
 8401SOL    HW226103   3.644   2.531   6.517
 8402SOL     OW26104   3.963   1.801   5.705
 8402SOL    HW126105   4.018   1.881   5.678
 8402SOL    HW226106   3.899   1.827   5.777
 8403SOL     OW26107   1.002   1.949   3.318
 8403SOL    HW126108   0.938   2.005   3.266
 8403SOL    HW226109   0.952   1.898   3.388
 8404SOL     OW26110   5.206   5.606   6.874
 8404SOL    HW126111   5.132   5.540   6.858
 8404SOL    HW226112   5.268   5.605   6.795
 8405SOL     OW26113   1.794   0.814   6.975
 8405SOL    HW126114   1.848   0.742   6.933
 8405SOL    HW226115   1.697   0.798   6.958
 8406SOL     OW26116   4.230   0.252   0.933
 8406SOL    HW126117   4.227   0.191   1.012
 8406SOL    HW226118   4.321   0.292   0.924
 8407SOL     OW26119   5.455   6.239   3.859
 8407SOL    HW126120   5.525   6.305   3.886
 8407SOL    HW226121   5.399   6.215   3.938
 8408SOL     OW26122   4.874   2.031   3.029
 8408SOL    HW126123   4.917   2.055   3.116
 8408SOL    HW226124   4.944   1.999   2.965
 8409SOL     OW26125   6.020   3.153   3.059
 8409SOL    HW126126   5.994   3.249   3.061
 8409SOL    HW226127   5.954   3.100   3.112
 8410SOL     OW26128   4.431   0.457   1.495
 8410SOL    HW126129   4.348   0.422   1.452
 8410SOL    HW226130   4.502   0.386   1.494
 8411SOL     OW26131   0.879   6.284   4.839
 8411SOL    HW126132   0.809   6.353   4.822
 8411SOL    HW226133   0.933   6.311   4.918
 8412SOL     OW26134   4.143   1.852   1.893
 8412SOL    HW126135   4.163   1.837   1.796
 8412SOL    HW226136   4.225   1.886   1.939
 8413SOL     OW26137   5.003   4.683   0.876
 8413SOL    HW126138   5.033   4.758   0.935
 8413SOL    HW226139   5.011   4.596   0.925
 8414SOL     OW26140   4.577   6.602   2.535
 8414SOL    HW126141   4.611   6.510   2.553
 8414SOL    HW226142   4.529   6.636   2.616
 8415SOL     OW26143   6.983   5.595   4.011
 8415SOL    HW126144   0.042   5.649   3.990
 8415SOL    HW226145   6.949   5.552   3.927
 8416SOL     OW26146   5.356   4.530   3.278
 8416SOL    HW126147   5.281   4.590   3.304
 8416SOL    HW226148   5.320   4.448   3.234
 8417SOL     OW26149   1.060   5.433   5.717
 8417SOL    HW126150   1.078   5.335   5.727
 8417SOL    HW226151   1.037   5.472   5.807
 8418SOL     OW26152   6.151   5.638   1.873
 8418SOL    HW126153   6.119   5.669   1.963
 8418SOL    HW226154   6.154   5.716   1.810
 8419SOL     OW26155   4.919   0.968   2.342
 8419SOL    HW126156   4.991   0.898   2.351
 8419SOL    HW226157   4.901   0.985   2.245
 8420SOL     OW26158   4.007   0.182   0.816
 8420SOL    HW126159   3.971   0.105   0.869
 8420SOL    HW226160   4.087   0.220   0.864
 8421SOL     OW26161   2.365   6.429   1.034
 8421SOL    HW126162   2.352   6.395   0.941
 8421SOL    HW226163   2.429   6.370   1.083
 8422SOL     OW26164   4.704   0.158   1.345
 8422SOL    HW126165   4.690   0.173   1.442
 8422SOL    HW226166   4.775   0.221   1.312
 8423SOL     OW26167   3.987   3.800   5.803
 8423SOL    HW126168   4.025   3.851   5.726
 8423SOL    HW226169   3.914   3.854   5.846
 8424SOL     OW26170   2.291   2.687   2.735
 8424SOL    HW126171   2.367   2.653   2.791
 8424SOL    HW226172   2.317   2.681   2.638
 8425SOL     OW26173   5.599   5.728   1.413
 8425SOL    HW126174   5.549   5.644   1.436
 8425SOL    HW226175   5.555   5.806   1.457
 8426SOL     OW26176   3.405   2.940   4.400
 8426SOL    HW126177   3.490   2.892   4.421
 8426SOL    HW226178   3.362   2.972   4.485
 8427SOL     OW26179   2.619   3.586   5.806
 8427SOL    HW126180   2.572   3.499   5.788
 8427SOL    HW226181   2.690   3.572   5.875
 8428SOL     OW26182   6.674   3.895   1.877
 8428SOL    HW126183   6.627   3.832   1.815
 8428SOL    HW226184   6.700   3.978   1.827
 8429SOL     OW26185   2.336   4.361   3.530
 8429SOL    HW126186   2.397   4.385   3.455
 8429SOL    HW226187   2.246   4.403   3.514
 8430SOL     OW26188   3.994   5.642   3.618
 8430SOL    HW126189   3.996   5.714   3.549
 8430SOL    HW226190   3.910   5.589   3.608
 8431SOL     OW26191   3.037   5.354   0.695
 8431SOL    HW126192   3.132   5.325   0.703
 8431SOL    HW226193   3.012   5.362   0.598
 8432SOL     OW26194   4.959   6.345   5.680
 8432SOL    HW126195   4.965   6.438   5.714
 8432SOL    HW226196   4.885   6.297   5.727
 8433SOL     OW26197   6.560   2.478   6.889
 8433SOL    HW126198   6.576   2.422   6.971
 8433SOL    HW226199   6.628   2.551   6.885
 8434SOL     OW26200   3.022   6.399   5.213
 8434SOL    HW126201   2.938   6.370   5.167
 8434SOL    HW226202   3.100   6.348   5.174
 8435SOL     OW26203   5.148   0.468   0.838
 8435SOL    HW126204   5.147   0.565   0.862
 8435SOL    HW226205   5.215   0.451   0.766
 8436SOL     OW26206   3.177   6.851   4.470
 8436SOL    HW126207   3.182   6.913   4.392
 8436SOL    HW226208   3.262   6.854   4.522
 8437SOL     OW26209   1.694   0.047   3.088
 8437SOL    HW126210   1.721   6.985   3.040
 8437SOL    HW226211   1.658   0.112   3.021
 8438SOL     OW26212   2.716   4.972   2.324
 8438SOL    HW126213   2.648   4.943   2.256
 8438SOL    HW226214   2.759   4.891   2.364
 8439SOL     OW26215   6.770   5.593   1.235
 8439SOL    HW126216   6.786   5.686   1.269
 8439SOL    HW226217   6.768   5.530   1.312
 8440SOL     OW26218   0.310   1.291   3.766
 8440SOL    HW126219   0.264   1.204   3.786
 8440SOL    HW226220   0.353   1.325   3.850
 8441SOL     OW26221   6.346   6.867   6.964
 8441SOL    HW126222   6.383   6.951   7.004
 8441SOL    HW226223   6.303   6.887   6.876
 8442SOL     OW26224   3.559   2.741   6.073
 8442SOL    HW126225   3.612   2.824   6.091
 8442SOL    HW226226   3.593   2.667   6.130
 8443SOL     OW26227   1.209   6.618   3.446
 8443SOL    HW126228   1.299   6.635   3.406
 8443SOL    HW226229   1.200   6.669   3.532
 8444SOL     OW26230   3.550   5.943   3.740
 8444SOL    HW126231   3.461   5.920   3.779
 8444SOL    HW226232   3.546   6.036   3.701
 8445SOL     OW26233   3.351   5.327   2.017
 8445SOL    HW126234   3.301   5.378   2.088
 8445SOL    HW226235   3.306   5.339   1.929
 8446SOL     OW26236   4.531   4.762   1.123
 8446SOL    HW126237   4.444   4.787   1.166
 8446SOL    HW226238   4.514   4.703   1.044
 8447SOL     OW26239   5.940   2.228   2.338
 8447SOL    HW126240   5.911   2.322   2.322
 8447SOL    HW226241   5.889   2.167   2.277
 8448SOL     OW26242   5.787   4.938   4.674
 8448SOL    HW126243   5.722   4.990   4.729
 8448SOL    HW226244   5.760   4.842   4.671
 8449SOL     OW26245   6.864   2.999   3.968
 8449SOL    HW126246   6.914   3.040   3.892
 8449SOL    HW226247   6.788   3.059   3.993
 8450SOL     OW26248   1.609   5.831   1.818
 8450SOL    HW126249   1.615   5.745   1.868
 8450SOL    HW226250   1.556   5.897   1.870
 8451SOL     OW26251   4.955   3.071   0.048
 8451SOL    HW126252   4.890   3.114   7.008
 8451SOL    HW226253   4.918   2.984   0.080
 8452SOL     OW26254   0.216   0.933   1.920
 8452SOL    HW126255   0.316   0.937   1.913
 8452SOL    HW226256   0.177   0.916   1.829
 8453SOL     OW26257   6.439   4.167   6.826
 8453SOL    HW126258   6.396   4.242   6.775
 8453SOL    HW226259   6.368   4.109   6.867
 8454SOL     OW26260   0.364   6.397   0.626
 8454SOL    HW126261   0.359   6.297   0.620
 8454SOL    HW226262   0.453   6.424   0.662
 8455SOL     OW26263   5.267   1.860   1.062
 8455SOL    HW126264   5.236   1.955   1.058
 8455SOL    HW226265   5.351   1.855   1.116
 8456SOL     OW26266   4.706   4.220   2.959
 8456SOL    HW126267   4.718   4.175   2.870
 8456SOL    HW226268   4.792   4.262   2.986
 8457SOL     OW26269   0.115   6.353   5.026
 8457SOL    HW126270   0.157   6.269   5.060
 8457SOL    HW226271   0.164   6.432   5.062
 8458SOL     OW26272   2.226   1.407   6.829
 8458SOL    HW126273   2.143   1.451   6.793
 8458SOL    HW226274   2.241   1.437   6.923
 8459SOL     OW26275   2.961   6.541   1.491
 8459SOL    HW126276   2.946   6.452   1.535
 8459SOL    HW226277   3.059   6.563   1.494
 8460SOL     OW26278   4.314   2.437   5.690
 8460SOL    HW126279   4.262   2.502   5.745
 8460SOL    HW226280   4.410   2.464   5.688
 8461SOL     OW26281   0.403   4.053   2.172
 8461SOL    HW126282   0.389   4.100   2.085
 8461SOL    HW226283   0.495   4.013   2.174
 8462SOL     OW26284   3.828   2.191   0.349
 8462SOL    HW126285   3.884   2.247   0.410
 8462SOL    HW226286   3.845   2.217   0.254
 8463SOL     OW26287   6.598   0.854   0.607
 8463SOL    HW126288   6.537   0.928   0.580
 8463SOL    HW226289   6.688   0.892   0.630
 8464SOL     OW26290   6.321   3.831   5.573
 8464SOL    HW126291   6.366   3.798   5.490
 8464SOL    HW226292   6.356   3.922   5.595
 8465SOL     OW26293   2.497   2.543   0.672
 8465SOL    HW126294   2.429   2.616   0.677
 8465SOL    HW226295   2.528   2.521   0.765
 8466SOL     OW26296   6.374   6.687   5.879
 8466SOL    HW126297   6.402   6.692   5.974
 8466SOL    HW226298   6.285   6.732   5.868
 8467SOL     OW26299   3.881   0.550   1.438
 8467SOL    HW126300   3.977   0.537   1.413
 8467SOL    HW226301   3.867   0.645   1.467
 8468SOL     OW26302   4.775   2.428   0.029
 8468SOL    HW126303   4.705   2.376   0.078
 8468SOL    HW226304   4.848   2.454   0.092
 8469SOL     OW26305   2.504   1.893   5.684
 8469SOL    HW126306   2.573   1.964   5.670
 8469SOL    HW226307   2.422   1.916   5.631
 8470SOL     OW26308   1.080   4.775   0.355
 8470SOL    HW126309   1.155   4.778   0.289
 8470SOL    HW226310   1.114   4.741   0.442
 8471SOL     OW26311   4.095   0.369   5.064
 8471SOL    HW126312   4.181   0.345   5.110
 8471SOL    HW226313   4.041   0.428   5.123
 8472SOL     OW26314   5.903   0.558   5.650
 8472SOL    HW126315   5.894   0.654   5.622
 8472SOL    HW226316   5.990   0.545   5.697
 8473SOL     OW26317   6.570   5.561   1.064
 8473SOL    HW126318   6.623   5.607   1.135
 8473SOL    HW226319   6.630   5.531   0.990
 8474SOL     OW26320   3.443   3.657   2.061
 8474SOL    HW126321   3.378   3.686   2.132
 8474SOL    HW226322   3.485   3.570   2.088
 8475SOL     OW26323   0.114   2.648   3.212
 8475SOL    HW126324   0.153   2.644   3.120
 8475SOL    HW226325   0.121   2.558   3.255
 8476SOL     OW26326   6.014   1.342   1.041
 8476SOL    HW126327   5.966   1.258   1.016
 8476SOL    HW226328   5.950   1.419   1.038
 8477SOL     OW26329   4.465   6.634   2.831
 8477SOL    HW126330   4.383   6.631   2.889
 8477SOL    HW226331   4.538   6.580   2.875
 8478SOL     OW26332   1.438   0.353   5.720
 8478SOL    HW126333   1.450   0.261   5.756
 8478SOL    HW226334   1.524   0.385   5.680
 8479SOL     OW26335   1.776   3.505   1.006
 8479SOL    HW126336   1.687   3.460   1.010
 8479SOL    HW226337   1.796   3.532   0.912
 8480SOL     OW26338   5.246   3.107   0.050
 8480SOL    HW126339   5.280   3.201   0.056
 8480SOL    HW226340   5.147   3.108   0.046
 8481SOL     OW26341   4.476   2.584   5.020
 8481SOL    HW126342   4.382   2.554   5.003
 8481SOL    HW226343   4.535   2.551   4.946
 8482SOL     OW26344   5.017   6.989   2.644
 8482SOL    HW126345   4.941   0.032   2.655
 8482SOL    HW226346   5.091   0.009   2.592
 8483SOL     OW26347   3.495   6.018   1.943
 8483SOL    HW126348   3.547   6.063   2.015
 8483SOL    HW226349   3.407   5.987   1.980
 8484SOL     OW26350   0.036   6.293   3.940
 8484SOL    HW126351   6.961   6.292   3.919
 8484SOL    HW226352   0.050   6.269   4.036
 8485SOL     OW26353   3.866   2.502   0.156
 8485SOL    HW126354   3.781   2.553   0.165
 8485SOL    HW226355   3.861   2.442   0.076
 8486SOL     OW26356   2.405   1.441   2.234
 8486SOL    HW126357   2.403   1.374   2.161
 8486SOL    HW226358   2.494   1.485   2.237
 8487SOL     OW26359   5.978   1.986   5.776
 8487SOL    HW126360   6.023   2.047   5.710
 8487SOL    HW226361   5.919   1.922   5.727
 8488SOL     OW26362   5.616   6.674   1.663
 8488SOL    HW126363   5.606   6.745   1.733
 8488SOL    HW226364   5.543   6.685   1.595
 8489SOL     OW26365   6.339   1.649   1.668
 8489SOL    HW126366   6.349   1.741   1.632
 8489SOL    HW226367   6.267   1.647   1.737
 8490SOL     OW26368   3.685   6.705   5.467
 8490SOL    HW126369   3.731   6.789   5.436
 8490SOL    HW226370   3.593   6.728   5.498
 8491SOL     OW26371   1.998   6.264   1.820
 8491SOL    HW126372   1.902   6.289   1.829
 8491SOL    HW226373   2.024   6.202   1.893
 8492SOL     OW26374   5.646   4.658   5.455
 8492SOL    HW126375   5.690   4.713   5.525
 8492SOL    HW226376   5.682   4.683   5.365
 8493SOL     OW26377   2.213   2.135   5.992
 8493SOL    HW126378   2.177   2.043   6.006
 8493SOL    HW226379   2.215   2.155   5.894
 8494SOL     OW26380   4.228   5.109   1.302
 8494SOL    HW126381   4.137   5.150   1.308
 8494SOL    HW226382   4.259   5.087   1.395
 8495SOL     OW26383   0.041   4.801   1.581
 8495SOL    HW126384   7.004   4.813   1.660
 8495SOL    HW226385   0.038   4.706   1.551
 8496SOL     OW26386   1.438   1.808   2.587
 8496SOL    HW126387   1.429   1.709   2.591
 8496SOL    HW226388   1.489   1.840   2.667
 8497SOL     OW26389   6.954   1.270   3.627
 8497SOL    HW126390   6.896   1.264   3.546
 8497SOL    HW226391   6.905   1.235   3.706
 8498SOL     OW26392   6.743   6.617   3.065
 8498SOL    HW126393   6.719   6.700   3.014
 8498SOL    HW226394   6.839   6.620   3.092
 8499SOL     OW26395   2.245   4.170   6.725
 8499SOL    HW126396   2.249   4.136   6.631
 8499SOL    HW226397   2.154   4.152   6.763
 8500SOL     OW26398   1.387   6.046   5.345
 8500SOL    HW126399   1.408   6.057   5.248
 8500SOL    HW226400   1.304   6.097   5.367
 8501SOL     OW26401   6.931   3.068   5.742
 8501SOL    HW126402   6.832   3.059   5.737
 8501SOL    HW226403   6.959   3.155   5.702
 8502SOL     OW26404   0.316   3.421   1.334
 8502SOL    HW126405   0.345   3.326   1.323
 8502SOL    HW226406   0.217   3.428   1.324
 8503SOL     OW26407   0.436   5.363   4.731
 8503SOL    HW126408   0.447   5.462   4.739
 8503SOL    HW226409   0.358   5.333   4.786
 8504SOL     OW26410   2.259   5.295   2.429
 8504SOL    HW126411   2.199   5.217   2.412
 8504SOL    HW226412   2.259   5.356   2.350
 8505SOL     OW26413   6.474   3.612   2.949
 8505SOL    HW126414   6.487   3.684   2.881
 8505SOL    HW226415   6.437   3.530   2.905
 8506SOL     OW26416   1.325   1.242   0.190
 8506SOL    HW126417   1.235   1.238   0.233
 8506SOL    HW226418   1.386   1.299   0.244
 8507SOL     OW26419   3.662   6.704   4.870
 8507SOL    HW126420   3.569   6.698   4.906
 8507SOL    HW226421   3.675   6.637   4.797
 8508SOL     OW26422   5.141   1.895   4.209
 8508SOL    HW126423   5.113   1.986   4.177
 8508SOL    HW226424   5.141   1.893   4.309
 8509SOL     OW26425   4.948   0.883   3.245
 8509SOL    HW126426   4.875   0.817   3.262
 8509SOL    HW226427   5.027   0.862   3.303
 8510SOL     OW26428   5.925   4.589   2.940
 8510SOL    HW126429   5.827   4.597   2.958
 8510SOL    HW226430   5.973   4.667   2.979
 8511SOL     OW26431   6.118   3.957   2.278
 8511SOL    HW126432   6.053   3.944   2.354
 8511SOL    HW226433   6.201   4.001   2.312
 8512SOL     OW26434   2.550   0.812   2.522
 8512SOL    HW126435   2.509   0.834   2.611
 8512SOL    HW226436   2.611   0.886   2.494
 8513SOL     OW26437   6.536   5.061   0.936
 8513SOL    HW126438   6.614   5.121   0.954
 8513SOL    HW226439   6.510   5.067   0.839
 8514SOL     OW26440   1.808   1.543   3.594
 8514SOL    HW126441   1.788   1.478   3.520
 8514SOL    HW226442   1.724   1.589   3.621
 8515SOL     OW26443   4.860   2.502   1.195
 8515SOL    HW126444   4.854   2.587   1.142
 8515SOL    HW226445   4.909   2.519   1.280
 8516SOL     OW26446   0.450   2.017   1.908
 8516SOL    HW126447   0.514   1.998   1.983
 8516SOL    HW226448   0.366   2.057   1.944
 8517SOL     OW26449   0.693   2.971   5.365
 8517SOL    HW126450   0.712   3.069   5.375
 8517SOL    HW226451   0.772   2.918   5.395
 8518SOL     OW26452   4.831   3.822   6.906
 8518SOL    HW126453   4.840   3.922   6.908
 8518SOL    HW226454   4.853   3.785   6.997
 8519SOL     OW26455   1.672   4.972   1.850
 8519SOL    HW126456   1.729   5.046   1.886
 8519SOL    HW226457   1.602   5.011   1.790
 8520SOL     OW26458   3.282   1.292   1.170
 8520SOL    HW126459   3.255   1.348   1.091
 8520SOL    HW226460   3.242   1.201   1.161
 8521SOL     OW26461   1.722   5.403   5.860
 8521SOL    HW126462   1.762   5.490   5.833
 8521SOL    HW226463   1.678   5.361   5.780
 8522SOL     OW26464   1.104   6.321   1.999
 8522SOL    HW126465   1.063   6.301   2.088
 8522SOL    HW226466   1.060   6.266   1.928
 8523SOL     OW26467   3.035   6.420   6.773
 8523SOL    HW126468   2.949   6.471   6.778
 8523SOL    HW226469   3.071   6.424   6.680
 8524SOL     OW26470   1.093   2.007   4.897
 8524SOL    HW126471   1.126   1.930   4.952
 8524SOL    HW226472   1.000   1.989   4.867
 8525SOL     OW26473   6.396   4.406   2.971
 8525SOL    HW126474   6.448   4.451   3.043
 8525SOL    HW226475   6.319   4.464   2.944
 8526SOL     OW26476   2.846   4.152   0.705
 8526SOL    HW126477   2.768   4.215   0.702
 8526SOL    HW226478   2.926   4.200   0.741
 8527SOL     OW26479   3.017   0.256   5.090
 8527SOL    HW126480   3.015   0.319   5.168
 8527SOL    HW226481   3.003   0.163   5.122
 8528SOL     OW26482   5.205   2.941   6.007
 8528SOL    HW126483   5.273   2.989   6.063
 8528SOL    HW226484   5.252   2.885   5.939
 8529SOL     OW26485   1.338   0.120   6.863
 8529SOL    HW126486   1.258   0.127   6.923
 8529SOL    HW226487   1.397   0.045   6.894
 8530SOL     OW26488   1.484   4.374   5.557
 8530SOL    HW126489   1.514   4.288   5.599
 8530SOL    HW226490   1.544   4.449   5.587
 8531SOL     OW26491   5.509   4.018   2.437
 8531SOL    HW126492   5.518   4.117   2.426
 8531SOL    HW226493   5.413   3.995   2.453
 8532SOL     OW26494   3.730   5.193   4.630
 8532SOL    HW126495   3.723   5.236   4.720
 8532SOL    HW226496   3.761   5.098   4.641
 8533SOL     OW26497   2.117   0.037   6.097
 8533SOL    HW126498   2.182   0.014   6.170
 8533SOL    HW226499   2.149   7.019   6.011
 8534SOL     OW26500   0.266   3.701   3.882
 8534SOL    HW126501   0.356   3.743   3.874
 8534SOL    HW226502   0.209   3.731   3.806
 8535SOL     OW26503   0.635   1.570   4.988
 8535SOL    HW126504   0.581   1.486   4.976
 8535SOL    HW226505   0.732   1.549   4.972
 8536SOL     OW26506   6.138   1.868   4.815
 8536SOL    HW126507   6.216   1.929   4.831
 8536SOL    HW226508   6.098   1.887   4.725
 8537SOL     OW26509   5.535   1.979   1.585
 8537SOL    HW126510   5.583   1.931   1.511
 8537SOL    HW226511   5.454   1.927   1.611
 8538SOL     OW26512   0.167   1.261   5.596
 8538SOL    HW126513   0.071   1.277   5.616
 8538SOL    HW226514   0.194   1.315   5.515
 8539SOL     OW26515   6.730   2.160   2.182
 8539SOL    HW126516   6.640   2.182   2.144
 8539SOL    HW226517   6.744   2.061   2.179
 8540SOL     OW26518   3.320   1.584   0.400
 8540SOL    HW126519   3.252   1.630   0.457
 8540SOL    HW226520   3.313   1.617   0.306
 8541SOL     OW26521   2.889   1.785   4.383
 8541SOL    HW126522   2.963   1.834   4.430
 8541SOL    HW226523   2.856   1.710   4.440
 8542SOL     OW26524   2.730   4.373   5.925
 8542SOL    HW126525   2.781   4.457   5.905
 8542SOL    HW226526   2.771   4.328   6.004
 8543SOL     OW26527   2.744   1.551   5.912
 8543SOL    HW126528   2.712   1.602   5.832
 8543SOL    HW226529   2.671   1.545   5.980
 8544SOL     OW26530   5.651   2.951   4.449
 8544SOL    HW126531   5.560   2.909   4.447
 8544SOL    HW226532   5.689   2.952   4.357
 8545SOL     OW26533   4.125   6.825   4.830
 8545SOL    HW126534   4.148   6.825   4.733
 8545SOL    HW226535   4.030   6.854   4.842
 8546SOL     OW26536   6.568   6.978   2.224
 8546SOL    HW126537   6.469   6.990   2.214
 8546SOL    HW226538   6.608   0.038   2.263
 8547SOL     OW26539   0.723   0.206   5.810
 8547SOL    HW126540   0.789   0.253   5.868
 8547SOL    HW226541   0.727   0.245   5.717
 8548SOL     OW26542   6.890   3.810   5.260
 8548SOL    HW126543   6.825   3.741   5.228
 8548SOL    HW226544   6.849   3.901   5.251
 8549SOL     OW26545   1.063   2.500   4.349
 8549SOL    HW126546   1.031   2.409   4.374
 8549SOL    HW226547   1.163   2.499   4.341
 8550SOL     OW26548   1.724   4.354   6.803
 8550SOL    HW126549   1.652   4.357   6.734
 8550SOL    HW226550   1.733   4.444   6.846
 8551SOL     OW26551   3.062   2.699   0.106
 8551SOL    HW126552   2.967   2.727   0.118
 8551SOL    HW226553   3.112   2.715   0.190
 8552SOL     OW26554   2.021   0.594   2.766
 8552SOL    HW126555   1.977   0.657   2.830
 8552SOL    HW226556   2.120   0.608   2.768
 8553SOL     OW26557   4.188   4.207   6.792
 8553SOL    HW126558   4.286   4.215   6.807
 8553SOL    HW226559   4.151   4.133   6.848
 8554SOL     OW26560   0.345   5.758   0.858
 8554SOL    HW126561   0.331   5.828   0.927
 8554SOL    HW226562   0.261   5.747   0.804
 8555SOL     OW26563   3.809   1.575   3.561
 8555SOL    HW126564   3.721   1.618   3.577
 8555SOL    HW226565   3.853   1.555   3.649
 8556SOL     OW26566   2.247   6.220   4.988
 8556SOL    HW126567   2.163   6.166   4.993
 8556SOL    HW226568   2.326   6.158   4.991
 8557SOL     OW26569   6.705   0.399   2.114
 8557SOL    HW126570   6.629   0.373   2.174
 8557SOL    HW226571   6.708   0.338   2.035
 8558SOL     OW26572   1.901   5.378   3.053
 8558SOL    HW126573   1.978   5.335   3.100
 8558SOL    HW226574   1.868   5.455   3.107
 8559SOL     OW26575   1.580   6.259   2.508
 8559SOL    HW126576   1.569   6.358   2.502
 8559SOL    HW226577   1.675   6.235   2.485
 8560SOL     OW26578   0.986   5.571   1.507
 8560SOL    HW126579   0.948   5.651   1.460
 8560SOL    HW226580   0.918   5.533   1.570
 8561SOL     OW26581   3.210   6.844   3.711
 8561SOL    HW126582   3.168   6.883   3.793
 8561SOL    HW226583   3.161   6.876   3.630
 8562SOL     OW26584   3.566   6.466   0.005
 8562SOL    HW126585   3.603   6.547   0.049
 8562SOL    HW226586   3.466   6.472   0.003
 8563SOL     OW26587   0.678   4.896   2.017
 8563SOL    HW126588   0.591   4.941   1.997
 8563SOL    HW226589   0.742   4.913   1.942
 8564SOL     OW26590   3.466   6.379   5.637
 8564SOL    HW126591   3.384   6.337   5.597
 8564SOL    HW226592   3.523   6.416   5.564
 8565SOL     OW26593   3.654   4.869   0.757
 8565SOL    HW126594   3.633   4.776   0.728
 8565SOL    HW226595   3.736   4.869   0.813
 8566SOL     OW26596   1.027   0.472   1.800
 8566SOL    HW126597   1.116   0.425   1.797
 8566SOL    HW226598   0.987   0.461   1.890
 8567SOL     OW26599   1.158   1.938   2.423
 8567SOL    HW126600   1.106   1.981   2.349
 8567SOL    HW226601   1.255   1.958   2.412
 8568SOL     OW26602   5.473   1.985   0.378
 8568SOL    HW126603   5.564   2.012   0.346
 8568SOL    HW226604   5.438   1.911   0.320
 8569SOL     OW26605   5.458   2.136   5.234
 8569SOL    HW126606   5.515   2.202   5.284
 8569SOL    HW226607   5.405   2.184   5.164
 8570SOL     OW26608   1.145   1.646   4.567
 8570SOL    HW126609   1.061   1.619   4.615
 8570SOL    HW226610   1.219   1.658   4.634
 8571SOL     OW26611   0.869   6.902   4.916
 8571SOL    HW126612   0.852   6.831   4.847
 8571SOL    HW226613   0.851   6.991   4.875
 8572SOL     OW26614   1.558   4.409   5.234
 8572SOL    HW126615   1.519   4.408   5.326
 8572SOL    HW226616   1.647   4.364   5.236
 8573SOL     OW26617   3.281   6.047   6.249
 8573SOL    HW126618   3.189   6.042   6.288
 8573SOL    HW226619   3.284   6.121   6.182
 8574SOL     OW26620   6.059   6.804   6.358
 8574SOL    HW126621   6.098   6.787   6.267
 8574SOL    HW226622   6.117   6.762   6.428
 8575SOL     OW26623   3.194   1.726   3.357
 8575SOL    HW126624   3.212   1.731   3.455
 8575SOL    HW226625   3.203   1.817   3.317
 8576SOL     OW26626   1.758   4.912   4.115
 8576SOL    HW126627   1.760   4.847   4.190
 8576SOL    HW226628   1.851   4.923   4.078
 8577SOL     OW26629   1.636   0.190   6.241
 8577SOL    HW126630   1.710   0.163   6.179
 8577SOL    HW226631   1.670   0.256   6.307
 8578SOL     OW26632   6.555   4.893   5.899
 8578SOL    HW126633   6.615   4.815   5.917
 8578SOL    HW226634   6.507   4.918   5.983
 8579SOL     OW26635   1.351   6.228   2.000
 8579SOL    HW126636   1.422   6.286   2.040
 8579SOL    HW226637   1.262   6.272   2.010
 8580SOL     OW26638   1.808   6.026   0.636
 8580SOL    HW126639   1.787   5.953   0.571
 8580SOL    HW226640   1.730   6.039   0.697
 8581SOL     OW26641   3.511   4.452   1.349
 8581SOL    HW126642   3.479   4.380   1.287
 8581SOL    HW226643   3.437   4.476   1.412
 8582SOL     OW26644   5.008   4.517   4.935
 8582SOL    HW126645   4.952   4.579   4.989
 8582SOL    HW226646   5.093   4.563   4.909
 8583SOL     OW26647   3.349   6.920   2.910
 8583SOL    HW126648   3.369   6.828   2.874
 8583SOL    HW226649   3.393   6.988   2.851
 8584SOL     OW26650   1.136   6.297   5.609
 8584SOL    HW126651   1.135   6.396   5.623
 8584SOL    HW226652   1.065   6.255   5.666
 8585SOL     OW26653   6.146   1.105   0.925
 8585SOL    HW126654   6.127   1.187   0.979
 8585SOL    HW226655   6.079   1.034   0.946
 8586SOL     OW26656   3.741   6.756   1.710
 8586SOL    HW126657   3.747   6.849   1.744
 8586SOL    HW226658   3.647   6.722   1.724
 8587SOL     OW26659   0.866   1.426   5.054
 8587SOL    HW126660   0.902   1.518   5.037
 8587SOL    HW226661   0.903   1.391   5.140
 8588SOL     OW26662   4.383   1.601   7.015
 8588SOL    HW126663   4.446   1.575   0.065
 8588SOL    HW226664   4.432   1.652   6.944
 8589SOL     OW26665   6.619   2.717   4.915
 8589SOL    HW126666   6.624   2.723   4.815
 8589SOL    HW226667   6.686   2.650   4.947
 8590SOL     OW26668   0.775   0.788   2.468
 8590SOL    HW126669   0.802   0.871   2.516
 8590SOL    HW226670   0.759   0.809   2.371
 8591SOL     OW26671   0.333   4.239   0.380
 8591SOL    HW126672   0.313   4.165   0.315
 8591SOL    HW226673   0.387   4.202   0.455
 8592SOL     OW26674   5.776   2.563   6.749
 8592SOL    HW126675   5.863   2.610   6.730
 8592SOL    HW226676   5.768   2.483   6.690
 8593SOL     OW26677   3.166   1.465   6.584
 8593SOL    HW126678   3.262   1.493   6.579
 8593SOL    HW226679   3.109   1.535   6.541
 8594SOL     OW26680   5.546   2.218   5.755
 8594SOL    HW126681   5.627   2.251   5.804
 8594SOL    HW226682   5.488   2.166   5.818
 8595SOL     OW26683   6.264   0.891   4.156
 8595SOL    HW126684   6.167   0.907   4.174
 8595SOL    HW226685   6.279   0.792   4.146
 8596SOL     OW26686   1.435   4.987   2.969
 8596SOL    HW126687   1.500   5.017   3.039
 8596SOL    HW226688   1.436   4.887   2.964
 8597SOL     OW26689   5.389   2.250   1.814
 8597SOL    HW126690   5.410   2.281   1.907
 8597SOL    HW226691   5.305   2.293   1.782
 8598SOL     OW26692   5.861   0.204   6.391
 8598SOL    HW126693   5.949   0.158   6.388
 8598SOL    HW226694   5.792   0.142   6.431
 8599SOL     OW26695   1.355   3.060   5.087
 8599SOL    HW126696   1.328   3.151   5.056
 8599SOL    HW226697   1.404   3.012   5.014
 8600SOL     OW26698   5.480   3.566   0.222
 8600SOL    HW126699   5.485   3.649   0.166
 8600SOL    HW226700   5.573   3.538   0.248
 8601SOL     OW26701   0.857   1.649   4.080
 8601SOL    HW126702   0.920   1.670   4.154
 8601SOL    HW226703   0.763   1.648   4.115
 8602SOL     OW26704   2.257   0.083   2.447
 8602SOL    HW126705   2.355   0.069   2.429
 8602SOL    HW226706   2.205   0.011   2.402
 8603SOL     OW26707   5.227   0.147   1.179
 8603SOL    HW126708   5.255   0.192   1.094
 8603SOL    HW226709   5.305   0.144   1.242
 8604SOL     OW26710   1.565   1.713   5.994
 8604SOL    HW126711   1.617   1.797   6.010
 8604SOL    HW226712   1.487   1.709   6.057
 8605SOL     OW26713   2.036   5.299   3.462
 8605SOL    HW126714   2.005   5.393   3.475
 8605SOL    HW226715   1.961   5.236   3.484
 8606SOL     OW26716   2.461   3.100   0.168
 8606SOL    HW126717   2.364   3.108   0.188
 8606SOL    HW226718   2.478   3.017   0.114
 8607SOL     OW26719   2.511   4.792   6.229
 8607SOL    HW126720   2.478   4.770   6.137
 8607SOL    HW226721   2.439   4.773   6.296
 8608SOL     OW26722   2.185   4.944   2.520
 8608SOL    HW126723   2.171   4.921   2.616
 8608SOL    HW226724   2.269   4.998   2.510
 8609SOL     OW26725   5.167   0.798   3.377
 8609SOL    HW126726   5.197   0.759   3.464
 8609SOL    HW226727   5.214   0.751   3.302
 8610SOL     OW26728   0.228   0.609   3.092
 8610SOL    HW126729   0.179   0.579   3.011
 8610SOL    HW226730   0.272   0.530   3.135
 8611SOL     OW26731   3.152   0.967   4.262
 8611SOL    HW126732   3.197   0.879   4.249
 8611SOL    HW226733   3.096   0.989   4.182
 8612SOL     OW26734   3.028   3.344   1.566
 8612SOL    HW126735   3.093   3.344   1.490
 8612SOL    HW226736   2.934   3.347   1.531
 8613SOL     OW26737   2.931   1.784   1.875
 8613SOL    HW126738   2.980   1.867   1.846
 8613SOL    HW226739   2.833   1.798   1.863
 8614SOL     OW26740   0.817   2.910   3.224
 8614SOL    HW126741   0.783   2.930   3.316
 8614SOL    HW226742   0.821   2.811   3.211
 8615SOL     OW26743   4.592   1.965   5.104
 8615SOL    HW126744   4.653   2.033   5.145
 8615SOL    HW226745   4.599   1.879   5.155
 8616SOL     OW26746   2.852   4.863   1.928
 8616SOL    HW126747   2.754   4.884   1.931
 8616SOL    HW226748   2.865   4.764   1.933
 8617SOL     OW26749   5.996   0.928   4.245
 8617SOL    HW126750   5.964   0.851   4.298
 8617SOL    HW226751   6.019   1.004   4.306
 8618SOL     OW26752   6.640   4.897   1.893
 8618SOL    HW126753   6.733   4.933   1.899
 8618SOL    HW226754   6.643   4.801   1.863
 8619SOL     OW26755   4.095   5.318   2.468
 8619SOL    HW126756   4.026   5.338   2.537
 8619SOL    HW226757   4.141   5.232   2.491
 8620SOL     OW26758   2.145   5.938   3.705
 8620SOL    HW126759   2.105   6.013   3.652
 8620SOL    HW226760   2.236   5.916   3.669
 8621SOL     OW26761   5.054   2.845   2.344
 8621SOL    HW126762   5.101   2.912   2.400
 8621SOL    HW226763   4.983   2.890   2.290
 8622SOL     OW26764   4.983   4.390   1.332
 8622SOL    HW126765   4.920   4.405   1.256
 8622SOL    HW226766   4.951   4.440   1.412
 8623SOL     OW26767   1.068   4.518   5.599
 8623SOL    HW126768   1.107   4.464   5.524
 8623SOL    HW226769   1.118   4.499   5.684
 8624SOL     OW26770   2.070   3.726   5.538
 8624SOL    HW126771   2.012   3.793   5.584
 8624SOL    HW226772   2.101   3.764   5.451
 8625SOL     OW26773   5.167   0.925   5.330
 8625SOL    HW126774   5.158   0.868   5.412
 8625SOL    HW226775   5.213   1.011   5.355
 8626SOL     OW26776   4.106   2.366   6.707
 8626SOL    HW126777   4.128   2.419   6.789
 8626SOL    HW226778   4.191   2.340   6.661
 8627SOL     OW26779   2.069   1.737   2.053
 8627SOL    HW126780   1.988   1.710   2.105
 8627SOL    HW226781   2.052   1.824   2.006
 8628SOL     OW26782   5.825   6.692   0.445
 8628SOL    HW126783   5.744   6.750   0.439
 8628SOL    HW226784   5.799   6.602   0.479
 8629SOL     OW26785   1.857   6.393   5.311
 8629SOL    HW126786   1.834   6.423   5.218
 8629SOL    HW226787   1.785   6.334   5.346
 8630SOL     OW26788   5.076   3.162   3.797
 8630SOL    HW126789   5.036   3.230   3.736
 8630SOL    HW226790   5.176   3.167   3.791
 8631SOL     OW26791   1.274   5.666   6.196
 8631SOL    HW126792   1.353   5.622   6.238
 8631SOL    HW226793   1.284   5.765   6.200
 8632SOL     OW26794   4.293   5.129   4.953
 8632SOL    HW126795   4.206   5.177   4.942
 8632SOL    HW226796   4.277   5.039   4.993
 8633SOL     OW26797   5.823   2.748   5.857
 8633SOL    HW126798   5.810   2.798   5.771
 8633SOL    HW226799   5.796   2.805   5.934
 8634SOL     OW26800   4.670   3.964   6.498
 8634SOL    HW126801   4.684   3.865   6.508
 8634SOL    HW226802   4.752   4.012   6.529
 8635SOL     OW26803   5.519   2.796   6.322
 8635SOL    HW126804   5.595   2.759   6.376
 8635SOL    HW226805   5.468   2.862   6.378
 8636SOL     OW26806   5.737   6.126   1.003
 8636SOL    HW126807   5.646   6.152   0.972
 8636SOL    HW226808   5.762   6.180   1.083
 8637SOL     OW26809   1.851   1.563   6.782
 8637SOL    HW126810   1.937   1.615   6.786
 8637SOL    HW226811   1.779   1.614   6.827
 8638SOL     OW26812   3.778   1.970   4.873
 8638SOL    HW126813   3.826   1.935   4.954
 8638SOL    HW226814   3.680   1.977   4.893
 8639SOL     OW26815   5.053   2.900   6.837
 8639SOL    HW126816   5.016   2.909   6.930
 8639SOL    HW226817   5.032   2.983   6.785
 8640SOL     OW26818   3.918   3.124   0.137
 8640SOL    HW126819   3.874   3.034   0.146
 8640SOL    HW226820   3.895   3.180   0.217
 8641SOL     OW26821   4.239   4.666   4.072
 8641SOL    HW126822   4.235   4.674   4.172
 8641SOL    HW226823   4.150   4.689   4.033
 8642SOL     OW26824   0.911   6.634   4.152
 8642SOL    HW126825   0.824   6.616   4.106
 8642SOL    HW226826   0.906   6.602   4.246
 8643SOL     OW26827   1.474   0.589   0.187
 8643SOL    HW126828   1.412   0.571   0.110
 8643SOL    HW226829   1.484   0.507   0.242
 8644SOL     OW26830   5.579   2.616   5.648
 8644SOL    HW126831   5.667   2.580   5.677
 8644SOL    HW226832   5.585   2.647   5.553
 8645SOL     OW26833   4.289   4.760   1.857
 8645SOL    HW126834   4.319   4.795   1.769
 8645SOL    HW226835   4.288   4.835   1.924
 8646SOL     OW26836   0.154   1.834   6.727
 8646SOL    HW126837   0.118   1.901   6.662
 8646SOL    HW226838   0.146   1.870   6.820
 8647SOL     OW26839   2.837   4.822   0.087
 8647SOL    HW126840   2.934   4.806   0.104
 8647SOL    HW226841   2.827   4.904   0.030
 8648SOL     OW26842   6.641   0.172   2.410
 8648SOL    HW126843   6.736   0.144   2.401
 8648SOL    HW226844   6.598   0.122   2.485
 8649SOL     OW26845   5.837   5.652   0.351
 8649SOL    HW126846   5.886   5.738   0.362
 8649SOL    HW226847   5.744   5.661   0.385
 8650SOL     OW26848   1.509   6.685   4.985
 8650SOL    HW126849   1.415   6.717   4.992
 8650SOL    HW226850   1.538   6.688   4.889
 8651SOL     OW26851   3.899   0.751   0.474
 8651SOL    HW126852   3.811   0.772   0.517
 8651SOL    HW226853   3.923   0.824   0.411
 8652SOL     OW26854   0.978   4.814   2.970
 8652SOL    HW126855   1.019   4.771   3.050
 8652SOL    HW226856   0.887   4.848   2.994
 8653SOL     OW26857   6.965   1.305   6.460
 8653SOL    HW126858   6.918   1.219   6.437
 8653SOL    HW226859   0.040   1.296   6.440
 8654SOL     OW26860   0.663   4.836   1.614
 8654SOL    HW126861   0.588   4.840   1.680
 8654SOL    HW226862   0.657   4.914   1.551
 8655SOL     OW26863   5.781   0.158   4.566
 8655SOL    HW126864   5.758   0.123   4.475
 8655SOL    HW226865   5.880   0.147   4.581
 8656SOL     OW26866   6.265   0.836   2.359
 8656SOL    HW126867   6.303   0.785   2.282
 8656SOL    HW226868   6.175   0.872   2.334
 8657SOL     OW26869   5.310   5.617   0.319
 8657SOL    HW126870   5.374   5.641   0.246
 8657SOL    HW226871   5.241   5.554   0.284
 8658SOL     OW26872   6.539   5.733   0.291
 8658SOL    HW126873   6.605   5.790   0.242
 8658SOL    HW226874   6.584   5.650   0.324
 8659SOL     OW26875   5.244   2.280   2.538
 8659SOL    HW126876   5.165   2.273   2.477
 8659SOL    HW226877   5.215   2.321   2.625
 8660SOL     OW26878   6.475   3.435   1.743
 8660SOL    HW126879   6.501   3.513   1.688
 8660SOL    HW226880   6.465   3.354   1.685
 8661SOL     OW26881   6.461   3.528   1.324
 8661SOL    HW126882   6.365   3.548   1.304
 8661SOL    HW226883   6.469   3.434   1.357
 8662SOL     OW26884   4.150   5.489   1.949
 8662SOL    HW126885   4.164   5.426   2.025
 8662SOL    HW226886   4.153   5.438   1.863
 8663SOL     OW26887   2.292   5.492   2.246
 8663SOL    HW126888   2.258   5.559   2.312
 8663SOL    HW226889   2.390   5.506   2.231
 8664SOL     OW26890   2.089   4.783   1.573
 8664SOL    HW126891   2.129   4.862   1.620
 8664SOL    HW226892   2.158   4.740   1.515
 8665SOL     OW26893   5.803   5.537   4.847
 8665SOL    HW126894   5.892   5.504   4.815
 8665SOL    HW226895   5.756   5.464   4.896
 8666SOL     OW26896   5.670   0.804   4.078
 8666SOL    HW126897   5.751   0.792   4.136
 8666SOL    HW226898   5.695   0.792   3.982
 8667SOL     OW26899   5.020   1.971   3.802
 8667SOL    HW126900   5.053   1.998   3.892
 8667SOL    HW226901   5.054   1.880   3.780
 8668SOL     OW26902   5.225   3.785   3.660
 8668SOL    HW126903   5.325   3.776   3.668
 8668SOL    HW226904   5.181   3.717   3.719
 8669SOL     OW26905   0.465   6.025   6.708
 8669SOL    HW126906   0.444   6.083   6.629
 8669SOL    HW226907   0.388   5.963   6.725
 8670SOL     OW26908   3.820   5.615   6.265
 8670SOL    HW126909   3.891   5.551   6.295
 8670SOL    HW226910   3.732   5.588   6.304
 8671SOL     OW26911   0.731   1.799   3.416
 8671SOL    HW126912   0.658   1.809   3.483
 8671SOL    HW226913   0.719   1.713   3.366
 8672SOL     OW26914   0.408   6.296   3.446
 8672SOL    HW126915   0.475   6.301   3.521
 8672SOL    HW226916   0.318   6.271   3.483
 8673SOL     OW26917   6.086   1.949   0.239
 8673SOL    HW126918   6.083   1.946   0.139
 8673SOL    HW226919   5.993   1.952   0.274
 8674SOL     OW26920   5.820   5.602   2.983
 8674SOL    HW126921   5.911   5.562   2.981
 8674SOL    HW226922   5.802   5.640   3.074
 8675SOL     OW26923   4.548   1.604   4.957
 8675SOL    HW126924   4.557   1.700   4.983
 8675SOL    HW226925   4.631   1.574   4.910
 8676SOL     OW26926   5.325   6.555   3.147
 8676SOL    HW126927   5.399   6.564   3.214
 8676SOL    HW226928   5.357   6.496   3.072
 8677SOL     OW26929   2.230   5.984   5.876
 8677SOL    HW126930   2.285   6.058   5.839
 8677SOL    HW226931   2.289   5.907   5.901
 8678SOL     OW26932   0.935   6.899   0.792
 8678SOL    HW126933   0.901   6.805   0.793
 8678SOL    HW226934   0.858   6.963   0.796
 8679SOL     OW26935   1.590   1.644   3.132
 8679SOL    HW126936   1.572   1.596   3.218
 8679SOL    HW226937   1.504   1.660   3.084
 8680SOL     OW26938   5.740   3.924   0.092
 8680SOL    HW126939   5.782   3.844   0.134
 8680SOL    HW226940   5.647   3.902   0.065
 8681SOL     OW26941   4.863   5.399   1.535
 8681SOL    HW126942   4.774   5.433   1.565
 8681SOL    HW226943   4.859   5.299   1.525
 8682SOL     OW26944   6.050   0.371   2.437
 8682SOL    HW126945   6.103   0.321   2.505
 8682SOL    HW226946   5.980   0.312   2.398
 8683SOL     OW26947   1.805   2.310   5.527
 8683SOL    HW126948   1.807   2.239   5.458
 8683SOL    HW226949   1.834   2.397   5.487
 8684SOL     OW26950   6.328   3.600   4.443
 8684SOL    HW126951   6.261   3.582   4.371
 8684SOL    HW226952   6.353   3.697   4.443
 8685SOL     OW26953   6.132   3.066   6.264
 8685SOL    HW126954   6.166   2.976   6.238
 8685SOL    HW226955   6.110   3.118   6.181
 8686SOL     OW26956   6.597   0.842   1.960
 8686SOL    HW126957   6.684   0.834   2.008
 8686SOL    HW226958   6.527   0.874   2.024
 8687SOL     OW26959   5.482   5.118   2.763
 8687SOL    HW126960   5.554   5.145   2.700
 8687SOL    HW226961   5.393   5.127   2.719
 8688SOL     OW26962   1.425   5.017   6.678
 8688SOL    HW126963   1.419   4.950   6.752
 8688SOL    HW226964   1.516   5.058   6.678
 8689SOL     OW26965   4.167   2.584   0.673
 8689SOL    HW126966   4.151   2.511   0.739
 8689SOL    HW226967   4.266   2.597   0.662
 8690SOL     OW26968   1.249   3.711   3.911
 8690SOL    HW126969   1.176   3.643   3.914
 8690SOL    HW226970   1.214   3.795   3.869
 8691SOL     OW26971   4.280   2.102   6.183
 8691SOL    HW126972   4.229   2.016   6.191
 8691SOL    HW226973   4.222   2.171   6.140
 8692SOL     OW26974   3.717   0.706   4.520
 8692SOL    HW126975   3.632   0.665   4.487
 8692SOL    HW226976   3.770   0.638   4.570
 8693SOL     OW26977   6.071   0.345   0.064
 8693SOL    HW126978   6.162   0.310   0.089
 8693SOL    HW226979   6.072   0.445   0.065
 8694SOL     OW26980   5.699   1.405   5.109
 8694SOL    HW126981   5.632   1.390   5.036
 8694SOL    HW226982   5.787   1.432   5.069
 8695SOL     OW26983   3.978   2.927   6.163
 8695SOL    HW126984   3.942   3.010   6.206
 8695SOL    HW226985   3.961   2.930   6.065
 8696SOL     OW26986   2.838   5.787   5.440
 8696SOL    HW126987   2.897   5.710   5.417
 8696SOL    HW226988   2.863   5.866   5.383
 8697SOL     OW26989   0.483   4.119   6.514
 8697SOL    HW126990   0.444   4.087   6.428
 8697SOL    HW226991   0.413   4.169   6.566
 8698SOL     OW26992   4.793   6.177   4.898
 8698SOL    HW126993   4.884   6.159   4.861
 8698SOL    HW226994   4.772   6.109   4.968
 8699SOL     OW26995   1.870   3.218   4.943
 8699SOL    HW126996   1.921   3.159   4.880
 8699SOL    HW226997   1.861   3.172   5.031
 8700SOL     OW26998   0.315   0.705   4.807
 8700SOL    HW126999   0.395   0.759   4.832
 8700SOL    HW227000   0.241   0.767   4.781
 8701SOL     OW27001   1.600   1.569   0.718
 8701SOL    HW127002   1.550   1.545   0.635
 8701SOL    HW227003   1.680   1.623   0.695
 8702SOL     OW27004   5.201   5.085   1.722
 8702SOL    HW127005   5.191   5.126   1.631
 8702SOL    HW227006   5.132   5.123   1.783
 8703SOL     OW27007   2.731   4.710   6.814
 8703SOL    HW127008   2.693   4.717   6.906
 8703SOL    HW227009   2.657   4.688   6.750
 8704SOL     OW27010   0.153   4.439   3.178
 8704SOL    HW127011   0.113   4.376   3.111
 8704SOL    HW227012   0.180   4.389   3.260
 8705SOL     OW27013   5.003   1.704   6.451
 8705SOL    HW127014   4.932   1.765   6.486
 8705SOL    HW227015   5.087   1.755   6.438
 8706SOL     OW27016   4.710   2.339   0.402
 8706SOL    HW127017   4.644   2.280   0.449
 8706SOL    HW227018   4.699   2.433   0.436
 8707SOL     OW27019   1.360   2.278   4.569
 8707SOL    HW127020   1.438   2.234   4.525
 8707SOL    HW227021   1.337   2.362   4.520
 8708SOL     OW27022   4.022   1.660   3.419
 8708SOL    HW127023   4.002   1.747   3.372
 8708SOL    HW227024   3.939   1.626   3.463
 8709SOL     OW27025   6.741   6.617   6.876
 8709SOL    HW127026   6.825   6.614   6.821
 8709SOL    HW227027   6.759   6.666   6.961
 8710SOL     OW27028   2.392   2.132   3.900
 8710SOL    HW127029   2.443   2.149   3.815
 8710SOL    HW227030   2.305   2.086   3.878
 8711SOL     OW27031   1.841   6.369   2.915
 8711SOL    HW127032   1.913   6.436   2.932
 8711SOL    HW227033   1.859   6.321   2.829
 8712SOL     OW27034   3.479   1.486   4.717
 8712SOL    HW127035   3.577   1.488   4.695
 8712SOL    HW227036   3.453   1.572   4.760
 8713SOL     OW27037   0.071   3.473   1.914
 8713SOL    HW127038   0.000   3.469   1.985
 8713SOL    HW227039   0.146   3.412   1.940
 8714SOL     OW27040   1.403   0.375   6.209
 8714SOL    HW127041   1.388   0.418   6.120
 8714SOL    HW227042   1.476   0.423   6.258
 8715SOL     OW27043   3.959   1.107   0.434
 8715SOL    HW127044   3.917   1.180   0.379
 8715SOL    HW227045   3.979   1.029   0.376
 8716SOL     OW27046   0.168   6.284   0.102
 8716SOL    HW127047   0.117   6.243   0.178
 8716SOL    HW227048   0.164   6.223   0.023
 8717SOL     OW27049   2.635   3.434   5.510
 8717SOL    HW127050   2.714   3.480   5.551
 8717SOL    HW227051   2.662   3.343   5.479
 8718SOL     OW27052   1.690   1.953   6.031
 8718SOL    HW127053   1.661   2.048   6.035
 8718SOL    HW227054   1.774   1.942   6.085
 8719SOL     OW27055   3.436   0.271   0.296
 8719SOL    HW127056   3.492   0.342   0.253
 8719SOL    HW227057   3.340   0.292   0.284
 8720SOL     OW27058   1.021   6.521   5.928
 8720SOL    HW127059   0.953   6.549   5.995
 8720SOL    HW227060   1.082   6.598   5.909
 8721SOL     OW27061   6.457   1.468   0.816
 8721SOL    HW127062   6.430   1.439   0.724
 8721SOL    HW227063   6.384   1.448   0.880
 8722SOL     OW27064   3.173   0.775   1.441
 8722SOL    HW127065   3.082   0.745   1.471
 8722SOL    HW227066   3.237   0.699   1.448
 8723SOL     OW27067   5.478   0.267   1.905
 8723SOL    HW127068   5.389   0.312   1.902
 8723SOL    HW227069   5.486   0.205   1.827
 8724SOL     OW27070   5.889   0.019   4.322
 8724SOL    HW127071   5.908   6.943   4.315
 8724SOL    HW227072   5.791   0.035   4.312
 8725SOL     OW27073   1.379   5.644   5.769
 8725SOL    HW127074   1.302   5.608   5.821
 8725SOL    HW227075   1.348   5.716   5.707
 8726SOL     OW27076   0.039   0.466   1.788
 8726SOL    HW127077   6.974   0.496   1.825
 8726SOL    HW227078   0.114   0.511   1.838
 8727SOL     OW27079   6.043   0.249   0.763
 8727SOL    HW127080   5.944   0.248   0.748
 8727SOL    HW227081   6.085   0.177   0.708
 8728SOL     OW27082   5.501   0.958   2.743
 8728SOL    HW127083   5.472   1.001   2.657
 8728SOL    HW227084   5.459   1.005   2.820
 8729SOL     OW27085   3.796   4.970   5.009
 8729SOL    HW127086   3.718   5.032   5.006
 8729SOL    HW227087   3.792   4.914   5.091
 8730SOL     OW27088   5.064   4.149   3.105
 8730SOL    HW127089   5.028   4.077   3.047
 8730SOL    HW227090   5.050   4.125   3.201
 8731SOL     OW27091   0.996   3.813   2.972
 8731SOL    HW127092   1.066   3.841   3.038
 8731SOL    HW227093   0.907   3.808   3.018
 8732SOL     OW27094   5.487   4.288   2.383
 8732SOL    HW127095   5.417   4.338   2.433
 8732SOL    HW227096   5.464   4.285   2.286
 8733SOL     OW27097   1.107   5.771   0.409
 8733SOL    HW127098   1.063   5.704   0.468
 8733SOL    HW227099   1.068   5.765   0.317
 8734SOL     OW27100   0.630   3.260   3.220
 8734SOL    HW127101   0.622   3.294   3.126
 8734SOL    HW227102   0.570   3.181   3.232
 8735SOL     OW27103   1.175   2.621   5.439
 8735SOL    HW127104   1.183   2.696   5.374
 8735SOL    HW227105   1.266   2.599   5.475
 8736SOL     OW27106   6.718   5.471   2.156
 8736SOL    HW127107   6.678   5.551   2.201
 8736SOL    HW227108   6.767   5.500   2.074
 8737SOL     OW27109   2.379   6.867   0.042
 8737SOL    HW127110   2.412   6.775   0.061
 8737SOL    HW227111   2.442   6.913   7.001
 8738SOL     OW27112   2.652   5.711   3.395
 8738SOL    HW127113   2.584   5.690   3.465
 8738SOL    HW227114   2.606   5.724   3.307
 8739SOL     OW27115   5.242   5.797   5.853
 8739SOL    HW127116   5.203   5.717   5.808
 8739SOL    HW227117   5.341   5.799   5.839
 8740SOL     OW27118   4.259   1.554   3.268
 8740SOL    HW127119   4.269   1.486   3.340
 8740SOL    HW227120   4.185   1.617   3.292
 8741SOL     OW27121   2.161   0.901   2.762
 8741SOL    HW127122   2.101   0.826   2.791
 8741SOL    HW227123   2.105   0.981   2.738
 8742SOL     OW27124   4.750   0.466   1.756
 8742SOL    HW127125   4.730   0.483   1.853
 8742SOL    HW227126   4.818   0.532   1.724
 8743SOL     OW27127   1.772   0.439   0.841
 8743SOL    HW127128   1.811   0.356   0.880
 8743SOL    HW227129   1.711   0.481   0.908
 8744SOL     OW27130   4.028   2.727   1.043
 8744SOL    HW127131   3.999   2.639   1.080
 8744SOL    HW227132   4.009   2.730   0.945
 8745SOL     OW27133   6.061   2.323   5.760
 8745SOL    HW127134   6.107   2.253   5.815
 8745SOL    HW227135   6.048   2.405   5.816
 8746SOL     OW27136   4.961   5.917   3.782
 8746SOL    HW127137   4.916   5.915   3.871
 8746SOL    HW227138   5.050   5.961   3.790
 8747SOL     OW27139   0.684   1.209   2.751
 8747SOL    HW127140   0.681   1.305   2.721
 8747SOL    HW227141   0.778   1.181   2.764
 8748SOL     OW27142   0.953   2.236   4.457
 8748SOL    HW127143   0.930   2.292   4.536
 8748SOL    HW227144   1.020   2.167   4.484
 8749SOL     OW27145   1.917   0.356   5.359
 8749SOL    HW127146   2.011   0.387   5.374
 8749SOL    HW227147   1.917   0.260   5.332
 8750SOL     OW27148   3.193   3.615   5.553
 8750SOL    HW127149   3.213   3.696   5.498
 8750SOL    HW227150   3.096   3.617   5.579
 8751SOL     OW27151   6.832   1.367   2.356
 8751SOL    HW127152   6.879   1.440   2.404
 8751SOL    HW227153   6.775   1.315   2.420
 8752SOL     OW27154   3.993   2.720   6.927
 8752SOL    HW127155   3.921   2.786   6.906
 8752SOL    HW227156   4.056   2.714   6.849
 8753SOL     OW27157   2.649   2.385   6.402
 8753SOL    HW127158   2.585   2.426   6.336
 8753SOL    HW227159   2.597   2.338   6.473
 8754SOL     OW27160   2.314   4.570   5.620
 8754SOL    HW127161   2.375   4.501   5.581
 8754SOL    HW227162   2.347   4.661   5.598
 8755SOL     OW27163   2.221   0.721   1.106
 8755SOL    HW127164   2.312   0.751   1.137
 8755SOL    HW227165   2.207   0.625   1.132
 8756SOL     OW27166   1.781   3.219   3.418
 8756SOL    HW127167   1.726   3.302   3.426
 8756SOL    HW227168   1.824   3.198   3.505
 8757SOL     OW27169   4.772   5.878   0.089
 8757SOL    HW127170   4.865   5.850   0.068
 8757SOL    HW227171   4.708   5.824   0.034
 8758SOL     OW27172   4.594   6.314   2.557
 8758SOL    HW127173   4.533   6.239   2.582
 8758SOL    HW227174   4.688   6.280   2.553
 8759SOL     OW27175   5.453   3.326   6.792
 8759SOL    HW127176   5.492   3.405   6.746
 8759SOL    HW227177   5.387   3.280   6.732
 8760SOL     OW27178   3.232   0.559   4.777
 8760SOL    HW127179   3.238   0.625   4.701
 8760SOL    HW227180   3.169   0.486   4.752
 8761SOL     OW27181   5.954   2.027   1.103
 8761SOL    HW127182   6.003   2.089   1.165
 8761SOL    HW227183   6.010   1.946   1.087
 8762SOL     OW27184   0.541   5.667   4.435
 8762SOL    HW127185   0.605   5.674   4.358
 8762SOL    HW227186   0.479   5.590   4.419
 8763SOL     OW27187   5.940   0.139   5.667
 8763SOL    HW127188   5.949   0.047   5.627
 8763SOL    HW227189   6.018   0.158   5.726
 8764SOL     OW27190   4.552   6.806   6.120
 8764SOL    HW127191   4.542   6.901   6.090
 8764SOL    HW227192   4.601   6.803   6.207
 8765SOL     OW27193   4.886   1.022   4.378
 8765SOL    HW127194   4.979   0.991   4.399
 8765SOL    HW227195   4.876   1.032   4.279
 8766SOL     OW27196   4.101   4.361   5.364
 8766SOL    HW127197   4.141   4.391   5.277
 8766SOL    HW227198   4.101   4.437   5.429
 8767SOL     OW27199   5.154   6.178   2.973
 8767SOL    HW127200   5.145   6.144   2.880
 8767SOL    HW227201   5.064   6.199   3.010
 8768SOL     OW27202   0.786   2.800   0.973
 8768SOL    HW127203   0.864   2.796   0.911
 8768SOL    HW227204   0.762   2.708   1.004
 8769SOL     OW27205   6.736   0.972   2.358
 8769SOL    HW127206   6.761   1.014   2.271
 8769SOL    HW227207   6.744   0.873   2.351
 8770SOL     OW27208   4.664   4.299   2.543
 8770SOL    HW127209   4.721   4.376   2.573
 8770SOL    HW227210   4.677   4.284   2.445
 8771SOL     OW27211   0.884   2.735   6.344
 8771SOL    HW127212   0.816   2.700   6.280
 8771SOL    HW227213   0.914   2.826   6.315
 8772SOL     OW27214   4.665   0.451   6.426
 8772SOL    HW127215   4.748   0.506   6.421
 8772SOL    HW227216   4.689   0.354   6.416
 8773SOL     OW27217   5.328   2.759   3.184
 8773SOL    HW127218   5.248   2.700   3.186
 8773SOL    HW227219   5.403   2.711   3.138
 8774SOL     OW27220   0.800   0.281   0.364
 8774SOL    HW127221   0.752   0.365   0.387
 8774SOL    HW227222   0.785   0.259   0.267
 8775SOL     OW27223   5.219   1.075   5.787
 8775SOL    HW127224   5.192   1.161   5.745
 8775SOL    HW227225   5.178   1.068   5.878
 8776SOL     OW27226   4.918   3.372   1.005
 8776SOL    HW127227   4.864   3.411   0.930
 8776SOL    HW227228   4.923   3.273   0.994
 8777SOL     OW27229   6.913   4.490   3.203
 8777SOL    HW127230   6.881   4.418   3.266
 8777SOL    HW227231   7.013   4.488   3.198
 8778SOL     OW27232   5.513   2.864   5.811
 8778SOL    HW127233   5.573   2.847   5.890
 8778SOL    HW227234   5.549   2.817   5.731
 8779SOL     OW27235   1.877   5.862   2.299
 8779SOL    HW127236   1.805   5.800   2.331
 8779SOL    HW227237   1.922   5.822   2.219
 8780SOL     OW27238   0.539   0.076   2.814
 8780SOL    HW127239   0.510   0.172   2.818
 8780SOL    HW227240   0.463   0.017   2.840
 8781SOL     OW27241   5.244   0.700   3.640
 8781SOL    HW127242   5.145   0.692   3.628
 8781SOL    HW227243   5.266   0.704   3.737
 8782SOL     OW27244   6.226   0.759   1.722
 8782SOL    HW127245   6.229   0.707   1.807
 8782SOL    HW227246   6.299   0.828   1.722
 8783SOL     OW27247   6.849   4.231   3.549
 8783SOL    HW127248   6.870   4.228   3.451
 8783SOL    HW227249   6.895   4.309   3.590
 8784SOL     OW27250   6.753   6.838   6.361
 8784SOL    HW127251   6.676   6.857   6.422
 8784SOL    HW227252   6.776   6.740   6.366
 8785SOL     OW27253   6.430   5.049   6.502
 8785SOL    HW127254   6.503   5.051   6.570
 8785SOL    HW227255   6.440   5.127   6.441
 8786SOL     OW27256   2.780   1.171   1.660
 8786SOL    HW127257   2.733   1.159   1.747
 8786SOL    HW227258   2.715   1.164   1.585
 8787SOL     OW27259   3.603   0.236   2.326
 8787SOL    HW127260   3.530   0.174   2.354
 8787SOL    HW227261   3.641   0.206   2.239
 8788SOL     OW27262   6.902   1.647   5.275
 8788SOL    HW127263   6.979   1.700   5.309
 8788SOL    HW227264   6.820   1.669   5.327
 8789SOL     OW27265   6.304   4.427   5.683
 8789SOL    HW127266   6.248   4.410   5.764
 8789SOL    HW227267   6.244   4.442   5.604
 8790SOL     OW27268   6.249   0.743   6.278
 8790SOL    HW127269   6.164   0.711   6.237
 8790SOL    HW227270   6.324   0.729   6.214
 8791SOL     OW27271   4.815   6.902   4.726
 8791SOL    HW127272   4.855   6.872   4.640
 8791SOL    HW227273   4.721   6.932   4.710
 8792SOL     OW27274   3.120   5.328   2.980
 8792SOL    HW127275   3.114   5.317   3.079
 8792SOL    HW227276   3.216   5.333   2.953
 8793SOL     OW27277   0.962   4.473   2.831
 8793SOL    HW127278   0.881   4.531   2.824
 8793SOL    HW227279   1.039   4.528   2.865
 8794SOL     OW27280   5.591   1.161   3.249
 8794SOL    HW127281   5.518   1.094   3.265
 8794SOL    HW227282   5.609   1.167   3.151
 8795SOL     OW27283   1.167   4.563   5.128
 8795SOL    HW127284   1.198   4.612   5.210
 8795SOL    HW227285   1.180   4.465   5.141
 8796SOL     OW27286   5.768   2.741   2.969
 8796SOL    HW127287   5.838   2.712   3.035
 8796SOL    HW227288   5.811   2.765   2.883
 8797SOL     OW27289   0.054   0.178   5.523
 8797SOL    HW127290   0.142   0.185   5.477
 8797SOL    HW227291   0.003   0.101   5.485
 8798SOL     OW27292   4.320   6.215   6.556
 8798SOL    HW127293   4.276   6.304   6.571
 8798SOL    HW227294   4.411   6.229   6.516
 8799SOL     OW27295   2.568   5.072   3.369
 8799SOL    HW127296   2.640   5.133   3.334
 8799SOL    HW227297   2.496   5.127   3.410
 8800SOL     OW27298   5.261   5.555   6.351
 8800SOL    HW127299   5.285   5.556   6.253
 8800SOL    HW227300   5.218   5.468   6.373
 8801SOL     OW27301   5.985   1.901   4.567
 8801SOL    HW127302   5.934   1.818   4.589
 8801SOL    HW227303   6.038   1.887   4.484
 8802SOL     OW27304   1.710   5.990   5.826
 8802SOL    HW127305   1.705   5.912   5.888
 8802SOL    HW227306   1.802   5.995   5.787
 8803SOL     OW27307   0.193   0.155   6.744
 8803SOL    HW127308   0.149   0.171   6.832
 8803SOL    HW227309   0.142   0.085   6.694
 8804SOL     OW27310   2.510   6.021   1.237
 8804SOL    HW127311   2.432   6.018   1.299
 8804SOL    HW227312   2.566   5.940   1.249
 8805SOL     OW27313   4.273   5.582   3.053
 8805SOL    HW127314   4.250   5.669   3.097
 8805SOL    HW227315   4.370   5.581   3.027
 8806SOL     OW27316   2.682   5.078   0.738
 8806SOL    HW127317   2.775   5.112   0.757
 8806SOL    HW227318   2.671   4.988   0.779
 8807SOL     OW27319   4.309   1.694   0.387
 8807SOL    HW127320   4.314   1.782   0.434
 8807SOL    HW227321   4.366   1.627   0.435
 8808SOL     OW27322   6.979   2.247   5.390
 8808SOL    HW127323   6.990   2.174   5.323
 8808SOL    HW227324   6.897   2.300   5.368
 8809SOL     OW27325   2.549   4.559   3.911
 8809SOL    HW127326   2.476   4.494   3.935
 8809SOL    HW227327   2.518   4.617   3.836
 8810SOL     OW27328   5.819   0.628   5.128
 8810SOL    HW127329   5.872   0.692   5.183
 8810SOL    HW227330   5.872   0.544   5.113
 8811SOL     OW27331   2.902   0.406   2.653
 8811SOL    HW127332   2.948   0.467   2.717
 8811SOL    HW227333   2.814   0.447   2.627
 8812SOL     OW27334   2.301   0.731   0.833
 8812SOL    HW127335   2.249   0.767   0.911
 8812SOL    HW227336   2.276   0.635   0.818
 8813SOL     OW27337   1.790   5.123   3.010
 8813SOL    HW127338   1.835   5.213   3.009
 8813SOL    HW227339   1.722   5.121   3.083
 8814SOL     OW27340   5.959   6.995   0.720
 8814SOL    HW127341   6.010   6.972   0.803
 8814SOL    HW227342   5.879   6.935   0.712
 8815SOL     OW27343   5.591   0.036   1.160
 8815SOL    HW127344   5.644   6.988   1.207
 8815SOL    HW227345   5.571   0.006   1.067
 8816SOL     OW27346   1.140   6.572   6.362
 8816SOL    HW127347   1.043   6.594   6.363
 8816SOL    HW227348   1.190   6.637   6.420
 8817SOL     OW27349   0.383   4.031   4.007
 8817SOL    HW127350   0.285   4.047   4.018
 8817SOL    HW227351   0.434   4.099   4.059
 8818SOL     OW27352   1.035   6.295   3.716
 8818SOL    HW127353   1.056   6.226   3.785
 8818SOL    HW227354   1.058   6.260   3.625
 8819SOL     OW27355   6.372   4.539   6.248
 8819SOL    HW127356   6.402   4.499   6.162
 8819SOL    HW227357   6.373   4.469   6.319
 8820SOL     OW27358   3.371   1.283   5.003
 8820SOL    HW127359   3.431   1.350   4.958
 8820SOL    HW227360   3.361   1.308   5.099
 8821SOL     OW27361   1.362   5.749   0.898
 8821SOL    HW127362   1.313   5.661   0.900
 8821SOL    HW227363   1.447   5.740   0.949
 8822SOL     OW27364   0.501   0.593   3.455
 8822SOL    HW127365   0.597   0.579   3.431
 8822SOL    HW227366   0.466   0.673   3.406
 8823SOL     OW27367   1.846   1.625   2.165
 8823SOL    HW127368   1.810   1.623   2.259
 8823SOL    HW227369   1.772   1.648   2.102
 8824SOL     OW27370   1.496   0.736   0.541
 8824SOL    HW127371   1.541   0.802   0.601
 8824SOL    HW227372   1.557   0.714   0.465
 8825SOL     OW27373   1.249   1.525   1.655
 8825SOL    HW127374   1.256   1.472   1.740
 8825SOL    HW227375   1.196   1.608   1.673
 8826SOL     OW27376   1.107   3.490   0.929
 8826SOL    HW127377   1.008   3.502   0.926
 8826SOL    HW227378   1.151   3.580   0.930
 8827SOL     OW27379   4.170   0.191   3.559
 8827SOL    HW127380   4.146   0.098   3.587
 8827SOL    HW227381   4.228   0.188   3.478
 8828SOL     OW27382   4.329   4.949   6.735
 8828SOL    HW127383   4.275   5.029   6.761
 8828SOL    HW227384   4.275   4.866   6.751
 8829SOL     OW27385   5.544   1.862   1.161
 8829SOL    HW127386   5.628   1.844   1.213
 8829SOL    HW227387   5.519   1.958   1.171
 8830SOL     OW27388   1.877   1.370   2.491
 8830SOL    HW127389   1.957   1.428   2.482
 8830SOL    HW227390   1.845   1.342   2.400
 8831SOL     OW27391   6.250   2.626   2.304
 8831SOL    HW127392   6.213   2.550   2.356
 8831SOL    HW227393   6.184   2.653   2.233
 8832SOL     OW27394   6.811   5.953   4.264
 8832SOL    HW127395   6.725   5.957   4.315
 8832SOL    HW227396   6.807   5.878   4.198
 8833SOL     OW27397   4.119   4.226   6.282
 8833SOL    HW127398   4.111   4.254   6.378
 8833SOL    HW227399   4.153   4.132   6.278
 8834SOL     OW27400   5.613   3.926   4.669
 8834SOL    HW127401   5.677   3.949   4.743
 8834SOL    HW227402   5.519   3.936   4.702
 8835SOL     OW27403   5.379   0.940   6.175
 8835SOL    HW127404   5.288   0.914   6.142
 8835SOL    HW227405   5.412   1.019   6.123
 8836SOL     OW27406   4.935   1.738   1.241
 8836SOL    HW127407   4.872   1.662   1.224
 8836SOL    HW227408   4.920   1.809   1.172
 8837SOL     OW27409   0.349   0.092   2.556
 8837SOL    HW127410   0.394   0.147   2.627
 8837SOL    HW227411   0.417   0.035   2.510
 8838SOL     OW27412   1.756   3.950   3.412
 8838SOL    HW127413   1.786   4.041   3.438
 8838SOL    HW227414   1.815   3.915   3.339
 8839SOL     OW27415   3.798   6.333   1.978
 8839SOL    HW127416   3.834   6.422   1.952
 8839SOL    HW227417   3.848   6.298   2.057
 8840SOL     OW27418   6.988   0.464   2.554
 8840SOL    HW127419   6.978   0.429   2.461
 8840SOL    HW227420   6.950   0.556   2.559
 8841SOL     OW27421   6.334   1.541   3.767
 8841SOL    HW127422   6.300   1.447   3.770
 8841SOL    HW227423   6.281   1.597   3.830
 8842SOL     OW27424   3.218   3.541   3.681
 8842SOL    HW127425   3.255   3.634   3.675
 8842SOL    HW227426   3.284   3.476   3.644
 8843SOL     OW27427   1.524   3.522   4.076
 8843SOL    HW127428   1.577   3.451   4.031
 8843SOL    HW227429   1.427   3.498   4.073
 8844SOL     OW27430   6.650   1.448   4.603
 8844SOL    HW127431   6.607   1.440   4.513
 8844SOL    HW227432   6.744   1.478   4.592
 8845SOL     OW27433   2.839   4.291   0.397
 8845SOL    HW127434   2.914   4.236   0.361
 8845SOL    HW227435   2.766   4.231   0.428
 8846SOL     OW27436   3.993   4.843   4.088
 8846SOL    HW127437   3.994   4.901   4.007
 8846SOL    HW227438   3.958   4.753   4.064
 8847SOL     OW27439   2.323   1.544   3.697
 8847SOL    HW127440   2.345   1.609   3.770
 8847SOL    HW227441   2.401   1.485   3.681
 8848SOL     OW27442   2.823   1.885   2.530
 8848SOL    HW127443   2.814   1.844   2.621
 8848SOL    HW227444   2.791   1.820   2.461
 8849SOL     OW27445   3.428   4.941   3.068
 8849SOL    HW127446   3.384   4.889   2.996
 8849SOL    HW227447   3.363   4.959   3.142
 8850SOL     OW27448   2.766   0.906   0.609
 8850SOL    HW127449   2.730   0.813   0.595
 8850SOL    HW227450   2.866   0.903   0.611
 8851SOL     OW27451   1.154   4.875   2.023
 8851SOL    HW127452   1.153   4.787   1.976
 8851SOL    HW227453   1.243   4.920   2.008
 8852SOL     OW27454   4.077   3.283   5.746
 8852SOL    HW127455   4.023   3.293   5.830
 8852SOL    HW227456   4.080   3.370   5.697
 8853SOL     OW27457   2.983   0.122   5.474
 8853SOL    HW127458   2.949   0.115   5.568
 8853SOL    HW227459   3.082   0.134   5.476
 8854SOL     OW27460   2.932   1.193   6.281
 8854SOL    HW127461   2.919   1.096   6.260
 8854SOL    HW227462   3.019   1.206   6.329
 8855SOL     OW27463   6.991   6.099   0.210
 8855SOL    HW127464   6.966   6.003   0.200
 8855SOL    HW227465   6.909   6.156   0.206
 8856SOL     OW27466   5.948   0.922   6.114
 8856SOL    HW127467   6.018   0.965   6.057
 8856SOL    HW227468   5.990   0.850   6.170
 8857SOL     OW27469   6.515   2.148   4.111
 8857SOL    HW127470   6.441   2.164   4.176
 8857SOL    HW227471   6.488   2.076   4.047
 8858SOL     OW27472   1.508   2.141   5.787
 8858SOL    HW127473   1.451   2.208   5.738
 8858SOL    HW227474   1.604   2.160   5.768
 8859SOL     OW27475   6.935   0.418   4.731
 8859SOL    HW127476   0.010   0.397   4.725
 8859SOL    HW227477   6.888   0.384   4.649
 8860SOL     OW27478   1.491   3.727   3.202
 8860SOL    HW127479   1.509   3.810   3.255
 8860SOL    HW227480   1.392   3.709   3.201
 8861SOL     OW27481   3.875   1.860   5.962
 8861SOL    HW127482   3.856   1.780   6.018
 8861SOL    HW227483   3.947   1.915   6.005
 8862SOL     OW27484   6.401   0.776   3.510
 8862SOL    HW127485   6.476   0.782   3.444
 8862SOL    HW227486   6.324   0.830   3.477
 8863SOL     OW27487   1.663   5.567   4.369
 8863SOL    HW127488   1.630   5.473   4.358
 8863SOL    HW227489   1.720   5.573   4.451
 8864SOL     OW27490   2.006   2.943   6.486
 8864SOL    HW127491   2.069   2.889   6.431
 8864SOL    HW227492   2.012   3.039   6.459
 8865SOL     OW27493   3.394   1.892   5.619
 8865SOL    HW127494   3.474   1.876   5.560
 8865SOL    HW227495   3.374   1.809   5.670
 8866SOL     OW27496   5.404   6.989   4.094
 8866SOL    HW127497   5.471   6.939   4.040
 8866SOL    HW227498   5.316   6.943   4.089
 8867SOL     OW27499   5.113   3.691   3.128
 8867SOL    HW127500   5.141   3.597   3.150
 8867SOL    HW227501   5.185   3.735   3.075
 8868SOL     OW27502   6.550   3.417   0.691
 8868SOL    HW127503   6.536   3.390   0.786
 8868SOL    HW227504   6.517   3.511   0.678
 8869SOL     OW27505   4.332   5.784   3.980
 8869SOL    HW127506   4.269   5.769   4.056
 8869SOL    HW227507   4.419   5.818   4.015
 8870SOL     OW27508   4.473   0.139   0.618
 8870SOL    HW127509   4.376   0.157   0.638
 8870SOL    HW227510   4.505   0.203   0.548
 8871SOL     OW27511   1.493   1.068   3.844
 8871SOL    HW127512   1.431   1.001   3.803
 8871SOL    HW227513   1.452   1.159   3.839
 8872SOL     OW27514   1.172   4.306   5.168
 8872SOL    HW127515   1.191   4.333   5.262
 8872SOL    HW227516   1.216   4.218   5.149
 8873SOL     OW27517   6.891   4.948   2.018
 8873SOL    HW127518   6.824   4.905   2.077
 8873SOL    HW227519   6.980   4.949   2.063
 8874SOL     OW27520   2.747   6.104   1.474
 8874SOL    HW127521   2.771   6.190   1.518
 8874SOL    HW227522   2.649   6.088   1.483
 8875SOL     OW27523   6.574   3.370   4.794
 8875SOL    HW127524   6.611   3.458   4.825
 8875SOL    HW227525   6.645   3.319   4.747
 8876SOL     OW27526   1.693   0.276   4.378
 8876SOL    HW127527   1.633   0.326   4.316
 8876SOL    HW227528   1.697   0.180   4.350
 8877SOL     OW27529   2.357   1.594   4.143
 8877SOL    HW127530   2.449   1.555   4.150
 8877SOL    HW227531   2.294   1.541   4.201
 8878SOL     OW27532   0.053   5.726   0.867
 8878SOL    HW127533   0.034   5.780   0.949
 8878SOL    HW227534   0.070   5.788   0.790
 8879SOL     OW27535   5.171   4.978   1.382
 8879SOL    HW127536   5.208   4.885   1.384
 8879SOL    HW227537   5.081   4.978   1.339
 8880SOL     OW27538   6.128   5.505   4.391
 8880SOL    HW127539   6.190   5.532   4.317
 8880SOL    HW227540   6.034   5.519   4.361
 8881SOL     OW27541   6.378   6.730   4.881
 8881SOL    HW127542   6.464   6.725   4.932
 8881SOL    HW227543   6.380   6.664   4.806
 8882SOL     OW27544   5.323   1.350   0.644
 8882SOL    HW127545   5.369   1.416   0.704
 8882SOL    HW227546   5.230   1.381   0.626
 8883SOL     OW27547   1.726   0.408   5.560
 8883SOL    HW127548   1.785   0.419   5.480
 8883SOL    HW227549   1.782   0.395   5.641
 8884SOL     OW27550   5.924   4.702   6.326
 8884SOL    HW127551   5.916   4.702   6.425
 8884SOL    HW227552   5.945   4.795   6.294
 8885SOL     OW27553   0.246   3.191   0.773
 8885SOL    HW127554   0.322   3.144   0.729
 8885SOL    HW227555   0.213   3.265   0.714
 8886SOL     OW27556   3.797   6.271   5.265
 8886SOL    HW127557   3.808   6.192   5.326
 8886SOL    HW227558   3.770   6.240   5.174
 8887SOL     OW27559   2.990   1.548   1.686
 8887SOL    HW127560   2.988   1.637   1.731
 8887SOL    HW227561   2.960   1.477   1.750
 8888SOL     OW27562   1.417   1.681   0.895
 8888SOL    HW127563   1.505   1.644   0.865
 8888SOL    HW227564   1.421   1.701   0.993
 8889SOL     OW27565   5.609   6.932   5.417
 8889SOL    HW127566   5.579   6.932   5.322
 8889SOL    HW227567   5.579   7.016   5.462
 8890SOL     OW27568   6.005   5.313   3.800
 8890SOL    HW127569   6.040   5.317   3.707
 8890SOL    HW227570   6.062   5.253   3.856
 8891SOL     OW27571   5.152   3.605   5.406
 8891SOL    HW127572   5.114   3.645   5.489
 8891SOL    HW227573   5.251   3.594   5.416
 8892SOL     OW27574   3.943   5.553   2.845
 8892SOL    HW127575   4.019   5.512   2.894
 8892SOL    HW227576   3.902   5.485   2.784
 8893SOL     OW27577   0.768   0.153   2.655
 8893SOL    HW127578   0.834   0.082   2.631
 8893SOL    HW227579   0.699   0.115   2.716
 8894SOL     OW27580   4.472   2.205   5.729
 8894SOL    HW127581   4.568   2.203   5.704
 8894SOL    HW227582   4.446   2.298   5.754
 8895SOL     OW27583   6.295   1.843   1.431
 8895SOL    HW127584   6.281   1.747   1.408
 8895SOL    HW227585   6.308   1.896   1.348
 8896SOL     OW27586   1.861   2.960   5.192
 8896SOL    HW127587   1.955   2.995   5.193
 8896SOL    HW227588   1.823   2.963   5.285
 8897SOL     OW27589   1.790   2.867   3.473
 8897SOL    HW127590   1.758   2.922   3.551
 8897SOL    HW227591   1.744   2.898   3.390
 8898SOL     OW27592   5.872   3.913   4.504
 8898SOL    HW127593   5.944   3.876   4.563
 8898SOL    HW227594   5.793   3.937   4.560
 8899SOL     OW27595   2.315   4.875   6.809
 8899SOL    HW127596   2.318   4.954   6.871
 8899SOL    HW227597   2.355   4.795   6.855
 8900SOL     OW27598   5.532   2.649   2.241
 8900SOL    HW127599   5.497   2.717   2.305
 8900SOL    HW227600   5.522   2.558   2.281
 8901SOL     OW27601   2.225   1.425   4.314
 8901SOL    HW127602   2.280   1.349   4.349
 8901SOL    HW227603   2.189   1.478   4.390
 8902SOL     OW27604   3.688   6.670   0.134
 8902SOL    HW127605   3.597   6.692   0.169
 8902SOL    HW227606   3.758   6.711   0.194
 8903SOL     OW27607   0.533   1.486   4.692
 8903SOL    HW127608   0.607   1.419   4.683
 8903SOL    HW227609   0.477   1.485   4.609
 8904SOL     OW27610   5.836   5.603   3.758
 8904SOL    HW127611   5.896   5.636   3.685
 8904SOL    HW227612   5.884   5.608   3.845
 8905SOL     OW27613   2.163   3.912   4.362
 8905SOL    HW127614   2.244   3.937   4.414
 8905SOL    HW227615   2.114   3.839   4.409
 8906SOL     OW27616   6.900   6.916   6.925
 8906SOL    HW127617   6.876   6.977   7.000
 8906SOL    HW227618   6.936   6.831   6.962
 8907SOL     OW27619   3.304   2.074   4.356
 8907SOL    HW127620   3.268   1.982   4.371
 8907SOL    HW227621   3.228   2.139   4.347
 8908SOL     OW27622   1.234   3.391   6.792
 8908SOL    HW127623   1.288   3.470   6.762
 8908SOL    HW227624   1.296   3.318   6.823
 8909SOL     OW27625   1.896   0.695   5.529
 8909SOL    HW127626   1.910   0.780   5.581
 8909SOL    HW227627   1.941   0.619   5.576
 8910SOL     OW27628   1.275   2.540   6.263
 8910SOL    HW127629   1.239   2.570   6.351
 8910SOL    HW227630   1.239   2.600   6.191
 8911SOL     OW27631   4.357   2.329   4.831
 8911SOL    HW127632   4.316   2.381   4.906
 8911SOL    HW227633   4.291   2.261   4.799
 8912SOL     OW27634   4.242   2.209   0.918
 8912SOL    HW127635   4.324   2.168   0.958
 8912SOL    HW227636   4.166   2.145   0.924
 8913SOL     OW27637   4.958   5.185   0.015
 8913SOL    HW127638   4.928   5.107   6.982
 8913SOL    HW227639   4.885   5.253   0.020
 8914SOL     OW27640   4.126   1.013   5.023
 8914SOL    HW127641   4.126   1.065   4.937
 8914SOL    HW227642   4.185   1.059   5.090
 8915SOL     OW27643   0.780   2.475   3.461
 8915SOL    HW127644   0.808   2.427   3.544
 8915SOL    HW227645   0.725   2.555   3.485
 8916SOL     OW27646   0.210   3.836   0.419
 8916SOL    HW127647   0.120   3.823   0.378
 8916SOL    HW227648   0.248   3.748   0.446
 8917SOL     OW27649   6.218   4.323   6.374
 8917SOL    HW127650   6.273   4.259   6.320
 8917SOL    HW227651   6.233   4.305   6.471
 8918SOL     OW27652   6.685   3.921   1.191
 8918SOL    HW127653   6.682   3.877   1.281
 8918SOL    HW227654   6.593   3.950   1.165
 8919SOL     OW27655   4.123   3.676   1.229
 8919SOL    HW127656   4.052   3.612   1.199
 8919SOL    HW227657   4.163   3.721   1.149
 8920SOL     OW27658   0.843   6.301   6.410
 8920SOL    HW127659   0.866   6.265   6.501
 8920SOL    HW227660   0.923   6.299   6.352
 8921SOL     OW27661   2.713   2.034   3.028
 8921SOL    HW127662   2.736   2.098   3.101
 8921SOL    HW227663   2.760   2.060   2.944
 8922SOL     OW27664   3.747   5.312   1.468
 8922SOL    HW127665   3.714   5.365   1.390
 8922SOL    HW227666   3.676   5.249   1.498
 8923SOL     OW27667   1.292   3.482   5.918
 8923SOL    HW127668   1.387   3.499   5.945
 8923SOL    HW227669   1.236   3.562   5.940
 8924SOL     OW27670   3.287   5.742   5.679
 8924SOL    HW127671   3.218   5.757   5.608
 8924SOL    HW227672   3.256   5.669   5.741
 8925SOL     OW27673   0.965   1.120   2.755
 8925SOL    HW127674   0.962   1.173   2.840
 8925SOL    HW227675   0.967   1.022   2.777
 8926SOL     OW27676   5.564   4.178   6.496
 8926SOL    HW127677   5.557   4.160   6.594
 8926SOL    HW227678   5.656   4.157   6.464
 8927SOL     OW27679   1.051   1.517   4.340
 8927SOL    HW127680   1.075   1.571   4.259
 8927SOL    HW227681   1.078   1.567   4.422
 8928SOL     OW27682   6.576   0.774   5.791
 8928SOL    HW127683   6.617   0.686   5.815
 8928SOL    HW227684   6.579   0.786   5.692
 8929SOL     OW27685   6.848   3.446   4.098
 8929SOL    HW127686   6.874   3.516   4.164
 8929SOL    HW227687   6.928   3.421   4.043
 8930SOL     OW27688   1.903   4.045   4.461
 8930SOL    HW127689   1.866   3.965   4.415
 8930SOL    HW227690   1.980   4.018   4.519
 8931SOL     OW27691   3.179   2.847   1.417
 8931SOL    HW127692   3.250   2.854   1.486
 8931SOL    HW227693   3.089   2.846   1.460
 8932SOL     OW27694   5.509   0.498   0.185
 8932SOL    HW127695   5.566   0.572   0.220
 8932SOL    HW227696   5.538   0.475   0.092
 8933SOL     OW27697   1.352   2.194   6.395
 8933SOL    HW127698   1.395   2.116   6.441
 8933SOL    HW227699   1.403   2.277   6.416
 8934SOL     OW27700   3.151   5.136   4.390
 8934SOL    HW127701   3.171   5.055   4.335
 8934SOL    HW227702   3.060   5.171   4.368
 8935SOL     OW27703   5.405   3.900   1.704
 8935SOL    HW127704   5.435   3.994   1.694
 8935SOL    HW227705   5.307   3.897   1.721
 8936SOL     OW27706   1.390   3.554   1.221
 8936SOL    HW127707   1.332   3.621   1.266
 8936SOL    HW227708   1.480   3.552   1.265
 8937SOL     OW27709   0.214   0.591   4.580
 8937SOL    HW127710   0.269   0.588   4.663
 8937SOL    HW227711   0.126   0.635   4.600
 8938SOL     OW27712   6.963   0.964   0.248
 8938SOL    HW127713   6.987   1.059   0.226
 8938SOL    HW227714   6.867   0.948   0.225
 8939SOL     OW27715   6.535   3.748   4.195
 8939SOL    HW127716   6.556   3.782   4.104
 8939SOL    HW227717   6.439   3.766   4.216
 8940SOL     OW27718   5.778   1.921   1.316
 8940SOL    HW127719   5.843   1.861   1.363
 8940SOL    HW227720   5.823   1.969   1.241
 8941SOL     OW27721   6.890   2.480   2.470
 8941SOL    HW127722   6.820   2.413   2.496
 8941SOL    HW227723   6.869   2.516   2.379
 8942SOL     OW27724   0.566   6.305   4.373
 8942SOL    HW127725   0.604   6.223   4.415
 8942SOL    HW227726   0.599   6.313   4.279
 8943SOL     OW27727   3.897   5.305   0.401
 8943SOL    HW127728   3.873   5.402   0.401
 8943SOL    HW227729   3.831   5.254   0.346
 8944SOL     OW27730   5.009   5.710   4.633
 8944SOL    HW127731   4.917   5.698   4.595
 8944SOL    HW227732   5.020   5.650   4.712
 8945SOL     OW27733   0.035   2.177   4.474
 8945SOL    HW127734   0.042   2.114   4.397
 8945SOL    HW227735   0.094   2.256   4.458
 8946SOL     OW27736   3.905   0.698   3.926
 8946SOL    HW127737   3.875   0.622   3.869
 8946SOL    HW227738   3.826   0.740   3.970
 8947SOL     OW27739   1.929   3.045   5.701
 8947SOL    HW127740   1.991   3.121   5.715
 8947SOL    HW227741   1.839   3.079   5.674
 8948SOL     OW27742   5.950   5.909   3.729
 8948SOL    HW127743   5.969   5.986   3.669
 8948SOL    HW227744   5.971   5.824   3.682
 8949SOL     OW27745   3.831   5.869   0.549
 8949SOL    HW127746   3.835   5.947   0.611
 8949SOL    HW227747   3.915   5.866   0.494
 8950SOL     OW27748   3.999   3.007   1.155
 8950SOL    HW127749   4.003   2.980   1.251
 8950SOL    HW227750   4.006   2.925   1.097
 8951SOL     OW27751   2.061   0.953   5.146
 8951SOL    HW127752   1.973   1.000   5.134
 8951SOL    HW227753   2.046   0.861   5.181
 8952SOL     OW27754   0.398   5.171   3.440
 8952SOL    HW127755   0.405   5.083   3.487
 8952SOL    HW227756   0.389   5.156   3.342
 8953SOL     OW27757   1.254   4.344   0.964
 8953SOL    HW127758   1.294   4.370   0.876
 8953SOL    HW227759   1.156   4.331   0.953
 8954SOL     OW27760   0.043   0.085   3.885
 8954SOL    HW127761   0.028   0.037   3.798
 8954SOL    HW227762   0.085   0.174   3.867
 8955SOL     OW27763   6.945   4.148   3.308
 8955SOL    HW127764   7.014   4.076   3.302
 8955SOL    HW227765   6.939   4.196   3.220
 8956SOL     OW27766   1.654   0.649   5.968
 8956SOL    HW127767   1.575   0.691   5.922
 8956SOL    HW227768   1.622   0.576   6.028
 8957SOL     OW27769   2.388   4.833   1.216
 8957SOL    HW127770   2.480   4.826   1.179
 8957SOL    HW227771   2.347   4.920   1.187
 8958SOL     OW27772   0.931   2.248   5.644
 8958SOL    HW127773   0.966   2.192   5.569
 8958SOL    HW227774   0.943   2.345   5.623
 8959SOL     OW27775   1.693   4.021   3.073
 8959SOL    HW127776   1.740   3.935   3.094
 8959SOL    HW227777   1.641   4.051   3.153
 8960SOL     OW27778   5.684   5.065   3.983
 8960SOL    HW127779   5.699   5.002   4.058
 8960SOL    HW227780   5.697   5.017   3.896
 8961SOL     OW27781   3.652   1.456   3.783
 8961SOL    HW127782   3.665   1.376   3.724
 8961SOL    HW227783   3.737   1.475   3.832
 8962SOL     OW27784   6.355   5.426   1.508
 8962SOL    HW127785   6.402   5.496   1.561
 8962SOL    HW227786   6.381   5.335   1.541
 8963SOL     OW27787   3.858   6.626   5.115
 8963SOL    HW127788   3.805   6.653   5.034
 8963SOL    HW227789   3.955   6.647   5.100
 8964SOL     OW27790   5.688   3.335   2.855
 8964SOL    HW127791   5.671   3.236   2.849
 8964SOL    HW227792   5.757   3.352   2.924
 8965SOL     OW27793   3.183   5.065   0.034
 8965SOL    HW127794   3.094   5.106   0.052
 8965SOL    HW227795   3.227   5.113   6.980
 8966SOL     OW27796   6.747   4.316   0.265
 8966SOL    HW127797   6.720   4.384   0.197
 8966SOL    HW227798   6.840   4.286   0.248
 8967SOL     OW27799   4.383   1.333   2.485
 8967SOL    HW127800   4.308   1.322   2.420
 8967SOL    HW227801   4.462   1.278   2.456
 8968SOL     OW27802   3.422   5.887   2.526
 8968SOL    HW127803   3.510   5.919   2.490
 8968SOL    HW227804   3.427   5.881   2.626
 8969SOL     OW27805   0.155   0.204   3.406
 8969SOL    HW127806   0.195   0.293   3.430
 8969SOL    HW227807   0.077   0.218   3.345
 8970SOL     OW27808   1.310   2.111   6.702
 8970SOL    HW127809   1.225   2.141   6.660
 8970SOL    HW227810   1.320   2.153   6.792
 8971SOL     OW27811   5.506   6.506   1.368
 8971SOL    HW127812   5.474   6.560   1.446
 8971SOL    HW227813   5.437   6.437   1.345
 8972SOL     OW27814   5.291   3.837   0.704
 8972SOL    HW127815   5.247   3.907   0.761
 8972SOL    HW227816   5.301   3.752   0.756
 8973SOL     OW27817   0.049   2.791   2.393
 8973SOL    HW127818   0.062   2.707   2.342
 8973SOL    HW227819   6.985   2.788   2.444
 8974SOL     OW27820   1.710   3.304   3.996
 8974SOL    HW127821   1.741   3.287   3.902
 8974SOL    HW227822   1.759   3.245   4.059
 8975SOL     OW27823   0.656   5.643   6.693
 8975SOL    HW127824   0.696   5.734   6.703
 8975SOL    HW227825   0.573   5.636   6.748
 8976SOL     OW27826   0.331   5.270   0.466
 8976SOL    HW127827   0.306   5.288   0.371
 8976SOL    HW227828   0.249   5.246   0.519
 8977SOL     OW27829   6.538   3.969   6.689
 8977SOL    HW127830   6.513   4.046   6.748
 8977SOL    HW227831   6.636   3.974   6.667
 8978SOL     OW27832   6.006   0.113   4.941
 8978SOL    HW127833   5.907   0.112   4.933
 8978SOL    HW227834   6.032   0.082   5.033
 8979SOL     OW27835   1.414   5.073   5.762
 8979SOL    HW127836   1.425   5.081   5.663
 8979SOL    HW227837   1.503   5.081   5.806
 8980SOL     OW27838   5.475   2.341   6.123
 8980SOL    HW127839   5.530   2.371   6.045
 8980SOL    HW227840   5.429   2.419   6.164
 8981SOL     OW27841   4.941   2.014   5.463
 8981SOL    HW127842   4.905   2.009   5.370
 8981SOL    HW227843   5.031   2.057   5.462
 8982SOL     OW27844   0.310   1.833   0.811
 8982SOL    HW127845   0.331   1.841   0.908
 8982SOL    HW227846   0.210   1.831   0.798
 8983SOL     OW27847   0.688   5.325   0.754
 8983SOL    HW127848   0.711   5.422   0.751
 8983SOL    HW227849   0.626   5.308   0.831
 8984SOL     OW27850   6.622   6.624   4.296
 8984SOL    HW127851   6.615   6.530   4.331
 8984SOL    HW227852   6.532   6.653   4.263
 8985SOL     OW27853   2.682   1.894   1.756
 8985SOL    HW127854   2.670   1.889   1.657
 8985SOL    HW227855   2.692   1.990   1.784
 8986SOL     OW27856   4.704   5.032   2.801
 8986SOL    HW127857   4.724   5.075   2.713
 8986SOL    HW227858   4.638   4.958   2.787
 8987SOL     OW27859   2.970   0.146   1.226
 8987SOL    HW127860   3.017   0.185   1.305
 8987SOL    HW227861   2.920   0.064   1.254
 8988SOL     OW27862   2.433   4.830   0.368
 8988SOL    HW127863   2.524   4.868   0.384
 8988SOL    HW227864   2.364   4.899   0.391
 8989SOL     OW27865   4.922   3.472   2.448
 8989SOL    HW127866   4.911   3.542   2.377
 8989SOL    HW227867   4.890   3.384   2.414
 8990SOL     OW27868   2.512   5.448   1.612
 8990SOL    HW127869   2.426   5.398   1.598
 8990SOL    HW227870   2.532   5.502   1.531
 8991SOL     OW27871   2.668   1.113   1.401
 8991SOL    HW127872   2.580   1.097   1.356
 8991SOL    HW227873   2.731   1.038   1.380
 8992SOL     OW27874   0.109   2.630   6.678
 8992SOL    HW127875   0.078   2.666   6.589
 8992SOL    HW227876   0.035   2.640   6.745
 8993SOL     OW27877   4.497   2.475   2.684
 8993SOL    HW127878   4.560   2.548   2.711
 8993SOL    HW227879   4.504   2.460   2.586
 8994SOL     OW27880   1.066   6.120   3.905
 8994SOL    HW127881   1.098   6.118   4.000
 8994SOL    HW227882   1.005   6.043   3.888
 8995SOL     OW27883   1.266   1.954   5.796
 8995SOL    HW127884   1.191   2.006   5.837
 8995SOL    HW227885   1.345   2.014   5.782
 8996SOL     OW27886   0.575   4.271   1.591
 8996SOL    HW127887   0.496   4.215   1.566
 8996SOL    HW227888   0.545   4.366   1.605
 8997SOL     OW27889   4.669   1.205   6.800
 8997SOL    HW127890   4.688   1.234   6.894
 8997SOL    HW227891   4.592   1.141   6.801
 8998SOL     OW27892   0.754   1.757   4.473
 8998SOL    HW127893   0.684   1.691   4.446
 8998SOL    HW227894   0.769   1.822   4.399
 8999SOL     OW27895   4.120   0.580   6.946
 8999SOL    HW127896   4.111   0.483   6.928
 8999SOL    HW227897   4.137   0.629   6.861
 9000SOL     OW27898   2.508   3.780   6.637
 9000SOL    HW127899   2.506   3.721   6.718
 9000SOL    HW227900   2.563   3.861   6.656
 9001SOL     OW27901   1.753   5.507   2.796
 9001SOL    HW127902   1.775   5.443   2.869
 9001SOL    HW227903   1.684   5.572   2.828
 9002SOL     OW27904   0.326   5.105   4.971
 9002SOL    HW127905   0.306   5.167   5.046
 9002SOL    HW227906   0.260   5.030   4.972
 9003SOL     OW27907   5.558   3.170   1.395
 9003SOL    HW127908   5.580   3.268   1.390
 9003SOL    HW227909   5.584   3.134   1.485
 9004SOL     OW27910   4.409   6.660   1.722
 9004SOL    HW127911   4.408   6.625   1.816
 9004SOL    HW227912   4.499   6.645   1.682
 9005SOL     OW27913   6.119   1.803   4.358
 9005SOL    HW127914   6.097   1.740   4.283
 9005SOL    HW227915   6.218   1.804   4.372
 9006SOL     OW27916   1.328   6.259   0.826
 9006SOL    HW127917   1.319   6.167   0.787
 9006SOL    HW227918   1.279   6.325   0.770
 9007SOL     OW27919   3.440   5.644   3.677
 9007SOL    HW127920   3.415   5.621   3.771
 9007SOL    HW227921   3.358   5.664   3.624
 9008SOL     OW27922   6.667   5.401   2.844
 9008SOL    HW127923   6.599   5.464   2.880
 9008SOL    HW227924   6.759   5.434   2.868
 9009SOL     OW27925   2.848   6.401   0.513
 9009SOL    HW127926   2.849   6.317   0.459
 9009SOL    HW227927   2.867   6.379   0.609
 9010SOL     OW27928   0.803   0.110   4.806
 9010SOL    HW127929   0.739   0.052   4.755
 9010SOL    HW227930   0.752   0.186   4.848
 9011SOL     OW27931   3.915   1.704   1.353
 9011SOL    HW127932   3.853   1.703   1.431
 9011SOL    HW227933   3.910   1.616   1.305
 9012SOL     OW27934   2.720   5.043   1.287
 9012SOL    HW127935   2.667   5.114   1.241
 9012SOL    HW227936   2.792   5.011   1.226
 9013SOL     OW27937   5.989   5.794   4.768
 9013SOL    HW127938   6.020   5.801   4.863
 9013SOL    HW227939   6.048   5.730   4.718
 9014SOL     OW27940   0.955   1.632   0.539
 9014SOL    HW127941   1.049   1.660   0.558
 9014SOL    HW227942   0.941   1.538   0.572
 9015SOL     OW27943   6.199   0.464   0.670
 9015SOL    HW127944   6.171   0.541   0.727
 9015SOL    HW227945   6.131   0.391   0.677
 9016SOL     OW27946   6.550   6.249   6.433
 9016SOL    HW127947   6.557   6.331   6.377
 9016SOL    HW227948   6.640   6.208   6.444
 9017SOL     OW27949   5.574   2.603   3.089
 9017SOL    HW127950   5.632   2.529   3.123
 9017SOL    HW227951   5.632   2.675   3.051
 9018SOL     OW27952   4.574   1.523   5.629
 9018SOL    HW127953   4.490   1.523   5.682
 9018SOL    HW227954   4.652   1.534   5.690
 9019SOL     OW27955   0.901   6.643   0.786
 9019SOL    HW127956   0.899   6.604   0.879
 9019SOL    HW227957   0.926   6.571   0.721
 9020SOL     OW27958   1.472   3.452   1.990
 9020SOL    HW127959   1.433   3.506   1.915
 9020SOL    HW227960   1.414   3.458   2.071
 9021SOL     OW27961   6.632   0.034   3.801
 9021SOL    HW127962   6.653   7.011   3.715
 9021SOL    HW227963   6.536   0.063   3.801
 9022SOL     OW27964   2.730   0.835   1.395
 9022SOL    HW127965   2.647   0.785   1.420
 9022SOL    HW227966   2.728   0.855   1.297
 9023SOL     OW27967   4.046   3.273   2.833
 9023SOL    HW127968   4.051   3.369   2.861
 9023SOL    HW227969   4.014   3.267   2.738
 9024SOL     OW27970   1.489   5.533   6.277
 9024SOL    HW127971   1.483   5.446   6.326
 9024SOL    HW227972   1.535   5.518   6.190
 9025SOL     OW27973   6.550   5.834   1.142
 9025SOL    HW127974   6.470   5.891   1.163
 9025SOL    HW227975   6.541   5.798   1.049
 9026SOL     OW27976   4.024   3.098   3.244
 9026SOL    HW127977   4.085   3.051   3.180
 9026SOL    HW227978   4.036   3.197   3.235
 9027SOL     OW27979   3.032   1.856   3.637
 9027SOL    HW127980   3.044   1.935   3.576
 9027SOL    HW227981   3.112   1.797   3.631
 9028SOL     OW27982   2.510   4.228   5.833
 9028SOL    HW127983   2.595   4.254   5.880
 9028SOL    HW227984   2.528   4.217   5.736
 9029SOL     OW27985   3.639   5.519   5.161
 9029SOL    HW127986   3.668   5.600   5.213
 9029SOL    HW227987   3.583   5.548   5.083
 9030SOL     OW27988   1.827   1.082   2.905
 9030SOL    HW127989   1.865   1.086   2.812
 9030SOL    HW227990   1.897   1.109   2.971
 9031SOL     OW27991   4.392   5.278   5.642
 9031SOL    HW127992   4.411   5.293   5.739
 9031SOL    HW227993   4.464   5.320   5.587
 9032SOL     OW27994   4.094   2.438   0.886
 9032SOL    HW127995   4.150   2.361   0.917
 9032SOL    HW227996   4.014   2.446   0.944
 9033SOL     OW27997   1.803   3.399   3.750
 9033SOL    HW127998   1.889   3.355   3.725
 9033SOL    HW227999   1.794   3.486   3.701
 9034SOL     OW28000   2.772   6.589   4.819
 9034SOL    HW128001   2.695   6.572   4.880
 9034SOL    HW228002   2.743   6.652   4.747
 9035SOL     OW28003   0.772   6.876   5.260
 9035SOL    HW128004   0.747   6.973   5.251
 9035SOL    HW228005   0.839   6.853   5.190
 9036SOL     OW28006   1.315   1.731   4.357
 9036SOL    HW128007   1.290   1.827   4.347
 9036SOL    HW228008   1.267   1.692   4.436
 9037SOL     OW28009   1.447   4.317   6.690
 9037SOL    HW128010   1.428   4.250   6.619
 9037SOL    HW228011   1.407   4.405   6.665
 9038SOL     OW28012   4.699   0.564   5.207
 9038SOL    HW128013   4.625   0.518   5.257
 9038SOL    HW228014   4.661   0.612   5.128
 9039SOL     OW28015   1.383   4.400   4.490
 9039SOL    HW128016   1.340   4.448   4.567
 9039SOL    HW228017   1.483   4.410   4.497
 9040SOL     OW28018   2.785   1.485   3.109
 9040SOL    HW128019   2.720   1.467   3.035
 9040SOL    HW228020   2.877   1.494   3.071
 9041SOL     OW28021   0.989   1.598   1.903
 9041SOL    HW128022   0.996   1.647   1.817
 9041SOL    HW228023   0.990   1.664   1.979
 9042SOL     OW28024   3.063   5.720   4.038
 9042SOL    HW128025   2.997   5.761   4.101
 9042SOL    HW228026   3.053   5.761   3.948
 9043SOL     OW28027   2.112   0.890   5.520
 9043SOL    HW128028   2.204   0.854   5.503
 9043SOL    HW228029   2.048   0.852   5.453
 9044SOL     OW28030   6.272   1.588   1.339
 9044SOL    HW128031   6.208   1.521   1.302
 9044SOL    HW228032   6.352   1.541   1.376
 9045SOL     OW28033   3.469   1.832   2.191
 9045SOL    HW128034   3.484   1.926   2.164
 9045SOL    HW228035   3.383   1.825   2.243
 9046SOL     OW28036   3.318   3.676   4.288
 9046SOL    HW128037   3.230   3.630   4.302
 9046SOL    HW228038   3.392   3.609   4.293
 9047SOL     OW28039   1.672   3.160   5.627
 9047SOL    HW128040   1.710   3.252   5.622
 9047SOL    HW228041   1.626   3.148   5.715
 9048SOL     OW28042   6.337   3.379   6.119
 9048SOL    HW128043   6.258   3.332   6.080
 9048SOL    HW228044   6.421   3.335   6.086
 9049SOL     OW28045   4.437   6.640   6.538
 9049SOL    HW128046   4.507   6.585   6.583
 9049SOL    HW228047   4.433   6.730   6.581
 9050SOL     OW28048   0.599   5.535   5.526
 9050SOL    HW128049   0.680   5.477   5.529
 9050SOL    HW228050   0.626   5.630   5.510
 9051SOL     OW28051   4.599   6.264   1.287
 9051SOL    HW128052   4.553   6.342   1.329
 9051SOL    HW228053   4.568   6.254   1.193
 9052SOL     OW28054   2.176   3.850   4.097
 9052SOL    HW128055   2.113   3.773   4.093
 9052SOL    HW228056   2.172   3.891   4.188
 9053SOL     OW28057   2.321   1.977   3.349
 9053SOL    HW128058   2.405   2.021   3.381
 9053SOL    HW228059   2.321   1.881   3.379
 9054SOL     OW28060   1.488   0.340   2.262
 9054SOL    HW128061   1.476   0.315   2.166
 9054SOL    HW228062   1.564   0.404   2.270
 9055SOL     OW28063   0.213   3.781   3.607
 9055SOL    HW128064   0.149   3.804   3.533
 9055SOL    HW228065   0.241   3.685   3.597
 9056SOL     OW28066   5.179   0.272   2.233
 9056SOL    HW128067   5.182   0.365   2.198
 9056SOL    HW228068   5.099   0.225   2.197
 9057SOL     OW28069   5.773   5.281   5.787
 9057SOL    HW128070   5.818   5.193   5.766
 9057SOL    HW228071   5.674   5.268   5.789
 9058SOL     OW28072   2.402   1.238   3.733
 9058SOL    HW128073   2.444   1.175   3.668
 9058SOL    HW228074   2.451   1.233   3.820
 9059SOL     OW28075   6.921   1.109   4.134
 9059SOL    HW128076   7.009   1.066   4.113
 9059SOL    HW228077   6.936   1.193   4.185
 9060SOL     OW28078   0.152   4.156   1.974
 9060SOL    HW128079   0.118   4.246   1.948
 9060SOL    HW228080   0.091   4.085   1.938
 9061SOL     OW28081   4.344   5.765   2.386
 9061SOL    HW128082   4.252   5.805   2.392
 9061SOL    HW228083   4.377   5.743   2.478
 9062SOL     OW28084   1.474   4.780   2.393
 9062SOL    HW128085   1.519   4.691   2.385
 9062SOL    HW228086   1.375   4.767   2.402
 9063SOL     OW28087   2.309   0.506   2.532
 9063SOL    HW128088   2.315   0.536   2.628
 9063SOL    HW228089   2.297   0.585   2.473
 9064SOL     OW28090   6.317   4.537   4.480
 9064SOL    HW128091   6.383   4.474   4.440
 9064SOL    HW228092   6.226   4.496   4.478
 9065SOL     OW28093   3.333   5.445   6.682
 9065SOL    HW128094   3.377   5.534   6.676
 9065SOL    HW228095   3.398   5.374   6.654
 9066SOL     OW28096   5.751   0.647   6.975
 9066SOL    HW128097   5.688   0.711   7.019
 9066SOL    HW228098   5.719   0.553   6.990
 9067SOL     OW28099   5.854   6.790   5.411
 9067SOL    HW128100   5.768   6.841   5.406
 9067SOL    HW228101   5.889   6.775   5.318
 9068SOL     OW28102   3.275   0.588   5.028
 9068SOL    HW128103   3.203   0.649   5.061
 9068SOL    HW228104   3.271   0.583   4.929
 9069SOL     OW28105   3.544   1.994   1.886
 9069SOL    HW128106   3.583   2.086   1.893
 9069SOL    HW228107   3.597   1.940   1.821
 9070SOL     OW28108   0.621   2.927   5.760
 9070SOL    HW128109   0.575   2.839   5.761
 9070SOL    HW228110   0.575   2.988   5.695
 9071SOL     OW28111   5.323   6.553   1.092
 9071SOL    HW128112   5.240   6.521   1.045
 9071SOL    HW228113   5.395   6.571   1.025
 9072SOL     OW28114   5.234   0.417   1.800
 9072SOL    HW128115   5.153   0.469   1.829
 9072SOL    HW228116   5.210   0.321   1.789
 9073SOL     OW28117   3.703   6.748   1.335
 9073SOL    HW128118   3.656   6.776   1.252
 9073SOL    HW228119   3.720   6.827   1.393
 9074SOL     OW28120   1.662   0.960   0.933
 9074SOL    HW128121   1.662   0.963   1.033
 9074SOL    HW228122   1.727   1.027   0.897
 9075SOL     OW28123   0.669   6.996   1.483
 9075SOL    HW128124   0.645   6.903   1.510
 9075SOL    HW228125   0.631   7.016   1.393
 9076SOL     OW28126   5.486   1.342   4.929
 9076SOL    HW128127   5.422   1.419   4.926
 9076SOL    HW228128   5.473   1.285   4.848
 9077SOL     OW28129   5.123   1.153   6.955
 9077SOL    HW128130   5.064   1.124   6.880
 9077SOL    HW228131   5.073   1.215   7.015
 9078SOL     OW28132   4.907   3.470   0.456
 9078SOL    HW128133   4.975   3.480   0.528
 9078SOL    HW228134   4.949   3.425   0.377
 9079SOL     OW28135   1.570   6.329   3.816
 9079SOL    HW128136   1.591   6.298   3.723
 9079SOL    HW228137   1.519   6.258   3.865
 9080SOL     OW28138   5.765   2.604   6.314
 9080SOL    HW128139   5.830   2.619   6.240
 9080SOL    HW228140   5.773   2.678   6.381
 9081SOL     OW28141   3.158   6.884   2.244
 9081SOL    HW128142   3.232   6.887   2.311
 9081SOL    HW228143   3.088   6.951   2.268
 9082SOL     OW28144   2.391   6.079   6.141
 9082SOL    HW128145   2.354   6.027   6.064
 9082SOL    HW228146   2.485   6.050   6.159
 9083SOL     OW28147   3.693   4.366   5.533
 9083SOL    HW128148   3.605   4.323   5.553
 9083SOL    HW228149   3.767   4.310   5.570
 9084SOL     OW28150   1.929   2.711   6.102
 9084SOL    HW128151   1.908   2.626   6.053
 9084SOL    HW228152   1.949   2.784   6.036
 9085SOL     OW28153   1.758   5.333   0.866
 9085SOL    HW128154   1.694   5.409   0.855
 9085SOL    HW228155   1.716   5.248   0.834
 9086SOL     OW28156   6.743   4.347   1.043
 9086SOL    HW128157   6.686   4.312   0.969
 9086SOL    HW228158   6.839   4.345   1.014
 9087SOL     OW28159   4.948   3.163   1.893
 9087SOL    HW128160   4.872   3.109   1.929
 9087SOL    HW228161   4.915   3.254   1.867
 9088SOL     OW28162   6.738   5.916   0.905
 9088SOL    HW128163   6.743   6.014   0.885
 9088SOL    HW228164   6.786   5.896   0.989
 9089SOL     OW28165   4.136   6.047   5.591
 9089SOL    HW128166   4.075   5.996   5.651
 9089SOL    HW228167   4.093   6.133   5.565
 9090SOL     OW28168   6.247   0.096   3.571
 9090SOL    HW128169   6.253   0.189   3.535
 9090SOL    HW228170   6.226   0.033   3.496
 9091SOL     OW28171   2.793   3.630   0.472
 9091SOL    HW128172   2.779   3.673   0.562
 9091SOL    HW228173   2.712   3.578   0.448
 9092SOL     OW28174   0.145   1.535   0.384
 9092SOL    HW128175   0.243   1.512   0.384
 9092SOL    HW228176   0.104   1.500   0.468
 9093SOL     OW28177   1.444   6.001   6.643
 9093SOL    HW128178   1.490   5.978   6.557
 9093SOL    HW228179   1.387   6.082   6.629
 9094SOL     OW28180   0.167   4.996   3.091
 9094SOL    HW128181   0.132   4.919   3.144
 9094SOL    HW228182   0.090   5.049   3.054
 9095SOL     OW28183   4.082   3.511   6.290
 9095SOL    HW128184   4.044   3.504   6.382
 9095SOL    HW228185   4.095   3.419   6.252
 9096SOL     OW28186   5.539   3.962   1.952
 9096SOL    HW128187   5.638   3.954   1.957
 9096SOL    HW228188   5.502   3.896   1.887
 9097SOL     OW28189   1.215   2.503   6.544
 9097SOL    HW128190   1.261   2.414   6.535
 9097SOL    HW228191   1.235   2.542   6.633
 9098SOL     OW28192   4.136   2.484   6.955
 9098SOL    HW128193   4.129   2.405   7.015
 9098SOL    HW228194   4.059   2.546   6.971
 9099SOL     OW28195   3.587   3.321   0.055
 9099SOL    HW128196   3.538   3.387   7.020
 9099SOL    HW228197   3.650   3.370   0.116
 9100SOL     OW28198   0.920   3.220   3.656
 9100SOL    HW128199   0.898   3.258   3.566
 9100SOL    HW228200   1.019   3.213   3.666
 9101SOL     OW28201   2.640   2.462   3.118
 9101SOL    HW128202   2.577   2.518   3.172
 9101SOL    HW228203   2.677   2.388   3.176
 9102SOL     OW28204   2.449   0.010   1.991
 9102SOL    HW128205   2.527   0.053   2.037
 9102SOL    HW228206   2.426   0.062   1.908
 9103SOL     OW28207   6.442   3.431   0.299
 9103SOL    HW128208   6.485   3.520   0.279
 9103SOL    HW228209   6.353   3.446   0.342
 9104SOL     OW28210   5.724   6.628   2.992
 9104SOL    HW128211   5.785   6.605   3.068
 9104SOL    HW228212   5.723   6.727   2.978
 9105SOL     OW28213   2.018   1.480   0.777
 9105SOL    HW128214   2.042   1.479   0.874
 9105SOL    HW228215   1.940   1.542   0.763
 9106SOL     OW28216   6.484   3.950   0.189
 9106SOL    HW128217   6.473   4.049   0.195
 9106SOL    HW228218   6.556   3.921   0.253
 9107SOL     OW28219   3.239   0.867   6.263
 9107SOL    HW128220   3.286   0.836   6.345
 9107SOL    HW228221   3.305   0.907   6.199
 9108SOL     OW28222   4.975   3.990   5.517
 9108SOL    HW128223   5.061   3.948   5.548
 9108SOL    HW228224   4.936   3.934   5.444
 9109SOL     OW28225   0.486   2.621   2.458
 9109SOL    HW128226   0.451   2.547   2.401
 9109SOL    HW228227   0.444   2.617   2.549
 9110SOL     OW28228   1.727   3.918   3.737
 9110SOL    HW128229   1.765   3.980   3.668
 9110SOL    HW228230   1.734   3.824   3.703
 9111SOL     OW28231   4.195   1.945   0.710
 9111SOL    HW128232   4.162   1.949   0.616
 9111SOL    HW228233   4.125   1.981   0.772
 9112SOL     OW28234   0.677   4.689   4.606
 9112SOL    HW128235   0.653   4.785   4.611
 9112SOL    HW228236   0.641   4.641   4.686
 9113SOL     OW28237   4.716   1.025   2.105
 9113SOL    HW128238   4.737   0.930   2.081
 9113SOL    HW228239   4.777   1.086   2.053
 9114SOL     OW28240   0.916   4.140   1.949
 9114SOL    HW128241   0.956   4.191   1.873
 9114SOL    HW228242   0.827   4.179   1.972
 9115SOL     OW28243   0.174   4.862   5.362
 9115SOL    HW128244   0.098   4.800   5.346
 9115SOL    HW228245   0.171   4.937   5.296
 9116SOL     OW28246   6.464   1.043   1.044
 9116SOL    HW128247   6.562   1.030   1.056
 9116SOL    HW228248   6.440   1.028   0.948
 9117SOL     OW28249   6.337   2.650   6.844
 9117SOL    HW128250   6.380   2.737   6.871
 9117SOL    HW228251   6.404   2.576   6.850
 9118SOL     OW28252   6.493   4.228   0.224
 9118SOL    HW128253   6.448   4.290   0.288
 9118SOL    HW228254   6.592   4.235   0.235
 9119SOL     OW28255   4.789   1.124   1.483
 9119SOL    HW128256   4.777   1.034   1.440
 9119SOL    HW228257   4.727   1.189   1.441
 9120SOL     OW28258   6.114   1.572   5.920
 9120SOL    HW128259   6.180   1.519   5.973
 9120SOL    HW228260   6.134   1.670   5.929
 9121SOL     OW28261   2.773   1.673   5.194
 9121SOL    HW128262   2.801   1.743   5.259
 9121SOL    HW228263   2.817   1.690   5.106
 9122SOL     OW28264   1.687   4.122   2.562
 9122SOL    HW128265   1.709   4.192   2.630
 9122SOL    HW228266   1.645   4.166   2.482
 9123SOL     OW28267   2.417   0.580   4.291
 9123SOL    HW128268   2.352   0.576   4.215
 9123SOL    HW228269   2.367   0.585   4.378
 9124SOL     OW28270   5.813   6.443   0.059
 9124SOL    HW128271   5.852   6.353   0.038
 9124SOL    HW228272   5.714   6.434   0.071
 9125SOL     OW28273   4.818   4.119   1.068
 9125SOL    HW128274   4.796   4.024   1.047
 9125SOL    HW228275   4.756   4.153   1.138
 9126SOL     OW28276   5.843   3.198   1.967
 9126SOL    HW128277   5.744   3.208   1.978
 9126SOL    HW228278   5.861   3.130   1.896
 9127SOL     OW28279   6.593   1.307   6.067
 9127SOL    HW128280   6.502   1.343   6.046
 9127SOL    HW228281   6.587   1.247   6.147
 9128SOL     OW28282   5.808   1.443   5.356
 9128SOL    HW128283   5.841   1.537   5.363
 9128SOL    HW228284   5.767   1.428   5.266
 9129SOL     OW28285   0.663   2.172   0.630
 9129SOL    HW128286   0.752   2.129   0.619
 9129SOL    HW228287   0.674   2.263   0.670
 9130SOL     OW28288   6.842   3.448   6.604
 9130SOL    HW128289   6.833   3.463   6.505
 9130SOL    HW228290   6.937   3.427   6.625
 9131SOL     OW28291   6.383   2.559   5.047
 9131SOL    HW128292   6.428   2.472   5.070
 9131SOL    HW228293   6.452   2.626   5.019
 9132SOL     OW28294   0.423   5.336   4.240
 9132SOL    HW128295   0.383   5.245   4.242
 9132SOL    HW228296   0.350   5.405   4.237
 9133SOL     OW28297   3.903   5.770   1.529
 9133SOL    HW128298   3.870   5.857   1.565
 9133SOL    HW228299   3.846   5.696   1.566
 9134SOL     OW28300   4.594   5.474   0.964
 9134SOL    HW128301   4.635   5.544   0.905
 9134SOL    HW228302   4.610   5.498   1.059
 9135SOL     OW28303   6.645   6.948   1.962
 9135SOL    HW128304   6.719   6.887   1.990
 9135SOL    HW228305   6.591   6.975   2.042
 9136SOL     OW28306   5.077   5.692   6.525
 9136SOL    HW128307   5.148   5.654   6.465
 9136SOL    HW228308   5.106   5.782   6.557
 9137SOL     OW28309   5.710   1.341   0.701
 9137SOL    HW128310   5.702   1.394   0.616
 9137SOL    HW228311   5.632   1.280   0.710
 9138SOL     OW28312   0.372   5.325   6.497
 9138SOL    HW128313   0.345   5.408   6.546
 9138SOL    HW228314   0.471   5.325   6.482
 9139SOL     OW28315   2.886   1.623   3.543
 9139SOL    HW128316   2.956   1.686   3.576
 9139SOL    HW228317   2.924   1.531   3.535
 9140SOL     OW28318   6.616   3.464   2.652
 9140SOL    HW128319   6.555   3.386   2.660
 9140SOL    HW228320   6.573   3.534   2.595
 9141SOL     OW28321   5.693   0.654   0.770
 9141SOL    HW128322   5.718   0.603   0.852
 9141SOL    HW228323   5.756   0.731   0.758
 9142SOL     OW28324   0.590   2.396   0.825
 9142SOL    HW128325   0.491   2.397   0.837
 9142SOL    HW228326   0.622   2.489   0.804
 9143SOL     OW28327   6.045   3.637   6.605
 9143SOL    HW128328   5.947   3.638   6.628
 9143SOL    HW228329   6.098   3.608   6.685
 9144SOL     OW28330   2.269   5.011   4.466
 9144SOL    HW128331   2.301   5.098   4.427
 9144SOL    HW228332   2.309   4.998   4.557
 9145SOL     OW28333   0.152   5.543   0.134
 9145SOL    HW128334   0.209   5.619   0.104
 9145SOL    HW228335   0.196   5.456   0.110
 9146SOL     OW28336   5.407   2.739   3.457
 9146SOL    HW128337   5.360   2.796   3.524
 9146SOL    HW228338   5.383   2.769   3.365
 9147SOL     OW28339   6.229   0.418   5.037
 9147SOL    HW128340   6.277   0.453   5.117
 9147SOL    HW228341   6.131   0.437   5.045
 9148SOL     OW28342   5.087   5.994   1.464
 9148SOL    HW128343   5.149   6.051   1.518
 9148SOL    HW228344   5.100   6.014   1.367
 9149SOL     OW28345   6.044   3.782   3.337
 9149SOL    HW128346   6.041   3.713   3.409
 9149SOL    HW228347   6.115   3.849   3.357
 9150SOL     OW28348   3.262   5.776   1.431
 9150SOL    HW128349   3.278   5.869   1.398
 9150SOL    HW228350   3.311   5.711   1.373
 9151SOL     OW28351   1.902   4.228   3.443
 9151SOL    HW128352   1.968   4.206   3.372
 9151SOL    HW228353   1.943   4.291   3.509
 9152SOL     OW28354   2.132   4.009   4.663
 9152SOL    HW128355   2.203   4.071   4.631
 9152SOL    HW228356   2.170   3.946   4.730
 9153SOL     OW28357   1.263   3.141   6.259
 9153SOL    HW128358   1.198   3.083   6.210
 9153SOL    HW228359   1.273   3.108   6.353
 9154SOL     OW28360   4.664   4.607   0.288
 9154SOL    HW128361   4.702   4.528   0.240
 9154SOL    HW228362   4.717   4.688   0.264
 9155SOL     OW28363   1.785   3.489   2.374
 9155SOL    HW128364   1.879   3.514   2.397
 9155SOL    HW228365   1.749   3.427   2.443
 9156SOL     OW28366   1.049   2.158   6.677
 9156SOL    HW128367   1.020   2.120   6.765
 9156SOL    HW228368   0.968   2.183   6.623
 9157SOL     OW28369   1.070   4.306   6.096
 9157SOL    HW128370   1.098   4.355   6.014
 9157SOL    HW228371   1.147   4.301   6.160
 9158SOL     OW28372   5.365   3.545   4.330
 9158SOL    HW128373   5.422   3.591   4.398
 9158SOL    HW228374   5.408   3.459   4.302
 9159SOL     OW28375   1.924   0.787   1.775
 9159SOL    HW128376   1.976   0.870   1.795
 9159SOL    HW228377   1.836   0.812   1.733
 9160SOL     OW28378   6.295   6.294   5.296
 9160SOL    HW128379   6.355   6.374   5.285
 9160SOL    HW228380   6.208   6.323   5.335
 9161SOL     OW28381   5.333   4.306   4.145
 9161SOL    HW128382   5.273   4.386   4.143
 9161SOL    HW228383   5.284   4.226   4.112
 9162SOL     OW28384   3.939   1.104   3.680
 9162SOL    HW128385   4.020   1.163   3.674
 9162SOL    HW228386   3.961   1.021   3.731
 9163SOL     OW28387   1.348   2.407   4.990
 9163SOL    HW128388   1.300   2.495   4.997
 9163SOL    HW228389   1.309   2.353   4.915
 9164SOL     OW28390   2.848   0.099   6.542
 9164SOL    HW128391   2.795   0.184   6.542
 9164SOL    HW228392   2.941   0.117   6.573
 9165SOL     OW28393   6.349   1.378   5.064
 9165SOL    HW128394   6.294   1.441   5.118
 9165SOL    HW228395   6.375   1.421   4.978
 9166SOL     OW28396   4.122   5.924   1.749
 9166SOL    HW128397   4.116   5.937   1.650
 9166SOL    HW228398   4.176   5.842   1.768
 9167SOL     OW28399   2.033   2.342   6.075
 9167SOL    HW128400   2.000   2.317   6.166
 9167SOL    HW228401   2.099   2.274   6.043
 9168SOL     OW28402   0.127   6.603   6.181
 9168SOL    HW128403   0.208   6.557   6.216
 9168SOL    HW228404   0.066   6.535   6.139
 9169SOL     OW28405   6.270   0.285   6.254
 9169SOL    HW128406   6.328   0.274   6.174
 9169SOL    HW228407   6.268   0.200   6.307
 9170SOL     OW28408   1.361   6.724   6.947
 9170SOL    HW128409   1.299   6.673   6.887
 9170SOL    HW228410   1.349   6.694   0.019
 9171SOL     OW28411   4.310   5.101   0.743
 9171SOL    HW128412   4.403   5.075   0.715
 9171SOL    HW228413   4.299   5.085   0.841
 9172SOL     OW28414   4.935   0.811   2.858
 9172SOL    HW128415   4.949   0.744   2.931
 9172SOL    HW228416   4.839   0.809   2.829
 9173SOL     OW28417   6.127   4.057   5.964
 9173SOL    HW128418   6.122   3.957   5.959
 9173SOL    HW228419   6.072   4.098   5.891
 9174SOL     OW28420   6.478   4.462   1.471
 9174SOL    HW128421   6.500   4.411   1.388
 9174SOL    HW228422   6.547   4.532   1.486
 9175SOL     OW28423   0.819   6.607   6.119
 9175SOL    HW128424   0.811   6.516   6.159
 9175SOL    HW228425   0.782   6.675   6.182
 9176SOL     OW28426   1.986   0.480   3.099
 9176SOL    HW128427   2.052   0.552   3.119
 9176SOL    HW228428   1.984   0.464   3.000
 9177SOL     OW28429   1.086   5.046   4.350
 9177SOL    HW128430   1.087   4.999   4.438
 9177SOL    HW228431   1.035   4.992   4.283
 9178SOL     OW28432   1.974   5.397   0.707
 9178SOL    HW128433   1.905   5.375   0.777
 9178SOL    HW228434   2.061   5.418   0.752
 9179SOL     OW28435   1.848   5.136   3.548
 9179SOL    HW128436   1.772   5.161   3.608
 9179SOL    HW228437   1.817   5.068   3.482
 9180SOL     OW28438   6.545   2.851   3.575
 9180SOL    HW128439   6.543   2.752   3.562
 9180SOL    HW228440   6.631   2.878   3.617
 9181SOL     OW28441   6.130   2.735   4.439
 9181SOL    HW128442   6.057   2.686   4.390
 9181SOL    HW228443   6.162   2.811   4.382
 9182SOL     OW28444   2.226   6.609   3.155
 9182SOL    HW128445   2.200   6.561   3.240
 9182SOL    HW228446   2.287   6.551   3.102
 9183SOL     OW28447   4.393   4.778   0.323
 9183SOL    HW128448   4.385   4.768   0.224
 9183SOL    HW228449   4.486   4.756   0.352
 9184SOL     OW28450   4.603   2.297   0.952
 9184SOL    HW128451   4.551   2.377   0.982
 9184SOL    HW228452   4.555   2.213   0.979
 9185SOL     OW28453   4.779   6.552   5.033
 9185SOL    HW128454   4.857   6.583   5.087
 9185SOL    HW228455   4.732   6.632   4.994
 9186SOL     OW28456   5.856   6.688   4.910
 9186SOL    HW128457   5.947   6.661   4.877
 9186SOL    HW228458   5.796   6.608   4.913
 9187SOL     OW28459   3.380   1.677   0.817
 9187SOL    HW128460   3.298   1.708   0.768
 9187SOL    HW228461   3.448   1.750   0.815
 9188SOL     OW28462   1.739   0.070   1.687
 9188SOL    HW128463   1.691   0.116   1.613
 9188SOL    HW228464   1.710   0.108   1.775
 9189SOL     OW28465   2.890   5.676   2.202
 9189SOL    HW128466   2.862   5.592   2.248
 9189SOL    HW228467   2.814   5.740   2.200
 9190SOL     OW28468   1.795   3.877   5.283
 9190SOL    HW128469   1.710   3.927   5.270
 9190SOL    HW228470   1.836   3.858   5.194
 9191SOL     OW28471   5.668   1.293   0.237
 9191SOL    HW128472   5.685   1.391   0.224
 9191SOL    HW228473   5.605   1.261   0.166
 9192SOL     OW28474   0.207   2.259   6.192
 9192SOL    HW128475   0.114   2.233   6.165
 9192SOL    HW228476   0.229   2.216   6.280
 9193SOL     OW28477   3.822   3.598   5.359
 9193SOL    HW128478   3.762   3.669   5.321
 9193SOL    HW228479   3.827   3.521   5.296
 9194SOL     OW28480   3.367   1.400   3.195
 9194SOL    HW128481   3.413   1.469   3.139
 9194SOL    HW228482   3.431   1.363   3.262
 9195SOL     OW28483   0.775   3.131   2.188
 9195SOL    HW128484   0.705   3.105   2.255
 9195SOL    HW228485   0.858   3.077   2.203
 9196SOL     OW28486   5.820   0.416   3.644
 9196SOL    HW128487   5.806   0.319   3.626
 9196SOL    HW228488   5.868   0.457   3.566
 9197SOL     OW28489   2.895   4.922   1.503
 9197SOL    HW128490   2.833   4.930   1.425
 9197SOL    HW228491   2.941   4.833   1.500
 9198SOL     OW28492   6.051   4.450   6.610
 9198SOL    HW128493   5.998   4.383   6.557
 9198SOL    HW228494   5.997   4.533   6.622
 9199SOL     OW28495   6.876   3.353   5.267
 9199SOL    HW128496   6.891   3.255   5.260
 9199SOL    HW228497   6.951   3.395   5.318
 9200SOL     OW28498   3.074   6.188   6.939
 9200SOL    HW128499   3.134   6.118   6.902
 9200SOL    HW228500   3.086   6.273   6.888
 9201SOL     OW28501   0.054   3.505   0.180
 9201SOL    HW128502   0.073   3.406   0.179
 9201SOL    HW228503   6.980   3.520   0.200
 9202SOL     OW28504   0.772   6.295   3.309
 9202SOL    HW128505   0.844   6.228   3.291
 9202SOL    HW228506   0.788   6.340   3.396
 9203SOL     OW28507   6.508   3.058   5.895
 9203SOL    HW128508   6.424   3.046   5.843
 9203SOL    HW228509   6.504   3.144   5.946
 9204SOL     OW28510   4.809   2.996   4.956
 9204SOL    HW128511   4.800   3.054   5.037
 9204SOL    HW228512   4.801   3.053   4.874
 9205SOL     OW28513   5.354   5.817   3.614
 9205SOL    HW128514   5.402   5.803   3.700
 9205SOL    HW228515   5.416   5.799   3.538
 9206SOL     OW28516   3.207   5.195   3.626
 9206SOL    HW128517   3.167   5.277   3.586
 9206SOL    HW228518   3.148   5.162   3.700
 9207SOL     OW28519   4.775   4.283   6.723
 9207SOL    HW128520   4.845   4.321   6.783
 9207SOL    HW228521   4.688   4.276   6.773
 9208SOL     OW28522   5.698   4.661   3.513
 9208SOL    HW128523   5.643   4.671   3.596
 9208SOL    HW228524   5.684   4.569   3.476
 9209SOL     OW28525   4.751   0.892   0.463
 9209SOL    HW128526   4.729   0.985   0.491
 9209SOL    HW228527   4.749   0.886   0.364
 9210SOL     OW28528   1.144   2.000   1.723
 9210SOL    HW128529   1.210   2.057   1.673
 9210SOL    HW228530   1.059   2.052   1.736
 9211SOL     OW28531   6.139   2.765   5.821
 9211SOL    HW128532   6.049   2.727   5.802
 9211SOL    HW228533   6.184   2.791   5.735
 9212SOL     OW28534   4.422   5.870   4.281
 9212SOL    HW128535   4.465   5.891   4.369
 9212SOL    HW228536   4.343   5.811   4.297
 9213SOL     OW28537   5.272   4.621   4.905
 9213SOL    HW128538   5.344   4.689   4.906
 9213SOL    HW228539   5.299   4.543   4.962
 9214SOL     OW28540   6.737   3.522   5.561
 9214SOL    HW128541   6.746   3.619   5.538
 9214SOL    HW228542   6.663   3.482   5.507
 9215SOL     OW28543   2.003   3.303   2.054
 9215SOL    HW128544   1.930   3.369   2.032
 9215SOL    HW228545   2.088   3.353   2.071
 9216SOL     OW28546   2.594   0.344   3.609
 9216SOL    HW128547   2.683   0.322   3.649
 9216SOL    HW228548   2.524   0.283   3.648
 9217SOL     OW28549   6.156   3.508   6.293
 9217SOL    HW128550   6.126   3.465   6.378
 9217SOL    HW228551   6.227   3.451   6.250
 9218SOL     OW28552   2.503   0.911   0.132
 9218SOL    HW128553   2.563   0.942   0.059
 9218SOL    HW228554   2.426   0.975   0.142
 9219SOL     OW28555   5.426   3.873   6.337
 9219SOL    HW128556   5.406   3.918   6.423
 9219SOL    HW228557   5.342   3.859   6.285
 9220SOL     OW28558   0.732   5.999   1.692
 9220SOL    HW128559   0.764   6.051   1.613
 9220SOL    HW228560   0.797   6.008   1.767
 9221SOL     OW28561   1.594   0.962   2.930
 9221SOL    HW128562   1.678   1.014   2.911
 9221SOL    HW228563   1.615   0.865   2.929
 9222SOL     OW28564   2.325   5.581   6.038
 9222SOL    HW128565   2.352   5.499   6.090
 9222SOL    HW228566   2.322   5.559   5.940
 9223SOL     OW28567   1.284   2.127   4.123
 9223SOL    HW128568   1.296   2.068   4.204
 9223SOL    HW228569   1.197   2.107   4.079
 9224SOL     OW28570   0.951   5.489   4.360
 9224SOL    HW128571   0.877   5.547   4.395
 9224SOL    HW228572   0.917   5.396   4.346
 9225SOL     OW28573   3.542   5.889   6.283
 9225SOL    HW128574   3.479   5.967   6.277
 9225SOL    HW228575   3.627   5.918   6.327
 9226SOL     OW28576   6.716   6.372   1.054
 9226SOL    HW128577   6.695   6.368   1.151
 9226SOL    HW228578   6.701   6.465   1.020
 9227SOL     OW28579   1.868   5.933   1.411
 9227SOL    HW128580   1.959   5.973   1.408
 9227SOL    HW228581   1.820   5.965   1.493
 9228SOL     OW28582   2.778   1.376   6.173
 9228SOL    HW128583   2.801   1.409   6.081
 9228SOL    HW228584   2.853   1.320   6.207
 9229SOL     OW28585   1.209   5.575   5.115
 9229SOL    HW128586   1.150   5.582   5.195
 9229SOL    HW228587   1.267   5.494   5.122
 9230SOL     OW28588   5.304   2.901   3.658
 9230SOL    HW128589   5.225   2.890   3.718
 9230SOL    HW228590   5.328   2.998   3.653
 9231SOL     OW28591   1.085   3.099   4.726
 9231SOL    HW128592   1.176   3.103   4.686
 9231SOL    HW228593   1.059   3.189   4.761
 9232SOL     OW28594   3.713   5.516   6.871
 9232SOL    HW128595   3.726   5.434   6.927
 9232SOL    HW228596   3.716   5.490   6.774
 9233SOL     OW28597   6.105   6.232   2.207
 9233SOL    HW128598   6.140   6.159   2.148
 9233SOL    HW228599   6.048   6.192   2.279
 9234SOL     OW28600   4.018   5.438   6.700
 9234SOL    HW128601   4.084   5.397   6.637
 9234SOL    HW228602   3.925   5.422   6.668
 9235SOL     OW28603   1.777   2.642   4.025
 9235SOL    HW128604   1.782   2.619   3.927
 9235SOL    HW228605   1.701   2.705   4.040
 9236SOL     OW28606   1.652   4.693   6.271
 9236SOL    HW128607   1.701   4.618   6.316
 9236SOL    HW228608   1.718   4.758   6.234
 9237SOL     OW28609   0.108   6.340   3.661
 9237SOL    HW128610   0.049   6.268   3.625
 9237SOL    HW228611   0.121   6.327   3.759
 9238SOL     OW28612   2.149   2.124   0.065
 9238SOL    HW128613   2.201   2.173   0.135
 9238SOL    HW228614   2.061   2.169   0.052
 9239SOL     OW28615   6.924   3.832   6.986
 9239SOL    HW128616   6.828   3.832   6.961
 9239SOL    HW228617   6.970   3.911   6.944
 9240SOL     OW28618   5.012   2.541   2.016
 9240SOL    HW128619   4.981   2.446   2.006
 9240SOL    HW228620   4.934   2.598   2.042
 9241SOL     OW28621   0.800   5.341   5.654
 9241SOL    HW128622   0.782   5.268   5.719
 9241SOL    HW228623   0.881   5.392   5.681
 9242SOL     OW28624   1.446   4.930   0.353
 9242SOL    HW128625   1.439   4.833   0.329
 9242SOL    HW228626   1.358   4.975   0.338
 9243SOL     OW28627   0.241   6.977   1.804
 9243SOL    HW128628   0.306   6.991   1.879
 9243SOL    HW228629   0.290   6.947   1.722
 9244SOL     OW28630   3.587   5.345   6.008
 9244SOL    HW128631   3.592   5.370   6.104
 9244SOL    HW228632   3.678   5.315   5.977
 9245SOL     OW28633   1.128   5.492   3.673
 9245SOL    HW128634   1.062   5.445   3.614
 9245SOL    HW228635   1.171   5.426   3.734
 9246SOL     OW28636   6.286   6.371   2.010
 9246SOL    HW128637   6.211   6.331   2.062
 9246SOL    HW228638   6.332   6.440   2.066
 9247SOL     OW28639   2.002   6.145   3.571
 9247SOL    HW128640   1.921   6.201   3.587
 9247SOL    HW228641   2.075   6.201   3.531
 9248SOL     OW28642   2.477   2.172   4.819
 9248SOL    HW128643   2.458   2.221   4.904
 9248SOL    HW228644   2.550   2.219   4.769
 9249SOL     OW28645   3.504   4.070   0.902
 9249SOL    HW128646   3.543   3.984   0.868
 9249SOL    HW228647   3.436   4.103   0.837
 9250SOL     OW28648   6.025   3.115   3.874
 9250SOL    HW128649   6.016   3.087   3.778
 9250SOL    HW228650   6.120   3.139   3.893
 9251SOL     OW28651   3.527   1.739   2.546
 9251SOL    HW128652   3.498   1.779   2.633
 9251SOL    HW228653   3.453   1.748   2.479
 9252SOL     OW28654   4.999   0.265   3.735
 9252SOL    HW128655   5.065   0.298   3.802
 9252SOL    HW228656   5.038   0.272   3.643
 9253SOL     OW28657   5.510   5.750   5.864
 9253SOL    HW128658   5.556   5.824   5.913
 9253SOL    HW228659   5.578   5.699   5.810
 9254SOL     OW28660   5.585   5.092   3.027
 9254SOL    HW128661   5.568   5.078   2.930
 9254SOL    HW228662   5.506   5.061   3.080
 9255SOL     OW28663   4.323   4.113   0.203
 9255SOL    HW128664   4.400   4.051   0.186
 9255SOL    HW228665   4.357   4.207   0.212
 9256SOL     OW28666   2.659   0.571   2.567
 9256SOL    HW128667   2.632   0.664   2.541
 9256SOL    HW228668   2.617   0.505   2.504
 9257SOL     OW28669   0.523   4.180   3.203
 9257SOL    HW128670   0.590   4.250   3.178
 9257SOL    HW228671   0.541   4.149   3.297
 9258SOL     OW28672   2.917   3.326   2.739
 9258SOL    HW128673   2.893   3.368   2.826
 9258SOL    HW228674   2.938   3.229   2.753
 9259SOL     OW28675   0.884   2.391   0.162
 9259SOL    HW128676   0.944   2.382   0.082
 9259SOL    HW228677   0.939   2.413   0.243
 9260SOL     OW28678   5.844   1.191   4.870
 9260SOL    HW128679   5.822   1.129   4.945
 9260SOL    HW228680   5.864   1.282   4.907
 9261SOL     OW28681   2.718   1.562   0.627
 9261SOL    HW128682   2.680   1.508   0.552
 9261SOL    HW228683   2.775   1.635   0.590
 9262SOL     OW28684   6.836   5.059   5.403
 9262SOL    HW128685   6.928   5.067   5.440
 9262SOL    HW228686   6.773   5.031   5.476
 9263SOL     OW28687   5.198   0.083   1.555
 9263SOL    HW128688   5.108   0.123   1.572
 9263SOL    HW228689   5.196   7.008   1.579
 9264SOL     OW28690   5.050   4.805   0.358
 9264SOL    HW128691   5.038   4.832   0.262
 9264SOL    HW228692   5.057   4.705   0.364
 9265SOL     OW28693   3.348   1.951   0.965
 9265SOL    HW128694   3.337   2.049   0.984
 9265SOL    HW228695   3.404   1.939   0.883
 9266SOL     OW28696   1.726   6.865   1.186
 9266SOL    HW128697   1.749   6.962   1.187
 9266SOL    HW228698   1.649   6.850   1.124
 9267SOL     OW28699   0.181   3.146   4.726
 9267SOL    HW128700   0.185   3.193   4.814
 9267SOL    HW228701   0.136   3.206   4.659
 9268SOL     OW28702   1.136   5.207   2.573
 9268SOL    HW128703   1.204   5.137   2.596
 9268SOL    HW228704   1.045   5.166   2.569
 9269SOL     OW28705   3.923   1.665   6.260
 9269SOL    HW128706   3.907   1.602   6.336
 9269SOL    HW228707   3.848   1.658   6.195
 9270SOL     OW28708   4.679   0.021   6.581
 9270SOL    HW128709   4.657   0.098   6.521
 9270SOL    HW228710   4.594   7.004   6.617
 9271SOL     OW28711   5.512   0.415   0.687
 9271SOL    HW128712   5.474   0.438   0.777
 9271SOL    HW228713   5.611   0.410   0.692
 9272SOL     OW28714   0.841   6.016   4.676
 9272SOL    HW128715   0.848   6.113   4.698
 9272SOL    HW228716   0.769   5.974   4.732
 9273SOL     OW28717   5.430   6.950   2.794
 9273SOL    HW128718   5.503   6.918   2.854
 9273SOL    HW228719   5.349   6.891   2.806
 9274SOL     OW28720   6.104   1.909   6.990
 9274SOL    HW128721   6.135   1.827   6.940
 9274SOL    HW228722   6.150   1.990   6.953
 9275SOL     OW28723   6.269   0.784   0.653
 9275SOL    HW128724   6.340   0.735   0.603
 9275SOL    HW228725   6.182   0.775   0.606
 9276SOL     OW28726   2.108   3.565   1.413
 9276SOL    HW128727   2.050   3.604   1.484
 9276SOL    HW228728   2.140   3.474   1.441
 9277SOL     OW28729   4.458   3.606   0.354
 9277SOL    HW128730   4.424   3.519   0.390
 9277SOL    HW228731   4.391   3.646   0.292
 9278SOL     OW28732   2.041   0.242   5.861
 9278SOL    HW128733   2.072   0.288   5.944
 9278SOL    HW228734   1.947   0.211   5.874
 9279SOL     OW28735   4.449   1.049   2.263
 9279SOL    HW128736   4.505   1.128   2.238
 9279SOL    HW228737   4.352   1.075   2.260
 9280SOL     OW28738   2.171   2.124   3.199
 9280SOL    HW128739   2.225   2.055   3.247
 9280SOL    HW228740   2.086   2.140   3.248
 9281SOL     OW28741   2.493   3.446   6.694
 9281SOL    HW128742   2.425   3.437   6.768
 9281SOL    HW228743   2.446   3.449   6.606
 9282SOL     OW28744   4.943   0.729   3.852
 9282SOL    HW128745   4.959   0.713   3.754
 9282SOL    HW228746   4.846   0.711   3.872
 9283SOL     OW28747   5.676   0.437   4.207
 9283SOL    HW128748   5.720   0.509   4.152
 9283SOL    HW228749   5.577   0.447   4.201
 9284SOL     OW28750   3.002   3.326   5.159
 9284SOL    HW128751   2.909   3.361   5.175
 9284SOL    HW228752   3.023   3.255   5.226
 9285SOL     OW28753   5.014   2.504   0.947
 9285SOL    HW128754   4.980   2.411   0.958
 9285SOL    HW228755   4.950   2.568   0.990
 9286SOL     OW28756   5.372   5.689   1.173
 9286SOL    HW128757   5.360   5.675   1.271
 9286SOL    HW228758   5.468   5.675   1.148
 9287SOL     OW28759   3.039   4.831   6.803
 9287SOL    HW128760   2.957   4.775   6.793
 9287SOL    HW228761   3.094   4.796   6.879
 9288SOL     OW28762   4.918   1.452   3.234
 9288SOL    HW128763   4.903   1.411   3.324
 9288SOL    HW228764   4.833   1.449   3.182
 9289SOL     OW28765   3.625   1.016   2.471
 9289SOL    HW128766   3.620   1.103   2.519
 9289SOL    HW228767   3.591   1.028   2.377
 9290SOL     OW28768   5.831   1.528   2.851
 9290SOL    HW128769   5.832   1.615   2.900
 9290SOL    HW228770   5.801   1.455   2.912
 9291SOL     OW28771   0.968   6.119   4.274
 9291SOL    HW128772   0.934   6.066   4.352
 9291SOL    HW228773   0.988   6.212   4.304
 9292SOL     OW28774   1.889   2.788   6.934
 9292SOL    HW128775   1.948   2.722   6.981
 9292SOL    HW228776   1.897   2.877   6.979
 9293SOL     OW28777   5.352   2.954   6.465
 9293SOL    HW128778   5.260   2.933   6.431
 9293SOL    HW228779   5.345   3.009   6.549
 9294SOL     OW28780   4.261   0.720   5.605
 9294SOL    HW128781   4.342   0.691   5.553
 9294SOL    HW228782   4.213   0.791   5.554
 9295SOL     OW28783   5.352   1.565   4.878
 9295SOL    HW128784   5.267   1.591   4.924
 9295SOL    HW228785   5.391   1.646   4.833
 9296SOL     OW28786   1.463   5.541   7.001
 9296SOL    HW128787   1.481   5.564   6.905
 9296SOL    HW228788   1.365   5.526   7.014
 9297SOL     OW28789   6.903   0.103   2.351
 9297SOL    HW128790   6.880   0.060   2.263
 9297SOL    HW228791   7.002   0.095   2.366
 9298SOL     OW28792   0.937   6.191   5.796
 9298SOL    HW128793   0.964   6.095   5.811
 9298SOL    HW228794   0.929   6.237   5.885
 9299SOL     OW28795   0.544   2.430   5.229
 9299SOL    HW128796   0.585   2.379   5.153
 9299SOL    HW228797   0.589   2.404   5.315
 9300SOL     OW28798   0.031   4.661   5.641
 9300SOL    HW128799   0.058   4.756   5.633
 9300SOL    HW228800   6.954   4.653   5.638
 9301SOL     OW28801   5.492   5.020   4.280
 9301SOL    HW128802   5.455   5.110   4.302
 9301SOL    HW228803   5.427   4.970   4.222
 9302SOL     OW28804   2.525   2.277   4.096
 9302SOL    HW128805   2.467   2.195   4.096
 9302SOL    HW228806   2.468   2.358   4.108
 9303SOL     OW28807   2.686   3.904   0.762
 9303SOL    HW128808   2.613   3.903   0.693
 9303SOL    HW228809   2.739   3.988   0.753
 9304SOL     OW28810   4.038   4.674   1.830
 9304SOL    HW128811   4.133   4.703   1.830
 9304SOL    HW228812   3.984   4.737   1.886
 9305SOL     OW28813   3.188   1.228   0.819
 9305SOL    HW128814   3.191   1.328   0.819
 9305SOL    HW228815   3.147   1.196   0.734
 9306SOL     OW28816   0.024   5.782   5.072
 9306SOL    HW128817   7.021   5.819   4.982
 9306SOL    HW228818   0.122   5.765   5.075
 9307SOL     OW28819   1.661   3.248   1.360
 9307SOL    HW128820   1.679   3.215   1.268
 9307SOL    HW228821   1.567   3.226   1.387
 9308SOL     OW28822   2.769   3.248   0.511
 9308SOL    HW128823   2.723   3.254   0.422
 9308SOL    HW228824   2.732   3.318   0.572
 9309SOL     OW28825   3.631   4.634   5.557
 9309SOL    HW128826   3.642   4.535   5.562
 9309SOL    HW228827   3.709   4.679   5.600
 9310SOL     OW28828   4.909   5.256   6.493
 9310SOL    HW128829   4.831   5.193   6.486
 9310SOL    HW228830   4.930   5.293   6.402
 9311SOL     OW28831   4.444   4.713   1.531
 9311SOL    HW128832   4.436   4.627   1.581
 9311SOL    HW228833   4.425   4.789   1.593
 9312SOL     OW28834   1.340   3.665   0.988
 9312SOL    HW128835   1.334   3.763   1.008
 9312SOL    HW228836   1.366   3.616   1.071
 9313SOL     OW28837   0.526   0.962   0.875
 9313SOL    HW128838   0.607   1.020   0.869
 9313SOL    HW228839   0.498   0.954   0.971
 9314SOL     OW28840   5.381   4.764   0.100
 9314SOL    HW128841   5.321   4.843   0.112
 9314SOL    HW228842   5.470   4.783   0.142
 9315SOL     OW28843   6.357   0.169   4.997
 9315SOL    HW128844   6.299   0.094   5.029
 9315SOL    HW228845   6.302   0.252   4.986
 9316SOL     OW28846   5.621   6.370   5.905
 9316SOL    HW128847   5.692   6.324   5.851
 9316SOL    HW228848   5.532   6.355   5.862
 9317SOL     OW28849   5.339   4.955   3.523
 9317SOL    HW128850   5.308   4.990   3.611
 9317SOL    HW228851   5.280   4.880   3.494
 9318SOL     OW28852   5.600   0.792   6.161
 9318SOL    HW128853   5.519   0.848   6.175
 9318SOL    HW228854   5.655   0.792   6.244
 9319SOL     OW28855   2.741   2.641   6.788
 9319SOL    HW128856   2.667   2.593   6.740
 9319SOL    HW228857   2.712   2.735   6.807
 9320SOL     OW28858   3.504   0.592   5.327
 9320SOL    HW128859   3.568   0.610   5.402
 9320SOL    HW228860   3.526   0.652   5.250
 9321SOL     OW28861   6.996   0.407   4.295
 9321SOL    HW128862   0.010   0.494   4.262
 9321SOL    HW228863   7.014   0.335   4.228
 9322SOL     OW28864   6.735   3.738   5.887
 9322SOL    HW128865   6.724   3.696   5.977
 9322SOL    HW228866   6.645   3.758   5.848
 9323SOL     OW28867   1.438   0.761   5.814
 9323SOL    HW128868   1.342   0.735   5.827
 9323SOL    HW228869   1.464   0.748   5.718
 9324SOL     OW28870   1.397   4.136   1.081
 9324SOL    HW128871   1.473   4.165   1.140
 9324SOL    HW228872   1.355   4.216   1.040
 9325SOL     OW28873   6.114   0.923   0.081
 9325SOL    HW128874   6.116   0.919   7.003
 9325SOL    HW228875   6.080   1.012   0.109
 9326SOL     OW28876   2.444   5.191   0.668
 9326SOL    HW128877   2.523   5.130   0.678
 9326SOL    HW228878   2.454   5.245   0.584
 9327SOL     OW28879   4.990   0.135   2.966
 9327SOL    HW128880   4.950   0.176   3.049
 9327SOL    HW228881   4.923   0.140   2.892
 9328SOL     OW28882   2.677   1.234   5.127
 9328SOL    HW128883   2.773   1.213   5.146
 9328SOL    HW228884   2.671   1.316   5.070
 9329SOL     OW28885   6.089   3.739   0.740
 9329SOL    HW128886   6.053   3.695   0.822
 9329SOL    HW228887   6.050   3.695   0.659
 9330SOL     OW28888   6.425   0.406   5.774
 9330SOL    HW128889   6.336   0.448   5.753
 9330SOL    HW228890   6.493   0.438   5.709
 9331SOL     OW28891   2.076   0.963   0.394
 9331SOL    HW128892   2.068   0.914   0.308
 9331SOL    HW228893   2.156   1.023   0.391
 9332SOL     OW28894   3.910   4.298   0.849
 9332SOL    HW128895   3.910   4.258   0.940
 9332SOL    HW228896   3.837   4.367   0.843
 9333SOL     OW28897   3.893   3.806   6.792
 9333SOL    HW128898   3.990   3.784   6.787
 9333SOL    HW228899   3.842   3.740   6.736
 9334SOL     OW28900   5.525   6.057   3.637
 9334SOL    HW128901   5.498   6.126   3.705
 9334SOL    HW228902   5.443   6.016   3.597
 9335SOL     OW28903   0.790   0.873   6.945
 9335SOL    HW128904   0.788   0.963   6.902
 9335SOL    HW228905   0.737   0.808   6.889
 9336SOL     OW28906   3.603   6.159   5.790
 9336SOL    HW128907   3.538   6.083   5.797
 9336SOL    HW228908   3.569   6.226   5.725
 9337SOL     OW28909   3.950   1.473   4.661
 9337SOL    HW128910   4.029   1.488   4.720
 9337SOL    HW228911   3.867   1.472   4.716
 9338SOL     OW28912   6.391   0.113   1.718
 9338SOL    HW128913   6.294   0.095   1.704
 9338SOL    HW228914   6.443   0.028   1.706
 9339SOL     OW28915   6.080   6.288   1.211
 9339SOL    HW128916   6.056   6.216   1.145
 9339SOL    HW228917   6.004   6.353   1.218
 9340SOL     OW28918   4.636   4.543   3.171
 9340SOL    HW128919   4.735   4.544   3.183
 9340SOL    HW228920   4.614   4.499   3.084
 9341SOL     OW28921   0.202   5.169   1.114
 9341SOL    HW128922   0.193   5.259   1.072
 9341SOL    HW228923   0.113   5.123   1.114
 9342SOL     OW28924   3.406   6.462   3.417
 9342SOL    HW128925   3.355   6.467   3.502
 9342SOL    HW228926   3.501   6.488   3.433
 9343SOL     OW28927   5.223   4.226   1.713
 9343SOL    HW128928   5.173   4.161   1.655
 9343SOL    HW228929   5.162   4.298   1.744
 9344SOL     OW28930   5.311   6.602   2.739
 9344SOL    HW128931   5.258   6.534   2.789
 9344SOL    HW228932   5.291   6.693   2.777
 9345SOL     OW28933   6.755   5.737   1.771
 9345SOL    HW128934   6.777   5.722   1.867
 9345SOL    HW228935   6.660   5.767   1.763
 9346SOL     OW28936   5.773   0.988   1.169
 9346SOL    HW128937   5.736   0.917   1.229
 9346SOL    HW228938   5.751   1.078   1.207
 9347SOL     OW28939   3.386   4.057   0.260
 9347SOL    HW128940   3.309   4.002   0.294
 9347SOL    HW228941   3.454   4.068   0.332
 9348SOL     OW28942   2.513   6.370   2.834
 9348SOL    HW128943   2.486   6.317   2.754
 9348SOL    HW228944   2.604   6.409   2.818
 9349SOL     OW28945   6.925   5.150   2.337
 9349SOL    HW128946   6.924   5.061   2.292
 9349SOL    HW228947   6.972   5.217   2.279
 9350SOL     OW28948   7.004   2.813   5.248
 9350SOL    HW128949   0.076   2.828   5.217
 9350SOL    HW228950   6.968   2.731   5.206
 9351SOL     OW28951   3.243   6.436   6.286
 9351SOL    HW128952   3.245   6.403   6.380
 9351SOL    HW228953   3.290   6.524   6.280
 9352SOL     OW28954   4.110   1.884   6.196
 9352SOL    HW128955   4.058   1.803   6.222
 9352SOL    HW228956   4.055   1.966   6.213
 9353SOL     OW28957   1.421   4.160   0.793
 9353SOL    HW128958   1.499   4.222   0.783
 9353SOL    HW228959   1.418   4.124   0.886
 9354SOL     OW28960   0.271   1.946   6.000
 9354SOL    HW128961   0.290   1.864   5.946
 9354SOL    HW228962   0.216   2.010   5.945
 9355SOL     OW28963   0.305   1.815   4.495
 9355SOL    HW128964   0.389   1.869   4.485
 9355SOL    HW228965   0.251   1.851   4.570
 9356SOL     OW28966   4.609   6.635   2.262
 9356SOL    HW128967   4.611   6.604   2.357
 9356SOL    HW228968   4.591   6.734   2.260
 9357SOL     OW28969   1.490   3.576   6.445
 9357SOL    HW128970   1.398   3.615   6.445
 9357SOL    HW228971   1.515   3.549   6.352
 9358SOL     OW28972   0.145   2.995   1.564
 9358SOL    HW128973   0.229   2.982   1.616
 9358SOL    HW228974   0.126   3.093   1.555
 9359SOL     OW28975   1.731   3.668   5.609
 9359SOL    HW128976   1.742   3.660   5.510
 9359SOL    HW228977   1.793   3.738   5.644
 9360SOL     OW28978   1.121   4.825   6.635
 9360SOL    HW128979   1.147   4.907   6.583
 9360SOL    HW228980   1.187   4.808   6.707
 9361SOL     OW28981   1.603   5.237   2.768
 9361SOL    HW128982   1.578   5.196   2.681
 9361SOL    HW228983   1.533   5.303   2.795
 9362SOL     OW28984   2.184   2.624   3.273
 9362SOL    HW128985   2.213   2.572   3.192
 9362SOL    HW228986   2.222   2.716   3.269
 9363SOL     OW28987   3.302   6.470   1.937
 9363SOL    HW128988   3.353   6.545   1.980
 9363SOL    HW228989   3.351   6.439   1.855
 9364SOL     OW28990   3.063   2.865   6.262
 9364SOL    HW128991   3.032   2.821   6.346
 9364SOL    HW228992   3.102   2.796   6.201
 9365SOL     OW28993   2.547   1.876   4.121
 9365SOL    HW128994   2.518   1.971   4.111
 9365SOL    HW228995   2.596   1.847   4.039
 9366SOL     OW28996   3.678   5.753   5.877
 9366SOL    HW128997   3.607   5.816   5.908
 9366SOL    HW228998   3.744   5.737   5.951
 9367SOL     OW28999   0.173   6.675   2.740
 9367SOL    HW129000   0.242   6.657   2.670
 9367SOL    HW229001   0.082   6.676   2.698
 9368SOL     OW29002   2.793   0.797   2.763
 9368SOL    HW129003   2.749   0.732   2.701
 9368SOL    HW229004   2.869   0.752   2.810
 9369SOL     OW29005   6.770   6.326   4.037
 9369SOL    HW129006   6.703   6.351   3.967
 9369SOL    HW229007   6.781   6.402   4.102
 9370SOL     OW29008   5.503   0.280   3.773
 9370SOL    HW129009   5.573   0.235   3.829
 9370SOL    HW229010   5.489   0.227   3.689
 9371SOL     OW29011   2.944   5.122   0.796
 9371SOL    HW129012   2.982   5.080   0.714
 9371SOL    HW229013   2.973   5.218   0.801
 9372SOL     OW29014   4.917   0.647   1.670
 9372SOL    HW129015   4.957   0.666   1.760
 9372SOL    HW229016   4.865   0.726   1.639
 9373SOL     OW29017   4.699   1.974   1.873
 9373SOL    HW129018   4.650   2.050   1.832
 9373SOL    HW229019   4.742   2.004   1.958
 9374SOL     OW29020   0.566   3.377   0.379
 9374SOL    HW129021   0.466   3.377   0.376
 9374SOL    HW229022   0.601   3.439   0.308
 9375SOL     OW29023   0.880   1.436   1.475
 9375SOL    HW129024   0.927   1.514   1.516
 9375SOL    HW229025   0.894   1.355   1.532
 9376SOL     OW29026   2.454   4.222   1.484
 9376SOL    HW129027   2.478   4.157   1.412
 9376SOL    HW229028   2.366   4.264   1.463
 9377SOL     OW29029   1.617   5.320   3.346
 9377SOL    HW129030   1.557   5.340   3.423
 9377SOL    HW229031   1.666   5.403   3.319
 9378SOL     OW29032   2.320   0.931   3.577
 9378SOL    HW129033   2.314   1.019   3.530
 9378SOL    HW229034   2.305   0.857   3.512
 9379SOL     OW29035   4.672   0.160   5.200
 9379SOL    HW129036   4.610   0.123   5.131
 9379SOL    HW229037   4.749   0.097   5.213
 9380SOL     OW29038   4.015   5.905   5.859
 9380SOL    HW129039   3.948   5.888   5.931
 9380SOL    HW229040   4.043   6.001   5.861
 9381SOL     OW29041   4.723   3.239   5.723
 9381SOL    HW129042   4.762   3.245   5.815
 9381SOL    HW229043   4.776   3.174   5.668
 9382SOL     OW29044   3.661   0.461   4.136
 9382SOL    HW129045   3.665   0.389   4.206
 9382SOL    HW229046   3.720   0.436   4.059
 9383SOL     OW29047   5.598   5.603   4.348
 9383SOL    HW129048   5.573   5.646   4.261
 9383SOL    HW229049   5.569   5.661   4.424
 9384SOL     OW29050   4.328   0.440   2.121
 9384SOL    HW129051   4.390   0.518   2.124
 9384SOL    HW229052   4.234   0.472   2.131
 9385SOL     OW29053   3.970   1.493   3.780
 9385SOL    HW129054   4.024   1.415   3.748
 9385SOL    HW229055   3.953   1.484   3.878
 9386SOL     OW29056   3.393   6.008   5.153
 9386SOL    HW129057   3.339   6.069   5.211
 9386SOL    HW229058   3.333   5.958   5.091
 9387SOL     OW29059   2.805   2.159   0.341
 9387SOL    HW129060   2.811   2.113   0.253
 9387SOL    HW229061   2.733   2.116   0.396
 9388SOL     OW29062   2.881   5.778   3.102
 9388SOL    HW129063   2.871   5.698   3.162
 9388SOL    HW229064   2.843   5.859   3.147
 9389SOL     OW29065   2.200   0.394   3.340
 9389SOL    HW129066   2.155   0.476   3.305
 9389SOL    HW229067   2.222   0.333   3.264
 9390SOL     OW29068   5.266   4.627   6.561
 9390SOL    HW129069   5.306   4.535   6.556
 9390SOL    HW229070   5.198   4.630   6.634
 9391SOL     OW29071   1.604   0.786   5.574
 9391SOL    HW129072   1.665   0.707   5.567
 9391SOL    HW229073   1.659   0.870   5.574
 9392SOL     OW29074   5.134   5.585   5.718
 9392SOL    HW129075   5.195   5.512   5.685
 9392SOL    HW229076   5.098   5.635   5.639
 9393SOL     OW29077   2.974   6.760   6.279
 9393SOL    HW129078   2.935   6.739   6.189
 9393SOL    HW229079   2.917   6.828   6.324
 9394SOL     OW29080   6.473   0.901   1.716
 9394SOL    HW129081   6.517   0.860   1.796
 9394SOL    HW229082   6.544   0.927   1.650
 9395SOL     OW29083   3.337   0.999   1.429
 9395SOL    HW129084   3.265   0.929   1.427
 9395SOL    HW229085   3.301   1.082   1.471
 9396SOL     OW29086   2.255   4.096   3.988
 9396SOL    HW129087   2.288   4.003   3.998
 9396SOL    HW229088   2.171   4.096   3.933
 9397SOL     OW29089   3.654   6.345   6.359
 9397SOL    HW129090   3.692   6.280   6.425
 9397SOL    HW229091   3.575   6.304   6.314
 9398SOL     OW29092   5.938   0.855   5.282
 9398SOL    HW129093   5.972   0.819   5.369
 9398SOL    HW229094   5.886   0.939   5.299
 9399SOL     OW29095   0.888   2.812   5.481
 9399SOL    HW129096   0.898   2.779   5.575
 9399SOL    HW229097   0.978   2.834   5.443
 9400SOL     OW29098   5.303   0.972   0.931
 9400SOL    HW129099   5.340   0.914   0.858
 9400SOL    HW229100   5.376   1.030   0.967
 9401SOL     OW29101   6.639   1.379   3.122
 9401SOL    HW129102   6.735   1.354   3.110
 9401SOL    HW229103   6.634   1.467   3.169
 9402SOL     OW29104   1.624   5.060   3.228
 9402SOL    HW129105   1.572   4.990   3.277
 9402SOL    HW229106   1.614   5.148   3.275
 9403SOL     OW29107   6.203   1.298   1.837
 9403SOL    HW129108   6.239   1.208   1.863
 9403SOL    HW229109   6.152   1.290   1.752
 9404SOL     OW29110   1.029   2.279   0.624
 9404SOL    HW129111   1.126   2.278   0.602
 9404SOL    HW229112   0.999   2.187   0.647
 9405SOL     OW29113   2.299   4.314   3.801
 9405SOL    HW129114   2.326   4.303   3.706
 9405SOL    HW229115   2.314   4.228   3.850
 9406SOL     OW29116   0.938   2.547   6.556
 9406SOL    HW129117   0.930   2.631   6.503
 9406SOL    HW229118   1.033   2.517   6.556
 9407SOL     OW29119   2.229   4.828   3.085
 9407SOL    HW129120   2.222   4.746   3.028
 9407SOL    HW229121   2.218   4.803   3.181
 9408SOL     OW29122   6.822   3.462   6.093
 9408SOL    HW129123   6.919   3.478   6.077
 9408SOL    HW229124   6.778   3.546   6.125
 9409SOL     OW29125   6.290   5.609   1.131
 9409SOL    HW129126   6.383   5.593   1.099
 9409SOL    HW229127   6.252   5.523   1.165
 9410SOL     OW29128   1.772   0.910   2.573
 9410SOL    HW129129   1.781   0.816   2.607
 9410SOL    HW229130   1.695   0.915   2.509
 9411SOL     OW29131   3.832   3.847   3.428
 9411SOL    HW129132   3.790   3.932   3.394
 9411SOL    HW229133   3.760   3.780   3.447
 9412SOL     OW29134   1.777   1.289   2.256
 9412SOL    HW129135   1.694   1.344   2.257
 9412SOL    HW229136   1.755   1.195   2.229
 9413SOL     OW29137   4.332   5.044   3.784
 9413SOL    HW129138   4.327   5.019   3.687
 9413SOL    HW229139   4.424   5.025   3.819
 9414SOL     OW29140   2.721   1.247   3.454
 9414SOL    HW129141   2.766   1.232   3.366
 9414SOL    HW229142   2.739   1.169   3.514
 9415SOL     OW29143   1.935   0.110   2.600
 9415SOL    HW129144   2.002   0.046   2.638
 9415SOL    HW229145   1.982   0.183   2.552
 9416SOL     OW29146   0.144   1.032   6.229
 9416SOL    HW129147   0.046   1.056   6.226
 9416SOL    HW229148   0.198   1.111   6.203
 9417SOL     OW29149   3.641   0.706   0.904
 9417SOL    HW129150   3.733   0.746   0.897
 9417SOL    HW229151   3.643   0.612   0.868
 9418SOL     OW29152   2.170   0.986   1.572
 9418SOL    HW129153   2.136   0.988   1.666
 9418SOL    HW229154   2.160   0.894   1.535
 9419SOL     OW29155   2.183   3.775   6.658
 9419SOL    HW129156   2.157   3.827   6.577
 9419SOL    HW229157   2.278   3.797   6.682
 9420SOL     OW29158   5.618   4.792   1.002
 9420SOL    HW129159   5.626   4.865   0.935
 9420SOL    HW229160   5.546   4.728   0.975
 9421SOL     OW29161   2.695   6.221   4.706
 9421SOL    HW129162   2.731   6.127   4.702
 9421SOL    HW229163   2.605   6.224   4.663
 9422SOL     OW29164   2.833   5.712   2.845
 9422SOL    HW129165   2.871   5.730   2.935
 9422SOL    HW229166   2.867   5.625   2.811
 9423SOL     OW29167   3.484   6.200   3.677
 9423SOL    HW129168   3.565   6.227   3.730
 9423SOL    HW229169   3.465   6.268   3.606
 9424SOL     OW29170   4.868   2.384   4.162
 9424SOL    HW129171   4.818   2.299   4.175
 9424SOL    HW229172   4.964   2.370   4.188
 9425SOL     OW29173   5.201   3.931   1.396
 9425SOL    HW129174   5.156   4.005   1.344
 9425SOL    HW229175   5.247   3.869   1.332
 9426SOL     OW29176   3.480   1.787   6.134
 9426SOL    HW129177   3.468   1.695   6.172
 9426SOL    HW229178   3.393   1.819   6.096
 9427SOL     OW29179   2.915   5.308   3.375
 9427SOL    HW129180   2.884   5.249   3.301
 9427SOL    HW229181   2.867   5.283   3.459
 9428SOL     OW29182   0.295   7.002   1.293
 9428SOL    HW129183   0.365   6.960   1.236
 9428SOL    HW229184   0.207   6.999   1.245
 9429SOL     OW29185   1.894   3.721   3.887
 9429SOL    HW129186   1.901   3.633   3.839
 9429SOL    HW229187   1.960   3.785   3.849
 9430SOL     OW29188   0.255   2.909   5.200
 9430SOL    HW129189   0.236   2.960   5.115
 9430SOL    HW229190   0.305   2.825   5.178
 9431SOL     OW29191   6.737   4.642   1.244
 9431SOL    HW129192   6.685   4.668   1.162
 9431SOL    HW229193   6.754   4.544   1.243
 9432SOL     OW29194   6.182   0.373   4.091
 9432SOL    HW129195   6.145   0.334   4.007
 9432SOL    HW229196   6.159   0.314   4.168
 9433SOL     OW29197   3.322   6.384   2.918
 9433SOL    HW129198   3.341   6.390   3.016
 9433SOL    HW229199   3.354   6.296   2.884
 9434SOL     OW29200   5.679   5.784   1.955
 9434SOL    HW129201   5.588   5.815   1.929
 9434SOL    HW229202   5.711   5.715   1.891
 9435SOL     OW29203   0.041   2.343   3.229
 9435SOL    HW129204   6.978   2.384   3.198
 9435SOL    HW229205   0.024   2.250   3.262
 9436SOL     OW29206   1.729   2.536   2.151
 9436SOL    HW129207   1.783   2.556   2.069
 9436SOL    HW229208   1.632   2.527   2.126
 9437SOL     OW29209   0.183   5.991   3.048
 9437SOL    HW129210   0.260   6.049   3.021
 9437SOL    HW229211   0.197   5.898   3.013
 9438SOL     OW29212   0.928   0.486   2.066
 9438SOL    HW129213   0.936   0.443   2.156
 9438SOL    HW229214   0.894   0.580   2.077
 9439SOL     OW29215   0.767   3.196   0.580
 9439SOL    HW129216   0.757   3.178   0.483
 9439SOL    HW229217   0.682   3.171   0.627
 9440SOL     OW29218   3.491   4.945   3.511
 9440SOL    HW129219   3.484   5.044   3.519
 9440SOL    HW229220   3.552   4.921   3.436
 9441SOL     OW29221   6.263   4.709   5.911
 9441SOL    HW129222   6.219   4.623   5.936
 9441SOL    HW229223   6.196   4.769   5.866
 9442SOL     OW29224   5.540   3.602   1.901
 9442SOL    HW129225   5.500   3.595   1.992
 9442SOL    HW229226   5.639   3.589   1.907
 9443SOL     OW29227   2.599   5.599   0.305
 9443SOL    HW129228   2.657   5.638   0.377
 9443SOL    HW229229   2.657   5.562   0.233
 9444SOL     OW29230   2.147   3.959   0.734
 9444SOL    HW129231   2.121   3.968   0.830
 9444SOL    HW229232   2.082   3.898   0.687
 9445SOL     OW29233   6.237   3.628   3.812
 9445SOL    HW129234   6.319   3.607   3.866
 9445SOL    HW229235   6.189   3.543   3.790
 9446SOL     OW29236   6.389   5.790   5.051
 9446SOL    HW129237   6.399   5.874   5.105
 9446SOL    HW229238   6.459   5.725   5.079
 9447SOL     OW29239   5.610   4.347   3.760
 9447SOL    HW129240   5.670   4.404   3.816
 9447SOL    HW229241   5.647   4.254   3.756
 9448SOL     OW29242   6.437   0.269   6.038
 9448SOL    HW129243   6.442   0.270   5.938
 9448SOL    HW229244   6.494   0.342   6.074
 9449SOL     OW29245   5.608   6.737   0.227
 9449SOL    HW129246   5.569   6.809   0.170
 9449SOL    HW229247   5.582   6.648   0.191
 9450SOL     OW29248   2.474   5.677   3.154
 9450SOL    HW129249   2.487   5.619   3.074
 9450SOL    HW229250   2.439   5.767   3.125
 9451SOL     OW29251   4.643   5.646   5.461
 9451SOL    HW129252   4.605   5.650   5.369
 9451SOL    HW229253   4.569   5.656   5.528
 9452SOL     OW29254   1.499   4.272   0.234
 9452SOL    HW129255   1.550   4.221   0.304
 9452SOL    HW229256   1.401   4.255   0.245
 9453SOL     OW29257   3.088   5.801   2.715
 9453SOL    HW129258   3.114   5.858   2.637
 9453SOL    HW229259   2.999   5.830   2.749
 9454SOL     OW29260   3.354   3.315   6.768
 9454SOL    HW129261   3.412   3.331   6.688
 9454SOL    HW229262   3.259   3.303   6.739
 9455SOL     OW29263   3.287   2.038   3.665
 9455SOL    HW129264   3.218   2.076   3.604
 9455SOL    HW229265   3.260   2.054   3.760
 9456SOL     OW29266   6.707   3.731   0.666
 9456SOL    HW129267   6.610   3.712   0.683
 9456SOL    HW229268   6.764   3.668   0.719
 9457SOL     OW29269   0.971   4.571   4.073
 9457SOL    HW129270   0.906   4.500   4.101
 9457SOL    HW229271   0.983   4.567   3.974
 9458SOL     OW29272   0.418   3.660   6.362
 9458SOL    HW129273   0.452   3.718   6.288
 9458SOL    HW229274   0.337   3.610   6.331
 9459SOL     OW29275   5.458   4.638   3.957
 9459SOL    HW129276   5.542   4.586   3.941
 9459SOL    HW229277   5.431   4.628   4.053
 9460SOL     OW29278   2.178   3.538   4.986
 9460SOL    HW129279   2.247   3.542   5.058
 9460SOL    HW229280   2.182   3.449   4.941
 9461SOL     OW29281   0.647   2.056   1.481
 9461SOL    HW129282   0.592   1.977   1.506
 9461SOL    HW229283   0.717   2.030   1.415
 9462SOL     OW29284   1.362   2.663   3.676
 9462SOL    HW129285   1.436   2.720   3.640
 9462SOL    HW229286   1.399   2.575   3.707
 9463SOL     OW29287   6.011   0.375   1.509
 9463SOL    HW129288   5.935   0.362   1.445
 9463SOL    HW229289   6.039   0.471   1.509
 9464SOL     OW29290   6.045   0.621   0.883
 9464SOL    HW129291   6.054   0.603   0.981
 9464SOL    HW229292   5.954   0.590   0.852
 9465SOL     OW29293   6.857   3.798   2.075
 9465SOL    HW129294   6.916   3.772   1.999
 9465SOL    HW229295   6.767   3.826   2.040
 9466SOL     OW29296   3.356   4.709   5.282
 9466SOL    HW129297   3.409   4.788   5.313
 9466SOL    HW229298   3.286   4.739   5.218
 9467SOL     OW29299   0.838   3.226   1.089
 9467SOL    HW129300   0.796   3.233   0.998
 9467SOL    HW229301   0.887   3.139   1.096
 9468SOL     OW29302   5.423   4.240   6.220
 9468SOL    HW129303   5.344   4.179   6.219
 9468SOL    HW229304   5.482   4.216   6.297
 9469SOL     OW29305   0.841   5.783   1.442
 9469SOL    HW129306   0.813   5.847   1.370
 9469SOL    HW229307   0.805   5.814   1.529
 9470SOL     OW29308   5.234   3.498   0.310
 9470SOL    HW129309   5.221   3.472   0.406
 9470SOL    HW229310   5.329   3.524   0.295
 9471SOL     OW29311   6.844   2.428   4.538
 9471SOL    HW129312   6.865   2.331   4.526
 9471SOL    HW229313   6.753   2.447   4.502
 9472SOL     OW29314   6.919   3.066   5.293
 9472SOL    HW129315   6.971   3.094   5.373
 9472SOL    HW229316   6.937   2.969   5.274
 9473SOL     OW29317   3.207   4.700   0.269
 9473SOL    HW129318   3.264   4.728   0.346
 9473SOL    HW229319   3.211   4.601   0.258
 9474SOL     OW29320   6.514   3.626   1.047
 9474SOL    HW129321   6.520   3.603   1.144
 9474SOL    HW229322   6.423   3.605   1.013
 9475SOL     OW29323   4.010   3.325   0.779
 9475SOL    HW129324   3.972   3.236   0.806
 9475SOL    HW229325   3.985   3.344   0.684
 9476SOL     OW29326   3.972   3.867   4.574
 9476SOL    HW129327   4.069   3.870   4.599
 9476SOL    HW229328   3.950   3.775   4.539
 9477SOL     OW29329   0.293   2.852   1.156
 9477SOL    HW129330   0.227   2.903   1.211
 9477SOL    HW229331   0.350   2.796   1.215
 9478SOL     OW29332   5.167   3.399   1.389
 9478SOL    HW129333   5.160   3.460   1.468
 9478SOL    HW229334   5.099   3.325   1.398
 9479SOL     OW29335   4.270   6.495   0.459
 9479SOL    HW129336   4.344   6.532   0.515
 9479SOL    HW229337   4.257   6.398   0.479
 9480SOL     OW29338   6.093   5.368   0.531
 9480SOL    HW129339   6.075   5.360   0.629
 9480SOL    HW229340   6.006   5.370   0.481
 9481SOL     OW29341   4.729   2.826   2.672
 9481SOL    HW129342   4.688   2.801   2.584
 9481SOL    HW229343   4.709   2.755   2.740
 9482SOL     OW29344   0.627   0.340   2.875
 9482SOL    HW129345   0.721   0.340   2.840
 9482SOL    HW229346   0.621   0.404   2.951
 9483SOL     OW29347   1.093   0.222   0.776
 9483SOL    HW129348   1.165   0.291   0.786
 9483SOL    HW229349   1.064   0.218   0.681
 9484SOL     OW29350   3.965   0.135   4.476
 9484SOL    HW129351   3.909   0.188   4.540
 9484SOL    HW229352   4.046   0.102   4.523
 9485SOL     OW29353   0.250   1.163   1.085
 9485SOL    HW129354   0.226   1.103   1.009
 9485SOL    HW229355   0.318   1.119   1.143
 9486SOL     OW29356   4.143   5.913   0.780
 9486SOL    HW129357   4.198   5.831   0.766
 9486SOL    HW229358   4.056   5.889   0.822
 9487SOL     OW29359   3.213   4.026   3.855
 9487SOL    HW129360   3.152   3.975   3.916
 9487SOL    HW229361   3.163   4.050   3.772
 9488SOL     OW29362   2.581   6.906   1.059
 9488SOL    HW129363   2.627   6.820   1.035
 9488SOL    HW229364   2.627   6.946   1.138
 9489SOL     OW29365   5.235   4.694   1.444
 9489SOL    HW129366   5.246   4.664   1.350
 9489SOL    HW229367   5.288   4.635   1.505
 9490SOL     OW29368   6.316   5.670   3.371
 9490SOL    HW129369   6.218   5.659   3.353
 9490SOL    HW229370   6.332   5.757   3.417
 9491SOL     OW29371   5.045   4.743   3.807
 9491SOL    HW129372   5.133   4.774   3.845
 9491SOL    HW229373   5.057   4.653   3.767
 9492SOL     OW29374   3.730   3.559   4.661
 9492SOL    HW129375   3.705   3.643   4.710
 9492SOL    HW229376   3.817   3.573   4.613
 9493SOL     OW29377   2.912   5.950   4.161
 9493SOL    HW129378   2.912   5.998   4.249
 9493SOL    HW229379   2.963   6.003   4.094
 9494SOL     OW29380   5.270   3.006   3.075
 9494SOL    HW129381   5.224   3.012   2.986
 9494SOL    HW229382   5.276   2.910   3.103
 9495SOL     OW29383   0.091   2.170   2.921
 9495SOL    HW129384   0.067   2.136   3.012
 9495SOL    HW229385   0.042   2.256   2.905
 9496SOL     OW29386   6.094   3.759   1.572
 9496SOL    HW129387   6.080   3.774   1.670
 9496SOL    HW229388   6.077   3.663   1.549
 9497SOL     OW29389   5.082   5.709   5.227
 9497SOL    HW129390   5.032   5.795   5.220
 9497SOL    HW229391   5.155   5.708   5.158
 9498SOL     OW29392   5.559   5.721   4.627
 9498SOL    HW129393   5.635   5.767   4.675
 9498SOL    HW229394   5.527   5.644   4.683
 9499SOL     OW29395   1.517   5.398   6.035
 9499SOL    HW129396   1.575   5.409   5.954
 9499SOL    HW229397   1.424   5.378   6.005
 9500SOL     OW29398   4.592   6.893   0.388
 9500SOL    HW129399   4.672   6.944   0.358
 9500SOL    HW229400   4.509   6.938   0.354
 9501SOL     OW29401   2.691   1.470   4.956
 9501SOL    HW129402   2.784   1.498   4.980
 9501SOL    HW229403   2.625   1.528   5.005
 9502SOL     OW29404   5.780   2.846   4.709
 9502SOL    HW129405   5.740   2.896   4.632
 9502SOL    HW229406   5.808   2.755   4.679
 9503SOL     OW29407   0.419   1.777   0.423
 9503SOL    HW129408   0.489   1.750   0.489
 9503SOL    HW229409   0.443   1.741   0.332
 9504SOL     OW29410   6.913   3.482   0.886
 9504SOL    HW129411   7.011   3.492   0.898
 9504SOL    HW229412   6.865   3.554   0.938
 9505SOL     OW29413   5.493   4.764   4.869
 9505SOL    HW129414   5.548   4.730   4.945
 9505SOL    HW229415   5.492   4.864   4.871
 9506SOL     OW29416   1.601   2.694   0.253
 9506SOL    HW129417   1.522   2.753   0.234
 9506SOL    HW229418   1.569   2.600   0.268
 9507SOL     OW29419   0.642   1.180   1.975
 9507SOL    HW129420   0.597   1.191   2.064
 9507SOL    HW229421   0.712   1.251   1.965
 9508SOL     OW29422   6.163   2.195   2.192
 9508SOL    HW129423   6.216   2.117   2.223
 9508SOL    HW229424   6.075   2.196   2.239
 9509SOL     OW29425   0.203   0.827   4.280
 9509SOL    HW129426   0.147   0.880   4.344
 9509SOL    HW229427   0.295   0.866   4.277
 9510SOL     OW29428   1.463   3.541   3.804
 9510SOL    HW129429   1.401   3.619   3.800
 9510SOL    HW229430   1.501   3.534   3.896
 9511SOL     OW29431   2.031   0.063   1.057
 9511SOL    HW129432   2.110   0.091   1.004
 9511SOL    HW229433   1.950   0.061   0.999
 9512SOL     OW29434   6.341   1.713   1.064
 9512SOL    HW129435   6.246   1.742   1.062
 9512SOL    HW229436   6.346   1.615   1.080
 9513SOL     OW29437   2.239   4.134   5.874
 9513SOL    HW129438   2.244   4.034   5.867
 9513SOL    HW229439   2.326   4.173   5.843
 9514SOL     OW29440   2.215   5.152   5.932
 9514SOL    HW129441   2.164   5.220   5.880
 9514SOL    HW229442   2.257   5.196   6.012
 9515SOL     OW29443   1.941   5.684   1.290
 9515SOL    HW129444   1.866   5.622   1.268
 9515SOL    HW229445   1.906   5.760   1.346
 9516SOL     OW29446   5.439   4.997   6.777
 9516SOL    HW129447   5.535   4.974   6.789
 9516SOL    HW229448   5.420   5.086   6.819
 9517SOL     OW29449   1.660   3.922   1.565
 9517SOL    HW129450   1.736   3.896   1.505
 9517SOL    HW229451   1.595   3.846   1.571
 9518SOL     OW29452   1.987   1.846   0.297
 9518SOL    HW129453   1.977   1.751   0.326
 9518SOL    HW229454   2.078   1.860   0.259
 9519SOL     OW29455   3.303   3.080   5.521
 9519SOL    HW129456   3.357   3.050   5.442
 9519SOL    HW229457   3.362   3.128   5.586
 9520SOL     OW29458   2.589   1.440   2.870
 9520SOL    HW129459   2.512   1.467   2.927
 9520SOL    HW229460   2.578   1.345   2.841
 9521SOL     OW29461   4.984   5.739   2.373
 9521SOL    HW129462   4.928   5.818   2.346
 9521SOL    HW229463   5.065   5.771   2.422
 9522SOL     OW29464   2.717   5.638   1.135
 9522SOL    HW129465   2.663   5.648   1.051
 9522SOL    HW229466   2.698   5.550   1.177
 9523SOL     OW29467   3.943   5.527   4.924
 9523SOL    HW129468   3.962   5.539   4.826
 9523SOL    HW229469   3.853   5.485   4.936
 9524SOL     OW29470   3.627   1.897   1.178
 9524SOL    HW129471   3.623   1.945   1.266
 9524SOL    HW229472   3.565   1.942   1.114
 9525SOL     OW29473   2.569   2.727   5.945
 9525SOL    HW129474   2.567   2.640   5.994
 9525SOL    HW229475   2.520   2.718   5.859
 9526SOL     OW29476   4.852   5.445   2.139
 9526SOL    HW129477   4.951   5.441   2.154
 9526SOL    HW229478   4.816   5.530   2.177
 9527SOL     OW29479   0.975   0.489   2.739
 9527SOL    HW129480   0.969   0.541   2.824
 9527SOL    HW229481   0.972   0.391   2.759
 9528SOL     OW29482   6.651   0.637   0.736
 9528SOL    HW129483   6.610   0.707   0.677
 9528SOL    HW229484   6.626   0.546   0.704
 9529SOL     OW29485   6.036   3.012   5.354
 9529SOL    HW129486   6.038   3.027   5.256
 9529SOL    HW229487   5.987   3.087   5.399
 9530SOL     OW29488   1.925   2.995   2.700
 9530SOL    HW129489   2.013   2.980   2.653
 9530SOL    HW229490   1.886   2.906   2.726
 9531SOL     OW29491   4.458   6.040   2.941
 9531SOL    HW129492   4.376   6.072   2.894
 9531SOL    HW229493   4.500   5.966   2.889
 9532SOL     OW29494   0.756   6.421   1.952
 9532SOL    HW129495   0.850   6.453   1.956
 9532SOL    HW229496   0.696   6.497   1.928
 9533SOL     OW29497   6.547   0.600   5.081
 9533SOL    HW129498   6.567   0.503   5.071
 9533SOL    HW229499   6.544   0.643   4.990
 9534SOL     OW29500   5.840   3.206   5.011
 9534SOL    HW129501   5.813   3.289   4.962
 9534SOL    HW229502   5.911   3.228   5.077
 9535SOL     OW29503   2.293   1.229   5.695
 9535SOL    HW129504   2.353   1.287   5.752
 9535SOL    HW229505   2.300   1.258   5.600
 9536SOL     OW29506   3.165   4.887   5.036
 9536SOL    HW129507   3.112   4.855   4.957
 9536SOL    HW229508   3.124   4.851   5.120
 9537SOL     OW29509   2.315   6.931   2.221
 9537SOL    HW129510   2.346   6.941   2.126
 9537SOL    HW229511   2.386   6.965   2.283
 9538SOL     OW29512   6.536   1.973   3.530
 9538SOL    HW129513   6.466   1.903   3.515
 9538SOL    HW229514   6.552   2.022   3.445
 9539SOL     OW29515   2.104   3.454   5.515
 9539SOL    HW129516   2.139   3.548   5.519
 9539SOL    HW229517   2.058   3.440   5.427
 9540SOL     OW29518   4.882   3.683   4.372
 9540SOL    HW129519   4.805   3.718   4.425
 9540SOL    HW229520   4.889   3.584   4.384
 9541SOL     OW29521   2.886   2.068   5.930
 9541SOL    HW129522   2.982   2.085   5.909
 9541SOL    HW229523   2.878   1.992   5.995
 9542SOL     OW29524   5.075   3.984   4.799
 9542SOL    HW129525   5.035   3.892   4.801
 9542SOL    HW229526   5.048   4.030   4.714
 9543SOL     OW29527   3.581   0.673   4.762
 9543SOL    HW129528   3.580   0.673   4.662
 9543SOL    HW229529   3.500   0.720   4.796
 9544SOL     OW29530   6.887   1.290   2.778
 9544SOL    HW129531   6.984   1.280   2.756
 9544SOL    HW229532   6.832   1.255   2.702
 9545SOL     OW29533   6.703   4.621   3.705
 9545SOL    HW129534   6.700   4.720   3.712
 9545SOL    HW229535   6.611   4.583   3.712
 9546SOL     OW29536   2.411   2.669   5.711
 9546SOL    HW129537   2.407   2.574   5.741
 9546SOL    HW229538   2.461   2.674   5.624
 9547SOL     OW29539   1.841   5.541   3.794
 9547SOL    HW129540   1.879   5.529   3.702
 9547SOL    HW229541   1.910   5.517   3.862
 9548SOL     OW29542   6.088   6.056   4.689
 9548SOL    HW129543   6.078   5.957   4.698
 9548SOL    HW229544   6.049   6.085   4.602
 9549SOL     OW29545   3.074   3.799   1.281
 9549SOL    HW129546   3.145   3.743   1.325
 9549SOL    HW229547   3.031   3.746   1.208
 9550SOL     OW29548   0.026   1.184   0.107
 9550SOL    HW129549   0.120   1.217   0.091
 9550SOL    HW229550   7.019   1.130   0.028
 9551SOL     OW29551   6.760   0.708   4.429
 9551SOL    HW129552   6.763   0.684   4.332
 9551SOL    HW229553   6.672   0.681   4.468
 9552SOL     OW29554   1.023   5.930   2.119
 9552SOL    HW129555   1.023   5.998   2.192
 9552SOL    HW229556   1.080   5.852   2.146
 9553SOL     OW29557   5.868   4.222   6.719
 9553SOL    HW129558   5.954   4.178   6.746
 9553SOL    HW229559   5.867   4.237   6.621
 9554SOL     OW29560   2.648   0.335   1.644
 9554SOL    HW129561   2.709   0.342   1.565
 9554SOL    HW229562   2.603   0.423   1.660
 9555SOL     OW29563   0.133   0.792   1.011
 9555SOL    HW129564   0.178   0.707   1.038
 9555SOL    HW229565   0.199   0.867   1.015
 9556SOL     OW29566   2.696   2.344   1.054
 9556SOL    HW129567   2.605   2.375   1.024
 9556SOL    HW229568   2.688   2.254   1.096
 9557SOL     OW29569   6.326   0.870   3.174
 9557SOL    HW129570   6.320   0.966   3.202
 9557SOL    HW229571   6.321   0.864   3.074
 9558SOL     OW29572   5.553   5.335   4.098
 9558SOL    HW129573   5.498   5.286   4.165
 9558SOL    HW229574   5.648   5.306   4.104
 9559SOL     OW29575   0.096   3.748   1.592
 9559SOL    HW129576   0.036   3.706   1.524
 9559SOL    HW229577   0.191   3.746   1.558
 9560SOL     OW29578   1.430   1.948   2.369
 9560SOL    HW129579   1.443   1.904   2.458
 9560SOL    HW229580   1.502   2.015   2.354
 9561SOL     OW29581   1.612   6.891   0.792
 9561SOL    HW129582   1.708   6.914   0.776
 9561SOL    HW229583   1.591   6.803   0.748
 9562SOL     OW29584   3.216   6.506   5.011
 9562SOL    HW129585   3.206   6.428   4.950
 9562SOL    HW229586   3.130   6.520   5.061
 9563SOL     OW29587   6.188   6.494   0.568
 9563SOL    HW129588   6.236   6.581   0.578
 9563SOL    HW229589   6.158   6.482   0.473
 9564SOL     OW29590   2.795   6.558   6.599
 9564SOL    HW129591   2.706   6.581   6.637
 9564SOL    HW229592   2.836   6.640   6.558
 9565SOL     OW29593   4.380   6.388   4.973
 9565SOL    HW129594   4.405   6.295   4.944
 9565SOL    HW229595   4.289   6.386   5.015
 9566SOL     OW29596   3.656   4.656   0.068
 9566SOL    HW129597   3.653   4.666   0.167
 9566SOL    HW229598   3.577   4.604   0.037
 9567SOL     OW29599   6.415   5.431   6.563
 9567SOL    HW129600   6.316   5.427   6.578
 9567SOL    HW229601   6.443   5.355   6.503
 9568SOL     OW29602   4.506   2.808   6.614
 9568SOL    HW129603   4.538   2.716   6.636
 9568SOL    HW229604   4.462   2.848   6.695
 9569SOL     OW29605   0.312   0.285   1.966
 9569SOL    HW129606   0.221   0.272   1.928
 9569SOL    HW229607   0.316   0.244   2.057
 9570SOL     OW29608   1.128   2.263   2.080
 9570SOL    HW129609   1.223   2.252   2.052
 9570SOL    HW229610   1.068   2.250   2.001
 9571SOL     OW29611   3.038   3.481   0.045
 9571SOL    HW129612   2.975   3.419   7.022
 9571SOL    HW229613   3.114   3.502   7.006
 9572SOL     OW29614   2.218   5.353   0.862
 9572SOL    HW129615   2.302   5.331   0.812
 9572SOL    HW229616   2.233   5.434   0.919
 9573SOL     OW29617   0.703   1.892   6.473
 9573SOL    HW129618   0.615   1.937   6.483
 9573SOL    HW229619   0.737   1.905   6.379
 9574SOL     OW29620   3.968   3.229   4.725
 9574SOL    HW129621   4.010   3.265   4.809
 9574SOL    HW229622   3.942   3.133   4.740
 9575SOL     OW29623   5.261   0.417   0.616
 9575SOL    HW129624   5.232   0.482   0.545
 9575SOL    HW229625   5.359   0.425   0.630
 9576SOL     OW29626   3.274   1.156   2.603
 9576SOL    HW129627   3.269   1.255   2.594
 9576SOL    HW229628   3.274   1.114   2.513
 9577SOL     OW29629   1.392   0.808   3.144
 9577SOL    HW129630   1.333   0.822   3.224
 9577SOL    HW229631   1.468   0.872   3.148
 9578SOL     OW29632   6.738   3.615   3.140
 9578SOL    HW129633   6.835   3.639   3.145
 9578SOL    HW229634   6.683   3.697   3.159
 9579SOL     OW29635   1.284   5.978   2.972
 9579SOL    HW129636   1.234   6.063   2.957
 9579SOL    HW229637   1.382   5.998   2.981
 9580SOL     OW29638   5.414   3.162   0.494
 9580SOL    HW129639   5.357   3.240   0.523
 9580SOL    HW229640   5.493   3.195   0.443
 9581SOL     OW29641   1.316   5.092   6.187
 9581SOL    HW129642   1.257   5.072   6.265
 9581SOL    HW229643   1.371   5.011   6.166
 9582SOL     OW29644   4.405   4.604   4.750
 9582SOL    HW129645   4.381   4.581   4.845
 9582SOL    HW229646   4.452   4.526   4.708
 9583SOL     OW29647   2.769   3.387   1.483
 9583SOL    HW129648   2.704   3.403   1.557
 9583SOL    HW229649   2.766   3.464   1.419
 9584SOL     OW29650   5.825   5.971   0.130
 9584SOL    HW129651   5.762   5.970   0.207
 9584SOL    HW229652   5.909   5.923   0.155
 9585SOL     OW29653   6.442   0.427   2.965
 9585SOL    HW129654   6.492   0.485   2.901
 9585SOL    HW229655   6.414   0.480   3.045
 9586SOL     OW29656   5.729   4.162   2.190
 9586SOL    HW129657   5.740   4.064   2.202
 9586SOL    HW229658   5.632   4.183   2.175
 9587SOL     OW29659   6.315   0.421   2.300
 9587SOL    HW129660   6.314   0.344   2.237
 9587SOL    HW229661   6.221   0.443   2.327
 9588SOL     OW29662   0.502   1.273   1.735
 9588SOL    HW129663   0.558   1.243   1.812
 9588SOL    HW229664   0.511   1.372   1.724
 9589SOL     OW29665   2.833   5.625   6.503
 9589SOL    HW129666   2.883   5.689   6.444
 9589SOL    HW229667   2.760   5.582   6.451
 9590SOL     OW29668   0.102   4.780   2.386
 9590SOL    HW129669   0.156   4.861   2.406
 9590SOL    HW229670   0.086   4.772   2.288
 9591SOL     OW29671   3.211   5.961   0.297
 9591SOL    HW129672   3.293   5.998   0.341
 9591SOL    HW229673   3.176   6.028   0.232
 9592SOL     OW29674   3.938   5.144   2.287
 9592SOL    HW129675   3.863   5.078   2.299
 9592SOL    HW229676   3.906   5.235   2.311
 9593SOL     OW29677   5.408   1.245   4.686
 9593SOL    HW129678   5.422   1.317   4.619
 9593SOL    HW229679   5.435   1.157   4.647
 9594SOL     OW29680   0.024   5.916   3.868
 9594SOL    HW129681   6.999   5.985   3.923
 9594SOL    HW229682   6.981   5.870   3.808
 9595SOL     OW29683   1.575   4.737   4.712
 9595SOL    HW129684   1.541   4.732   4.618
 9595SOL    HW229685   1.514   4.685   4.773
 9596SOL     OW29686   0.217   4.878   6.945
 9596SOL    HW129687   0.153   4.817   6.900
 9596SOL    HW229688   0.300   4.827   6.969
 9597SOL     OW29689   0.289   3.912   0.701
 9597SOL    HW129690   0.249   3.968   0.629
 9597SOL    HW229691   0.219   3.850   0.737
 9598SOL     OW29692   0.542   4.232   5.371
 9598SOL    HW129693   0.576   4.272   5.286
 9598SOL    HW229694   0.477   4.160   5.350
 9599SOL     OW29695   3.692   0.833   5.186
 9599SOL    HW129696   3.763   0.827   5.116
 9599SOL    HW229697   3.612   0.879   5.147
 9600SOL     OW29698   2.358   0.036   5.947
 9600SOL    HW129699   2.408   0.103   6.001
 9600SOL    HW229700   2.370   6.968   5.987
 9601SOL     OW29701   6.337   4.206   6.103
 9601SOL    HW129702   6.256   4.155   6.076
 9601SOL    HW229703   6.419   4.150   6.087
 9602SOL     OW29704   6.664   5.132   6.641
 9602SOL    HW129705   6.722   5.062   6.601
 9602SOL    HW229706   6.719   5.212   6.664
 9603SOL     OW29707   2.262   6.949   4.479
 9603SOL    HW129708   2.209   6.966   4.563
 9603SOL    HW229709   2.356   6.979   4.493
 9604SOL     OW29710   5.580   0.794   0.103
 9604SOL    HW129711   5.491   0.813   0.143
 9604SOL    HW229712   5.616   0.877   0.061
 9605SOL     OW29713   0.533   5.247   5.790
 9605SOL    HW129714   0.437   5.243   5.760
 9605SOL    HW229715   0.569   5.339   5.772
 9606SOL     OW29716   1.113   0.068   4.204
 9606SOL    HW129717   1.155   7.001   4.217
 9606SOL    HW229718   1.020   0.068   4.241
 9607SOL     OW29719   1.057   1.732   1.650
 9607SOL    HW129720   1.099   1.820   1.668
 9607SOL    HW229721   0.957   1.741   1.652
 9608SOL     OW29722   0.277   6.919   2.795
 9608SOL    HW129723   0.266   6.825   2.765
 9608SOL    HW229724   0.258   6.981   2.718
 9609SOL     OW29725   1.580   3.371   5.053
 9609SOL    HW129726   1.627   3.451   5.016
 9609SOL    HW229727   1.510   3.401   5.118
 9610SOL     OW29728   1.023   3.266   5.351
 9610SOL    HW129729   0.993   3.311   5.435
 9610SOL    HW229730   1.118   3.237   5.361
 9611SOL     OW29731   7.007   6.674   1.114
 9611SOL    HW129732   6.923   6.728   1.114
 9611SOL    HW229733   0.020   6.668   1.021
 9612SOL     OW29734   6.661   2.843   0.272
 9612SOL    HW129735   6.643   2.792   0.188
 9612SOL    HW229736   6.758   2.867   0.275
 9613SOL     OW29737   5.637   6.193   4.198
 9613SOL    HW129738   5.615   6.164   4.291
 9613SOL    HW229739   5.552   6.205   4.146
 9614SOL     OW29740   4.439   3.634   1.540
 9614SOL    HW129741   4.343   3.616   1.517
 9614SOL    HW229742   4.451   3.730   1.563
 9615SOL     OW29743   2.355   6.036   2.780
 9615SOL    HW129744   2.452   6.029   2.758
 9615SOL    HW229745   2.315   5.945   2.784
 9616SOL     OW29746   4.560   3.102   0.971
 9616SOL    HW129747   4.579   3.198   0.992
 9616SOL    HW229748   4.474   3.074   1.015
 9617SOL     OW29749   1.171   3.986   3.857
 9617SOL    HW129750   1.157   3.971   3.759
 9617SOL    HW229751   1.092   4.035   3.895
 9618SOL     OW29752   3.213   0.386   6.653
 9618SOL    HW129753   3.173   0.427   6.735
 9618SOL    HW229754   3.262   0.303   6.678
 9619SOL     OW29755   0.784   6.739   1.033
 9619SOL    HW129756   0.792   6.688   1.119
 9619SOL    HW229757   0.847   6.817   1.035
 9620SOL     OW29758   4.207   1.698   6.473
 9620SOL    HW129759   4.229   1.789   6.438
 9620SOL    HW229760   4.235   1.629   6.407
 9621SOL     OW29761   1.714   0.892   1.655
 9621SOL    HW129762   1.668   0.957   1.716
 9621SOL    HW229763   1.668   0.890   1.567
 9622SOL     OW29764   6.505   1.364   6.923
 9622SOL    HW129765   6.460   1.444   6.963
 9622SOL    HW229766   6.601   1.363   6.951
 9623SOL     OW29767   4.680   5.235   6.698
 9623SOL    HW129768   4.618   5.313   6.703
 9623SOL    HW229769   4.769   5.265   6.665
 9624SOL     OW29770   4.955   4.831   5.360
 9624SOL    HW129771   4.956   4.768   5.282
 9624SOL    HW229772   5.017   4.798   5.431
 9625SOL     OW29773   4.497   4.686   6.651
 9625SOL    HW129774   4.556   4.612   6.683
 9625SOL    HW229775   4.413   4.688   6.705
 9626SOL     OW29776   1.755   5.254   4.534
 9626SOL    HW129777   1.666   5.276   4.494
 9626SOL    HW229778   1.780   5.160   4.510
 9627SOL     OW29779   0.886   4.533   4.669
 9627SOL    HW129780   0.844   4.476   4.739
 9627SOL    HW229781   0.828   4.612   4.652
 9628SOL     OW29782   5.821   4.095   0.798
 9628SOL    HW129783   5.839   4.146   0.883
 9628SOL    HW229784   5.908   4.077   0.751
 9629SOL     OW29785   6.859   6.222   3.328
 9629SOL    HW129786   6.815   6.283   3.262
 9629SOL    HW229787   6.955   6.210   3.304
 9630SOL     OW29788   5.988   5.889   5.372
 9630SOL    HW129789   5.982   5.968   5.433
 9630SOL    HW229790   5.953   5.808   5.418
 9631SOL     OW29791   4.365   1.297   1.179
 9631SOL    HW129792   4.291   1.362   1.194
 9631SOL    HW229793   4.328   1.212   1.141
 9632SOL     OW29794   1.969   5.324   1.476
 9632SOL    HW129795   1.908   5.398   1.506
 9632SOL    HW229796   1.918   5.239   1.470
 9633SOL     OW29797   4.010   3.456   1.049
 9633SOL    HW129798   3.940   3.403   1.097
 9633SOL    HW229799   4.001   3.441   0.950
 9634SOL     OW29800   5.760   5.641   3.226
 9634SOL    HW129801   5.698   5.590   3.285
 9634SOL    HW229802   5.851   5.645   3.268
 9635SOL     OW29803   0.253   4.537   5.221
 9635SOL    HW129804   0.208   4.575   5.302
 9635SOL    HW229805   0.237   4.438   5.217
 9636SOL     OW29806   3.684   1.505   5.844
 9636SOL    HW129807   3.671   1.418   5.893
 9636SOL    HW229808   3.600   1.528   5.794
 9637SOL     OW29809   3.358   3.157   1.925
 9637SOL    HW129810   3.327   3.063   1.941
 9637SOL    HW229811   3.290   3.205   1.869
 9638SOL     OW29812   0.135   3.973   6.272
 9638SOL    HW129813   0.134   3.941   6.177
 9638SOL    HW229814   0.223   4.015   6.292
 9639SOL     OW29815   4.547   2.915   1.614
 9639SOL    HW129816   4.546   2.980   1.690
 9639SOL    HW229817   4.483   2.841   1.633
 9640SOL     OW29818   4.164   1.040   2.214
 9640SOL    HW129819   4.090   1.108   2.221
 9640SOL    HW229820   4.167   1.004   2.121
 9641SOL     OW29821   5.108   6.171   2.336
 9641SOL    HW129822   5.105   6.119   2.421
 9641SOL    HW229823   5.105   6.108   2.258
 9642SOL     OW29824   1.131   0.259   4.006
 9642SOL    HW129825   1.178   0.339   4.043
 9642SOL    HW229826   1.115   0.193   4.079
 9643SOL     OW29827   5.151   3.889   3.424
 9643SOL    HW129828   5.155   3.842   3.512
 9643SOL    HW229829   5.213   3.845   3.360
 9644SOL     OW29830   1.963   5.894   4.676
 9644SOL    HW129831   1.956   5.986   4.638
 9644SOL    HW229832   1.871   5.857   4.689
 9645SOL     OW29833   1.197   4.046   5.044
 9645SOL    HW129834   1.174   4.012   4.952
 9645SOL    HW229835   1.285   4.008   5.072
 9646SOL     OW29836   2.821   6.115   2.961
 9646SOL    HW129837   2.754   6.058   3.011
 9646SOL    HW229838   2.912   6.075   2.971
 9647SOL     OW29839   0.302   6.495   2.909
 9647SOL    HW129840   0.264   6.558   2.842
 9647SOL    HW229841   0.400   6.513   2.920
 9648SOL     OW29842   5.458   3.051   1.122
 9648SOL    HW129843   5.465   3.101   1.208
 9648SOL    HW229844   5.367   3.011   1.113
 9649SOL     OW29845   2.728   3.971   6.721
 9649SOL    HW129846   2.784   3.964   6.639
 9649SOL    HW229847   2.742   4.061   6.764
 9650SOL     OW29848   5.264   4.292   3.406
 9650SOL    HW129849   5.192   4.356   3.432
 9650SOL    HW229850   5.260   4.210   3.463
 9651SOL     OW29851   3.819   0.894   1.170
 9651SOL    HW129852   3.856   0.818   1.117
 9651SOL    HW229853   3.727   0.915   1.139
 9652SOL     OW29854   0.659   4.695   1.038
 9652SOL    HW129855   0.725   4.649   0.978
 9652SOL    HW229856   0.571   4.649   1.032
 9653SOL     OW29857   4.804   4.486   5.870
 9653SOL    HW129858   4.820   4.396   5.909
 9653SOL    HW229859   4.733   4.533   5.923
 9654SOL     OW29860   3.014   3.093   3.133
 9654SOL    HW129861   2.983   3.187   3.145
 9654SOL    HW229862   3.084   3.072   3.201
 9655SOL     OW29863   0.384   1.715   0.116
 9655SOL    HW129864   0.409   1.795   0.061
 9655SOL    HW229865   0.298   1.677   0.082
 9656SOL     OW29866   4.782   2.079   0.783
 9656SOL    HW129867   4.783   2.168   0.739
 9656SOL    HW229868   4.833   2.013   0.727
 9657SOL     OW29869   6.079   4.299   3.046
 9657SOL    HW129870   6.082   4.395   3.018
 9657SOL    HW229871   6.163   4.277   3.095
 9658SOL     OW29872   5.783   2.301   2.664
 9658SOL    HW129873   5.740   2.280   2.751
 9658SOL    HW229874   5.818   2.217   2.622
 9659SOL     OW29875   1.241   2.559   0.056
 9659SOL    HW129876   1.309   2.504   0.105
 9659SOL    HW229877   1.154   2.510   0.055
 9660SOL     OW29878   0.548   0.516   2.014
 9660SOL    HW129879   0.611   0.442   1.989
 9660SOL    HW229880   0.525   0.508   2.111
 9661SOL     OW29881   4.376   5.975   1.301
 9661SOL    HW129882   4.337   6.063   1.270
 9661SOL    HW229883   4.475   5.977   1.291
 9662SOL     OW29884   5.038   3.864   0.409
 9662SOL    HW129885   5.023   3.815   0.494
 9662SOL    HW229886   4.977   3.943   0.405
 9663SOL     OW29887   0.294   5.679   2.488
 9663SOL    HW129888   0.323   5.740   2.562
 9663SOL    HW229889   0.369   5.670   2.422
 9664SOL     OW29890   5.298   4.342   5.034
 9664SOL    HW129891   5.329   4.315   5.125
 9664SOL    HW229892   5.218   4.287   5.010
 9665SOL     OW29893   6.373   6.399   5.964
 9665SOL    HW129894   6.357   6.339   5.886
 9665SOL    HW229895   6.322   6.485   5.952
 9666SOL     OW29896   6.314   3.304   1.917
 9666SOL    HW129897   6.224   3.322   1.878
 9666SOL    HW229898   6.380   3.369   1.880
 9667SOL     OW29899   4.433   3.469   1.308
 9667SOL    HW129900   4.481   3.536   1.364
 9667SOL    HW229901   4.350   3.510   1.269
 9668SOL     OW29902   1.375   1.047   6.794
 9668SOL    HW129903   1.346   1.138   6.821
 9668SOL    HW229904   1.295   0.988   6.782
 9669SOL     OW29905   1.858   6.743   1.369
 9669SOL    HW129906   1.790   6.779   1.305
 9669SOL    HW229907   1.937   6.803   1.372
 9670SOL     OW29908   6.992   5.505   5.034
 9670SOL    HW129909   6.894   5.483   5.039
 9670SOL    HW229910   7.007   5.599   5.065
 9671SOL     OW29911   6.533   4.280   0.849
 9671SOL    HW129912   6.450   4.332   0.870
 9671SOL    HW229913   6.589   4.332   0.784
 9672SOL     OW29914   1.233   4.832   3.366
 9672SOL    HW129915   1.216   4.920   3.323
 9672SOL    HW229916   1.329   4.824   3.390
 9673SOL     OW29917   3.796   3.653   1.280
 9673SOL    HW129918   3.752   3.565   1.299
 9673SOL    HW229919   3.745   3.702   1.209
 9674SOL     OW29920   3.763   6.750   3.162
 9674SOL    HW129921   3.859   6.722   3.170
 9674SOL    HW229922   3.730   6.782   3.251
 9675SOL     OW29923   4.994   2.613   6.827
 9675SOL    HW129924   4.985   2.702   6.872
 9675SOL    HW229925   5.070   2.616   6.762
 9676SOL     OW29926   1.393   3.900   5.895
 9676SOL    HW129927   1.411   3.813   5.849
 9676SOL    HW229928   1.295   3.920   5.889
 9677SOL     OW29929   7.010   5.044   6.094
 9677SOL    HW129930   0.082   5.024   6.121
 9677SOL    HW229931   6.947   4.995   6.154
 9678SOL     OW29932   3.073   3.610   4.358
 9678SOL    HW129933   3.054   3.577   4.450
 9678SOL    HW229934   2.988   3.613   4.305
 9679SOL     OW29935   2.550   0.401   3.989
 9679SOL    HW129936   2.548   0.355   4.078
 9679SOL    HW229937   2.539   0.333   3.917
 9680SOL     OW29938   4.411   0.513   5.303
 9680SOL    HW129939   4.384   0.478   5.393
 9680SOL    HW229940   4.358   0.596   5.284
 9681SOL     OW29941   3.501   2.266   0.665
 9681SOL    HW129942   3.402   2.247   0.668
 9681SOL    HW229943   3.534   2.255   0.572
 9682SOL     OW29944   4.867   3.808   3.624
 9682SOL    HW129945   4.837   3.719   3.591
 9682SOL    HW229946   4.899   3.863   3.547
 9683SOL     OW29947   3.500   6.428   1.080
 9683SOL    HW129948   3.428   6.373   1.037
 9683SOL    HW229949   3.588   6.384   1.064
 9684SOL     OW29950   0.733   4.374   4.842
 9684SOL    HW129951   0.784   4.288   4.852
 9684SOL    HW229952   0.635   4.355   4.850
 9685SOL     OW29953   4.799   3.546   0.745
 9685SOL    HW129954   4.748   3.502   0.671
 9685SOL    HW229955   4.817   3.642   0.722
 9686SOL     OW29956   0.753   3.339   6.433
 9686SOL    HW129957   0.820   3.361   6.361
 9686SOL    HW229958   0.801   3.305   6.514
 9687SOL     OW29959   6.324   0.837   2.920
 9687SOL    HW129960   6.396   0.898   2.888
 9687SOL    HW229961   6.264   0.813   2.843
 9688SOL     OW29962   1.192   3.212   0.630
 9688SOL    HW129963   1.151   3.173   0.547
 9688SOL    HW229964   1.152   3.168   0.711
 9689SOL     OW29965   0.476   4.471   6.852
 9689SOL    HW129966   0.567   4.471   6.811
 9689SOL    HW229967   0.474   4.409   6.930
 9690SOL     OW29968   5.314   6.721   5.725
 9690SOL    HW129969   5.387   6.732   5.657
 9690SOL    HW229970   5.349   6.743   5.816
 9691SOL     OW29971   3.054   3.993   1.699
 9691SOL    HW129972   2.961   4.029   1.705
 9691SOL    HW229973   3.082   3.988   1.603
 9692SOL     OW29974   4.639   5.920   1.236
 9692SOL    HW129975   4.697   5.878   1.306
 9692SOL    HW229976   4.693   5.940   1.155
 9693SOL     OW29977   6.281   4.127   3.103
 9693SOL    HW129978   6.380   4.138   3.102
 9693SOL    HW229979   6.250   4.090   3.015
 9694SOL     OW29980   3.125   0.660   2.222
 9694SOL    HW129981   3.157   0.682   2.314
 9694SOL    HW229982   3.086   0.742   2.180
 9695SOL     OW29983   6.538   2.916   3.233
 9695SOL    HW129984   6.586   2.834   3.261
 9695SOL    HW229985   6.441   2.907   3.252
 9696SOL     OW29986   5.774   2.766   1.535
 9696SOL    HW129987   5.867   2.729   1.523
 9696SOL    HW229988   5.708   2.704   1.493
 9697SOL     OW29989   0.663   6.296   0.391
 9697SOL    HW129990   0.574   6.291   0.345
 9697SOL    HW229991   0.733   6.256   0.332
 9698SOL     OW29992   5.401   2.441   5.778
 9698SOL    HW129993   5.463   2.510   5.741
 9698SOL    HW229994   5.446   2.351   5.778
 9699SOL     OW29995   7.005   5.451   0.356
 9699SOL    HW129996   0.053   5.498   0.303
 9699SOL    HW229997   6.927   5.430   0.297
 9700SOL     OW29998   6.087   5.098   4.638
 9700SOL    HW129999   6.074   5.108   4.737
 9700SOL    HW230000   6.138   5.177   4.603
 9701SOL     OW30001   4.198   4.550   5.807
 9701SOL    HW130002   4.229   4.456   5.821
 9701SOL    HW230003   4.274   4.607   5.776
 9702SOL     OW30004   3.947   1.863   0.504
 9702SOL    HW130005   3.914   1.775   0.469
 9702SOL    HW230006   4.016   1.900   0.442
 9703SOL     OW30007   4.903   3.486   3.740
 9703SOL    HW130008   4.911   3.431   3.657
 9703SOL    HW230009   4.942   3.577   3.724
 9704SOL     OW30010   3.578   5.940   1.702
 9704SOL    HW130011   3.552   5.958   1.797
 9704SOL    HW230012   3.525   5.863   1.667
 9705SOL     OW30013   5.211   4.525   5.999
 9705SOL    HW130014   5.292   4.584   6.001
 9705SOL    HW230015   5.173   4.517   6.091
 9706SOL     OW30016   2.838   1.888   1.164
 9706SOL    HW130017   2.828   1.824   1.087
 9706SOL    HW230018   2.922   1.941   1.152
 9707SOL     OW30019   5.898   4.758   2.686
 9707SOL    HW130020   5.907   4.814   2.768
 9707SOL    HW230021   5.854   4.671   2.710
 9708SOL     OW30022   0.657   1.405   3.540
 9708SOL    HW130023   0.642   1.408   3.442
 9708SOL    HW230024   0.603   1.477   3.585
 9709SOL     OW30025   5.484   5.084   2.381
 9709SOL    HW130026   5.544   5.157   2.413
 9709SOL    HW230027   5.388   5.111   2.393
 9710SOL     OW30028   6.635   1.246   1.436
 9710SOL    HW130029   6.665   1.266   1.343
 9710SOL    HW230030   6.594   1.328   1.477
 9711SOL     OW30031   4.613   5.330   6.270
 9711SOL    HW130032   4.645   5.327   6.175
 9711SOL    HW230033   4.660   5.260   6.323
 9712SOL     OW30034   5.512   3.709   6.937
 9712SOL    HW130035   5.421   3.678   6.909
 9712SOL    HW230036   5.503   3.782   7.004
 9713SOL     OW30037   1.938   4.554   3.316
 9713SOL    HW130038   1.844   4.589   3.314
 9713SOL    HW230039   1.969   4.547   3.411
 9714SOL     OW30040   4.311   6.579   6.291
 9714SOL    HW130041   4.382   6.553   6.226
 9714SOL    HW230042   4.351   6.585   6.383
 9715SOL     OW30043   5.544   4.201   7.001
 9715SOL    HW130044   5.509   4.282   6.954
 9715SOL    HW230045   5.525   4.209   0.077
 9716SOL     OW30046   3.584   4.350   6.847
 9716SOL    HW130047   3.643   4.281   6.888
 9716SOL    HW230048   3.564   4.323   6.752
 9717SOL     OW30049   4.968   6.565   5.815
 9717SOL    HW130050   4.878   6.585   5.853
 9717SOL    HW230051   5.035   6.560   5.890
 9718SOL     OW30052   4.966   3.208   1.396
 9718SOL    HW130053   4.888   3.180   1.340
 9718SOL    HW230054   4.988   3.135   1.461
 9719SOL     OW30055   5.514   0.528   6.224
 9719SOL    HW130056   5.522   0.458   6.152
 9719SOL    HW230057   5.534   0.618   6.185
 9720SOL     OW30058   0.974   3.756   2.416
 9720SOL    HW130059   1.020   3.742   2.504
 9720SOL    HW230060   0.879   3.780   2.432
 9721SOL     OW30061   0.274   1.242   0.034
 9721SOL    HW130062   0.335   1.164   0.020
 9721SOL    HW230063   0.314   1.323   7.013
 9722SOL     OW30064   3.320   1.289   5.273
 9722SOL    HW130065   3.233   1.293   5.324
 9722SOL    HW230066   3.350   1.194   5.267
 9723SOL     OW30067   3.948   6.244   3.844
 9723SOL    HW130068   3.930   6.148   3.822
 9723SOL    HW230069   3.969   6.253   3.941
 9724SOL     OW30070   1.330   4.734   0.150
 9724SOL    HW130071   1.345   4.831   0.131
 9724SOL    HW230072   1.307   4.686   0.065
 9725SOL     OW30073   4.323   6.180   6.187
 9725SOL    HW130074   4.365   6.243   6.253
 9725SOL    HW230075   4.351   6.206   6.095
 9726SOL     OW30076   4.222   1.673   3.590
 9726SOL    HW130077   4.155   1.649   3.521
 9726SOL    HW230078   4.176   1.699   3.675
 9727SOL     OW30079   0.839   2.270   6.560
 9727SOL    HW130080   0.877   2.359   6.535
 9727SOL    HW230081   0.787   2.233   6.483
 9728SOL     OW30082   0.371   1.334   4.903
 9728SOL    HW130083   0.456   1.291   4.934
 9728SOL    HW230084   0.391   1.398   4.830
 9729SOL     OW30085   1.154   4.832   3.856
 9729SOL    HW130086   1.091   4.764   3.819
 9729SOL    HW230087   1.178   4.807   3.950
 9730SOL     OW30088   0.768   4.467   3.538
 9730SOL    HW130089   0.860   4.432   3.551
 9730SOL    HW230090   0.730   4.430   3.453
 9731SOL     OW30091   4.831   5.382   1.869
 9731SOL    HW130092   4.797   5.463   1.822
 9731SOL    HW230093   4.832   5.399   1.968
 9732SOL     OW30094   1.480   3.532   2.569
 9732SOL    HW130095   1.387   3.541   2.604
 9732SOL    HW230096   1.480   3.548   2.470
 9733SOL     OW30097   5.087   5.511   0.173
 9733SOL    HW130098   5.076   5.540   0.078
 9733SOL    HW230099   4.996   5.498   0.214
 9734SOL     OW30100   6.652   0.087   0.437
 9734SOL    HW130101   6.588   0.086   0.514
 9734SOL    HW230102   6.742   0.115   0.469
 9735SOL     OW30103   1.943   3.176   3.644
 9735SOL    HW130104   1.986   3.194   3.732
 9735SOL    HW230105   2.008   3.130   3.584
 9736SOL     OW30106   5.097   1.385   5.916
 9736SOL    HW130107   5.057   1.387   5.825
 9736SOL    HW230108   5.178   1.444   5.918
 9737SOL     OW30109   5.214   2.432   2.776
 9737SOL    HW130110   5.222   2.341   2.818
 9737SOL    HW230111   5.303   2.478   2.780
 9738SOL     OW30112   2.263   6.516   0.648
 9738SOL    HW130113   2.284   6.610   0.675
 9738SOL    HW230114   2.164   6.503   0.646
 9739SOL     OW30115   5.177   5.782   0.937
 9739SOL    HW130116   5.158   5.722   0.859
 9739SOL    HW230117   5.274   5.805   0.939
 9740SOL     OW30118   0.463   1.008   3.392
 9740SOL    HW130119   0.562   1.006   3.376
 9740SOL    HW230120   0.419   0.939   3.334
 9741SOL     OW30121   2.379   1.140   2.316
 9741SOL    HW130122   2.388   1.081   2.236
 9741SOL    HW230123   2.468   1.179   2.339
 9742SOL     OW30124   3.706   0.945   0.578
 9742SOL    HW130125   3.706   1.031   0.527
 9742SOL    HW230126   3.731   0.963   0.673
 9743SOL     OW30127   6.651   4.262   3.267
 9743SOL    HW130128   6.619   4.199   3.338
 9743SOL    HW230129   6.745   4.239   3.242
 9744SOL     OW30130   1.206   0.078   1.919
 9744SOL    HW130131   1.242   0.015   1.850
 9744SOL    HW230132   1.254   0.065   2.005
 9745SOL     OW30133   4.459   2.963   6.385
 9745SOL    HW130134   4.470   2.925   6.476
 9745SOL    HW230135   4.368   2.940   6.350
 9746SOL     OW30136   5.742   0.335   5.668
 9746SOL    HW130137   5.804   0.260   5.689
 9746SOL    HW230138   5.795   0.419   5.655
 9747SOL     OW30139   2.543   2.077   2.016
 9747SOL    HW130140   2.492   2.113   1.938
 9747SOL    HW230141   2.593   2.151   2.060
 9748SOL     OW30142   6.234   6.863   3.918
 9748SOL    HW130143   6.176   6.916   3.980
 9748SOL    HW230144   6.181   6.787   3.879
 9749SOL     OW30145   1.206   0.802   3.970
 9749SOL    HW130146   1.188   0.723   4.029
 9749SOL    HW230147   1.145   0.877   3.996
 9750SOL     OW30148   5.779   5.191   3.177
 9750SOL    HW130149   5.698   5.174   3.122
 9750SOL    HW230150   5.795   5.113   3.238
 9751SOL     OW30151   2.495   0.152   1.032
 9751SOL    HW130152   2.424   0.149   1.102
 9751SOL    HW230153   2.540   0.063   1.026
 9752SOL     OW30154   4.591   1.720   5.284
 9752SOL    HW130155   4.583   1.757   5.377
 9752SOL    HW230156   4.535   1.637   5.277
 9753SOL     OW30157   0.370   5.469   5.373
 9753SOL    HW130158   0.308   5.392   5.392
 9753SOL    HW230159   0.442   5.472   5.442
 9754SOL     OW30160   2.422   0.447   0.651
 9754SOL    HW130161   2.322   0.450   0.646
 9754SOL    HW230162   2.451   0.392   0.729
 9755SOL     OW30163   3.519   3.505   4.374
 9755SOL    HW130164   3.511   3.409   4.402
 9755SOL    HW230165   3.613   3.535   4.385
 9756SOL     OW30166   5.770   2.030   5.949
 9756SOL    HW130167   5.780   2.112   6.006
 9756SOL    HW230168   5.857   2.011   5.903
 9757SOL     OW30169   5.709   4.686   4.710
 9757SOL    HW130170   5.711   4.595   4.752
 9757SOL    HW230171   5.632   4.738   4.745
 9758SOL     OW30172   1.652   1.001   0.239
 9758SOL    HW130173   1.662   0.910   0.280
 9758SOL    HW230174   1.677   0.996   0.142
 9759SOL     OW30175   1.163   0.943   0.749
 9759SOL    HW130176   1.084   0.890   0.781
 9759SOL    HW230177   1.227   0.955   0.825
 9760SOL     OW30178   4.846   3.388   5.515
 9760SOL    HW130179   4.802   3.406   5.427
 9760SOL    HW230180   4.790   3.324   5.568
 9761SOL     OW30181   0.390   2.325   1.402
 9761SOL    HW130182   0.364   2.228   1.403
 9761SOL    HW230183   0.487   2.334   1.425
 9762SOL     OW30184   3.518   2.093   4.858
 9762SOL    HW130185   3.548   2.106   4.764
 9762SOL    HW230186   3.420   2.107   4.865
 9763SOL     OW30187   5.409   1.805   3.199
 9763SOL    HW130188   5.403   1.707   3.178
 9763SOL    HW230189   5.432   1.855   3.116
 9764SOL     OW30190   6.890   2.717   2.636
 9764SOL    HW130191   6.900   2.624   2.600
 9764SOL    HW230192   6.933   2.722   2.727
 9765SOL     OW30193   6.659   6.343   3.126
 9765SOL    HW130194   6.648   6.438   3.157
 9765SOL    HW230195   6.631   6.336   3.031
 9766SOL     OW30196   1.943   6.575   2.021
 9766SOL    HW130197   1.957   6.604   2.116
 9766SOL    HW230198   2.028   6.587   1.970
 9767SOL     OW30199   2.694   2.105   5.689
 9767SOL    HW130200   2.730   2.073   5.777
 9767SOL    HW230201   2.647   2.192   5.703
 9768SOL     OW30202   5.244   1.135   1.360
 9768SOL    HW130203   5.175   1.117   1.429
 9768SOL    HW230204   5.330   1.162   1.404
 9769SOL     OW30205   3.661   1.155   4.695
 9769SOL    HW130206   3.678   1.248   4.663
 9769SOL    HW230207   3.706   1.142   4.784
 9770SOL     OW30208   3.727   1.095   5.880
 9770SOL    HW130209   3.772   1.011   5.911
 9770SOL    HW230210   3.702   1.151   5.959
 9771SOL     OW30211   2.607   5.328   0.898
 9771SOL    HW130212   2.545   5.406   0.892
 9771SOL    HW230213   2.598   5.272   0.816
 9772SOL     OW30214   1.147   6.312   1.646
 9772SOL    HW130215   1.169   6.218   1.620
 9772SOL    HW230216   1.048   6.320   1.660
 9773SOL     OW30217   5.187   5.381   3.852
 9773SOL    HW130218   5.252   5.324   3.802
 9773SOL    HW230219   5.121   5.421   3.789
 9774SOL     OW30220   6.898   4.920   1.745
 9774SOL    HW130221   6.917   4.960   1.835
 9774SOL    HW230222   6.870   4.992   1.682
 9775SOL     OW30223   2.887   0.368   3.731
 9775SOL    HW130224   2.943   0.314   3.668
 9775SOL    HW230225   2.911   0.344   3.825
 9776SOL     OW30226   0.259   5.209   5.456
 9776SOL    HW130227   0.252   5.241   5.551
 9776SOL    HW230228   0.281   5.112   5.455
 9777SOL     OW30229   6.130   4.809   0.669
 9777SOL    HW130230   6.196   4.741   0.638
 9777SOL    HW230231   6.154   4.899   0.633
 9778SOL     OW30232   0.258   1.642   4.298
 9778SOL    HW130233   0.274   1.710   4.370
 9778SOL    HW230234   0.284   1.552   4.331
 9779SOL     OW30235   0.324   1.492   4.005
 9779SOL    HW130236   0.312   1.474   4.103
 9779SOL    HW230237   0.256   1.559   3.975
 9780SOL     OW30238   2.189   2.682   0.297
 9780SOL    HW130239   2.173   2.781   0.296
 9780SOL    HW230240   2.152   2.644   0.382
 9781SOL     OW30241   2.062   2.279   4.965
 9781SOL    HW130242   1.971   2.262   5.005
 9781SOL    HW230243   2.132   2.247   5.029
 9782SOL     OW30244   0.561   2.049   0.397
 9782SOL    HW130245   0.584   2.090   0.485
 9782SOL    HW230246   0.506   2.114   0.344
 9783SOL     OW30247   4.684   2.617   3.671
 9783SOL    HW130248   4.766   2.562   3.685
 9783SOL    HW230249   4.710   2.711   3.649
 9784SOL     OW30250   3.289   1.236   6.164
 9784SOL    HW130251   3.378   1.196   6.139
 9784SOL    HW230252   3.255   1.193   6.247
 9785SOL     OW30253   0.379   1.977   5.720
 9785SOL    HW130254   0.356   1.880   5.722
 9785SOL    HW230255   0.459   1.994   5.776
 9786SOL     OW30256   2.637   4.011   0.388
 9786SOL    HW130257   2.717   3.954   0.369
 9786SOL    HW230258   2.557   3.953   0.404
 9787SOL     OW30259   3.310   3.151   2.742
 9787SOL    HW130260   3.291   3.064   2.787
 9787SOL    HW230261   3.313   3.224   2.810
 9788SOL     OW30262   0.752   6.954   2.960
 9788SOL    HW130263   0.716   0.005   2.903
 9788SOL    HW230264   0.787   6.881   2.901
 9789SOL     OW30265   1.793   5.441   0.464
 9789SOL    HW130266   1.777   5.344   0.484
 9789SOL    HW230267   1.763   5.497   0.541
 9790SOL     OW30268   6.307   4.881   6.715
 9790SOL    HW130269   6.334   4.820   6.640
 9790SOL    HW230270   6.259   4.960   6.678
 9791SOL     OW30271   0.723   6.525   6.537
 9791SOL    HW130272   0.768   6.450   6.489
 9791SOL    HW230273   0.671   6.489   6.614
 9792SOL     OW30274   2.988   3.918   0.609
 9792SOL    HW130275   2.969   3.884   0.517
 9792SOL    HW230276   2.932   3.998   0.627
 9793SOL     OW30277   4.589   0.102   2.562
 9793SOL    HW130278   4.598   0.111   2.463
 9793SOL    HW230279   4.578   0.193   2.603
 9794SOL     OW30280   6.789   4.546   6.477
 9794SOL    HW130281   6.846   4.474   6.438
 9794SOL    HW230282   6.695   4.512   6.489
 9795SOL     OW30283   1.119   2.013   4.571
 9795SOL    HW130284   1.036   2.000   4.626
 9795SOL    HW230285   1.199   1.991   4.626
 9796SOL     OW30286   4.175   3.469   2.388
 9796SOL    HW130287   4.217   3.516   2.309
 9796SOL    HW230288   4.121   3.392   2.356
 9797SOL     OW30289   2.061   5.636   0.578
 9797SOL    HW130290   2.028   5.676   0.493
 9797SOL    HW230291   1.998   5.564   0.607
 9798SOL     OW30292   3.472   0.486   2.359
 9798SOL    HW130293   3.391   0.488   2.418
 9798SOL    HW230294   3.517   0.398   2.367
 9799SOL     OW30295   2.535   4.407   5.551
 9799SOL    HW130296   2.618   4.462   5.551
 9799SOL    HW230297   2.558   4.312   5.570
 9800SOL     OW30298   4.763   5.213   5.228
 9800SOL    HW130299   4.732   5.213   5.132
 9800SOL    HW230300   4.841   5.275   5.237
 9801SOL     OW30301   4.498   3.858   6.877
 9801SOL    HW130302   4.523   3.764   6.852
 9801SOL    HW230303   4.486   3.912   6.794
 9802SOL     OW30304   5.965   4.252   1.824
 9802SOL    HW130305   5.923   4.333   1.865
 9802SOL    HW230306   5.965   4.177   1.890
 9803SOL     OW30307   1.933   2.356   6.347
 9803SOL    HW130308   1.855   2.418   6.352
 9803SOL    HW230309   1.989   2.367   6.429
 9804SOL     OW30310   0.659   6.284   2.682
 9804SOL    HW130311   0.756   6.265   2.669
 9804SOL    HW230312   0.623   6.226   2.755
 9805SOL     OW30313   0.829   6.706   2.864
 9805SOL    HW130314   0.817   6.691   2.766
 9805SOL    HW230315   0.922   6.682   2.891
 9806SOL     OW30316   1.584   1.510   0.020
 9806SOL    HW130317   1.558   1.541   6.951
 9806SOL    HW230318   1.517   1.541   0.087
 9807SOL     OW30319   3.393   3.454   1.517
 9807SOL    HW130320   3.462   3.524   1.534
 9807SOL    HW230321   3.362   3.416   1.604
 9808SOL     OW30322   4.135   6.695   5.069
 9808SOL    HW130323   4.128   6.750   4.986
 9808SOL    HW230324   4.218   6.721   5.119
 9809SOL     OW30325   0.975   3.690   6.561
 9809SOL    HW130326   0.938   3.717   6.472
 9809SOL    HW230327   1.042   3.617   6.549
 9810SOL     OW30328   2.814   2.233   4.401
 9810SOL    HW130329   2.872   2.210   4.478
 9810SOL    HW230330   2.806   2.153   4.340
 9811SOL     OW30331   5.485   4.706   3.097
 9811SOL    HW130332   5.474   4.791   3.149
 9811SOL    HW230333   5.440   4.631   3.146
 9812SOL     OW30334   3.863   1.687   5.478
 9812SOL    HW130335   3.839   1.590   5.480
 9812SOL    HW230336   3.882   1.718   5.571
 9813SOL     OW30337   4.363   1.735   0.657
 9813SOL    HW130338   4.314   1.818   0.685
 9813SOL    HW230339   4.367   1.671   0.734
 9814SOL     OW30340   6.902   0.204   6.566
 9814SOL    HW130341   7.000   0.184   6.559
 9814SOL    HW230342   6.870   0.177   6.657
 9815SOL     OW30343   4.897   3.425   4.386
 9815SOL    HW130344   4.839   3.345   4.370
 9815SOL    HW230345   4.987   3.395   4.417
 9816SOL     OW30346   1.185   0.842   6.295
 9816SOL    HW130347   1.192   0.856   6.394
 9816SOL    HW230348   1.142   0.753   6.277
 9817SOL     OW30349   2.682   6.264   3.483
 9817SOL    HW130350   2.689   6.166   3.505
 9817SOL    HW230351   2.690   6.276   3.384
 9818SOL     OW30352   0.319   0.720   3.920
 9818SOL    HW130353   0.221   0.704   3.916
 9818SOL    HW230354   0.340   0.787   3.991
 9819SOL     OW30355   5.390   3.785   3.287
 9819SOL    HW130356   5.448   3.705   3.303
 9819SOL    HW230357   5.415   3.857   3.352
 9820SOL     OW30358   3.700   2.674   6.642
 9820SOL    HW130359   3.717   2.769   6.667
 9820SOL    HW230360   3.782   2.635   6.600
 9821SOL     OW30361   5.285   1.415   0.032
 9821SOL    HW130362   5.193   1.408   7.016
 9821SOL    HW230363   5.325   1.324   0.039
 9822SOL     OW30364   2.273   6.840   3.022
 9822SOL    HW130365   2.248   6.748   3.054
 9822SOL    HW230366   2.237   6.908   3.086
 9823SOL     OW30367   2.422   0.414   6.839
 9823SOL    HW130368   2.494   0.477   6.807
 9823SOL    HW230369   2.432   0.401   6.937
 9824SOL     OW30370   1.769   4.995   4.506
 9824SOL    HW130371   1.842   4.980   4.439
 9824SOL    HW230372   1.749   4.910   4.553
 9825SOL     OW30373   4.458   5.542   5.277
 9825SOL    HW130374   4.422   5.508   5.190
 9825SOL    HW230375   4.501   5.466   5.327
 9826SOL     OW30376   5.181   5.322   6.416
 9826SOL    HW130377   5.245   5.254   6.451
 9826SOL    HW230378   5.113   5.278   6.358
 9827SOL     OW30379   2.074   3.778   3.560
 9827SOL    HW130380   2.044   3.746   3.470
 9827SOL    HW230381   2.140   3.852   3.549
 9828SOL     OW30382   2.206   2.757   5.856
 9828SOL    HW130383   2.279   2.750   5.789
 9828SOL    HW230384   2.213   2.681   5.921
 9829SOL     OW30385   4.097   5.072   0.206
 9829SOL    HW130386   4.058   4.982   0.223
 9829SOL    HW230387   4.197   5.068   0.216
 9830SOL     OW30388   5.767   2.729   1.854
 9830SOL    HW130389   5.798   2.806   1.799
 9830SOL    HW230390   5.775   2.645   1.800
 9831SOL     OW30391   2.000   5.014   1.071
 9831SOL    HW130392   1.999   4.927   1.120
 9831SOL    HW230393   2.049   5.003   0.984
 9832SOL     OW30394   4.690   5.268   2.935
 9832SOL    HW130395   4.779   5.309   2.956
 9832SOL    HW230396   4.703   5.187   2.878
 9833SOL     OW30397   3.694   3.869   5.320
 9833SOL    HW130398   3.779   3.912   5.290
 9833SOL    HW230399   3.626   3.876   5.247
 9834SOL     OW30400   2.801   4.899   5.098
 9834SOL    HW130401   2.890   4.932   5.128
 9834SOL    HW230402   2.804   4.799   5.090
 9835SOL     OW30403   3.295   3.464   5.758
 9835SOL    HW130404   3.318   3.379   5.709
 9835SOL    HW230405   3.239   3.522   5.698
 9836SOL     OW30406   6.819   5.007   3.909
 9836SOL    HW130407   6.729   5.050   3.907
 9836SOL    HW230408   6.826   4.948   3.990
 9837SOL     OW30409   2.851   0.247   3.406
 9837SOL    HW130410   2.849   0.341   3.439
 9837SOL    HW230411   2.945   0.222   3.381
 9838SOL     OW30412   1.928   6.760   6.654
 9838SOL    HW130413   2.001   6.784   6.591
 9838SOL    HW230414   1.918   6.831   6.724
 9839SOL     OW30415   5.762   0.779   3.786
 9839SOL    HW130416   5.774   0.817   3.695
 9839SOL    HW230417   5.696   0.704   3.783
 9840SOL     OW30418   6.282   1.405   1.011
 9840SOL    HW130419   6.182   1.397   1.009
 9840SOL    HW230420   6.321   1.324   1.055
 9841SOL     OW30421   1.584   4.103   5.043
 9841SOL    HW130422   1.530   4.122   4.960
 9841SOL    HW230423   1.522   4.090   5.120
 9842SOL     OW30424   4.001   3.307   2.216
 9842SOL    HW130425   4.055   3.233   2.177
 9842SOL    HW230426   3.944   3.272   2.290
 9843SOL     OW30427   6.042   0.705   1.148
 9843SOL    HW130428   6.001   0.776   1.090
 9843SOL    HW230429   6.142   0.709   1.138
 9844SOL     OW30430   6.384   0.658   2.178
 9844SOL    HW130431   6.399   0.641   2.081
 9844SOL    HW230432   6.352   0.575   2.223
 9845SOL     OW30433   2.439   2.617   3.782
 9845SOL    HW130434   2.415   2.633   3.877
 9845SOL    HW230435   2.510   2.546   3.776
 9846SOL     OW30436   4.178   3.568   1.451
 9846SOL    HW130437   4.147   3.614   1.368
 9846SOL    HW230438   4.128   3.482   1.462
 9847SOL     OW30439   3.369   2.856   4.029
 9847SOL    HW130440   3.344   2.895   4.117
 9847SOL    HW230441   3.315   2.899   3.957
 9848SOL     OW30442   3.479   3.508   5.280
 9848SOL    HW130443   3.501   3.515   5.377
 9848SOL    HW230444   3.385   3.540   5.265
 9849SOL     OW30445   0.119   6.376   6.440
 9849SOL    HW130446   0.051   6.423   6.383
 9849SOL    HW230447   0.077   6.299   6.486
 9850SOL     OW30448   5.704   0.166   3.987
 9850SOL    HW130449   5.674   0.143   4.079
 9850SOL    HW230450   5.745   0.258   3.987
 9851SOL     OW30451   5.182   0.561   4.681
 9851SOL    HW130452   5.226   0.472   4.670
 9851SOL    HW230453   5.246   0.624   4.727
 9852SOL     OW30454   4.050   2.205   3.223
 9852SOL    HW130455   4.086   2.283   3.274
 9852SOL    HW230456   4.026   2.233   3.130
 9853SOL     OW30457   5.230   3.788   4.927
 9853SOL    HW130458   5.190   3.754   5.012
 9853SOL    HW230459   5.187   3.875   4.902
 9854SOL     OW30460   0.287   6.011   4.945
 9854SOL    HW130461   0.250   5.991   4.854
 9854SOL    HW230462   0.366   6.072   4.937
 9855SOL     OW30463   2.657   3.386   1.177
 9855SOL    HW130464   2.656   3.447   1.097
 9855SOL    HW230465   2.578   3.405   1.235
 9856SOL     OW30466   5.268   4.823   5.232
 9856SOL    HW130467   5.179   4.863   5.211
 9856SOL    HW230468   5.262   4.723   5.228
 9857SOL     OW30469   4.534   2.513   3.444
 9857SOL    HW130470   4.600   2.572   3.488
 9857SOL    HW230471   4.533   2.531   3.346
 9858SOL     OW30472   7.009   0.407   1.238
 9858SOL    HW130473   0.068   0.375   1.287
 9858SOL    HW230474   0.001   0.500   1.205
 9859SOL     OW30475   6.371   0.228   2.127
 9859SOL    HW130476   6.303   0.172   2.079
 9859SOL    HW230477   6.406   0.298   2.064
 9860SOL     OW30478   1.245   1.384   3.832
 9860SOL    HW130479   1.226   1.297   3.787
 9860SOL    HW230480   1.209   1.381   3.926
 9861SOL     OW30481   2.740   0.060   3.597
 9861SOL    HW130482   2.773   0.122   3.526
 9861SOL    HW230483   2.643   0.041   3.582
 9862SOL     OW30484   4.202   3.089   0.096
 9862SOL    HW130485   4.220   3.186   0.117
 9862SOL    HW230486   4.105   3.077   0.075
 9863SOL     OW30487   3.214   6.900   3.174
 9863SOL    HW130488   3.254   6.811   3.196
 9863SOL    HW230489   3.262   6.939   3.095
 9864SOL     OW30490   3.819   6.578   4.004
 9864SOL    HW130491   3.904   6.600   3.956
 9864SOL    HW230492   3.827   6.488   4.047
 9865SOL     OW30493   1.387   0.721   4.528
 9865SOL    HW130494   1.370   0.818   4.545
 9865SOL    HW230495   1.482   0.709   4.496
 9866SOL     OW30496   5.387   5.013   6.170
 9866SOL    HW130497   5.314   5.075   6.142
 9866SOL    HW230498   5.437   5.052   6.248
 9867SOL     OW30499   6.358   0.993   0.801
 9867SOL    HW130500   6.339   0.901   0.767
 9867SOL    HW230501   6.274   1.036   0.833
 9868SOL     OW30502   0.195   3.828   6.060
 9868SOL    HW130503   0.129   3.835   5.985
 9868SOL    HW230504   0.287   3.819   6.021
 9869SOL     OW30505   1.620   3.290   2.293
 9869SOL    HW130506   1.537   3.346   2.288
 9869SOL    HW230507   1.697   3.343   2.257
 9870SOL     OW30508   3.695   5.552   2.312
 9870SOL    HW130509   3.635   5.609   2.367
 9870SOL    HW230510   3.666   5.456   2.320
 9871SOL     OW30511   0.406   5.876   6.174
 9871SOL    HW130512   0.446   5.929   6.098
 9871SOL    HW230513   0.478   5.822   6.218
 9872SOL     OW30514   2.222   5.261   3.905
 9872SOL    HW130515   2.187   5.199   3.836
 9872SOL    HW230516   2.287   5.325   3.863
 9873SOL     OW30517   2.776   2.536   0.264
 9873SOL    HW130518   2.872   2.512   0.259
 9873SOL    HW230519   2.763   2.611   0.329
 9874SOL     OW30520   6.687   3.120   4.380
 9874SOL    HW130521   6.760   3.189   4.384
 9874SOL    HW230522   6.655   3.099   4.472
 9875SOL     OW30523   6.314   6.069   2.384
 9875SOL    HW130524   6.390   6.038   2.442
 9875SOL    HW230525   6.329   6.165   2.358
 9876SOL     OW30526   6.290   0.311   3.378
 9876SOL    HW130527   6.241   0.298   3.292
 9876SOL    HW230528   6.280   0.407   3.407
 9877SOL     OW30529   6.889   6.074   4.048
 9877SOL    HW130530   6.827   6.152   4.039
 9877SOL    HW230531   6.889   6.043   4.143
 9878SOL     OW30532   2.524   4.675   4.995
 9878SOL    HW130533   2.527   4.774   4.984
 9878SOL    HW230534   2.618   4.639   4.996
 9879SOL     OW30535   5.490   5.493   4.932
 9879SOL    HW130536   5.553   5.427   4.973
 9879SOL    HW230537   5.455   5.456   4.846
 9880SOL     OW30538   3.679   0.824   6.626
 9880SOL    HW130539   3.678   0.924   6.627
 9880SOL    HW230540   3.754   0.792   6.568
 9881SOL     OW30541   0.638   1.089   5.302
 9881SOL    HW130542   0.645   1.065   5.398
 9881SOL    HW230543   0.647   1.007   5.246
 9882SOL     OW30544   1.280   3.373   4.030
 9882SOL    HW130545   1.256   3.278   4.010
 9882SOL    HW230546   1.254   3.395   4.124
 9883SOL     OW30547   1.322   6.395   0.465
 9883SOL    HW130548   1.337   6.492   0.442
 9883SOL    HW230549   1.274   6.389   0.552
 9884SOL     OW30550   5.234   2.616   1.481
 9884SOL    HW130551   5.303   2.658   1.541
 9884SOL    HW230552   5.246   2.517   1.481
 9885SOL     OW30553   6.660   2.007   4.905
 9885SOL    HW130554   6.709   2.081   4.951
 9885SOL    HW230555   6.725   1.938   4.875
 9886SOL     OW30556   1.215   4.518   2.320
 9886SOL    HW130557   1.240   4.454   2.393
 9886SOL    HW230558   1.188   4.605   2.361
 9887SOL     OW30559   4.119   0.549   6.288
 9887SOL    HW130560   4.172   0.633   6.273
 9887SOL    HW230561   4.131   0.519   6.383
 9888SOL     OW30562   6.038   4.611   2.208
 9888SOL    HW130563   6.090   4.619   2.123
 9888SOL    HW230564   6.101   4.602   2.285
 9889SOL     OW30565   6.626   4.985   1.488
 9889SOL    HW130566   6.717   4.970   1.448
 9889SOL    HW230567   6.607   4.911   1.553
 9890SOL     OW30568   1.353   2.995   0.893
 9890SOL    HW130569   1.313   2.957   0.810
 9890SOL    HW230570   1.284   2.996   0.966
 9891SOL     OW30571   5.554   3.148   2.024
 9891SOL    HW130572   5.483   3.138   1.955
 9891SOL    HW230573   5.592   3.059   2.047
 9892SOL     OW30574   0.817   4.846   1.311
 9892SOL    HW130575   0.889   4.778   1.325
 9892SOL    HW230576   0.834   4.896   1.226
 9893SOL     OW30577   0.745   0.877   1.663
 9893SOL    HW130578   0.703   0.804   1.717
 9893SOL    HW230579   0.676   0.945   1.640
 9894SOL     OW30580   3.434   2.527   0.495
 9894SOL    HW130581   3.480   2.453   0.446
 9894SOL    HW230582   3.336   2.508   0.500
 9895SOL     OW30583   5.823   4.613   5.253
 9895SOL    HW130584   5.871   4.526   5.264
 9895SOL    HW230585   5.890   4.686   5.241
 9896SOL     OW30586   6.038   1.073   0.641
 9896SOL    HW130587   6.047   1.159   0.591
 9896SOL    HW230588   6.094   1.077   0.724
 9897SOL     OW30589   5.587   6.122   2.637
 9897SOL    HW130590   5.568   6.220   2.637
 9897SOL    HW230591   5.511   6.073   2.679
 9898SOL     OW30592   0.847   5.191   5.388
 9898SOL    HW130593   0.879   5.247   5.311
 9898SOL    HW230594   0.819   5.251   5.463
 9899SOL     OW30595   1.876   5.684   0.907
 9899SOL    HW130596   1.917   5.768   0.943
 9899SOL    HW230597   1.948   5.628   0.865
 9900SOL     OW30598   1.330   2.745   2.852
 9900SOL    HW130599   1.239   2.778   2.828
 9900SOL    HW230600   1.325   2.649   2.878
 9901SOL     OW30601   3.015   0.753   7.007
 9901SOL    HW130602   2.984   0.692   0.057
 9901SOL    HW230603   3.087   0.813   0.020
 9902SOL     OW30604   2.938   4.665   1.405
 9902SOL    HW130605   2.876   4.641   1.480
 9902SOL    HW230606   2.893   4.644   1.318
 9903SOL     OW30607   5.855   2.204   1.847
 9903SOL    HW130608   5.909   2.145   1.788
 9903SOL    HW230609   5.781   2.151   1.889
 9904SOL     OW30610   0.747   4.153   0.401
 9904SOL    HW130611   0.813   4.182   0.470
 9904SOL    HW230612   0.732   4.228   0.336
 9905SOL     OW30613   2.514   0.834   6.009
 9905SOL    HW130614   2.498   0.761   6.075
 9905SOL    HW230615   2.517   0.922   6.057
 9906SOL     OW30616   1.707   3.334   0.576
 9906SOL    HW130617   1.620   3.288   0.564
 9906SOL    HW230618   1.776   3.290   0.518
 9907SOL     OW30619   0.853   0.345   1.201
 9907SOL    HW130620   0.843   0.261   1.147
 9907SOL    HW230621   0.765   0.372   1.239
 9908SOL     OW30622   6.385   1.736   5.000
 9908SOL    HW130623   6.367   1.813   4.939
 9908SOL    HW230624   6.417   1.658   4.946
 9909SOL     OW30625   4.305   1.098   2.946
 9909SOL    HW130626   4.330   1.001   2.945
 9909SOL    HW230627   4.267   1.122   3.035
 9910SOL     OW30628   1.390   5.031   1.961
 9910SOL    HW130629   1.400   5.084   1.877
 9910SOL    HW230630   1.472   4.974   1.975
 9911SOL     OW30631   2.730   6.498   2.639
 9911SOL    HW130632   2.777   6.584   2.620
 9911SOL    HW230633   2.797   6.425   2.655
 9912SOL     OW30634   3.571   1.072   1.305
 9912SOL    HW130635   3.484   1.022   1.300
 9912SOL    HW230636   3.592   1.110   1.215
 9913SOL     OW30637   6.384   3.725   0.389
 9913SOL    HW130638   6.433   3.759   0.469
 9913SOL    HW230639   6.447   3.719   0.312
 9914SOL     OW30640   5.942   1.005   4.675
 9914SOL    HW130641   5.900   1.078   4.729
 9914SOL    HW230642   5.920   0.916   4.715
 9915SOL     OW30643   6.139   0.926   3.481
 9915SOL    HW130644   6.063   0.870   3.513
 9915SOL    HW230645   6.105   1.014   3.451
 9916SOL     OW30646   2.405   2.276   3.285
 9916SOL    HW130647   2.472   2.202   3.291
 9916SOL    HW230648   2.359   2.271   3.196
 9917SOL     OW30649   3.979   4.051   6.085
 9917SOL    HW130650   4.078   4.057   6.068
 9917SOL    HW230651   3.957   3.962   6.125
 9918SOL     OW30652   1.586   2.327   2.692
 9918SOL    HW130653   1.622   2.254   2.634
 9918SOL    HW230654   1.657   2.356   2.757
 9919SOL     OW30655   1.167   5.523   0.976
 9919SOL    HW130656   1.149   5.428   0.952
 9919SOL    HW230657   1.105   5.552   1.049
 9920SOL     OW30658   5.108   0.571   2.365
 9920SOL    HW130659   5.151   0.555   2.454
 9920SOL    HW230660   5.172   0.545   2.293
 9921SOL     OW30661   4.521   6.401   4.474
 9921SOL    HW130662   4.560   6.429   4.387
 9921SOL    HW230663   4.559   6.457   4.548
 9922SOL     OW30664   3.597   4.101   1.294
 9922SOL    HW130665   3.586   4.017   1.240
 9922SOL    HW230666   3.526   4.104   1.365
 9923SOL     OW30667   5.893   4.682   6.601
 9923SOL    HW130668   5.917   4.768   6.646
 9923SOL    HW230669   5.799   4.656   6.627
 9924SOL     OW30670   6.121   1.789   3.057
 9924SOL    HW130671   6.196   1.781   2.991
 9924SOL    HW230672   6.035   1.768   3.012
 9925SOL     OW30673   0.760   5.456   3.928
 9925SOL    HW130674   0.733   5.453   3.832
 9925SOL    HW230675   0.679   5.451   3.986
 9926SOL     OW30676   4.139   2.386   1.420
 9926SOL    HW130677   4.224   2.370   1.371
 9926SOL    HW230678   4.106   2.300   1.459
 9927SOL     OW30679   1.339   0.337   1.137
 9927SOL    HW130680   1.309   0.281   1.214
 9927SOL    HW230681   1.260   0.359   1.079
 9928SOL     OW30682   4.916   5.098   3.259
 9928SOL    HW130683   4.883   5.185   3.223
 9928SOL    HW230684   4.895   5.025   3.193
 9929SOL     OW30685   3.337   4.029   4.753
 9929SOL    HW130686   3.242   4.061   4.744
 9929SOL    HW230687   3.362   4.026   4.849
 9930SOL     OW30688   0.259   6.689   5.380
 9930SOL    HW130689   0.348   6.717   5.417
 9930SOL    HW230690   0.220   6.616   5.437
 9931SOL     OW30691   0.055   5.381   4.485
 9931SOL    HW130692   0.060   5.290   4.528
 9931SOL    HW230693   0.061   5.371   4.386
 9932SOL     OW30694   2.341   3.060   5.988
 9932SOL    HW130695   2.297   3.070   5.898
 9932SOL    HW230696   2.439   3.051   5.976
 9933SOL     OW30697   2.010   6.916   4.111
 9933SOL    HW130698   1.996   6.992   4.048
 9933SOL    HW230699   1.932   6.854   4.106
 9934SOL     OW30700   6.830   2.420   5.662
 9934SOL    HW130701   6.884   2.478   5.601
 9934SOL    HW230702   6.890   2.351   5.703
 9935SOL     OW30703   3.093   6.953   0.820
 9935SOL    HW130704   2.996   6.965   0.797
 9935SOL    HW230705   3.101   6.918   0.914
 9936SOL     OW30706   6.317   4.487   0.894
 9936SOL    HW130707   6.320   4.526   0.986
 9936SOL    HW230708   6.254   4.408   0.894
 9937SOL     OW30709   0.374   1.919   1.063
 9937SOL    HW130710   0.365   2.014   1.035
 9937SOL    HW230711   0.468   1.900   1.091
 9938SOL     OW30712   5.972   4.688   3.537
 9938SOL    HW130713   5.998   4.784   3.535
 9938SOL    HW230714   5.886   4.678   3.588
 9939SOL     OW30715   4.739   3.139   1.251
 9939SOL    HW130716   4.721   3.046   1.282
 9939SOL    HW230717   4.725   3.144   1.152
 9940SOL     OW30718   1.409   0.807   1.824
 9940SOL    HW130719   1.408   0.877   1.753
 9940SOL    HW230720   1.348   0.732   1.799
 9941SOL     OW30721   3.454   3.263   5.059
 9941SOL    HW130722   3.528   3.248   5.124
 9941SOL    HW230723   3.492   3.302   4.974
 9942SOL     OW30724   3.036   5.336   2.565
 9942SOL    HW130725   2.958   5.372   2.616
 9942SOL    HW230726   3.064   5.249   2.605
 9943SOL     OW30727   0.777   4.347   6.281
 9943SOL    HW130728   0.860   4.361   6.228
 9943SOL    HW230729   0.719   4.429   6.276
 9944SOL     OW30730   0.735   4.626   6.528
 9944SOL    HW130731   0.769   4.715   6.556
 9944SOL    HW230732   0.686   4.634   6.441
 9945SOL     OW30733   4.403   6.147   6.971
 9945SOL    HW130734   4.434   6.155   0.044
 9945SOL    HW230735   4.325   6.207   6.956
 9946SOL     OW30736   5.972   0.605   3.292
 9946SOL    HW130737   5.888   0.620   3.344
 9946SOL    HW230738   5.980   0.674   3.220
 9947SOL     OW30739   2.653   2.342   4.685
 9947SOL    HW130740   2.600   2.342   4.600
 9947SOL    HW230741   2.747   2.312   4.665
 9948SOL     OW30742   6.836   4.972   6.306
 9948SOL    HW130743   6.865   5.060   6.344
 9948SOL    HW230744   6.797   4.915   6.379
 9949SOL     OW30745   6.572   4.673   4.045
 9949SOL    HW130746   6.509   4.647   3.971
 9949SOL    HW230747   6.655   4.618   4.039
 9950SOL     OW30748   5.491   6.017   6.217
 9950SOL    HW130749   5.490   5.923   6.250
 9950SOL    HW230750   5.407   6.036   6.166
 9951SOL     OW30751   1.497   2.212   3.819
 9951SOL    HW130752   1.414   2.159   3.838
 9951SOL    HW230753   1.562   2.155   3.768
 9952SOL     OW30754   1.485   4.635   0.395
 9952SOL    HW130755   1.415   4.641   0.466
 9952SOL    HW230756   1.443   4.606   0.309
 9953SOL     OW30757   6.331   2.468   3.929
 9953SOL    HW130758   6.294   2.378   3.953
 9953SOL    HW230759   6.424   2.476   3.964
 9954SOL     OW30760   1.023   0.861   5.760
 9954SOL    HW130761   1.080   0.898   5.688
 9954SOL    HW230762   1.001   0.933   5.826
 9955SOL     OW30763   5.236   4.035   6.016
 9955SOL    HW130764   5.306   3.988   5.962
 9955SOL    HW230765   5.227   4.129   5.983
 9956SOL     OW30766   0.600   5.535   2.911
 9956SOL    HW130767   0.686   5.484   2.906
 9956SOL    HW230768   0.619   5.633   2.900
 9957SOL     OW30769   5.829   0.337   1.783
 9957SOL    HW130770   5.927   0.320   1.778
 9957SOL    HW230771   5.811   0.434   1.766
 9958SOL     OW30772   1.922   5.711   6.582
 9958SOL    HW130773   1.914   5.722   6.483
 9958SOL    HW230774   1.840   5.665   6.617
 9959SOL     OW30775   4.092   3.625   4.226
 9959SOL    HW130776   4.113   3.628   4.128
 9959SOL    HW230777   4.165   3.672   4.277
 9960SOL     OW30778   6.919   0.379   2.303
 9960SOL    HW130779   6.881   0.377   2.211
 9960SOL    HW230780   6.898   0.293   2.350
 9961SOL     OW30781   1.518   5.056   4.672
 9961SOL    HW130782   1.582   5.049   4.595
 9961SOL    HW230783   1.567   5.078   4.755
 9962SOL     OW30784   4.445   0.186   2.162
 9962SOL    HW130785   4.380   0.128   2.213
 9962SOL    HW230786   4.408   0.279   2.155
 9963SOL     OW30787   2.560   2.497   6.085
 9963SOL    HW130788   2.494   2.423   6.101
 9963SOL    HW230789   2.652   2.458   6.078
 9964SOL     OW30790   4.540   3.632   5.643
 9964SOL    HW130791   4.498   3.600   5.557
 9964SOL    HW230792   4.635   3.658   5.626
 9965SOL     OW30793   3.894   4.783   6.310
 9965SOL    HW130794   3.866   4.792   6.214
 9965SOL    HW230795   3.903   4.874   6.351
 9966SOL     OW30796   2.178   6.000   2.220
 9966SOL    HW130797   2.123   5.922   2.191
 9966SOL    HW230798   2.259   5.967   2.270
 9967SOL     OW30799   5.883   6.733   2.108
 9967SOL    HW130800   5.789   6.722   2.076
 9967SOL    HW230801   5.946   6.690   2.044
 9968SOL     OW30802   3.227   3.659   6.480
 9968SOL    HW130803   3.189   3.644   6.571
 9968SOL    HW230804   3.326   3.669   6.487
 9969SOL     OW30805   1.345   2.482   4.373
 9969SOL    HW130806   1.424   2.447   4.323
 9969SOL    HW230807   1.359   2.578   4.395
 9970SOL     OW30808   5.576   4.353   2.705
 9970SOL    HW130809   5.665   4.385   2.674
 9970SOL    HW230810   5.581   4.255   2.726
 9971SOL     OW30811   2.876   3.706   0.129
 9971SOL    HW130812   2.841   3.732   0.039
 9971SOL    HW230813   2.954   3.644   0.119
 9972SOL     OW30814   3.718   4.570   0.434
 9972SOL    HW130815   3.797   4.573   0.372
 9972SOL    HW230816   3.666   4.487   0.418
 9973SOL     OW30817   3.968   1.793   3.884
 9973SOL    HW130818   4.051   1.849   3.882
 9973SOL    HW230819   3.978   1.717   3.820
 9974SOL     OW30820   6.606   4.016   3.381
 9974SOL    HW130821   6.638   3.967   3.300
 9974SOL    HW230822   6.564   3.951   3.444
 9975SOL     OW30823   6.684   4.374   0.671
 9975SOL    HW130824   6.659   4.457   0.620
 9975SOL    HW230825   6.784   4.371   0.681
 9976SOL     OW30826   0.452   5.968   5.222
 9976SOL    HW130827   0.445   6.056   5.269
 9976SOL    HW230828   0.371   5.953   5.166
 9977SOL     OW30829   0.267   5.034   6.154
 9977SOL    HW130830   0.282   5.128   6.121
 9977SOL    HW230831   0.337   4.974   6.117
 9978SOL     OW30832   6.473   3.183   3.344
 9978SOL    HW130833   6.509   3.118   3.278
 9978SOL    HW230834   6.437   3.263   3.295
 9979SOL     OW30835   6.424   5.142   5.716
 9979SOL    HW130836   6.436   5.073   5.645
 9979SOL    HW230837   6.374   5.220   5.679
 9980SOL     OW30838   1.567   1.353   6.269
 9980SOL    HW130839   1.587   1.360   6.367
 9980SOL    HW230840   1.618   1.278   6.229
 9981SOL     OW30841   2.281   1.738   1.247
 9981SOL    HW130842   2.186   1.745   1.217
 9981SOL    HW230843   2.335   1.810   1.203
 9982SOL     OW30844   0.443   0.889   4.133
 9982SOL    HW130845   0.533   0.884   4.175
 9982SOL    HW230846   0.450   0.932   4.043
 9983SOL     OW30847   1.070   2.317   2.771
 9983SOL    HW130848   1.039   2.281   2.683
 9983SOL    HW230849   1.170   2.321   2.772
 9984SOL     OW30850   1.360   0.503   0.537
 9984SOL    HW130851   1.297   0.537   0.468
 9984SOL    HW230852   1.398   0.580   0.589
 9985SOL     OW30853   2.278   0.797   1.980
 9985SOL    HW130854   2.310   0.735   1.908
 9985SOL    HW230855   2.354   0.854   2.011
 9986SOL     OW30856   4.817   4.249   6.460
 9986SOL    HW130857   4.794   4.258   6.557
 9986SOL    HW230858   4.834   4.339   6.421
 9987SOL     OW30859   6.361   2.186   3.039
 9987SOL    HW130860   6.343   2.123   3.114
 9987SOL    HW230861   6.281   2.189   2.979
 9988SOL     OW30862   0.197   5.990   4.699
 9988SOL    HW130863   0.198   6.082   4.660
 9988SOL    HW230864   0.254   5.929   4.643
 9989SOL     OW30865   6.195   4.198   3.551
 9989SOL    HW130866   6.220   4.108   3.515
 9989SOL    HW230867   6.263   4.265   3.522
 9990SOL     OW30868   2.619   6.732   2.352
 9990SOL    HW130869   2.701   6.725   2.409
 9990SOL    HW230870   2.591   6.828   2.345
 9991SOL     OW30871   2.082   3.227   4.138
 9991SOL    HW130872   2.096   3.200   4.043
 9991SOL    HW230873   2.129   3.162   4.198
 9992SOL     OW30874   4.648   3.778   0.455
 9992SOL    HW130875   4.563   3.830   0.445
 9992SOL    HW230876   4.635   3.686   0.418
 9993SOL     OW30877   3.728   0.407   1.906
 9993SOL    HW130878   3.816   0.451   1.888
 9993SOL    HW230879   3.668   0.471   1.953
 9994SOL     OW30880   7.009   4.661   4.098
 9994SOL    HW130881   0.054   4.609   4.150
 9994SOL    HW230882   0.030   4.743   4.060
 9995SOL     OW30883   3.458   0.826   2.727
 9995SOL    HW130884   3.547   0.843   2.685
 9995SOL    HW230885   3.466   0.751   2.792
 9996SOL     OW30886   2.930   3.341   2.190
 9996SOL    HW130887   2.906   3.357   2.285
 9996SOL    HW230888   2.903   3.420   2.135
 9997SOL     OW30889   3.558   1.417   1.161
 9997SOL    HW130890   3.561   1.509   1.122
 9997SOL    HW230891   3.464   1.392   1.182
 9998SOL     OW30892   6.090   4.852   1.577
 9998SOL    HW130893   6.060   4.775   1.520
 9998SOL    HW230894   6.119   4.818   1.666
 9999SOL     OW30895   6.329   3.261   4.728
 9999SOL    HW130896   6.407   3.308   4.769
 9999SOL    HW230897   6.272   3.220   4.799
10000SOL     OW30898   6.192   3.501   6.797
10000SOL    HW130899   6.289   3.478   6.789
10000SOL    HW230900   6.174   3.535   6.889
10001SOL     OW30901   5.291   0.917   1.851
10001SOL    HW130902   5.193   0.909   1.836
10001SOL    HW230903   5.308   0.960   1.940
10002SOL     OW30904   1.839   0.561   1.647
10002SOL    HW130905   1.846   0.633   1.715
10002SOL    HW230906   1.848   0.600   1.556
10003SOL     OW30907   3.772   1.543   4.283
10003SOL    HW130908   3.822   1.520   4.199
10003SOL    HW230909   3.834   1.584   4.349
10004SOL     OW30910   4.503   2.201   4.331
10004SOL    HW130911   4.500   2.282   4.272
10004SOL    HW230912   4.428   2.204   4.397
10005SOL     OW30913   4.470   0.247   3.756
10005SOL    HW130914   4.373   0.240   3.731
10005SOL    HW230915   4.488   0.337   3.795
10006SOL     OW30916   5.508   0.780   3.535
10006SOL    HW130917   5.556   0.842   3.597
10006SOL    HW230918   5.420   0.755   3.575
10007SOL     OW30919   0.611   5.139   4.688
10007SOL    HW130920   0.623   5.097   4.778
10007SOL    HW230921   0.598   5.237   4.699
10008SOL     OW30922   4.243   1.281   4.658
10008SOL    HW130923   4.234   1.376   4.685
10008SOL    HW230924   4.315   1.272   4.589
10009SOL     OW30925   1.967   3.669   1.618
10009SOL    HW130926   2.048   3.684   1.675
10009SOL    HW230927   1.936   3.756   1.580
10010SOL     OW30928   1.820   6.667   6.114
10010SOL    HW130929   1.787   6.695   6.024
10010SOL    HW230930   1.779   6.724   6.185
10011SOL     OW30931   5.870   1.609   4.619
10011SOL    HW130932   5.915   1.655   4.695
10011SOL    HW230933   5.788   1.562   4.652
10012SOL     OW30934   4.868   1.349   3.469
10012SOL    HW130935   4.770   1.329   3.474
10012SOL    HW230936   4.890   1.420   3.537
10013SOL     OW30937   1.271   1.638   3.410
10013SOL    HW130938   1.242   1.598   3.497
10013SOL    HW230939   1.366   1.615   3.393
10014SOL     OW30940   6.592   3.284   6.817
10014SOL    HW130941   6.542   3.367   6.792
10014SOL    HW230942   6.539   3.232   6.884
10015SOL     OW30943   2.623   4.288   0.619
10015SOL    HW130944   2.537   4.240   0.635
10015SOL    HW230945   2.604   4.377   0.578
10016SOL     OW30946   2.069   0.474   5.616
10016SOL    HW130947   2.046   0.380   5.639
10016SOL    HW230948   2.119   0.476   5.529
10017SOL     OW30949   2.629   2.336   2.675
10017SOL    HW130950   2.547   2.291   2.710
10017SOL    HW230951   2.616   2.357   2.578
10018SOL     OW30952   4.934   6.936   5.861
10018SOL    HW130953   5.030   6.962   5.876
10018SOL    HW230954   4.903   6.876   5.934
10019SOL     OW30955   0.414   1.789   2.815
10019SOL    HW130956   0.380   1.734   2.739
10019SOL    HW230957   0.412   1.886   2.790
10020SOL     OW30958   0.979   2.600   1.460
10020SOL    HW130959   0.954   2.555   1.546
10020SOL    HW230960   0.990   2.531   1.389
10021SOL     OW30961   0.059   2.392   0.731
10021SOL    HW130962   0.047   2.456   0.655
10021SOL    HW230963   6.996   2.386   0.783
10022SOL     OW30964   3.261   6.937   6.763
10022SOL    HW130965   3.243   6.839   6.757
10022SOL    HW230966   3.353   6.956   6.730
10023SOL     OW30967   1.018   5.158   6.091
10023SOL    HW130968   1.055   5.209   6.169
10023SOL    HW230969   1.061   5.068   6.087
10024SOL     OW30970   1.825   6.571   1.571
10024SOL    HW130971   1.894   6.604   1.636
10024SOL    HW230972   1.819   6.634   1.494
10025SOL     OW30973   1.677   1.684   1.438
10025SOL    HW130974   1.693   1.635   1.353
10025SOL    HW230975   1.612   1.633   1.495
10026SOL     OW30976   5.578   6.853   3.929
10026SOL    HW130977   5.543   6.857   3.835
10026SOL    HW230978   5.663   6.905   3.935
10027SOL     OW30979   6.671   4.020   5.306
10027SOL    HW130980   6.670   4.091   5.235
10027SOL    HW230981   6.666   4.064   5.396
10028SOL     OW30982   1.740   1.783   1.043
10028SOL    HW130983   1.726   1.707   1.107
10028SOL    HW230984   1.659   1.841   1.040
10029SOL     OW30985   3.902   2.003   4.592
10029SOL    HW130986   3.857   1.975   4.676
10029SOL    HW230987   3.835   2.037   4.527
10030SOL     OW30988   2.492   6.696   3.762
10030SOL    HW130989   2.502   6.626   3.691
10030SOL    HW230990   2.398   6.731   3.760
10031SOL     OW30991   6.160   5.067   4.295
10031SOL    HW130992   6.172   5.002   4.369
10031SOL    HW230993   6.062   5.089   4.284
10032SOL     OW30994   2.474   1.963   5.293
10032SOL    HW130995   2.406   1.919   5.234
10032SOL    HW230996   2.536   2.018   5.237
10033SOL     OW30997   5.936   1.801   3.761
10033SOL    HW130998   6.005   1.845   3.819
10033SOL    HW230999   5.856   1.861   3.754
10034SOL     OW31000   2.823   0.336   4.401
10034SOL    HW131001   2.914   0.376   4.411
10034SOL    HW231002   2.754   0.403   4.429
10035SOL     OW31003   6.275   4.395   1.875
10035SOL    HW131004   6.310   4.310   1.914
10035SOL    HW231005   6.218   4.442   1.943
10036SOL     OW31006   6.380   2.580   1.677
10036SOL    HW131007   6.364   2.626   1.589
10036SOL    HW231008   6.478   2.583   1.698
10037SOL     OW31009   6.850   1.006   0.682
10037SOL    HW131010   6.893   0.986   0.770
10037SOL    HW231011   6.819   1.101   0.680
10038SOL     OW31012   5.110   0.777   0.186
10038SOL    HW131013   5.040   0.749   0.252
10038SOL    HW231014   5.130   0.700   0.125
10039SOL     OW31015   3.118   0.522   3.090
10039SOL    HW131016   3.036   0.489   3.044
10039SOL    HW231017   3.118   0.490   3.185
10040SOL     OW31018   4.946   5.295   6.229
10040SOL    HW131019   4.935   5.196   6.219
10040SOL    HW231020   4.985   5.332   6.144
10041SOL     OW31021   4.046   6.169   6.695
10041SOL    HW131022   4.087   6.136   6.610
10041SOL    HW231023   4.012   6.262   6.682
10042SOL     OW31024   1.143   2.376   3.948
10042SOL    HW131025   1.132   2.278   3.964
10042SOL    HW231026   1.190   2.418   4.026
10043SOL     OW31027   6.258   1.168   5.203
10043SOL    HW131028   6.299   1.249   5.161
10043SOL    HW231029   6.162   1.186   5.225
10044SOL     OW31030   1.839   1.874   4.371
10044SOL    HW131031   1.890   1.950   4.411
10044SOL    HW231032   1.819   1.894   4.275
10045SOL     OW31033   4.073   0.351   2.706
10045SOL    HW131034   4.083   0.251   2.703
10045SOL    HW231035   4.164   0.393   2.716
10046SOL     OW31036   2.381   3.684   0.922
10046SOL    HW131037   2.375   3.774   0.965
10046SOL    HW231038   2.309   3.625   0.959
10047SOL     OW31039   1.045   3.369   4.779
10047SOL    HW131040   1.048   3.383   4.878
10047SOL    HW231041   1.100   3.439   4.734
10048SOL     OW31042   7.008   0.143   2.638
10048SOL    HW131043   0.052   0.188   2.697
10048SOL    HW231044   6.977   0.207   2.567
10049SOL     OW31045   1.485   1.224   5.848
10049SOL    HW131046   1.421   1.286   5.893
10049SOL    HW231047   1.486   1.136   5.895
10050SOL     OW31048   5.508   3.777   5.230
10050SOL    HW131049   5.413   3.805   5.241
10050SOL    HW231050   5.524   3.751   5.135
10051SOL     OW31051   0.312   3.741   5.146
10051SOL    HW131052   0.381   3.808   5.119
10051SOL    HW231053   0.245   3.784   5.206
10052SOL     OW31054   2.410   1.164   3.423
10052SOL    HW131055   2.371   1.200   3.339
10052SOL    HW231056   2.485   1.101   3.401
10053SOL     OW31057   4.510   6.111   4.178
10053SOL    HW131058   4.460   6.030   4.209
10053SOL    HW231059   4.603   6.085   4.152
10054SOL     OW31060   5.814   5.816   5.626
10054SOL    HW131061   5.742   5.831   5.558
10054SOL    HW231062   5.788   5.860   5.712
10055SOL     OW31063   6.134   1.551   5.208
10055SOL    HW131064   6.180   1.640   5.215
10055SOL    HW231065   6.101   1.524   5.298
10056SOL     OW31066   5.300   4.417   2.961
10056SOL    HW131067   5.324   4.320   2.972
10056SOL    HW231068   5.238   4.428   2.884
10057SOL     OW31069   5.128   3.341   5.493
10057SOL    HW131070   5.154   3.409   5.425
10057SOL    HW231071   5.042   3.368   5.536
10058SOL     OW31072   6.474   3.926   4.866
10058SOL    HW131073   6.485   4.024   4.884
10058SOL    HW231074   6.465   3.877   4.952
10059SOL     OW31075   0.401   1.496   6.932
10059SOL    HW131076   0.310   1.536   6.945
10059SOL    HW231077   0.463   1.567   6.899
10060SOL     OW31078   2.015   2.637   2.591
10060SOL    HW131079   2.080   2.705   2.558
10060SOL    HW231080   1.967   2.596   2.513
10061SOL     OW31081   4.614   1.343   3.530
10061SOL    HW131082   4.560   1.421   3.560
10061SOL    HW231083   4.620   1.276   3.604
10062SOL     OW31084   6.680   0.369   4.241
10062SOL    HW131085   6.737   0.346   4.320
10062SOL    HW231086   6.739   0.390   4.163
10063SOL     OW31087   3.263   1.012   4.604
10063SOL    HW131088   3.252   0.933   4.664
10063SOL    HW231089   3.176   1.029   4.556
10064SOL     OW31090   5.162   6.793   6.874
10064SOL    HW131091   5.072   6.753   6.855
10064SOL    HW231092   5.222   6.779   6.796
10065SOL     OW31093   2.022   1.064   1.830
10065SOL    HW131094   1.960   1.093   1.903
10065SOL    HW231095   2.080   1.141   1.803
10066SOL     OW31096   0.630   2.900   5.105
10066SOL    HW131097   0.724   2.894   5.072
10066SOL    HW231098   0.631   2.930   5.201
10067SOL     OW31099   0.055   3.146   6.343
10067SOL    HW131100   0.076   3.048   6.346
10067SOL    HW231101   0.088   3.190   6.427
10068SOL     OW31102   0.895   3.501   3.168
10068SOL    HW131103   0.975   3.522   3.113
10068SOL    HW231104   0.888   3.566   3.244
10069SOL     OW31105   3.075   5.122   1.989
10069SOL    HW131106   3.117   5.194   1.933
10069SOL    HW231107   3.011   5.164   2.054
10070SOL     OW31108   0.057   5.509   5.401
10070SOL    HW131109   6.998   5.565   5.386
10070SOL    HW231110   0.132   5.542   5.343
10071SOL     OW31111   0.827   0.266   4.167
10071SOL    HW131112   0.782   0.230   4.085
10071SOL    HW231113   0.785   0.353   4.193
10072SOL     OW31114   0.035   1.019   3.591
10072SOL    HW131115   6.986   0.971   3.641
10072SOL    HW231116   0.012   1.116   3.585
10073SOL     OW31117   0.211   4.268   3.860
10073SOL    HW131118   0.149   4.208   3.911
10073SOL    HW231119   0.215   4.238   3.765
10074SOL     OW31120   2.458   6.253   6.632
10074SOL    HW131121   2.391   6.300   6.574
10074SOL    HW231122   2.411   6.188   6.691
10075SOL     OW31123   1.330   1.651   2.279
10075SOL    HW131124   1.251   1.710   2.261
10075SOL    HW231125   1.392   1.696   2.343
10076SOL     OW31126   4.613   5.876   2.808
10076SOL    HW131127   4.705   5.884   2.847
10076SOL    HW231128   4.599   5.782   2.775
10077SOL     OW31129   4.563   2.610   0.955
10077SOL    HW131130   4.480   2.608   1.011
10077SOL    HW231131   4.565   2.696   0.903
10078SOL     OW31132   6.902   6.167   4.648
10078SOL    HW131133   6.908   6.238   4.718
10078SOL    HW231134   6.918   6.207   4.558
10079SOL     OW31135   6.402   2.690   2.526
10079SOL    HW131136   6.349   2.683   2.442
10079SOL    HW231137   6.351   2.745   2.593
10080SOL     OW31138   4.663   1.577   6.294
10080SOL    HW131139   4.661   1.676   6.299
10080SOL    HW231140   4.742   1.543   6.345
10081SOL     OW31141   0.922   1.693   6.852
10081SOL    HW131142   0.948   1.696   6.948
10081SOL    HW231143   0.875   1.607   6.832
10082SOL     OW31144   1.075   5.260   2.887
10082SOL    HW131145   1.101   5.201   2.964
10082SOL    HW231146   1.100   5.216   2.801
10083SOL     OW31147   3.131   7.006   3.916
10083SOL    HW131148   3.169   0.062   3.966
10083SOL    HW231149   3.031   7.012   3.916
10084SOL     OW31150   0.669   0.084   5.512
10084SOL    HW131151   0.575   0.078   5.478
10084SOL    HW231152   0.732   0.098   5.436
10085SOL     OW31153   3.789   0.020   0.659
10085SOL    HW131154   3.858   0.067   0.714
10085SOL    HW231155   3.708   0.003   0.715
10086SOL     OW31156   6.213   6.994   3.288
10086SOL    HW131157   6.219   0.013   3.198
10086SOL    HW231158   6.282   6.922   3.297
10087SOL     OW31159   6.573   6.500   3.855
10087SOL    HW131160   6.493   6.483   3.796
10087SOL    HW231161   6.571   6.594   3.888
10088SOL     OW31162   0.022   0.268   1.576
10088SOL    HW131163   6.961   0.279   1.522
10088SOL    HW231164   0.017   0.325   1.658
10089SOL     OW31165   3.058   1.933   3.030
10089SOL    HW131166   3.080   1.930   2.932
10089SOL    HW231167   3.017   1.846   3.058
10090SOL     OW31168   0.301   4.735   2.064
10090SOL    HW131169   0.338   4.790   2.138
10090SOL    HW231170   0.368   4.666   2.037
10091SOL     OW31171   6.533   5.857   6.873
10091SOL    HW131172   6.605   5.797   6.837
10091SOL    HW231173   6.505   5.922   6.804
10092SOL     OW31174   1.349   2.787   5.761
10092SOL    HW131175   1.351   2.720   5.688
10092SOL    HW231176   1.440   2.797   5.800
10093SOL     OW31177   4.933   3.382   4.935
10093SOL    HW131178   5.009   3.414   4.878
10093SOL    HW231179   4.884   3.461   4.972
10094SOL     OW31180   2.217   6.214   0.767
10094SOL    HW131181   2.242   6.298   0.718
10094SOL    HW231182   2.118   6.209   0.776
10095SOL     OW31183   5.400   1.668   4.345
10095SOL    HW131184   5.457   1.670   4.263
10095SOL    HW231185   5.400   1.758   4.388
10096SOL     OW31186   4.510   0.475   2.992
10096SOL    HW131187   4.453   0.393   2.996
10096SOL    HW231188   4.497   0.529   3.076
10097SOL     OW31189   2.458   2.169   6.425
10097SOL    HW131190   2.397   2.098   6.391
10097SOL    HW231191   2.477   2.152   6.522
10098SOL     OW31192   2.788   6.780   5.196
10098SOL    HW131193   2.705   6.735   5.228
10098SOL    HW231194   2.868   6.727   5.224
10099SOL     OW31195   6.449   4.229   2.018
10099SOL    HW131196   6.485   4.162   1.953
10099SOL    HW231197   6.525   4.274   2.064
10100SOL     OW31198   5.684   6.212   5.604
10100SOL    HW131199   5.727   6.302   5.608
10100SOL    HW231200   5.586   6.222   5.584
10101SOL     OW31201   6.475   2.961   1.281
10101SOL    HW131202   6.450   3.056   1.265
10101SOL    HW231203   6.475   2.943   1.380
10102SOL     OW31204   6.817   0.303   1.447
10102SOL    HW131205   6.781   0.211   1.431
10102SOL    HW231206   6.854   0.339   1.362
10103SOL     OW31207   1.467   0.435   5.146
10103SOL    HW131208   1.561   0.436   5.179
10103SOL    HW231209   1.454   0.507   5.078
10104SOL     OW31210   1.819   0.993   6.406
10104SOL    HW131211   1.799   1.037   6.318
10104SOL    HW231212   1.734   0.979   6.456
10105SOL     OW31213   1.853   0.827   5.975
10105SOL    HW131214   1.866   0.889   5.898
10105SOL    HW231215   1.778   0.764   5.955
10106SOL     OW31216   4.041   6.518   0.924
10106SOL    HW131217   4.135   6.500   0.951
10106SOL    HW231218   4.019   6.466   0.842
10107SOL     OW31219   5.673   1.810   6.112
10107SOL    HW131220   5.726   1.725   6.113
10107SOL    HW231221   5.717   1.877   6.053
10108SOL     OW31222   0.608   2.664   0.736
10108SOL    HW131223   0.694   2.706   0.705
10108SOL    HW231224   0.545   2.658   0.659
10109SOL     OW31225   0.659   1.129   0.530
10109SOL    HW131226   0.751   1.107   0.563
10109SOL    HW231227   0.634   1.067   0.455
10110SOL     OW31228   4.498   4.888   3.566
10110SOL    HW131229   4.560   4.941   3.508
10110SOL    HW231230   4.413   4.872   3.517
10111SOL     OW31231   0.052   3.547   2.841
10111SOL    HW131232   6.976   3.532   2.856
10111SOL    HW231233   0.082   3.624   2.896
10112SOL     OW31234   5.956   3.439   3.318
10112SOL    HW131235   5.995   3.348   3.302
10112SOL    HW231236   6.010   3.487   3.387
10113SOL     OW31237   4.175   0.223   0.599
10113SOL    HW131238   4.104   0.233   0.669
10113SOL    HW231239   4.201   0.314   0.566
10114SOL     OW31240   3.899   2.020   3.362
10114SOL    HW131241   3.937   2.076   3.288
10114SOL    HW231242   3.831   1.956   3.324
10115SOL     OW31243   3.684   1.728   4.692
10115SOL    HW131244   3.750   1.697   4.624
10115SOL    HW231245   3.639   1.811   4.659
10116SOL     OW31246   6.866   0.354   6.039
10116SOL    HW131247   6.927   0.414   5.986
10116SOL    HW231248   6.906   0.263   6.044
10117SOL     OW31249   6.699   6.068   5.954
10117SOL    HW131250   6.732   6.130   5.883
10117SOL    HW231251   6.690   5.975   5.916
10118SOL     OW31252   2.470   4.779   4.356
10118SOL    HW131253   2.527   4.753   4.277
10118SOL    HW231254   2.520   4.761   4.440
10119SOL     OW31255   6.498   5.441   4.613
10119SOL    HW131256   6.478   5.431   4.710
10119SOL    HW231257   6.441   5.513   4.574
10120SOL     OW31258   1.230   3.097   3.575
10120SOL    HW131259   1.280   3.156   3.637
10120SOL    HW231260   1.231   3.136   3.483
10121SOL     OW31261   6.024   4.259   1.283
10121SOL    HW131262   6.069   4.197   1.347
10121SOL    HW231263   5.982   4.335   1.334
10122SOL     OW31264   6.478   2.333   3.693
10122SOL    HW131265   6.450   2.375   3.779
10122SOL    HW231266   6.556   2.272   3.709
10123SOL     OW31267   5.724   6.645   0.936
10123SOL    HW131268   5.803   6.594   0.903
10123SOL    HW231269   5.641   6.611   0.890
10124SOL     OW31270   1.372   5.354   1.816
10124SOL    HW131271   1.405   5.367   1.910
10124SOL    HW231272   1.425   5.281   1.772
10125SOL     OW31273   2.437   1.350   1.394
10125SOL    HW131274   2.506   1.315   1.330
10125SOL    HW231275   2.452   1.447   1.409
10126SOL     OW31276   6.441   6.949   6.253
10126SOL    HW131277   6.472   6.933   6.347
10126SOL    HW231278   6.352   6.995   6.254
10127SOL     OW31279   1.459   4.206   6.443
10127SOL    HW131280   1.556   4.188   6.463
10127SOL    HW231281   1.422   4.130   6.390
10128SOL     OW31282   3.048   0.738   6.704
10128SOL    HW131283   3.027   0.819   6.649
10128SOL    HW231284   3.030   0.758   6.800
10129SOL     OW31285   0.383   1.645   2.105
10129SOL    HW131286   0.348   1.591   2.029
10129SOL    HW231287   0.396   1.740   2.076
10130SOL     OW31288   0.898   2.873   1.416
10130SOL    HW131289   0.962   2.903   1.346
10130SOL    HW231290   0.927   2.785   1.453
10131SOL     OW31291   1.497   0.435   4.287
10131SOL    HW131292   1.463   0.437   4.381
10131SOL    HW231293   1.497   0.528   4.250
10132SOL     OW31294   1.188   0.587   2.563
10132SOL    HW131295   1.124   0.529   2.612
10132SOL    HW231296   1.272   0.536   2.546
10133SOL     OW31297   4.276   6.727   1.030
10133SOL    HW131298   4.355   6.780   1.059
10133SOL    HW231299   4.306   6.644   0.982
10134SOL     OW31300   0.039   2.005   3.170
10134SOL    HW131301   0.055   2.020   3.267
10134SOL    HW231302   0.101   1.933   3.137
10135SOL     OW31303   5.654   1.698   3.217
10135SOL    HW131304   5.573   1.755   3.233
10135SOL    HW231305   5.637   1.605   3.250
10136SOL     OW31306   4.996   1.947   2.346
10136SOL    HW131307   5.087   1.915   2.373
10136SOL    HW231308   4.998   2.046   2.334
10137SOL     OW31309   0.433   4.866   5.989
10137SOL    HW131310   0.457   4.809   5.910
10137SOL    HW231311   0.344   4.837   6.024
10138SOL     OW31312   5.250   1.932   0.176
10138SOL    HW131313   5.187   2.007   0.159
10138SOL    HW231314   5.235   1.895   0.268
10139SOL     OW31315   3.775   3.207   5.024
10139SOL    HW131316   3.762   3.148   5.103
10139SOL    HW231317   3.794   3.151   4.943
10140SOL     OW31318   6.857   6.581   6.292
10140SOL    HW131319   6.887   6.511   6.227
10140SOL    HW231320   6.771   6.553   6.334
10141SOL     OW31321   4.261   0.855   3.346
10141SOL    HW131322   4.361   0.852   3.338
10141SOL    HW231323   4.237   0.893   3.436
10142SOL     OW31324   5.968   6.741   5.152
10142SOL    HW131325   6.035   6.667   5.154
10142SOL    HW231326   5.905   6.727   5.076
10143SOL     OW31327   5.814   3.320   6.951
10143SOL    HW131328   5.788   3.385   6.880
10143SOL    HW231329   5.744   3.249   6.958
10144SOL     OW31330   4.068   6.793   5.432
10144SOL    HW131331   4.068   6.843   5.345
10144SOL    HW231332   4.160   6.761   5.452
10145SOL     OW31333   4.272   6.212   2.815
10145SOL    HW131334   4.250   6.309   2.822
10145SOL    HW231335   4.332   6.197   2.736
10146SOL     OW31336   0.071   4.254   4.620
10146SOL    HW131337   0.049   4.158   4.604
10146SOL    HW231338   0.013   4.312   4.563
10147SOL     OW31339   4.795   4.786   0.138
10147SOL    HW131340   4.790   4.699   0.089
10147SOL    HW231341   4.880   4.833   0.114
10148SOL     OW31342   6.143   4.190   1.612
10148SOL    HW131343   6.106   4.227   1.698
10148SOL    HW231344   6.241   4.171   1.624
10149SOL     OW31345   4.979   5.026   1.210
10149SOL    HW131346   4.891   4.982   1.192
10149SOL    HW231347   4.966   5.125   1.213
10150SOL     OW31348   5.331   3.405   1.804
10150SOL    HW131349   5.301   3.500   1.806
10150SOL    HW231350   5.260   3.349   1.762
10151SOL     OW31351   0.700   6.892   5.729
10151SOL    HW131352   0.686   6.972   5.670
10151SOL    HW231353   0.735   6.816   5.674
10152SOL     OW31354   6.392   5.933   3.433
10152SOL    HW131355   6.479   5.980   3.444
10152SOL    HW231356   6.353   5.914   3.523
10153SOL     OW31357   4.286   6.014   3.825
10153SOL    HW131358   4.238   5.988   3.742
10153SOL    HW231359   4.309   5.931   3.877
10154SOL     OW31360   4.259   5.297   6.114
10154SOL    HW131361   4.181   5.339   6.069
10154SOL    HW231362   4.289   5.217   6.062
10155SOL     OW31363   5.052   2.008   6.150
10155SOL    HW131364   4.981   2.057   6.098
10155SOL    HW231365   5.054   1.913   6.121
10156SOL     OW31366   4.501   0.339   0.966
10156SOL    HW131367   4.585   0.299   0.930
10156SOL    HW231368   4.520   0.430   1.003
10157SOL     OW31369   0.235   2.419   0.285
10157SOL    HW131370   0.139   2.400   0.307
10157SOL    HW231371   0.290   2.411   0.368
10158SOL     OW31372   5.970   6.732   2.611
10158SOL    HW131373   5.932   6.665   2.546
10158SOL    HW231374   6.065   6.709   2.630
10159SOL     OW31375   3.670   3.223   3.300
10159SOL    HW131376   3.677   3.140   3.244
10159SOL    HW231377   3.679   3.199   3.396
10160SOL     OW31378   2.139   4.611   2.947
10160SOL    HW131379   2.083   4.667   2.884
10160SOL    HW231380   2.129   4.515   2.923
10161SOL     OW31381   3.823   4.398   6.641
10161SOL    HW131382   3.815   4.449   6.556
10161SOL    HW231383   3.828   4.461   6.718
10162SOL     OW31384   2.248   4.615   1.409
10162SOL    HW131385   2.332   4.668   1.422
10162SOL    HW231386   2.264   4.544   1.341
10163SOL     OW31387   0.838   5.630   5.920
10163SOL    HW131388   0.820   5.569   5.998
10163SOL    HW231389   0.824   5.725   5.949
10164SOL     OW31390   6.075   3.423   3.769
10164SOL    HW131391   6.121   3.351   3.820
10164SOL    HW231392   5.976   3.410   3.776
10165SOL     OW31393   6.298   2.260   3.519
10165SOL    HW131394   6.250   2.346   3.500
10165SOL    HW231395   6.374   2.276   3.581
10166SOL     OW31396   1.951   3.171   0.730
10166SOL    HW131397   1.879   3.227   0.690
10166SOL    HW231398   1.922   3.076   0.732
10167SOL     OW31399   0.220   5.006   0.189
10167SOL    HW131400   0.153   4.982   0.259
10167SOL    HW231401   0.202   4.954   0.106
10168SOL     OW31402   6.131   1.108   6.036
10168SOL    HW131403   6.157   1.157   6.119
10168SOL    HW231404   6.214   1.083   5.986
10169SOL     OW31405   6.645   3.905   3.132
10169SOL    HW131406   6.663   3.992   3.085
10169SOL    HW231407   6.578   3.852   3.080
10170SOL     OW31408   6.206   5.156   6.591
10170SOL    HW131409   6.297   5.130   6.559
10170SOL    HW231410   6.192   5.254   6.577
10171SOL     OW31411   1.255   2.265   5.691
10171SOL    HW131412   1.226   2.349   5.738
10171SOL    HW231413   1.181   2.197   5.696
10172SOL     OW31414   0.315   0.146   4.297
10172SOL    HW131415   0.367   0.172   4.215
10172SOL    HW231416   0.243   0.080   4.272
10173SOL     OW31417   3.096   4.054   6.972
10173SOL    HW131418   3.143   4.089   6.891
10173SOL    HW231419   3.077   3.956   6.959
10174SOL     OW31420   4.838   5.181   3.668
10174SOL    HW131421   4.899   5.243   3.717
10174SOL    HW231422   4.839   5.092   3.712
10175SOL     OW31423   6.764   1.594   3.638
10175SOL    HW131424   6.814   1.581   3.724
10175SOL    HW231425   6.829   1.594   3.562
10176SOL     OW31426   6.489   3.888   5.130
10176SOL    HW131427   6.478   3.801   5.179
10176SOL    HW231428   6.565   3.939   5.171
10177SOL     OW31429   2.135   0.517   0.751
10177SOL    HW131430   2.097   0.601   0.790
10177SOL    HW231431   2.114   0.440   0.811
10178SOL     OW31432   1.358   0.941   0.975
10178SOL    HW131433   1.441   0.949   0.920
10178SOL    HW231434   1.346   0.846   1.003
10179SOL     OW31435   0.079   4.020   6.880
10179SOL    HW131436   0.134   4.098   6.909
10179SOL    HW231437   0.040   4.039   6.790
10180SOL     OW31438   4.605   0.557   0.563
10180SOL    HW131439   4.588   0.459   0.553
10180SOL    HW231440   4.549   0.608   0.497
10181SOL     OW31441   0.071   3.226   1.056
10181SOL    HW131442   0.116   3.308   1.021
10181SOL    HW231443   0.123   3.145   1.029
10182SOL     OW31444   5.031   1.200   0.367
10182SOL    HW131445   4.951   1.143   0.385
10182SOL    HW231446   5.114   1.144   0.373
10183SOL     OW31447   5.997   3.039   5.865
10183SOL    HW131448   5.953   2.992   5.789
10183SOL    HW231449   5.955   3.011   5.951
10184SOL     OW31450   5.856   2.994   6.344
10184SOL    HW131451   5.946   3.031   6.368
10184SOL    HW231452   5.785   3.063   6.364
10185SOL     OW31453   4.849   6.257   2.473
10185SOL    HW131454   4.905   6.242   2.391
10185SOL    HW231455   4.855   6.353   2.500
10186SOL     OW31456   4.967   3.730   4.836
10186SOL    HW131457   4.916   3.699   4.916
10186SOL    HW231458   4.965   3.660   4.766
10187SOL     OW31459   2.173   3.853   5.247
10187SOL    HW131460   2.263   3.884   5.216
10187SOL    HW231461   2.102   3.896   5.191
10188SOL     OW31462   3.473   5.641   7.004
10188SOL    HW131463   3.532   5.586   6.945
10188SOL    HW231464   3.402   5.684   6.948
10189SOL     OW31465   1.513   0.628   6.752
10189SOL    HW131466   1.468   0.697   6.808
10189SOL    HW231467   1.566   0.567   6.812
10190SOL     OW31468   3.498   3.110   1.669
10190SOL    HW131469   3.592   3.078   1.675
10190SOL    HW231470   3.464   3.133   1.760
10191SOL     OW31471   5.747   5.905   1.702
10191SOL    HW131472   5.836   5.942   1.675
10191SOL    HW231473   5.682   5.914   1.627
10192SOL     OW31474   2.696   1.880   4.755
10192SOL    HW131475   2.651   1.895   4.667
10192SOL    HW231476   2.630   1.897   4.829
10193SOL     OW31477   3.081   3.953   2.727
10193SOL    HW131478   3.178   3.940   2.749
10193SOL    HW231479   3.046   4.032   2.778
10194SOL     OW31480   3.799   0.051   5.081
10194SOL    HW131481   3.720   0.108   5.058
10194SOL    HW231482   3.786   0.012   5.172
10195SOL     OW31483   6.744   6.879   1.710
10195SOL    HW131484   6.709   6.917   1.796
10195SOL    HW231485   6.691   6.798   1.686
10196SOL     OW31486   5.908   2.525   3.575
10196SOL    HW131487   5.991   2.535   3.630
10196SOL    HW231488   5.902   2.431   3.540
10197SOL     OW31489   5.401   0.936   4.379
10197SOL    HW131490   5.410   0.863   4.311
10197SOL    HW231491   5.424   1.024   4.337
10198SOL     OW31492   3.386   6.511   0.673
10198SOL    HW131493   3.346   6.603   0.673
10198SOL    HW231494   3.345   6.457   0.747
10199SOL     OW31495   0.814   1.125   6.769
10199SOL    HW131496   0.720   1.153   6.750
10199SOL    HW231497   0.850   1.076   6.690
10200SOL     OW31498   5.043   2.694   5.264
10200SOL    HW131499   5.140   2.674   5.254
10200SOL    HW231500   5.031   2.772   5.326
10201SOL     OW31501   0.549   6.195   1.309
10201SOL    HW131502   0.626   6.257   1.295
10201SOL    HW231503   0.473   6.222   1.250
10202SOL     OW31504   1.301   3.567   0.320
10202SOL    HW131505   1.272   3.496   0.256
10202SOL    HW231506   1.290   3.533   0.414
10203SOL     OW31507   1.483   2.834   1.558
10203SOL    HW131508   1.460   2.806   1.651
10203SOL    HW231509   1.578   2.864   1.554
10204SOL     OW31510   3.926   5.295   6.121
10204SOL    HW131511   3.924   5.321   6.024
10204SOL    HW231512   3.967   5.205   6.131
10205SOL     OW31513   3.800   1.099   3.120
10205SOL    HW131514   3.843   1.175   3.169
10205SOL    HW231515   3.701   1.110   3.123
10206SOL     OW31516   5.122   6.360   6.182
10206SOL    HW131517   5.142   6.373   6.279
10206SOL    HW231518   5.106   6.449   6.139
10207SOL     OW31519   1.672   0.652   1.060
10207SOL    HW131520   1.669   0.752   1.068
10207SOL    HW231521   1.695   0.613   1.149
10208SOL     OW31522   6.429   4.840   4.749
10208SOL    HW131523   6.445   4.914   4.684
10208SOL    HW231524   6.452   4.752   4.707
10209SOL     OW31525   0.698   1.051   5.567
10209SOL    HW131526   0.619   1.102   5.600
10209SOL    HW231527   0.710   0.968   5.621
10210SOL     OW31528   4.975   0.237   1.692
10210SOL    HW131529   4.950   0.310   1.627
10210SOL    HW231530   4.898   0.217   1.751
10211SOL     OW31531   4.386   6.359   5.975
10211SOL    HW131532   4.363   6.321   5.885
10211SOL    HW231533   4.411   6.455   5.965
10212SOL     OW31534   0.342   1.446   4.481
10212SOL    HW131535   0.321   1.348   4.486
10212SOL    HW231536   0.288   1.495   4.549
10213SOL     OW31537   6.366   1.804   2.651
10213SOL    HW131538   6.327   1.894   2.630
10213SOL    HW231539   6.384   1.755   2.566
10214SOL     OW31540   0.796   1.500   2.180
10214SOL    HW131541   0.784   1.473   2.084
10214SOL    HW231542   0.706   1.509   2.223
10215SOL     OW31543   3.319   2.950   4.917
10215SOL    HW131544   3.383   2.920   4.989
10215SOL    HW231545   3.239   2.992   4.959
10216SOL     OW31546   6.909   0.036   0.804
10216SOL    HW131547   6.836   0.056   0.870
10216SOL    HW231548   6.996   0.026   0.852
10217SOL     OW31549   2.608   0.994   3.653
10217SOL    HW131550   2.570   0.961   3.566
10217SOL    HW231551   2.655   0.919   3.699
10218SOL     OW31552   0.973   1.287   0.914
10218SOL    HW131553   1.070   1.271   0.933
10218SOL    HW231554   0.939   1.359   0.976
10219SOL     OW31555   0.388   2.941   1.727
10219SOL    HW131556   0.472   2.976   1.686
10219SOL    HW231557   0.391   2.957   1.826
10220SOL     OW31558   3.910   1.552   2.353
10220SOL    HW131559   3.954   1.589   2.435
10220SOL    HW231560   3.907   1.622   2.282
10221SOL     OW31561   1.665   2.032   3.695
10221SOL    HW131562   1.616   2.017   3.609
10221SOL    HW231563   1.634   1.965   3.762
10222SOL     OW31564   1.276   3.431   5.625
10222SOL    HW131565   1.197   3.489   5.603
10222SOL    HW231566   1.285   3.424   5.725
10223SOL     OW31567   1.804   6.017   6.614
10223SOL    HW131568   1.764   6.108   6.602
10223SOL    HW231569   1.836   5.982   6.526
10224SOL     OW31570   0.036   1.001   5.020
10224SOL    HW131571   0.000   1.078   4.966
10224SOL    HW231572   6.995   0.982   5.096
10225SOL     OW31573   1.591   6.594   5.446
10225SOL    HW131574   1.549   6.685   5.446
10225SOL    HW231575   1.606   6.564   5.352
10226SOL     OW31576   2.711   0.231   6.995
10226SOL    HW131577   2.627   0.281   7.018
10226SOL    HW231578   2.756   0.202   0.056
10227SOL     OW31579   4.759   4.526   0.673
10227SOL    HW131580   4.748   4.442   0.727
10227SOL    HW231581   4.856   4.545   0.660
10228SOL     OW31582   0.832   5.566   2.324
10228SOL    HW131583   0.889   5.527   2.252
10228SOL    HW231584   0.827   5.502   2.401
10229SOL     OW31585   1.155   1.270   4.377
10229SOL    HW131586   1.112   1.359   4.365
10229SOL    HW231587   1.087   1.198   4.363
10230SOL     OW31588   6.641   0.009   3.517
10230SOL    HW131589   6.712   6.971   3.482
10230SOL    HW231590   6.597   0.057   3.441
10231SOL     OW31591   7.022   6.124   6.173
10231SOL    HW131592   6.975   6.205   6.137
10231SOL    HW231593   6.963   6.044   6.161
10232SOL     OW31594   2.996   0.577   4.175
10232SOL    HW131595   2.899   0.591   4.157
10232SOL    HW231596   3.049   0.652   4.136
10233SOL     OW31597   5.232   3.297   5.057
10233SOL    HW131598   5.207   3.394   5.061
10233SOL    HW231599   5.167   3.243   5.111
10234SOL     OW31600   5.468   0.690   1.222
10234SOL    HW131601   5.407   0.616   1.251
10234SOL    HW231602   5.420   0.778   1.231
10235SOL     OW31603   4.541   2.201   0.548
10235SOL    HW131604   4.451   2.234   0.577
10235SOL    HW231605   4.540   2.101   0.540
10236SOL     OW31606   1.303   6.415   2.270
10236SOL    HW131607   1.323   6.471   2.190
10236SOL    HW231608   1.326   6.319   2.251
10237SOL     OW31609   6.099   3.979   1.338
10237SOL    HW131610   6.077   3.915   1.264
10237SOL    HW231611   6.016   4.001   1.389
10238SOL     OW31612   3.427   4.119   4.094
10238SOL    HW131613   3.372   4.055   4.040
10238SOL    HW231614   3.382   4.135   4.182
10239SOL     OW31615   1.398   3.944   5.214
10239SOL    HW131616   1.431   3.858   5.174
10239SOL    HW231617   1.414   3.943   5.313
10240SOL     OW31618   1.778   4.848   3.031
10240SOL    HW131619   1.758   4.946   3.031
10240SOL    HW231620   1.858   4.830   2.973
10241SOL     OW31621   0.278   0.642   1.925
10241SOL    HW131622   0.242   0.694   2.003
10241SOL    HW231623   0.350   0.581   1.957
10242SOL     OW31624   6.698   1.626   6.880
10242SOL    HW131625   6.627   1.651   6.945
10242SOL    HW231626   6.739   1.538   6.907
10243SOL     OW31627   0.525   5.297   0.966
10243SOL    HW131628   0.505   5.250   1.051
10243SOL    HW231629   0.509   5.395   0.978
10244SOL     OW31630   1.887   4.945   0.103
10244SOL    HW131631   1.908   5.023   0.161
10244SOL    HW231632   1.792   4.917   0.118
10245SOL     OW31633   3.140   4.528   6.955
10245SOL    HW131634   3.194   4.612   6.949
10245SOL    HW231635   3.172   4.473   0.009
10246SOL     OW31636   2.880   3.678   4.163
10246SOL    HW131637   2.903   3.710   4.071
10246SOL    HW231638   2.783   3.693   4.180
10247SOL     OW31639   0.167   5.447   4.855
10247SOL    HW131640   0.153   5.513   4.780
10247SOL    HW231641   0.099   5.463   4.926
10248SOL     OW31642   2.955   6.521   1.818
10248SOL    HW131643   3.017   6.597   1.799
10248SOL    HW231644   2.924   6.481   1.732
10249SOL     OW31645   3.290   0.823   5.818
10249SOL    HW131646   3.334   0.907   5.852
10249SOL    HW231647   3.206   0.847   5.770
10250SOL     OW31648   6.889   1.728   1.211
10250SOL    HW131649   6.793   1.751   1.199
10250SOL    HW231650   6.946   1.793   1.161
10251SOL     OW31651   2.474   2.323   5.093
10251SOL    HW131652   2.476   2.410   5.044
10251SOL    HW231653   2.527   2.330   5.177
10252SOL     OW31654   6.895   5.726   0.378
10252SOL    HW131655   6.907   5.627   0.390
10252SOL    HW231656   6.935   5.774   0.456
10253SOL     OW31657   5.320   5.952   0.620
10253SOL    HW131658   5.419   5.966   0.615
10253SOL    HW231659   5.278   6.029   0.668
10254SOL     OW31660   4.299   2.011   5.352
10254SOL    HW131661   4.365   1.992   5.279
10254SOL    HW231662   4.209   1.976   5.324
10255SOL     OW31663   2.130   5.074   1.751
10255SOL    HW131664   2.069   5.142   1.791
10255SOL    HW231665   2.221   5.083   1.790
10256SOL     OW31666   5.580   0.722   1.627
10256SOL    HW131667   5.497   0.669   1.649
10256SOL    HW231668   5.660   0.673   1.661
10257SOL     OW31669   2.183   5.156   4.152
10257SOL    HW131670   2.188   5.188   4.058
10257SOL    HW231671   2.132   5.223   4.207
10258SOL     OW31672   4.825   0.216   4.186
10258SOL    HW131673   4.795   0.260   4.101
10258SOL    HW231674   4.838   0.286   4.256
10259SOL     OW31675   0.874   5.128   3.303
10259SOL    HW131676   0.854   5.086   3.392
10259SOL    HW231677   0.791   5.169   3.266
10260SOL     OW31678   0.633   0.125   3.157
10260SOL    HW131679   0.668   0.053   3.217
10260SOL    HW231680   0.620   0.088   3.065
10261SOL     OW31681   6.918   6.081   2.623
10261SOL    HW131682   6.976   6.105   2.702
10261SOL    HW231683   6.947   5.992   2.587
10262SOL     OW31684   2.521   6.243   4.505
10262SOL    HW131685   2.503   6.177   4.432
10262SOL    HW231686   2.506   6.336   4.470
10263SOL     OW31687   4.697   1.456   6.648
10263SOL    HW131688   4.701   1.370   6.699
10263SOL    HW231689   4.768   1.457   6.578
10264SOL     OW31690   5.616   2.081   6.698
10264SOL    HW131691   5.549   2.040   6.636
10264SOL    HW231692   5.645   2.170   6.663
10265SOL     OW31693   3.132   2.101   2.757
10265SOL    HW131694   3.167   2.147   2.676
10265SOL    HW231695   3.035   2.079   2.744
10266SOL     OW31696   3.471   2.678   5.282
10266SOL    HW131697   3.555   2.625   5.290
10266SOL    HW231698   3.393   2.624   5.313
10267SOL     OW31699   6.062   1.887   6.229
10267SOL    HW131700   6.077   1.864   6.132
10267SOL    HW231701   6.104   1.817   6.287
10268SOL     OW31702   3.706   5.649   1.938
10268SOL    HW131703   3.669   5.741   1.925
10268SOL    HW231704   3.767   5.627   1.862
10269SOL     OW31705   1.595   2.097   5.484
10269SOL    HW131706   1.601   2.078   5.582
10269SOL    HW231707   1.501   2.123   5.461
10270SOL     OW31708   2.465   5.421   2.809
10270SOL    HW131709   2.406   5.495   2.840
10270SOL    HW231710   2.410   5.350   2.766
10271SOL     OW31711   4.352   3.056   0.314
10271SOL    HW131712   4.423   3.125   0.311
10271SOL    HW231713   4.302   3.054   0.228
10272SOL     OW31714   0.662   0.514   4.486
10272SOL    HW131715   0.611   0.432   4.509
10272SOL    HW231716   0.660   0.528   4.387
10273SOL     OW31717   4.560   5.199   3.171
10273SOL    HW131718   4.592   5.215   3.077
10273SOL    HW231719   4.501   5.274   3.199
10274SOL     OW31720   1.206   4.289   4.734
10274SOL    HW131721   1.154   4.336   4.805
10274SOL    HW231722   1.303   4.309   4.745
10275SOL     OW31723   0.590   6.712   2.133
10275SOL    HW131724   0.685   6.743   2.137
10275SOL    HW231725   0.561   6.707   2.037
10276SOL     OW31726   6.029   5.618   5.948
10276SOL    HW131727   6.095   5.555   5.991
10276SOL    HW231728   6.026   5.703   6.000
10277SOL     OW31729   2.660   5.875   4.186
10277SOL    HW131730   2.755   5.904   4.188
10277SOL    HW231731   2.654   5.780   4.155
10278SOL     OW31732   5.591   0.943   4.976
10278SOL    HW131733   5.492   0.934   4.990
10278SOL    HW231734   5.624   0.865   4.922
10279SOL     OW31735   2.110   6.440   4.088
10279SOL    HW131736   2.161   6.389   4.157
10279SOL    HW231737   2.122   6.396   3.999
10280SOL     OW31738   2.277   3.679   1.228
10280SOL    HW131739   2.369   3.693   1.263
10280SOL    HW231740   2.216   3.653   1.303
10281SOL     OW31741   6.683   2.286   2.465
10281SOL    HW131742   6.593   2.327   2.447
10281SOL    HW231743   6.709   2.228   2.388
10282SOL     OW31744   6.668   4.160   4.513
10282SOL    HW131745   6.692   4.157   4.416
10282SOL    HW231746   6.683   4.070   4.554
10283SOL     OW31747   0.949   3.419   0.592
10283SOL    HW131748   0.875   3.354   0.575
10283SOL    HW231749   1.031   3.368   0.622
10284SOL     OW31750   5.018   4.169   5.324
10284SOL    HW131751   4.992   4.133   5.414
10284SOL    HW231752   4.952   4.240   5.297
10285SOL     OW31753   4.875   0.506   0.610
10285SOL    HW131754   4.912   0.582   0.556
10285SOL    HW231755   4.777   0.496   0.592
10286SOL     OW31756   3.194   2.086   3.913
10286SOL    HW131757   3.101   2.088   3.949
10286SOL    HW231758   3.250   2.022   3.967
10287SOL     OW31759   1.589   6.474   1.657
10287SOL    HW131760   1.668   6.527   1.626
10287SOL    HW231761   1.582   6.390   1.603
10288SOL     OW31762   5.232   6.460   2.258
10288SOL    HW131763   5.201   6.369   2.286
10288SOL    HW231764   5.246   6.517   2.339
10289SOL     OW31765   3.816   0.484   2.687
10289SOL    HW131766   3.855   0.418   2.752
10289SOL    HW231767   3.865   0.571   2.694
10290SOL     OW31768   3.984   3.854   2.726
10290SOL    HW131769   3.936   3.938   2.698
10290SOL    HW231770   4.031   3.816   2.647
10291SOL     OW31771   4.135   0.918   4.219
10291SOL    HW131772   4.064   0.988   4.212
10291SOL    HW231773   4.151   0.877   4.129
10292SOL     OW31774   0.990   1.264   4.882
10292SOL    HW131775   1.071   1.239   4.936
10292SOL    HW231776   0.940   1.337   4.930
10293SOL     OW31777   1.940   5.911   3.376
10293SOL    HW131778   1.863   5.876   3.429
10293SOL    HW231779   1.943   6.011   3.383
10294SOL     OW31780   4.942   3.663   2.888
10294SOL    HW131781   4.920   3.576   2.844
10294SOL    HW231782   5.001   3.647   2.967
10295SOL     OW31783   6.192   5.480   6.102
10295SOL    HW131784   6.279   5.430   6.107
10295SOL    HW231785   6.123   5.421   6.061
10296SOL     OW31786   5.087   2.939   6.416
10296SOL    HW131787   5.047   2.861   6.367
10296SOL    HW231788   5.023   2.971   6.485
10297SOL     OW31789   2.197   6.516   5.118
10297SOL    HW131790   2.211   6.437   5.177
10297SOL    HW231791   2.284   6.540   5.073
10298SOL     OW31792   4.080   4.775   2.500
10298SOL    HW131793   4.144   4.725   2.440
10298SOL    HW231794   4.107   4.762   2.595
10299SOL     OW31795   4.545   4.408   2.789
10299SOL    HW131796   4.620   4.374   2.846
10299SOL    HW231797   4.542   4.357   2.703
10300SOL     OW31798   2.000   4.789   2.789
10300SOL    HW131799   2.029   4.881   2.813
10300SOL    HW231800   1.948   4.792   2.703
10301SOL     OW31801   6.055   2.415   2.717
10301SOL    HW131802   5.959   2.387   2.707
10301SOL    HW231803   6.059   2.498   2.772
10302SOL     OW31804   0.650   6.316   4.127
10302SOL    HW131805   0.748   6.335   4.127
10302SOL    HW231806   0.624   6.271   4.042
10303SOL     OW31807   3.179   5.474   1.217
10303SOL    HW131808   3.222   5.453   1.130
10303SOL    HW231809   3.111   5.547   1.205
10304SOL     OW31810   5.321   0.683   2.928
10304SOL    HW131811   5.270   0.738   2.862
10304SOL    HW231812   5.369   0.744   2.992
10305SOL     OW31813   0.199   5.366   6.806
10305SOL    HW131814   0.232   5.413   6.724
10305SOL    HW231815   0.108   5.400   6.830
10306SOL     OW31816   4.603   6.506   6.703
10306SOL    HW131817   4.663   6.438   6.662
10306SOL    HW231818   4.518   6.462   6.733
10307SOL     OW31819   2.273   1.708   4.580
10307SOL    HW131820   2.316   1.731   4.493
10307SOL    HW231821   2.233   1.791   4.620
10308SOL     OW31822   2.657   4.922   3.917
10308SOL    HW131823   2.586   4.859   3.948
10308SOL    HW231824   2.736   4.870   3.886
10309SOL     OW31825   6.601   0.390   3.534
10309SOL    HW131826   6.640   0.403   3.625
10309SOL    HW231827   6.511   0.349   3.542
10310SOL     OW31828   3.784   2.719   1.630
10310SOL    HW131829   3.757   2.728   1.534
10310SOL    HW231830   3.739   2.639   1.669
10311SOL     OW31831   0.573   5.645   0.743
10311SOL    HW131832   0.506   5.707   0.786
10311SOL    HW231833   0.525   5.568   0.701
10312SOL     OW31834   2.993   5.670   1.179
10312SOL    HW131835   2.901   5.644   1.150
10312SOL    HW231836   2.994   5.767   1.205
10313SOL     OW31837   3.766   6.916   2.073
10313SOL    HW131838   3.708   6.867   2.138
10313SOL    HW231839   3.861   6.887   2.086
10314SOL     OW31840   6.014   0.980   1.602
10314SOL    HW131841   5.978   0.942   1.516
10314SOL    HW231842   6.107   0.945   1.617
10315SOL     OW31843   6.225   5.675   4.601
10315SOL    HW131844   6.206   5.610   4.527
10315SOL    HW231845   6.240   5.626   4.686
10316SOL     OW31846   6.656   3.611   4.863
10316SOL    HW131847   6.606   3.645   4.784
10316SOL    HW231848   6.705   3.686   4.907
10317SOL     OW31849   3.727   4.628   5.834
10317SOL    HW131850   3.712   4.719   5.797
10317SOL    HW231851   3.641   4.576   5.830
10318SOL     OW31852   6.169   5.391   1.313
10318SOL    HW131853   6.138   5.299   1.337
10318SOL    HW231854   6.255   5.411   1.360
10319SOL     OW31855   1.292   3.241   5.436
10319SOL    HW131856   1.287   3.314   5.504
10319SOL    HW231857   1.316   3.155   5.481
10320SOL     OW31858   0.657   0.730   0.804
10320SOL    HW131859   0.651   0.678   0.889
10320SOL    HW231860   0.616   0.821   0.817
10321SOL     OW31861   4.100   0.744   4.972
10321SOL    HW131862   4.083   0.842   4.961
10321SOL    HW231863   4.016   0.698   5.000
10322SOL     OW31864   6.154   5.409   0.097
10322SOL    HW131865   6.204   5.392   0.182
10322SOL    HW231866   6.204   5.370   0.020
10323SOL     OW31867   6.550   4.013   6.067
10323SOL    HW131868   6.631   3.957   6.048
10323SOL    HW231869   6.504   3.977   6.149
10324SOL     OW31870   3.411   2.934   3.424
10324SOL    HW131871   3.483   2.916   3.491
10324SOL    HW231872   3.423   2.873   3.345
10325SOL     OW31873   6.675   4.600   3.420
10325SOL    HW131874   6.758   4.621   3.368
10325SOL    HW231875   6.693   4.610   3.517
10326SOL     OW31876   4.750   2.694   0.565
10326SOL    HW131877   4.825   2.630   0.549
10326SOL    HW231878   4.665   2.655   0.529
10327SOL     OW31879   2.909   1.504   2.470
10327SOL    HW131880   2.842   1.504   2.544
10327SOL    HW231881   2.897   1.586   2.414
10328SOL     OW31882   6.209   3.282   1.403
10328SOL    HW131883   6.262   3.249   1.325
10328SOL    HW231884   6.124   3.230   1.410
10329SOL     OW31885   2.930   0.168   4.855
10329SOL    HW131886   2.963   0.228   4.927
10329SOL    HW231887   2.922   0.074   4.889
10330SOL     OW31888   3.269   5.687   2.884
10330SOL    HW131889   3.277   5.588   2.886
10330SOL    HW231890   3.213   5.714   2.805
10331SOL     OW31891   6.034   0.769   3.063
10331SOL    HW131892   6.049   0.720   2.977
10331SOL    HW231893   6.121   0.799   3.100
10332SOL     OW31894   6.365   1.380   0.577
10332SOL    HW131895   6.276   1.427   0.577
10332SOL    HW231896   6.390   1.357   0.484
10333SOL     OW31897   6.075   4.379   4.449
10333SOL    HW131898   5.982   4.405   4.473
10333SOL    HW231899   6.073   4.304   4.383
10334SOL     OW31900   2.252   5.511   3.261
10334SOL    HW131901   2.220   5.428   3.216
10334SOL    HW231902   2.350   5.524   3.243
10335SOL     OW31903   2.000   4.435   6.802
10335SOL    HW131904   2.009   4.525   6.845
10335SOL    HW231905   1.940   4.377   6.857
10336SOL     OW31906   5.280   6.637   3.492
10336SOL    HW131907   5.229   6.553   3.508
10336SOL    HW231908   5.362   6.617   3.438
10337SOL     OW31909   6.616   5.917   5.745
10337SOL    HW131910   6.546   5.849   5.728
10337SOL    HW231911   6.656   5.947   5.658
10338SOL     OW31912   3.494   6.555   1.319
10338SOL    HW131913   3.556   6.624   1.357
10338SOL    HW231914   3.538   6.509   1.241
10339SOL     OW31915   3.601   4.612   0.694
10339SOL    HW131916   3.640   4.600   0.603
10339SOL    HW231917   3.647   4.550   0.758
10340SOL     OW31918   1.196   5.549   0.031
10340SOL    HW131919   1.113   5.604   0.042
10340SOL    HW231920   1.250   5.552   0.115
10341SOL     OW31921   2.229   3.015   1.654
10341SOL    HW131922   2.176   3.060   1.726
10341SOL    HW231923   2.326   3.036   1.666
10342SOL     OW31924   2.563   5.705   5.358
10342SOL    HW131925   2.658   5.736   5.363
10342SOL    HW231926   2.504   5.784   5.341
10343SOL     OW31927   2.553   3.927   0.105
10343SOL    HW131928   2.534   4.022   0.131
10343SOL    HW231929   2.559   3.871   0.188
10344SOL     OW31930   4.069   3.803   3.573
10344SOL    HW131931   4.127   3.881   3.598
10344SOL    HW231932   3.985   3.837   3.532
10345SOL     OW31933   1.891   0.352   6.281
10345SOL    HW131934   1.866   0.443   6.316
10345SOL    HW231935   1.983   0.356   6.243
10346SOL     OW31936   5.950   0.845   1.383
10346SOL    HW131937   6.009   0.818   1.307
10346SOL    HW231938   5.856   0.815   1.365
10347SOL     OW31939   5.151   2.397   1.742
10347SOL    HW131940   5.082   2.341   1.789
10347SOL    HW231941   5.128   2.494   1.751
10348SOL     OW31942   6.866   1.024   6.501
10348SOL    HW131943   6.780   1.040   6.549
10348SOL    HW231944   6.900   0.933   6.521
10349SOL     OW31945   6.682   0.774   1.017
10349SOL    HW131946   6.697   0.700   1.083
10349SOL    HW231947   6.685   0.737   0.924
10350SOL     OW31948   3.211   6.254   4.840
10350SOL    HW131949   3.201   6.275   4.743
10350SOL    HW231950   3.228   6.156   4.851
10351SOL     OW31951   6.409   5.437   5.707
10351SOL    HW131952   6.499   5.472   5.680
10351SOL    HW231953   6.343   5.513   5.706
10352SOL     OW31954   5.662   2.105   6.249
10352SOL    HW131955   5.604   2.086   6.170
10352SOL    HW231956   5.712   2.023   6.275
10353SOL     OW31957   6.614   3.336   4.166
10353SOL    HW131958   6.699   3.374   4.132
10353SOL    HW231959   6.622   3.236   4.172
10354SOL     OW31960   0.816   3.520   1.065
10354SOL    HW131961   0.781   3.452   1.001
10354SOL    HW231962   0.777   3.610   1.044
10355SOL     OW31963   0.773   1.068   0.880
10355SOL    HW131964   0.827   1.036   0.802
10355SOL    HW231965   0.777   1.167   0.886
10356SOL     OW31966   6.811   3.253   6.299
10356SOL    HW131967   6.784   3.327   6.237
10356SOL    HW231968   6.908   3.260   6.319
10357SOL     OW31969   3.146   2.176   5.903
10357SOL    HW131970   3.211   2.159   5.829
10357SOL    HW231971   3.169   2.262   5.948
10358SOL     OW31972   1.039   2.814   3.457
10358SOL    HW131973   0.986   2.813   3.371
10358SOL    HW231974   1.033   2.904   3.498
10359SOL     OW31975   4.821   2.079   2.120
10359SOL    HW131976   4.774   2.167   2.118
10359SOL    HW231977   4.819   2.042   2.213
10360SOL     OW31978   5.280   5.380   2.573
10360SOL    HW131979   5.361   5.438   2.581
10360SOL    HW231980   5.202   5.436   2.544
10361SOL     OW31981   2.505   0.328   2.485
10361SOL    HW131982   2.424   0.378   2.514
10361SOL    HW231983   2.517   0.247   2.542
10362SOL     OW31984   0.620   4.743   2.544
10362SOL    HW131985   0.694   4.686   2.508
10362SOL    HW231986   0.550   4.756   2.474
10363SOL     OW31987   4.824   2.688   0.996
10363SOL    HW131988   4.733   2.647   0.998
10363SOL    HW231989   4.830   2.753   0.920
10364SOL     OW31990   4.767   4.627   1.817
10364SOL    HW131991   4.811   4.699   1.870
10364SOL    HW231992   4.770   4.541   1.868
10365SOL     OW31993   5.750   4.540   0.674
10365SOL    HW131994   5.681   4.499   0.734
10365SOL    HW231995   5.715   4.545   0.580
10366SOL     OW31996   3.965   6.688   3.642
10366SOL    HW131997   3.952   6.597   3.602
10366SOL    HW231998   3.884   6.744   3.626
10367SOL     OW31999   0.094   1.482   2.197
10367SOL    HW132000   0.150   1.564   2.187
10367SOL    HW232001   0.149   1.401   2.177
10368SOL     OW32002   1.967   1.103   2.676
10368SOL    HW132003   1.899   1.059   2.617
10368SOL    HW232004   2.044   1.135   2.621
10369SOL     OW32005   2.532   6.471   6.282
10369SOL    HW132006   2.632   6.479   6.280
10369SOL    HW232007   2.496   6.464   6.189
10370SOL     OW32008   5.976   1.429   4.969
10370SOL    HW132009   5.990   1.526   4.947
10370SOL    HW232010   5.981   1.416   5.068
10371SOL     OW32011   2.478   6.892   3.995
10371SOL    HW132012   2.518   6.868   3.907
10371SOL    HW232013   2.393   6.840   4.008
10372SOL     OW32014   3.012   1.090   1.225
10372SOL    HW132015   2.999   1.145   1.307
10372SOL    HW232016   3.000   1.147   1.144
10373SOL     OW32017   0.513   6.765   4.907
10373SOL    HW132018   0.509   6.707   4.825
10373SOL    HW232019   0.441   6.834   4.903
10374SOL     OW32020   2.928   0.082   4.322
10374SOL    HW132021   2.880   0.029   4.391
10374SOL    HW232022   2.897   0.177   4.324
10375SOL     OW32023   2.724   2.176   6.269
10375SOL    HW132024   2.741   2.221   6.181
10375SOL    HW232025   2.702   2.246   6.337
10376SOL     OW32026   0.909   6.350   4.064
10376SOL    HW132027   0.965   6.342   3.981
10376SOL    HW232028   0.969   6.361   4.143
10377SOL     OW32029   0.540   1.778   1.458
10377SOL    HW132030   0.580   1.694   1.421
10377SOL    HW232031   0.451   1.757   1.499
10378SOL     OW32032   6.366   5.682   6.099
10378SOL    HW132033   6.338   5.750   6.167
10378SOL    HW232034   6.293   5.615   6.088
10379SOL     OW32035   3.414   5.511   3.939
10379SOL    HW132036   3.458   5.592   3.979
10379SOL    HW232037   3.484   5.448   3.905
10380SOL     OW32038   0.861   2.400   5.034
10380SOL    HW132039   0.807   2.317   5.046
10380SOL    HW232040   0.872   2.446   5.122
10381SOL     OW32041   4.302   3.865   0.473
10381SOL    HW132042   4.248   3.936   0.518
10381SOL    HW232043   4.267   3.775   0.498
10382SOL     OW32044   2.816   6.133   1.846
10382SOL    HW132045   2.796   6.160   1.941
10382SOL    HW232046   2.792   6.037   1.833
10383SOL     OW32047   2.024   3.851   0.496
10383SOL    HW132048   2.043   3.813   0.405
10383SOL    HW232049   2.036   3.780   0.565
10384SOL     OW32050   6.751   6.617   0.527
10384SOL    HW132051   6.809   6.697   0.538
10384SOL    HW232052   6.675   6.622   0.592
10385SOL     OW32053   4.124   6.097   6.400
10385SOL    HW132054   4.155   6.057   6.314
10385SOL    HW232055   4.201   6.141   6.446
10386SOL     OW32056   0.775   0.789   5.626
10386SOL    HW132057   0.858   0.820   5.672
10386SOL    HW232058   0.728   0.723   5.684
10387SOL     OW32059   4.955   2.487   2.841
10387SOL    HW132060   4.901   2.410   2.808
10387SOL    HW232061   5.051   2.476   2.814
10388SOL     OW32062   1.784   6.610   0.868
10388SOL    HW132063   1.865   6.644   0.916
10388SOL    HW232064   1.782   6.511   0.874
10389SOL     OW32065   5.629   3.807   1.415
10389SOL    HW132066   5.550   3.856   1.379
10389SOL    HW232067   5.603   3.759   1.499
10390SOL     OW32068   1.537   2.796   6.805
10390SOL    HW132069   1.572   2.706   6.830
10390SOL    HW232070   1.561   2.816   6.710
10391SOL     OW32071   0.610   6.186   3.892
10391SOL    HW132072   0.514   6.159   3.891
10391SOL    HW232073   0.661   6.125   3.952
10392SOL     OW32074   5.663   5.523   5.268
10392SOL    HW132075   5.752   5.535   5.312
10392SOL    HW232076   5.590   5.539   5.334
10393SOL     OW32077   2.095   3.903   3.807
10393SOL    HW132078   2.113   3.840   3.730
10393SOL    HW232079   2.143   3.869   3.888
10394SOL     OW32080   2.341   5.311   5.029
10394SOL    HW132081   2.351   5.262   5.115
10394SOL    HW232082   2.249   5.297   4.992
10395SOL     OW32083   0.312   6.904   1.544
10395SOL    HW132084   0.407   6.874   1.546
10395SOL    HW232085   0.293   6.947   1.456
10396SOL     OW32086   3.572   1.792   4.133
10396SOL    HW132087   3.530   1.703   4.117
10396SOL    HW232088   3.630   1.816   4.055
10397SOL     OW32089   3.383   1.431   4.374
10397SOL    HW132090   3.355   1.366   4.444
10397SOL    HW232091   3.412   1.382   4.292
10398SOL     OW32092   6.453   2.935   0.425
10398SOL    HW132093   6.544   2.934   0.384
10398SOL    HW232094   6.440   3.019   0.476
10399SOL     OW32095   5.346   2.405   3.163
10399SOL    HW132096   5.286   2.437   3.237
10399SOL    HW232097   5.413   2.476   3.141
10400SOL     OW32098   4.318   5.819   0.160
10400SOL    HW132099   4.367   5.875   0.227
10400SOL    HW232100   4.241   5.871   0.123
10401SOL     OW32101   0.032   6.207   2.228
10401SOL    HW132102   0.018   6.260   2.311
10401SOL    HW232103   0.130   6.196   2.212
10402SOL     OW32104   6.304   1.769   5.499
10402SOL    HW132105   6.387   1.716   5.515
10402SOL    HW232106   6.227   1.725   5.545
10403SOL     OW32107   4.765   2.142   3.420
10403SOL    HW132108   4.701   2.151   3.344
10403SOL    HW232109   4.859   2.147   3.386
10404SOL     OW32110   5.807   6.300   4.511
10404SOL    HW132111   5.896   6.322   4.550
10404SOL    HW232112   5.809   6.317   4.412
10405SOL     OW32113   0.859   0.072   4.363
10405SOL    HW132114   0.876   0.106   4.455
10405SOL    HW232115   0.850   0.149   4.300
10406SOL     OW32116   2.045   4.181   3.766
10406SOL    HW132117   2.100   4.136   3.696
10406SOL    HW232118   2.005   4.112   3.827
10407SOL     OW32119   2.637   6.829   6.259
10407SOL    HW132120   2.553   6.842   6.312
10407SOL    HW232121   2.697   6.908   6.274
10408SOL     OW32122   4.485   0.132   1.186
10408SOL    HW132123   4.561   0.139   1.250
10408SOL    HW232124   4.500   0.195   1.109
10409SOL     OW32125   0.454   5.145   1.175
10409SOL    HW132126   0.496   5.065   1.133
10409SOL    HW232127   0.354   5.139   1.167
10410SOL     OW32128   5.031   2.189   1.915
10410SOL    HW132129   5.060   2.184   2.010
10410SOL    HW232130   4.937   2.222   1.911
10411SOL     OW32131   3.647   6.835   3.430
10411SOL    HW132132   3.567   6.884   3.466
10411SOL    HW232133   3.730   6.876   3.467
10412SOL     OW32134   0.359   0.943   6.779
10412SOL    HW132135   0.279   0.896   6.816
10412SOL    HW232136   0.331   1.032   6.742
10413SOL     OW32137   0.154   2.908   6.967
10413SOL    HW132138   0.193   2.958   0.021
10413SOL    HW232139   0.224   2.849   6.927
10414SOL     OW32140   4.093   5.635   5.912
10414SOL    HW132141   4.180   5.671   5.946
10414SOL    HW232142   4.072   5.679   5.824
10415SOL     OW32143   1.749   3.622   5.340
10415SOL    HW132144   1.777   3.713   5.309
10415SOL    HW232145   1.818   3.555   5.313
10416SOL     OW32146   5.959   0.390   5.081
10416SOL    HW132147   6.006   0.321   5.027
10416SOL    HW232148   5.935   0.352   5.171
10417SOL     OW32149   2.990   5.182   3.812
10417SOL    HW132150   2.979   5.088   3.845
10417SOL    HW232151   2.994   5.244   3.889
10418SOL     OW32152   6.599   3.965   6.380
10418SOL    HW132153   6.558   3.882   6.343
10418SOL    HW232154   6.644   3.945   6.466
10419SOL     OW32155   2.639   6.791   5.873
10419SOL    HW132156   2.666   6.886   5.889
10419SOL    HW232157   2.621   6.777   5.775
10420SOL     OW32158   0.625   3.786   3.612
10420SOL    HW132159   0.709   3.737   3.637
10420SOL    HW232160   0.558   3.776   3.685
10421SOL     OW32161   0.821   2.279   3.677
10421SOL    HW132162   0.882   2.220   3.623
10421SOL    HW232163   0.876   2.346   3.728
10422SOL     OW32164   5.837   3.620   5.078
10422SOL    HW132165   5.897   3.550   5.038
10422SOL    HW232166   5.773   3.576   5.141
10423SOL     OW32167   5.930   5.280   5.377
10423SOL    HW132168   5.973   5.247   5.460
10423SOL    HW232169   5.932   5.209   5.307
10424SOL     OW32170   5.019   2.830   0.386
10424SOL    HW132171   4.961   2.909   0.405
10424SOL    HW232172   4.997   2.756   0.449
10425SOL     OW32173   1.107   6.823   1.932
10425SOL    HW132174   1.137   6.786   2.019
10425SOL    HW232175   1.168   6.896   1.903
10426SOL     OW32176   5.499   5.227   0.478
10426SOL    HW132177   5.543   5.175   0.551
10426SOL    HW232178   5.435   5.294   0.517
10427SOL     OW32179   3.890   1.171   6.321
10427SOL    HW132180   3.904   1.102   6.250
10427SOL    HW232181   3.941   1.145   6.403
10428SOL     OW32182   3.358   0.538   3.986
10428SOL    HW132183   3.275   0.489   3.958
10428SOL    HW232184   3.423   0.473   4.025
10429SOL     OW32185   6.941   3.988   1.071
10429SOL    HW132186   6.852   3.961   1.107
10429SOL    HW232187   6.955   4.086   1.087
10430SOL     OW32188   4.979   0.345   4.641
10430SOL    HW132189   5.004   0.432   4.683
10430SOL    HW232190   4.938   0.286   4.711
10431SOL     OW32191   2.715   5.972   4.538
10431SOL    HW132192   2.794   6.015   4.494
10431SOL    HW232193   2.632   6.020   4.511
10432SOL     OW32194   5.406   0.049   4.969
10432SOL    HW132195   5.448   7.002   5.027
10432SOL    HW232196   5.357   0.005   4.894
10433SOL     OW32197   1.048   5.867   1.636
10433SOL    HW132198   1.029   5.941   1.572
10433SOL    HW232199   1.043   5.779   1.589
10434SOL     OW32200   3.942   6.040   3.224
10434SOL    HW132201   3.897   6.089   3.299
10434SOL    HW232202   3.879   6.034   3.146
10435SOL     OW32203   6.540   1.050   5.326
10435SOL    HW132204   6.451   1.030   5.285
10435SOL    HW232205   6.612   1.019   5.264
10436SOL     OW32206   0.165   5.063   5.862
10436SOL    HW132207   0.233   4.991   5.877
10436SOL    HW232208   0.094   5.057   5.932
10437SOL     OW32209   4.776   4.070   5.707
10437SOL    HW132210   4.837   4.045   5.632
10437SOL    HW232211   4.683   4.043   5.686
10438SOL     OW32212   5.883   6.679   0.153
10438SOL    HW132213   5.875   6.685   0.253
10438SOL    HW232214   5.830   6.602   0.120
10439SOL     OW32215   3.877   1.249   5.718
10439SOL    HW132216   3.802   1.192   5.752
10439SOL    HW232217   3.962   1.224   5.765
10440SOL     OW32218   1.164   0.301   0.284
10440SOL    HW132219   1.263   0.287   0.280
10440SOL    HW232220   1.144   0.377   0.347
10441SOL     OW32221   3.581   0.945   1.577
10441SOL    HW132222   3.534   0.962   1.664
10441SOL    HW232223   3.527   0.983   1.502
10442SOL     OW32224   3.590   6.603   6.043
10442SOL    HW132225   3.518   6.558   5.990
10442SOL    HW232226   3.654   6.535   6.078
10443SOL     OW32227   4.696   4.262   4.022
10443SOL    HW132228   4.701   4.233   4.117
10443SOL    HW232229   4.626   4.333   4.012
10444SOL     OW32230   4.246   6.170   4.382
10444SOL    HW132231   4.320   6.154   4.317
10444SOL    HW232232   4.240   6.268   4.402
10445SOL     OW32233   0.616   4.942   4.504
10445SOL    HW132234   0.626   5.023   4.561
10445SOL    HW232235   0.683   4.945   4.430
10446SOL     OW32236   1.354   2.993   5.560
10446SOL    HW132237   1.435   2.959   5.512
10446SOL    HW232238   1.347   2.950   5.650
10447SOL     OW32239   0.239   1.265   1.641
10447SOL    HW132240   0.337   1.262   1.664
10447SOL    HW232241   0.229   1.259   1.542
10448SOL     OW32242   4.567   0.602   2.527
10448SOL    HW132243   4.505   0.627   2.602
10448SOL    HW232244   4.629   0.678   2.509
10449SOL     OW32245   2.758   5.195   4.684
10449SOL    HW132246   2.706   5.124   4.636
10449SOL    HW232247   2.709   5.222   4.767
10450SOL     OW32248   0.910   2.030   0.647
10450SOL    HW132249   0.949   1.952   0.598
10450SOL    HW232250   0.898   2.007   0.743
10451SOL     OW32251   1.320   5.481   2.309
10451SOL    HW132252   1.269   5.399   2.283
10451SOL    HW232253   1.355   5.469   2.402
10452SOL     OW32254   6.393   2.978   2.301
10452SOL    HW132255   6.328   2.909   2.334
10452SOL    HW232256   6.343   3.063   2.281
10453SOL     OW32257   3.793   6.515   1.463
10453SOL    HW132258   3.785   6.541   1.560
10453SOL    HW232259   3.771   6.594   1.406
10454SOL     OW32260   4.271   3.362   0.187
10454SOL    HW132261   4.331   3.366   0.267
10454SOL    HW232262   4.182   3.401   0.211
10455SOL     OW32263   6.612   6.541   3.453
10455SOL    HW132264   6.569   6.605   3.517
10455SOL    HW232265   6.711   6.544   3.466
10456SOL     OW32266   2.834   6.540   0.824
10456SOL    HW132267   2.870   6.605   0.757
10456SOL    HW232268   2.910   6.501   0.876
10457SOL     OW32269   2.923   3.726   2.414
10457SOL    HW132270   2.870   3.643   2.398
10457SOL    HW232271   2.932   3.778   2.329
10458SOL     OW32272   0.079   1.728   6.228
10458SOL    HW132273   0.059   1.659   6.297
10458SOL    HW232274   7.017   1.768   6.194
10459SOL     OW32275   4.919   5.837   1.594
10459SOL    HW132276   4.954   5.766   1.654
10459SOL    HW232277   4.995   5.883   1.549
10460SOL     OW32278   0.993   4.125   2.218
10460SOL    HW132279   0.971   4.129   2.121
10460SOL    HW232280   1.013   4.031   2.243
10461SOL     OW32281   0.571   5.123   5.300
10461SOL    HW132282   0.665   5.130   5.335
10461SOL    HW232283   0.539   5.213   5.271
10462SOL     OW32284   6.370   1.754   3.506
10462SOL    HW132285   6.279   1.746   3.466
10462SOL    HW232286   6.392   1.671   3.557
10463SOL     OW32287   3.997   3.039   5.616
10463SOL    HW132288   4.031   3.119   5.665
10463SOL    HW232289   4.057   3.018   5.539
10464SOL     OW32290   6.458   6.859   1.243
10464SOL    HW132291   6.420   6.771   1.217
10464SOL    HW232292   6.436   6.927   1.173
10465SOL     OW32293   6.491   5.633   1.607
10465SOL    HW132294   6.545   5.697   1.551
10465SOL    HW232295   6.553   5.579   1.664
10466SOL     OW32296   4.424   5.389   6.467
10466SOL    HW132297   4.468   5.407   6.555
10466SOL    HW232298   4.494   5.385   6.396
10467SOL     OW32299   1.880   1.940   6.221
10467SOL    HW132300   1.821   2.012   6.258
10467SOL    HW232301   1.891   1.868   6.290
10468SOL     OW32302   3.527   5.197   3.013
10468SOL    HW132303   3.490   5.105   3.015
10468SOL    HW232304   3.542   5.230   3.106
10469SOL     OW32305   3.812   3.391   5.551
10469SOL    HW132306   3.834   3.442   5.468
10469SOL    HW232307   3.851   3.299   5.545
10470SOL     OW32308   2.835   2.258   3.550
10470SOL    HW132309   2.810   2.191   3.620
10470SOL    HW232310   2.836   2.349   3.591
10471SOL     OW32311   2.608   2.006   0.905
10471SOL    HW132312   2.556   1.922   0.921
10471SOL    HW232313   2.698   1.984   0.867
10472SOL     OW32314   3.858   5.545   0.202
10472SOL    HW132315   3.781   5.481   0.207
10472SOL    HW232316   3.903   5.536   0.114
10473SOL     OW32317   6.989   0.618   6.809
10473SOL    HW132318   7.022   0.581   6.721
10473SOL    HW232319   6.897   0.655   6.797
10474SOL     OW32320   4.867   1.618   4.504
10474SOL    HW132321   4.798   1.611   4.431
10474SOL    HW232322   4.956   1.593   4.467
10475SOL     OW32323   5.199   6.792   2.346
10475SOL    HW132324   5.103   6.821   2.348
10475SOL    HW232325   5.253   6.859   2.295
10476SOL     OW32326   6.915   6.292   6.789
10476SOL    HW132327   6.876   6.249   6.708
10476SOL    HW232328   6.979   6.364   6.762
10477SOL     OW32329   6.796   1.991   4.094
10477SOL    HW132330   6.737   2.066   4.124
10477SOL    HW232331   6.742   1.907   4.087
10478SOL     OW32332   0.401   0.559   1.066
10478SOL    HW132333   0.424   0.470   1.105
10478SOL    HW232334   0.392   0.626   1.140
10479SOL     OW32335   0.126   2.546   1.118
10479SOL    HW132336   0.226   2.549   1.118
10479SOL    HW232337   0.094   2.503   1.203
10480SOL     OW32338   6.316   0.554   1.910
10480SOL    HW132339   6.232   0.533   1.959
10480SOL    HW232340   6.374   0.472   1.906
10481SOL     OW32341   2.391   6.838   4.825
10481SOL    HW132342   2.401   6.904   4.899
10481SOL    HW232343   2.311   6.861   4.769
10482SOL     OW32344   6.668   6.087   4.887
10482SOL    HW132345   6.755   6.134   4.873
10482SOL    HW232346   6.658   6.063   4.983
10483SOL     OW32347   0.048   5.315   0.603
10483SOL    HW132348   7.022   5.228   0.613
10483SOL    HW232349   0.015   5.362   0.521
10484SOL     OW32350   5.933   1.508   1.517
10484SOL    HW132351   5.960   1.412   1.519
10484SOL    HW232352   5.964   1.554   1.601
10485SOL     OW32353   3.255   4.136   1.874
10485SOL    HW132354   3.196   4.083   1.815
10485SOL    HW232355   3.257   4.096   1.966
10486SOL     OW32356   6.460   0.769   6.116
10486SOL    HW132357   6.478   0.803   6.208
10486SOL    HW232358   6.543   0.723   6.081
10487SOL     OW32359   4.391   1.941   2.000
10487SOL    HW132360   4.456   1.970   1.930
10487SOL    HW232361   4.375   2.016   2.065
10488SOL     OW32362   2.267   1.659   6.108
10488SOL    HW132363   2.316   1.661   6.022
10488SOL    HW232364   2.332   1.660   6.184
10489SOL     OW32365   6.261   6.628   4.427
10489SOL    HW132366   6.277   6.679   4.342
10489SOL    HW232367   6.264   6.690   4.505
10490SOL     OW32368   5.936   1.775   0.754
10490SOL    HW132369   5.964   1.794   0.660
10490SOL    HW232370   5.871   1.845   0.784
10491SOL     OW32371   2.716   2.077   5.173
10491SOL    HW132372   2.789   2.075   5.241
10491SOL    HW232373   2.749   2.122   5.090
10492SOL     OW32374   5.248   6.191   1.567
10492SOL    HW132375   5.301   6.239   1.496
10492SOL    HW232376   5.299   6.191   1.652
10493SOL     OW32377   2.635   6.455   2.171
10493SOL    HW132378   2.552   6.489   2.215
10493SOL    HW232379   2.676   6.527   2.115
10494SOL     OW32380   5.525   4.498   6.194
10494SOL    HW132381   5.464   4.567   6.153
10494SOL    HW232382   5.484   4.408   6.184
10495SOL     OW32383   0.122   0.383   0.840
10495SOL    HW132384   0.204   0.435   0.815
10495SOL    HW232385   0.054   0.444   0.880
10496SOL     OW32386   6.032   4.420   6.229
10496SOL    HW132387   6.113   4.397   6.282
10496SOL    HW232388   6.009   4.516   6.243
10497SOL     OW32389   0.990   6.561   1.897
10497SOL    HW132390   1.063   6.500   1.929
10497SOL    HW232391   1.029   6.650   1.872
10498SOL     OW32392   5.586   5.653   0.761
10498SOL    HW132393   5.673   5.699   0.782
10498SOL    HW232394   5.598   5.554   0.771
10499SOL     OW32395   4.719   0.452   2.070
10499SOL    HW132396   4.749   0.481   2.162
10499SOL    HW232397   4.619   0.454   2.065
10500SOL     OW32398   5.829   1.788   5.664
10500SOL    HW132399   5.777   1.708   5.694
10500SOL    HW232400   5.768   1.853   5.618
10501SOL     OW32401   2.655   5.235   2.087
10501SOL    HW132402   2.739   5.195   2.124
10501SOL    HW232403   2.621   5.177   2.013
10502SOL     OW32404   3.215   3.305   1.369
10502SOL    HW132405   3.280   3.363   1.419
10502SOL    HW232406   3.237   3.209   1.387
10503SOL     OW32407   5.966   3.371   0.423
10503SOL    HW132408   5.994   3.282   0.459
10503SOL    HW232409   5.915   3.358   0.338
10504SOL     OW32410   0.041   3.211   5.501
10504SOL    HW132411   0.033   3.308   5.476
10504SOL    HW232412   0.129   3.176   5.468
10505SOL     OW32413   5.918   5.828   1.068
10505SOL    HW132414   5.976   5.752   1.099
10505SOL    HW232415   5.923   5.836   0.969
10506SOL     OW32416   1.002   3.659   6.837
10506SOL    HW132417   0.979   3.678   6.741
10506SOL    HW232418   0.939   3.590   6.873
10507SOL     OW32419   2.086   5.351   0.202
10507SOL    HW132420   2.111   5.293   0.279
10507SOL    HW232421   2.103   5.447   0.226
10508SOL     OW32422   6.964   5.886   4.791
10508SOL    HW132423   6.899   5.944   4.742
10508SOL    HW232424   0.035   5.914   4.768
10509SOL     OW32425   6.474   4.577   4.961
10509SOL    HW132426   6.477   4.665   5.007
10509SOL    HW232427   6.395   4.573   4.900
10510SOL     OW32428   4.581   6.406   0.341
10510SOL    HW132429   4.617   6.447   0.257
10510SOL    HW232430   4.555   6.478   0.405
10511SOL     OW32431   3.026   0.958   2.479
10511SOL    HW132432   3.098   0.889   2.492
10511SOL    HW232433   3.054   1.043   2.523
10512SOL     OW32434   3.227   0.624   6.042
10512SOL    HW132435   3.235   0.692   5.969
10512SOL    HW232436   3.131   0.609   6.063
10513SOL     OW32437   6.829   3.019   3.214
10513SOL    HW132438   6.877   3.081   3.152
10513SOL    HW232439   6.737   3.002   3.180
10514SOL     OW32440   0.813   2.511   1.681
10514SOL    HW132441   0.845   2.417   1.697
10514SOL    HW232442   0.843   2.569   1.757
10515SOL     OW32443   1.598   3.665   4.460
10515SOL    HW132444   1.649   3.729   4.403
10515SOL    HW232445   1.593   3.576   4.415
10516SOL     OW32446   3.041   1.507   0.216
10516SOL    HW132447   3.081   1.596   0.239
10516SOL    HW232448   3.000   1.467   0.298
10517SOL     OW32449   1.006   3.784   1.704
10517SOL    HW132450   0.990   3.742   1.615
10517SOL    HW232451   1.031   3.714   1.770
10518SOL     OW32452   6.818   6.083   1.695
10518SOL    HW132453   6.897   6.144   1.697
10518SOL    HW232454   6.824   6.023   1.615
10519SOL     OW32455   3.162   3.655   0.745
10519SOL    HW132456   3.256   3.688   0.753
10519SOL    HW232457   3.149   3.613   0.655
10520SOL     OW32458   0.428   2.737   5.722
10520SOL    HW132459   0.348   2.773   5.771
10520SOL    HW232460   0.401   2.714   5.628
10521SOL     OW32461   0.149   5.596   1.210
10521SOL    HW132462   0.087   5.521   1.187
10521SOL    HW232463   0.234   5.560   1.248
10522SOL     OW32464   0.223   2.468   3.847
10522SOL    HW132465   0.296   2.484   3.780
10522SOL    HW232466   0.186   2.375   3.835
10523SOL     OW32467   0.683   4.846   3.008
10523SOL    HW132468   0.622   4.786   2.956
10523SOL    HW232469   0.649   4.855   3.101
10524SOL     OW32470   7.018   6.382   4.405
10524SOL    HW132471   7.005   6.458   4.341
10524SOL    HW232472   6.948   6.312   4.388
10525SOL     OW32473   3.549   1.025   5.039
10525SOL    HW132474   3.590   0.979   4.961
10525SOL    HW232475   3.545   1.124   5.020
10526SOL     OW32476   1.206   0.126   1.612
10526SOL    HW132477   1.206   0.211   1.664
10526SOL    HW232478   1.112   0.101   1.589
10527SOL     OW32479   1.531   0.983   5.969
10527SOL    HW132480   1.489   0.967   6.058
10527SOL    HW232481   1.502   0.912   5.904
10528SOL     OW32482   1.314   4.362   6.257
10528SOL    HW132483   1.324   4.458   6.281
10528SOL    HW232484   1.336   4.305   6.336
10529SOL     OW32485   2.228   5.979   4.254
10529SOL    HW132486   2.244   5.966   4.156
10529SOL    HW232487   2.174   6.061   4.269
10530SOL     OW32488   1.405   6.825   6.054
10530SOL    HW132489   1.350   6.853   6.132
10530SOL    HW232490   1.421   6.726   6.058
10531SOL     OW32491   2.449   1.744   4.366
10531SOL    HW132492   2.452   1.733   4.267
10531SOL    HW232493   2.461   1.840   4.390
10532SOL     OW32494   0.292   6.807   6.061
10532SOL    HW132495   0.233   6.736   6.099
10532SOL    HW232496   0.353   6.768   5.992
10533SOL     OW32497   3.113   6.010   3.539
10533SOL    HW132498   3.112   6.108   3.518
10533SOL    HW232499   3.072   5.959   3.463
10534SOL     OW32500   6.545   4.725   2.092
10534SOL    HW132501   6.581   4.691   2.179
10534SOL    HW232502   6.611   4.707   2.019
10535SOL     OW32503   2.121   1.523   2.490
10535SOL    HW132504   2.136   1.589   2.416
10535SOL    HW232505   2.194   1.454   2.488
10536SOL     OW32506   4.483   1.191   4.254
10536SOL    HW132507   4.470   1.263   4.323
10536SOL    HW232508   4.547   1.223   4.184
10537SOL     OW32509   4.972   6.732   3.997
10537SOL    HW132510   4.963   6.691   3.906
10537SOL    HW232511   4.882   6.760   4.030
10538SOL     OW32512   6.788   3.357   0.416
10538SOL    HW132513   6.693   3.358   0.447
10538SOL    HW232514   6.798   3.421   0.339
10539SOL     OW32515   6.262   5.920   1.148
10539SOL    HW132516   6.268   5.930   1.247
10539SOL    HW232517   6.254   5.823   1.124
10540SOL     OW32518   2.160   2.797   5.341
10540SOL    HW132519   2.109   2.717   5.312
10540SOL    HW232520   2.101   2.858   5.393
10541SOL     OW32521   4.124   3.487   2.998
10541SOL    HW132522   4.219   3.457   2.991
10541SOL    HW232523   4.080   3.441   3.075
10542SOL     OW32524   6.851   0.991   5.215
10542SOL    HW132525   6.850   0.893   5.198
10542SOL    HW232526   6.866   1.008   5.313
10543SOL     OW32527   1.159   1.625   4.126
10543SOL    HW132528   1.080   1.618   4.065
10543SOL    HW232529   1.167   1.719   4.160
10544SOL     OW32530   2.190   6.486   1.709
10544SOL    HW132531   2.133   6.421   1.759
10544SOL    HW232532   2.281   6.489   1.750
10545SOL     OW32533   1.612   2.530   1.501
10545SOL    HW132534   1.549   2.600   1.467
10545SOL    HW232535   1.606   2.525   1.601
10546SOL     OW32536   2.950   6.113   0.298
10546SOL    HW132537   2.914   6.084   0.210
10546SOL    HW232538   2.940   6.038   0.364
10547SOL     OW32539   5.469   2.759   3.835
10547SOL    HW132540   5.405   2.807   3.775
10547SOL    HW232541   5.533   2.705   3.779
10548SOL     OW32542   0.082   4.501   4.317
10548SOL    HW132543   0.046   4.556   4.393
10548SOL    HW232544   0.181   4.505   4.316
10549SOL     OW32545   0.832   1.541   1.030
10549SOL    HW132546   0.788   1.552   0.941
10549SOL    HW232547   0.931   1.533   1.018
10550SOL     OW32548   4.785   6.286   3.786
10550SOL    HW132549   4.797   6.211   3.721
10550SOL    HW232550   4.689   6.288   3.817
10551SOL     OW32551   1.764   2.002   0.142
10551SOL    HW132552   1.694   2.035   0.206
10551SOL    HW232553   1.836   1.955   0.193
10552SOL     OW32554   1.874   0.705   5.250
10552SOL    HW132555   1.821   0.627   5.217
10552SOL    HW232556   1.891   0.694   5.348
10553SOL     OW32557   0.678   4.449   1.236
10553SOL    HW132558   0.603   4.503   1.198
10553SOL    HW232559   0.649   4.354   1.248
10554SOL     OW32560   5.022   5.513   1.341
10554SOL    HW132561   5.090   5.441   1.325
10554SOL    HW232562   4.953   5.479   1.405
10555SOL     OW32563   2.650   2.798   0.759
10555SOL    HW132564   2.633   2.783   0.857
10555SOL    HW232565   2.711   2.727   0.725
10556SOL     OW32566   2.104   0.825   3.713
10556SOL    HW132567   2.078   0.891   3.784
10556SOL    HW232568   2.182   0.860   3.662
10557SOL     OW32569   2.120   2.797   3.557
10557SOL    HW132570   2.105   2.896   3.561
10557SOL    HW232571   2.034   2.751   3.535
10558SOL     OW32572   3.783   6.082   5.566
10558SOL    HW132573   3.743   6.123   5.648
10558SOL    HW232574   3.779   5.982   5.573
10559SOL     OW32575   4.153   0.369   1.640
10559SOL    HW132576   4.095   0.292   1.666
10559SOL    HW232577   4.207   0.344   1.560
10560SOL     OW32578   4.741   0.063   3.128
10560SOL    HW132579   4.707   0.035   3.038
10560SOL    HW232580   4.806   7.016   3.161
10561SOL     OW32581   3.586   4.422   1.700
10561SOL    HW132582   3.683   4.400   1.707
10561SOL    HW232583   3.569   4.512   1.739
10562SOL     OW32584   4.410   5.400   0.211
10562SOL    HW132585   4.326   5.450   0.193
10562SOL    HW232586   4.489   5.458   0.187
10563SOL     OW32587   0.736   0.882   2.229
10563SOL    HW132588   0.729   0.808   2.163
10563SOL    HW232589   0.808   0.946   2.201
10564SOL     OW32590   5.711   6.534   3.771
10564SOL    HW132591   5.685   6.467   3.841
10564SOL    HW232592   5.801   6.511   3.735
10565SOL     OW32593   6.826   6.199   5.763
10565SOL    HW132594   6.762   6.264   5.722
10565SOL    HW232595   6.863   6.138   5.693
10566SOL     OW32596   3.675   1.950   6.287
10566SOL    HW132597   3.730   1.867   6.301
10566SOL    HW232598   3.613   1.936   6.210
10567SOL     OW32599   1.975   2.648   5.741
10567SOL    HW132600   1.954   2.578   5.809
10567SOL    HW232601   2.059   2.695   5.766
10568SOL     OW32602   6.344   3.180   0.577
10568SOL    HW132603   6.319   3.184   0.674
10568SOL    HW232604   6.317   3.265   0.532
10569SOL     OW32605   5.765   0.913   2.259
10569SOL    HW132606   5.725   0.891   2.171
10569SOL    HW232607   5.715   0.865   2.332
10570SOL     OW32608   1.626   4.585   3.709
10570SOL    HW132609   1.706   4.598   3.768
10570SOL    HW232610   1.618   4.488   3.685
10571SOL     OW32611   0.007   4.674   4.989
10571SOL    HW132612   0.034   4.607   4.919
10571SOL    HW232613   0.062   4.661   5.071
10572SOL     OW32614   6.646   4.553   2.527
10572SOL    HW132615   6.601   4.490   2.590
10572SOL    HW232616   6.645   4.645   2.566
10573SOL     OW32617   5.022   0.557   4.905
10573SOL    HW132618   5.106   0.541   4.853
10573SOL    HW232619   5.032   0.639   4.961
10574SOL     OW32620   0.611   1.690   4.159
10574SOL    HW132621   0.525   1.721   4.120
10574SOL    HW232622   0.593   1.631   4.238
10575SOL     OW32623   0.047   0.694   3.897
10575SOL    HW132624   0.056   0.624   3.825
10575SOL    HW232625   7.009   0.767   3.864
10576SOL     OW32626   0.748   6.026   4.101
10576SOL    HW132627   0.790   6.095   4.160
10576SOL    HW232628   0.819   5.969   4.060
10577SOL     OW32629   1.894   4.331   0.407
10577SOL    HW132630   1.989   4.357   0.427
10577SOL    HW232631   1.890   4.233   0.387
10578SOL     OW32632   3.864   1.528   3.140
10578SOL    HW132633   3.803   1.508   3.063
10578SOL    HW232634   3.865   1.450   3.203
10579SOL     OW32635   4.056   2.774   1.596
10579SOL    HW132636   3.970   2.731   1.622
10579SOL    HW232637   4.129   2.704   1.596
10580SOL     OW32638   6.458   6.707   6.148
10580SOL    HW132639   6.454   6.803   6.175
10580SOL    HW232640   6.436   6.649   6.227
10581SOL     OW32641   5.701   0.361   3.275
10581SOL    HW132642   5.618   0.356   3.219
10581SOL    HW232643   5.761   0.433   3.240
10582SOL     OW32644   4.306   4.958   6.022
10582SOL    HW132645   4.339   4.945   6.115
10582SOL    HW232646   4.374   4.923   5.957
10583SOL     OW32647   4.665   0.960   3.748
10583SOL    HW132648   4.711   0.952   3.837
10583SOL    HW232649   4.599   1.036   3.752
10584SOL     OW32650   6.446   0.170   0.285
10584SOL    HW132651   6.361   0.151   0.334
10584SOL    HW232652   6.524   0.135   0.337
10585SOL     OW32653   2.857   1.854   5.413
10585SOL    HW132654   2.957   1.854   5.418
10585SOL    HW232655   2.822   1.777   5.468
10586SOL     OW32656   5.550   4.933   5.633
10586SOL    HW132657   5.470   4.875   5.647
10586SOL    HW232658   5.632   4.885   5.666
10587SOL     OW32659   6.842   5.330   6.770
10587SOL    HW132660   6.890   5.379   6.843
10587SOL    HW232661   6.840   5.232   6.790
10588SOL     OW32662   1.629   1.920   5.135
10588SOL    HW132663   1.564   1.994   5.118
10588SOL    HW232664   1.722   1.956   5.135
10589SOL     OW32665   5.148   0.952   4.501
10589SOL    HW132666   5.138   0.998   4.589
10589SOL    HW232667   5.244   0.947   4.476
10590SOL     OW32668   0.416   0.272   0.354
10590SOL    HW132669   0.353   0.195   0.364
10590SOL    HW232670   0.423   0.320   0.441
10591SOL     OW32671   2.602   2.309   0.211
10591SOL    HW132672   2.669   2.376   0.244
10591SOL    HW232673   2.650   2.232   0.170
10592SOL     OW32674   5.483   3.903   3.971
10592SOL    HW132675   5.535   3.978   3.930
10592SOL    HW232676   5.546   3.829   3.997
10593SOL     OW32677   2.942   6.004   1.049
10593SOL    HW132678   2.892   5.945   0.985
10593SOL    HW232679   2.905   5.992   1.141
10594SOL     OW32680   4.783   1.630   2.175
10594SOL    HW132681   4.738   1.645   2.087
10594SOL    HW232682   4.877   1.598   2.159
10595SOL     OW32683   5.857   6.954   0.135
10595SOL    HW132684   5.844   6.855   0.137
10595SOL    HW232685   5.776   6.998   0.174
10596SOL     OW32686   4.018   0.927   0.235
10596SOL    HW132687   4.009   0.830   0.209
10596SOL    HW232688   4.032   0.982   0.153
10597SOL     OW32689   3.455   1.309   5.615
10597SOL    HW132690   3.439   1.361   5.699
10597SOL    HW232691   3.479   1.372   5.541
10598SOL     OW32692   3.588   2.608   0.148
10598SOL    HW132693   3.498   2.600   0.106
10598SOL    HW232694   3.600   2.701   0.183
10599SOL     OW32695   5.512   3.514   6.584
10599SOL    HW132696   5.593   3.562   6.552
10599SOL    HW232697   5.436   3.579   6.593
10600SOL     OW32698   3.355   2.479   1.716
10600SOL    HW132699   3.271   2.502   1.668
10600SOL    HW232700   3.351   2.385   1.750
10601SOL     OW32701   1.291   4.834   5.859
10601SOL    HW132702   1.355   4.758   5.869
10601SOL    HW232703   1.342   4.919   5.850
10602SOL     OW32704   1.068   1.339   1.214
10602SOL    HW132705   1.009   1.265   1.247
10602SOL    HW232706   1.111   1.384   1.292
10603SOL     OW32707   4.401   6.902   3.274
10603SOL    HW132708   4.489   6.922   3.317
10603SOL    HW232709   4.339   6.861   3.341
10604SOL     OW32710   6.366   5.185   5.273
10604SOL    HW132711   6.457   5.156   5.244
10604SOL    HW232712   6.362   5.285   5.279
10605SOL     OW32713   2.179   6.214   0.061
10605SOL    HW132714   2.114   6.278   0.102
10605SOL    HW232715   2.144   6.185   6.994
10606SOL     OW32716   0.336   0.583   0.783
10606SOL    HW132717   0.340   0.585   0.883
10606SOL    HW232718   0.242   0.599   0.753
10607SOL     OW32719   4.183   4.430   6.943
10607SOL    HW132720   4.283   4.428   6.953
10607SOL    HW232721   4.155   4.358   6.879
10608SOL     OW32722   0.232   3.965   4.327
10608SOL    HW132723   0.152   3.958   4.266
10608SOL    HW232724   0.274   4.055   4.315
10609SOL     OW32725   3.191   6.651   6.721
10609SOL    HW132726   3.158   6.643   6.627
10609SOL    HW232727   3.114   6.649   6.784
10610SOL     OW32728   0.639   2.372   3.911
10610SOL    HW132729   0.719   2.346   3.857
10610SOL    HW232730   0.568   2.303   3.901
10611SOL     OW32731   2.892   4.364   6.477
10611SOL    HW132732   2.881   4.304   6.398
10611SOL    HW232733   2.933   4.313   6.553
10612SOL     OW32734   4.846   2.153   4.296
10612SOL    HW132735   4.750   2.159   4.322
10612SOL    HW232736   4.884   2.068   4.333
10613SOL     OW32737   6.089   6.024   5.834
10613SOL    HW132738   6.145   5.946   5.860
10613SOL    HW232739   6.064   6.015   5.737
10614SOL     OW32740   4.854   1.485   4.071
10614SOL    HW132741   4.938   1.531   4.100
10614SOL    HW232742   4.872   1.434   3.986
10615SOL     OW32743   3.499   0.974   6.149
10615SOL    HW132744   3.543   1.021   6.224
10615SOL    HW232745   3.536   0.881   6.140
10616SOL     OW32746   2.578   6.653   6.706
10616SOL    HW132747   2.613   6.674   6.797
10616SOL    HW232748   2.479   6.660   6.705
10617SOL     OW32749   3.096   4.053   1.420
10617SOL    HW132750   3.059   4.131   1.369
10617SOL    HW232751   3.083   3.969   1.367
10618SOL     OW32752   1.192   4.495   5.859
10618SOL    HW132753   1.289   4.518   5.858
10618SOL    HW232754   1.147   4.546   5.932
10619SOL     OW32755   0.175   2.798   3.607
10619SOL    HW132756   0.099   2.745   3.643
10619SOL    HW232757   0.165   2.806   3.508
10620SOL     OW32758   0.973   0.187   4.604
10620SOL    HW132759   0.918   0.171   4.685
10620SOL    HW232760   1.070   0.186   4.628
10621SOL     OW32761   0.921   4.928   1.857
10621SOL    HW132762   0.996   4.937   1.923
10621SOL    HW232763   0.944   4.856   1.791
10622SOL     OW32764   4.746   1.857   2.342
10622SOL    HW132765   4.756   1.758   2.340
10622SOL    HW232766   4.836   1.900   2.354
10623SOL     OW32767   6.887   5.276   6.023
10623SOL    HW132768   6.789   5.288   6.034
10623SOL    HW232769   6.912   5.181   6.039
10624SOL     OW32770   0.372   2.617   5.472
10624SOL    HW132771   0.397   2.664   5.387
10624SOL    HW232772   0.286   2.568   5.458
10625SOL     OW32773   0.988   4.292   0.944
10625SOL    HW132774   0.933   4.246   0.874
10625SOL    HW232775   0.945   4.280   1.033
10626SOL     OW32776   3.721   2.813   0.964
10626SOL    HW132777   3.750   2.740   0.903
10626SOL    HW232778   3.665   2.776   1.038
10627SOL     OW32779   5.666   1.956   0.151
10627SOL    HW132780   5.635   2.016   0.078
10627SOL    HW232781   5.735   1.892   0.115
10628SOL     OW32782   4.673   6.506   1.062
10628SOL    HW132783   4.649   6.465   0.974
10628SOL    HW232784   4.639   6.600   1.065
10629SOL     OW32785   2.611   5.026   4.534
10629SOL    HW132786   2.538   5.030   4.465
10629SOL    HW232787   2.638   4.931   4.547
10630SOL     OW32788   6.872   1.789   2.846
10630SOL    HW132789   6.893   1.881   2.812
10630SOL    HW232790   6.844   1.731   2.769
10631SOL     OW32791   4.091   4.871   4.983
10631SOL    HW132792   3.993   4.887   4.975
10631SOL    HW232793   4.109   4.817   5.066
10632SOL     OW32794   5.522   6.588   3.343
10632SOL    HW132795   5.583   6.516   3.375
10632SOL    HW232796   5.576   6.663   3.305
10633SOL     OW32797   2.723   2.549   1.470
10633SOL    HW132798   2.749   2.522   1.563
10633SOL    HW232799   2.746   2.476   1.407
10634SOL     OW32800   2.391   4.743   0.618
10634SOL    HW132801   2.306   4.758   0.668
10634SOL    HW232802   2.391   4.799   0.535
10635SOL     OW32803   1.979   3.704   6.903
10635SOL    HW132804   2.039   3.624   6.909
10635SOL    HW232805   1.964   3.727   6.806
10636SOL     OW32806   0.548   2.087   0.870
10636SOL    HW132807   0.537   2.116   0.775
10636SOL    HW232808   0.591   2.160   0.923
10637SOL     OW32809   0.828   4.856   5.994
10637SOL    HW132810   0.764   4.797   5.945
10637SOL    HW232811   0.794   4.950   5.993
10638SOL     OW32812   5.680   6.009   2.921
10638SOL    HW132813   5.756   5.990   2.859
10638SOL    HW232814   5.599   5.960   2.890
10639SOL     OW32815   1.166   3.979   3.128
10639SOL    HW132816   1.212   3.992   3.216
10639SOL    HW232817   1.223   4.016   3.055
10640SOL     OW32818   4.640   7.021   3.679
10640SOL    HW132819   4.580   0.075   3.702
10640SOL    HW232820   4.730   0.013   3.720
10641SOL     OW32821   2.342   1.694   2.112
10641SOL    HW132822   2.245   1.711   2.099
10641SOL    HW232823   2.356   1.599   2.139
10642SOL     OW32824   6.505   1.754   0.801
10642SOL    HW132825   6.484   1.808   0.883
10642SOL    HW232826   6.468   1.662   0.812
10643SOL     OW32827   2.325   5.748   4.326
10643SOL    HW132828   2.292   5.842   4.319
10643SOL    HW232829   2.276   5.701   4.400
10644SOL     OW32830   5.744   2.951   1.344
10644SOL    HW132831   5.704   3.038   1.371
10644SOL    HW232832   5.729   2.884   1.416
10645SOL     OW32833   2.050   2.509   4.417
10645SOL    HW132834   2.041   2.553   4.329
10645SOL    HW232835   2.137   2.459   4.421
10646SOL     OW32836   0.390   6.668   5.848
10646SOL    HW132837   0.476   6.616   5.845
10646SOL    HW232838   0.397   6.746   5.785
10647SOL     OW32839   3.186   5.714   4.449
10647SOL    HW132840   3.096   5.678   4.472
10647SOL    HW232841   3.202   5.702   4.351
10648SOL     OW32842   5.783   4.588   6.107
10648SOL    HW132843   5.702   4.558   6.157
10648SOL    HW232844   5.841   4.645   6.165
10649SOL     OW32845   0.863   4.246   2.886
10649SOL    HW132846   0.894   4.207   2.973
10649SOL    HW232847   0.906   4.335   2.872
10650SOL     OW32848   0.705   0.214   3.913
10650SOL    HW132849   0.779   0.156   3.879
10650SOL    HW232850   0.669   0.269   3.838
10651SOL     OW32851   6.003   6.604   6.875
10651SOL    HW132852   5.973   6.554   6.956
10651SOL    HW232853   6.103   6.604   6.871
10652SOL     OW32854   2.944   6.166   5.825
10652SOL    HW132855   2.935   6.068   5.839
10652SOL    HW232856   2.872   6.214   5.874
10653SOL     OW32857   4.487   5.724   4.713
10653SOL    HW132858   4.422   5.652   4.690
10653SOL    HW232859   4.458   5.771   4.797
10654SOL     OW32860   4.875   0.436   6.866
10654SOL    HW132861   4.964   0.392   6.849
10654SOL    HW232862   4.808   0.400   6.801
10655SOL     OW32863   2.161   5.633   0.168
10655SOL    HW132864   2.071   5.658   0.206
10655SOL    HW232865   2.184   5.697   0.094
10656SOL     OW32866   0.293   1.766   2.421
10656SOL    HW132867   0.241   1.785   2.338
10656SOL    HW232868   0.237   1.788   2.501
10657SOL     OW32869   5.781   0.121   5.241
10657SOL    HW132870   5.748   0.164   5.156
10657SOL    HW232871   5.718   0.142   5.315
10658SOL     OW32872   6.772   4.633   4.732
10658SOL    HW132873   6.702   4.644   4.661
10658SOL    HW232874   6.740   4.569   4.801
10659SOL     OW32875   0.828   5.582   0.876
10659SOL    HW132876   0.749   5.631   0.839
10659SOL    HW232877   0.912   5.625   0.842
10660SOL     OW32878   4.969   3.796   6.315
10660SOL    HW132879   4.928   3.873   6.267
10660SOL    HW232880   4.899   3.748   6.368
10661SOL     OW32881   0.954   0.119   1.565
10661SOL    HW132882   0.912   0.205   1.593
10661SOL    HW232883   0.892   0.070   1.503
10662SOL     OW32884   4.857   0.562   2.272
10662SOL    HW132885   4.798   0.633   2.310
10662SOL    HW232886   4.948   0.568   2.313
10663SOL     OW32887   0.833   1.968   2.504
10663SOL    HW132888   0.740   1.971   2.466
10663SOL    HW232889   0.866   1.873   2.503
10664SOL     OW32890   5.710   4.132   5.109
10664SOL    HW132891   5.717   4.099   5.203
10664SOL    HW232892   5.626   4.097   5.068
10665SOL     OW32893   0.987   1.864   0.096
10665SOL    HW132894   1.087   1.854   0.092
10665SOL    HW232895   0.956   1.847   0.189
10666SOL     OW32896   3.622   3.501   1.796
10666SOL    HW132897   3.643   3.587   1.748
10666SOL    HW232898   3.631   3.516   1.895
10667SOL     OW32899   4.777   2.647   4.093
10667SOL    HW132900   4.693   2.626   4.043
10667SOL    HW232901   4.825   2.561   4.115
10668SOL     OW32902   2.699   1.128   5.382
10668SOL    HW132903   2.731   1.034   5.384
10668SOL    HW232904   2.676   1.153   5.287
10669SOL     OW32905   5.616   0.373   1.598
10669SOL    HW132906   5.559   0.292   1.613
10669SOL    HW232907   5.679   0.383   1.674
10670SOL     OW32908   5.725   4.947   5.155
10670SOL    HW132909   5.747   5.002   5.074
10670SOL    HW232910   5.629   4.958   5.178
10671SOL     OW32911   2.115   2.071   3.739
10671SOL    HW132912   2.170   2.132   3.683
10671SOL    HW232913   2.018   2.087   3.720
10672SOL     OW32914   6.633   3.824   1.452
10672SOL    HW132915   6.535   3.834   1.465
10672SOL    HW232916   6.655   3.727   1.439
10673SOL     OW32917   0.912   0.538   6.798
10673SOL    HW132918   1.000   0.560   6.757
10673SOL    HW232919   0.843   0.604   6.768
10674SOL     OW32920   4.021   3.732   2.985
10674SOL    HW132921   4.036   3.781   2.899
10674SOL    HW232922   4.074   3.647   2.985
10675SOL     OW32923   1.866   6.705   6.993
10675SOL    HW132924   1.946   6.654   6.960
10675SOL    HW232925   1.849   6.681   0.066
10676SOL     OW32926   6.383   5.782   5.648
10676SOL    HW132927   6.346   5.816   5.735
10676SOL    HW232928   6.313   5.786   5.578
10677SOL     OW32929   1.637   0.935   1.216
10677SOL    HW132930   1.597   0.907   1.303
10677SOL    HW232931   1.736   0.946   1.227
10678SOL     OW32932   4.412   5.259   4.036
10678SOL    HW132933   4.485   5.325   4.016
10678SOL    HW232934   4.440   5.168   4.005
10679SOL     OW32935   4.517   5.483   6.731
10679SOL    HW132936   4.572   5.566   6.732
10679SOL    HW232937   4.433   5.497   6.784
10680SOL     OW32938   3.887   1.671   4.482
10680SOL    HW132939   3.939   1.616   4.549
10680SOL    HW232940   3.931   1.760   4.472
10681SOL     OW32941   0.975   3.861   0.777
10681SOL    HW132942   0.887   3.814   0.787
10681SOL    HW232943   1.037   3.804   0.724
10682SOL     OW32944   0.449   1.297   5.263
10682SOL    HW132945   0.521   1.229   5.275
10682SOL    HW232946   0.366   1.252   5.229
10683SOL     OW32947   4.076   1.895   4.300
10683SOL    HW132948   3.988   1.902   4.253
10683SOL    HW232949   4.142   1.956   4.256
10684SOL     OW32950   5.076   4.927   3.033
10684SOL    HW132951   5.111   4.834   3.020
10684SOL    HW232952   5.047   4.964   2.945
10685SOL     OW32953   0.827   5.650   1.786
10685SOL    HW132954   0.792   5.685   1.873
10685SOL    HW232955   0.926   5.660   1.784
10686SOL     OW32956   0.634   4.673   5.899
10686SOL    HW132957   0.688   4.655   5.817
10686SOL    HW232958   0.605   4.586   5.939
10687SOL     OW32959   5.697   5.712   3.517
10687SOL    HW132960   5.762   5.694   3.591
10687SOL    HW232961   5.671   5.625   3.475
10688SOL     OW32962   6.147   3.689   2.148
10688SOL    HW132963   6.145   3.738   2.235
10688SOL    HW232964   6.234   3.641   2.138
10689SOL     OW32965   0.081   6.094   3.454
10689SOL    HW132966   0.103   6.164   3.386
10689SOL    HW232967   0.021   6.026   3.414
10690SOL     OW32968   6.958   5.695   4.350
10690SOL    HW132969   6.919   5.651   4.269
10690SOL    HW232970   0.035   5.696   4.342
10691SOL     OW32971   0.804   2.593   2.201
10691SOL    HW132972   0.718   2.645   2.200
10691SOL    HW232973   0.790   2.507   2.249
10692SOL     OW32974   3.031   6.280   3.402
10692SOL    HW132975   3.067   6.372   3.388
10692SOL    HW232976   3.034   6.230   3.315
10693SOL     OW32977   1.961   5.997   6.962
10693SOL    HW132978   2.038   5.941   6.993
10693SOL    HW232979   1.877   5.942   6.962
10694SOL     OW32980   5.462   0.142   1.672
10694SOL    HW132981   5.505   0.106   1.589
10694SOL    HW232982   5.363   0.134   1.665
10695SOL     OW32983   0.147   2.434   2.425
10695SOL    HW132984   0.112   2.480   2.344
10695SOL    HW232985   0.084   2.449   2.501
10696SOL     OW32986   0.399   4.011   3.693
10696SOL    HW132987   0.352   4.042   3.775
10696SOL    HW232988   0.355   3.927   3.659
10697SOL     OW32989   6.594   5.629   5.124
10697SOL    HW132990   6.644   5.545   5.099
10697SOL    HW232991   6.657   5.707   5.121
10698SOL     OW32992   5.119   4.547   6.257
10698SOL    HW132993   5.127   4.471   6.321
10698SOL    HW232994   5.198   4.608   6.268
10699SOL     OW32995   4.085   3.910   1.950
10699SOL    HW132996   4.015   3.922   2.021
10699SOL    HW232997   4.146   3.989   1.950
10700SOL     OW32998   6.624   6.601   0.928
10700SOL    HW132999   6.607   6.682   0.985
10700SOL    HW233000   6.575   6.610   0.842
10701SOL     OW33001   3.391   6.193   0.026
10701SOL    HW133002   3.463   6.169   6.984
10701SOL    HW233003   3.344   6.275   7.016
10702SOL     OW33004   5.894   2.468   1.494
10702SOL    HW133005   5.854   2.489   1.405
10702SOL    HW233006   5.920   2.371   1.497
10703SOL     OW33007   3.140   3.105   5.058
10703SOL    HW133008   3.231   3.120   5.097
10703SOL    HW233009   3.091   3.192   5.053
10704SOL     OW33010   6.040   6.105   1.667
10704SOL    HW133011   6.113   6.066   1.723
10704SOL    HW233012   5.988   6.171   1.722
10705SOL     OW33013   5.963   4.283   2.343
10705SOL    HW133014   5.869   4.267   2.314
10705SOL    HW233015   5.963   4.333   2.429
10706SOL     OW33016   5.134   6.887   1.982
10706SOL    HW133017   5.217   6.834   2.000
10706SOL    HW233018   5.060   6.824   1.957
10707SOL     OW33019   0.028   6.836   4.361
10707SOL    HW133020   0.123   6.812   4.339
10707SOL    HW233021   6.989   6.793   4.294
10708SOL     OW33022   4.080   0.550   2.168
10708SOL    HW133023   3.992   0.550   2.120
10708SOL    HW233024   4.103   0.643   2.196
10709SOL     OW33025   5.966   6.116   5.555
10709SOL    HW133026   5.984   6.192   5.493
10709SOL    HW233027   5.867   6.109   5.571
10710SOL     OW33028   6.964   0.058   4.394
10710SOL    HW133029   6.964   0.078   4.296
10710SOL    HW233030   6.996   6.986   4.408
10711SOL     OW33031   1.654   6.513   4.299
10711SOL    HW133032   1.673   6.596   4.246
10711SOL    HW233033   1.650   6.434   4.237
10712SOL     OW33034   3.199   1.033   1.708
10712SOL    HW133035   3.125   1.015   1.644
10712SOL    HW233036   3.207   0.957   1.772
10713SOL     OW33037   0.376   3.659   1.515
10713SOL    HW133038   0.335   3.589   1.456
10713SOL    HW233039   0.468   3.631   1.542
10714SOL     OW33040   6.294   4.402   5.107
10714SOL    HW133041   6.290   4.502   5.112
10714SOL    HW233042   6.349   4.367   5.184
10715SOL     OW33043   5.163   0.832   2.484
10715SOL    HW133044   5.155   0.736   2.459
10715SOL    HW233045   5.171   0.841   2.583
10716SOL     OW33046   5.756   2.553   4.099
10716SOL    HW133047   5.781   2.494   4.022
10716SOL    HW233048   5.744   2.647   4.068
10717SOL     OW33049   1.007   2.159   1.022
10717SOL    HW133050   0.912   2.190   1.020
10717SOL    HW233051   1.011   2.065   1.055
10718SOL     OW33052   1.243   2.994   6.485
10718SOL    HW133053   1.330   3.004   6.534
10718SOL    HW233054   1.249   2.918   6.421
10719SOL     OW33055   6.243   5.821   2.380
10719SOL    HW133056   6.259   5.919   2.391
10719SOL    HW233057   6.197   5.785   2.461
10720SOL     OW33058   0.473   4.297   4.757
10720SOL    HW133059   0.412   4.372   4.730
10720SOL    HW233060   0.435   4.211   4.724
10721SOL     OW33061   5.666   4.205   4.561
10721SOL    HW133062   5.635   4.202   4.466
10721SOL    HW233063   5.606   4.147   4.617
10722SOL     OW33064   1.275   4.949   0.698
10722SOL    HW133065   1.292   5.044   0.671
10722SOL    HW233066   1.177   4.931   0.695
10723SOL     OW33067   0.662   4.108   6.197
10723SOL    HW133068   0.698   4.121   6.104
10723SOL    HW233069   0.693   4.184   6.255
10724SOL     OW33070   5.615   1.173   6.811
10724SOL    HW133071   5.674   1.139   6.738
10724SOL    HW233072   5.597   1.270   6.796
10725SOL     OW33073   0.899   5.095   4.758
10725SOL    HW133074   0.915   5.174   4.698
10725SOL    HW233075   0.804   5.065   4.748
10726SOL     OW33076   5.088   0.455   5.586
10726SOL    HW133077   5.076   0.438   5.489
10726SOL    HW233078   5.089   0.553   5.603
10727SOL     OW33079   0.098   4.905   4.679
10727SOL    HW133080   0.116   4.923   4.775
10727SOL    HW233081   0.099   4.991   4.628
10728SOL     OW33082   6.966   6.462   0.506
10728SOL    HW133083   6.941   6.376   0.549
10728SOL    HW233084   6.885   6.521   0.501
10729SOL     OW33085   5.293   1.587   1.849
10729SOL    HW133086   5.338   1.668   1.812
10729SOL    HW233087   5.306   1.510   1.788
10730SOL     OW33088   1.966   0.190   1.890
10730SOL    HW133089   1.869   0.201   1.913
10730SOL    HW233090   2.022   0.237   1.959
10731SOL     OW33091   3.335   6.368   0.446
10731SOL    HW133092   3.365   6.444   0.504
10731SOL    HW233093   3.271   6.310   0.498
10732SOL     OW33094   5.169   4.704   3.436
10732SOL    HW133095   5.104   4.778   3.423
10732SOL    HW233096   5.156   4.664   3.526
10733SOL     OW33097   6.066   2.648   6.838
10733SOL    HW133098   6.165   2.633   6.837
10733SOL    HW233099   6.047   2.746   6.838
10734SOL     OW33100   1.106   0.610   6.523
10734SOL    HW133101   1.059   0.695   6.547
10734SOL    HW233102   1.049   0.556   6.461
10735SOL     OW33103   1.369   3.558   2.952
10735SOL    HW133104   1.451   3.543   2.897
10735SOL    HW233105   1.356   3.656   2.967
10736SOL     OW33106   1.105   6.837   3.267
10736SOL    HW133107   1.137   6.907   3.330
10736SOL    HW233108   1.057   6.765   3.319
10737SOL     OW33109   1.873   2.227   0.018
10737SOL    HW133110   1.795   2.285   7.018
10737SOL    HW233111   1.841   2.137   0.047
10738SOL     OW33112   2.467   0.620   3.843
10738SOL    HW133113   2.508   0.546   3.895
10738SOL    HW233114   2.428   0.583   3.758
10739SOL     OW33115   0.693   1.481   0.800
10739SOL    HW133116   0.627   1.411   0.774
10739SOL    HW233117   0.655   1.572   0.780
10740SOL     OW33118   0.471   4.878   5.364
10740SOL    HW133119   0.496   4.971   5.336
10740SOL    HW233120   0.372   4.867   5.356
10741SOL     OW33121   0.139   0.029   2.379
10741SOL    HW133122   0.129   6.952   2.371
10741SOL    HW233123   0.220   0.050   2.433
10742SOL     OW33124   6.064   0.954   1.934
10742SOL    HW133125   6.156   0.987   1.912
10742SOL    HW233126   6.003   0.970   1.857
10743SOL     OW33127   3.248   2.197   5.377
10743SOL    HW133128   3.338   2.224   5.413
10743SOL    HW233129   3.218   2.264   5.309
10744SOL     OW33130   3.684   0.863   1.942
10744SOL    HW133131   3.734   0.785   1.906
10744SOL    HW233132   3.730   0.897   2.024
10745SOL     OW33133   0.819   5.090   0.541
10745SOL    HW133134   0.731   5.124   0.574
10745SOL    HW233135   0.833   5.121   0.447
10746SOL     OW33136   1.846   3.823   1.403
10746SOL    HW133137   1.850   3.737   1.350
10746SOL    HW233138   1.858   3.900   1.341
10747SOL     OW33139   4.180   0.812   3.098
10747SOL    HW133140   4.095   0.855   3.071
10747SOL    HW233141   4.189   0.814   3.198
10748SOL     OW33142   4.000   0.769   1.721
10748SOL    HW133143   3.939   0.696   1.753
10748SOL    HW233144   4.069   0.731   1.661
10749SOL     OW33145   6.701   5.081   3.469
10749SOL    HW133146   6.781   5.086   3.528
10749SOL    HW233147   6.641   5.159   3.485
10750SOL     OW33148   4.756   6.221   4.431
10750SOL    HW133149   4.792   6.133   4.462
10750SOL    HW233150   4.686   6.252   4.495
10751SOL     OW33151   1.195   4.730   4.100
10751SOL    HW133152   1.286   4.690   4.089
10751SOL    HW233153   1.126   4.658   4.093
10752SOL     OW33154   5.883   4.337   6.429
10752SOL    HW133155   5.939   4.368   6.352
10752SOL    HW233156   5.860   4.240   6.417
10753SOL     OW33157   4.236   6.587   4.149
10753SOL    HW133158   4.229   6.523   4.073
10753SOL    HW233159   4.308   6.654   4.130
10754SOL     OW33160   1.542   1.574   3.401
10754SOL    HW133161   1.585   1.658   3.436
10754SOL    HW233162   1.545   1.504   3.472
10755SOL     OW33163   0.300   1.422   6.681
10755SOL    HW133164   0.332   1.428   6.775
10755SOL    HW233165   0.281   1.514   6.646
10756SOL     OW33166   6.646   3.898   0.399
10756SOL    HW133167   6.628   3.991   0.432
10756SOL    HW233168   6.663   3.837   0.477
10757SOL     OW33169   1.119   2.732   0.434
10757SOL    HW133170   1.041   2.789   0.406
10757SOL    HW233171   1.114   2.644   0.387
10758SOL     OW33172   0.868   6.737   4.670
10758SOL    HW133173   0.830   6.764   4.581
10758SOL    HW233174   0.816   6.660   4.706
10759SOL     OW33175   1.570   2.965   0.009
10759SOL    HW133176   1.520   2.944   0.094
10759SOL    HW233177   1.526   2.917   6.955
10760SOL     OW33178   6.071   1.773   1.136
10760SOL    HW133179   6.072   1.798   1.232
10760SOL    HW233180   5.996   1.709   1.118
10761SOL     OW33181   0.792   1.432   6.275
10761SOL    HW133182   0.839   1.492   6.340
10761SOL    HW233183   0.772   1.482   6.192
10762SOL     OW33184   4.111   2.196   4.778
10762SOL    HW133185   4.145   2.132   4.847
10762SOL    HW233186   4.015   2.174   4.758
10763SOL     OW33187   4.748   6.401   1.885
10763SOL    HW133188   4.672   6.343   1.856
10763SOL    HW233189   4.793   6.360   1.965
10764SOL     OW33190   5.337   2.091   5.959
10764SOL    HW133191   5.370   2.163   6.020
10764SOL    HW233192   5.271   2.034   6.009
10765SOL     OW33193   5.632   2.833   0.592
10765SOL    HW133194   5.626   2.759   0.659
10765SOL    HW233195   5.623   2.921   0.640
10766SOL     OW33196   4.966   3.090   1.045
10766SOL    HW133197   4.968   3.037   1.129
10766SOL    HW233198   5.004   3.036   0.970
10767SOL     OW33199   0.753   0.565   0.401
10767SOL    HW133200   0.794   0.623   0.331
10767SOL    HW233201   0.670   0.609   0.435
10768SOL     OW33202   4.423   4.174   0.899
10768SOL    HW133203   4.342   4.215   0.858
10768SOL    HW233204   4.436   4.081   0.863
10769SOL     OW33205   2.252   4.634   4.450
10769SOL    HW133206   2.334   4.677   4.413
10769SOL    HW233207   2.260   4.534   4.441
10770SOL     OW33208   5.623   0.289   5.081
10770SOL    HW133209   5.643   0.256   4.988
10770SOL    HW233210   5.526   0.274   5.101
10771SOL     OW33211   4.827   1.058   3.069
10771SOL    HW133212   4.862   0.993   3.136
10771SOL    HW233213   4.898   1.125   3.048
10772SOL     OW33214   0.147   0.302   4.734
10772SOL    HW133215   0.214   0.371   4.761
10772SOL    HW233216   0.193   0.228   4.685
10773SOL     OW33217   6.829   5.729   6.968
10773SOL    HW133218   6.822   5.732   6.869
10773SOL    HW233219   6.759   5.668   7.005
10774SOL     OW33220   1.309   1.271   6.939
10774SOL    HW133221   1.296   1.219   0.001
10774SOL    HW233222   1.220   1.304   6.907
10775SOL     OW33223   0.740   3.716   0.851
10775SOL    HW133224   0.667   3.695   0.786
10775SOL    HW233225   0.704   3.775   0.923
10776SOL     OW33226   1.394   6.243   6.447
10776SOL    HW133227   1.362   6.318   6.505
10776SOL    HW233228   1.344   6.244   6.360
10777SOL     OW33229   3.809   6.021   2.943
10777SOL    HW133230   3.800   6.058   2.850
10777SOL    HW233231   3.750   6.073   3.005
10778SOL     OW33232   5.486   6.650   5.005
10778SOL    HW133233   5.405   6.597   5.031
10778SOL    HW233234   5.542   6.597   4.942
10779SOL     OW33235   6.374   5.033   3.621
10779SOL    HW133236   6.276   5.027   3.604
10779SOL    HW233237   6.419   4.952   3.582
10780SOL     OW33238   1.560   0.519   3.630
10780SOL    HW133239   1.539   0.593   3.567
10780SOL    HW233240   1.646   0.476   3.603
10781SOL     OW33241   4.211   0.499   3.594
10781SOL    HW133242   4.173   0.524   3.683
10781SOL    HW233243   4.175   0.410   3.566
10782SOL     OW33244   6.115   2.433   2.456
10782SOL    HW133245   6.081   2.432   2.550
10782SOL    HW233246   6.100   2.344   2.414
10783SOL     OW33247   0.686   3.503   3.004
10783SOL    HW133248   0.762   3.491   3.068
10783SOL    HW233249   0.698   3.587   2.952
10784SOL     OW33250   3.637   0.733   4.090
10784SOL    HW133251   3.650   0.638   4.118
10784SOL    HW233252   3.603   0.786   4.168
10785SOL     OW33253   6.855   5.479   1.907
10785SOL    HW133254   6.874   5.394   1.858
10785SOL    HW233255   6.927   5.545   1.887
10786SOL     OW33256   5.063   4.767   2.623
10786SOL    HW133257   5.041   4.845   2.683
10786SOL    HW233258   5.074   4.800   2.530
10787SOL     OW33259   2.342   1.500   4.724
10787SOL    HW133260   2.320   1.573   4.660
10787SOL    HW233261   2.361   1.540   4.814
10788SOL     OW33262   2.304   5.342   6.191
10788SOL    HW133263   2.360   5.268   6.227
10788SOL    HW233264   2.253   5.385   6.265
10789SOL     OW33265   6.185   2.833   6.541
10789SOL    HW133266   6.195   2.914   6.599
10789SOL    HW233267   6.276   2.802   6.511
10790SOL     OW33268   1.470   1.170   2.127
10790SOL    HW133269   1.481   1.199   2.222
10790SOL    HW233270   1.419   1.084   2.125
10791SOL     OW33271   0.676   6.733   6.994
10791SOL    HW133272   0.634   6.824   7.003
10791SOL    HW233273   0.611   6.670   6.951
10792SOL     OW33274   3.367   3.305   3.560
10792SOL    HW133275   3.397   3.315   3.466
10792SOL    HW233276   3.445   3.279   3.617
10793SOL     OW33277   5.901   3.635   4.415
10793SOL    HW133278   5.886   3.732   4.433
10793SOL    HW233279   5.998   3.618   4.401
10794SOL     OW33280   2.986   3.718   3.708
10794SOL    HW133281   2.997   3.756   3.800
10794SOL    HW233282   3.022   3.625   3.706
10795SOL     OW33283   6.837   4.149   2.646
10795SOL    HW133284   6.888   4.233   2.624
10795SOL    HW233285   6.748   4.152   2.601
10796SOL     OW33286   5.562   6.798   0.497
10796SOL    HW133287   5.568   6.770   0.401
10796SOL    HW233288   5.538   6.895   0.502
10797SOL     OW33289   4.134   1.871   1.418
10797SOL    HW133290   4.064   1.810   1.382
10797SOL    HW233291   4.096   1.963   1.429
10798SOL     OW33292   2.956   6.572   0.089
10798SOL    HW133293   2.928   6.612   0.177
10798SOL    HW233294   2.994   6.481   0.104
10799SOL     OW33295   3.897   0.788   2.340
10799SOL    HW133296   3.811   0.779   2.390
10799SOL    HW233297   3.959   0.715   2.368
10800SOL     OW33298   0.514   6.661   6.418
10800SOL    HW133299   0.543   6.686   6.326
10800SOL    HW233300   0.580   6.597   6.458
10801SOL     OW33301   0.237   6.043   6.312
10801SOL    HW133302   0.292   5.977   6.261
10801SOL    HW233303   0.161   6.074   6.255
10802SOL     OW33304   0.844   2.179   3.183
10802SOL    HW133305   0.930   2.199   3.228
10802SOL    HW233306   0.861   2.123   3.101
10803SOL     OW33307   3.003   4.069   5.678
10803SOL    HW133308   2.981   4.166   5.680
10803SOL    HW233309   2.927   4.017   5.717
10804SOL     OW33310   5.778   3.471   2.019
10804SOL    HW133311   5.781   3.413   1.937
10804SOL    HW233312   5.800   3.416   2.100
10805SOL     OW33313   4.086   0.315   6.906
10805SOL    HW133314   3.991   0.344   6.894
10805SOL    HW233315   4.097   0.222   6.870
10806SOL     OW33316   4.517   3.709   6.297
10806SOL    HW133317   4.494   3.613   6.279
10806SOL    HW233318   4.594   3.713   6.361
10807SOL     OW33319   1.158   6.735   2.198
10807SOL    HW133320   1.175   6.818   2.249
10807SOL    HW233321   1.184   6.655   2.253
10808SOL     OW33322   6.618   3.048   6.333
10808SOL    HW133323   6.699   3.104   6.317
10808SOL    HW233324   6.599   2.992   6.252
10809SOL     OW33325   3.027   5.796   3.798
10809SOL    HW133326   3.058   5.713   3.752
10809SOL    HW233327   3.049   5.876   3.741
10810SOL     OW33328   1.706   0.362   4.850
10810SOL    HW133329   1.779   0.302   4.882
10810SOL    HW233330   1.622   0.309   4.835
10811SOL     OW33331   3.807   4.341   5.905
10811SOL    HW133332   3.770   4.433   5.894
10811SOL    HW233333   3.732   4.277   5.924
10812SOL     OW33334   0.956   3.697   1.441
10812SOL    HW133335   0.938   3.786   1.398
10812SOL    HW233336   0.980   3.630   1.371
10813SOL     OW33337   2.052   5.097   6.490
10813SOL    HW133338   1.977   5.152   6.454
10813SOL    HW233339   2.112   5.155   6.545
10814SOL     OW33340   1.592   6.484   6.208
10814SOL    HW133341   1.633   6.402   6.169
10814SOL    HW233342   1.653   6.562   6.193
10815SOL     OW33343   4.273   4.760   3.460
10815SOL    HW133344   4.210   4.790   3.389
10815SOL    HW233345   4.328   4.683   3.427
10816SOL     OW33346   3.158   3.157   1.712
10816SOL    HW133347   3.127   3.220   1.641
10816SOL    HW233348   3.115   3.068   1.698
10817SOL     OW33349   4.733   6.568   2.876
10817SOL    HW133350   4.753   6.638   2.807
10817SOL    HW233351   4.816   6.548   2.928
10818SOL     OW33352   4.140   4.770   5.228
10818SOL    HW133353   4.120   4.862   5.260
10818SOL    HW233354   4.077   4.705   5.271
10819SOL     OW33355   6.429   4.555   6.883
10819SOL    HW133356   6.381   4.496   6.948
10819SOL    HW233357   6.415   4.651   6.908
10820SOL     OW33358   6.031   5.822   4.145
10820SOL    HW133359   6.074   5.831   4.235
10820SOL    HW233360   5.966   5.897   4.131
10821SOL     OW33361   5.719   0.359   2.034
10821SOL    HW133362   5.766   0.342   1.947
10821SOL    HW233363   5.621   0.341   2.022
10822SOL     OW33364   0.182   2.937   3.186
10822SOL    HW133365   0.135   2.943   3.098
10822SOL    HW233366   0.143   2.862   3.239
10823SOL     OW33367   1.370   6.336   1.331
10823SOL    HW133368   1.392   6.346   1.234
10823SOL    HW233369   1.326   6.247   1.346
10824SOL     OW33370   6.865   0.788   3.423
10824SOL    HW133371   6.872   0.817   3.519
10824SOL    HW233372   6.769   0.781   3.398
10825SOL     OW33373   2.449   0.893   6.700
10825SOL    HW133374   2.389   0.838   6.642
10825SOL    HW233375   2.398   0.971   6.736
10826SOL     OW33376   1.747   2.585   3.712
10826SOL    HW133377   1.723   2.620   3.622
10826SOL    HW233378   1.665   2.557   3.760
10827SOL     OW33379   6.352   3.874   4.456
10827SOL    HW133380   6.382   3.966   4.479
10827SOL    HW233381   6.330   3.870   4.358
10828SOL     OW33382   1.033   5.352   1.347
10828SOL    HW133383   0.995   5.378   1.258
10828SOL    HW233384   1.013   5.424   1.414
10829SOL     OW33385   3.879   2.160   1.258
10829SOL    HW133386   3.803   2.221   1.236
10829SOL    HW233387   3.881   2.084   1.192
10830SOL     OW33388   5.808   2.427   3.165
10830SOL    HW133389   5.897   2.433   3.208
10830SOL    HW233390   5.792   2.332   3.135
10831SOL     OW33391   3.088   5.851   2.241
10831SOL    HW133392   3.027   5.771   2.240
10831SOL    HW233393   3.175   5.826   2.197
10832SOL     OW33394   1.128   3.020   6.755
10832SOL    HW133395   1.170   2.947   6.808
10832SOL    HW233396   1.181   3.036   6.672
10833SOL     OW33397   1.794   1.011   2.214
10833SOL    HW133398   1.724   0.953   2.172
10833SOL    HW233399   1.884   0.988   2.177
10834SOL     OW33400   0.665   2.231   0.097
10834SOL    HW133401   0.682   2.133   0.112
10834SOL    HW233402   0.751   2.280   0.092
10835SOL     OW33403   6.275   2.083   6.868
10835SOL    HW133404   6.337   2.048   6.939
10835SOL    HW233405   6.313   2.166   6.829
10836SOL     OW33406   6.753   1.753   4.800
10836SOL    HW133407   6.674   1.712   4.755
10836SOL    HW233408   6.770   1.707   4.887
10837SOL     OW33409   6.761   5.242   1.644
10837SOL    HW133410   6.671   5.277   1.671
10837SOL    HW233411   6.815   5.223   1.726
10838SOL     OW33412   5.345   6.296   4.776
10838SOL    HW133413   5.337   6.290   4.876
10838SOL    HW233414   5.422   6.239   4.746
10839SOL     OW33415   4.319   3.081   1.790
10839SOL    HW133416   4.302   3.163   1.844
10839SOL    HW233417   4.417   3.064   1.784
10840SOL     OW33418   3.172   5.577   2.573
10840SOL    HW133419   3.101   5.646   2.591
10840SOL    HW233420   3.129   5.496   2.535
10841SOL     OW33421   5.525   5.251   6.905
10841SOL    HW133422   5.593   5.211   6.966
10841SOL    HW233423   5.460   5.305   6.959
10842SOL     OW33424   4.745   2.545   1.667
10842SOL    HW133425   4.827   2.525   1.613
10842SOL    HW233426   4.666   2.550   1.606
10843SOL     OW33427   1.308   2.814   1.322
10843SOL    HW133428   1.314   2.839   1.419
10843SOL    HW233429   1.395   2.774   1.293
10844SOL     OW33430   0.096   6.841   3.446
10844SOL    HW133431   0.102   6.749   3.483
10844SOL    HW233432   0.174   6.859   3.386
10845SOL     OW33433   3.465   0.273   5.259
10845SOL    HW133434   3.516   0.266   5.174
10845SOL    HW233435   3.437   0.368   5.274
10846SOL     OW33436   4.558   1.923   0.523
10846SOL    HW133437   4.504   1.838   0.525
10846SOL    HW233438   4.654   1.902   0.538
10847SOL     OW33439   3.475   2.906   6.805
10847SOL    HW133440   3.401   2.884   6.869
10847SOL    HW233441   3.439   2.909   6.712
10848SOL     OW33442   3.257   3.552   6.877
10848SOL    HW133443   3.250   3.633   6.819
10848SOL    HW233444   3.292   3.475   6.822
10849SOL     OW33445   2.173   6.196   2.475
10849SOL    HW133446   2.099   6.196   2.542
10849SOL    HW233447   2.136   6.172   2.385
10850SOL     OW33448   3.159   4.911   6.230
10850SOL    HW133449   3.103   4.850   6.286
10850SOL    HW233450   3.120   5.003   6.232
10851SOL     OW33451   1.950   3.284   6.768
10851SOL    HW133452   1.856   3.316   6.755
10851SOL    HW233453   1.983   3.243   6.683
10852SOL     OW33454   1.155   0.407   6.705
10852SOL    HW133455   1.250   0.382   6.691
10852SOL    HW233456   1.132   0.485   6.647
10853SOL     OW33457   2.122   1.903   6.135
10853SOL    HW133458   2.028   1.920   6.164
10853SOL    HW233459   2.127   1.815   6.088
10854SOL     OW33460   4.395   5.437   5.046
10854SOL    HW133461   4.385   5.339   5.061
10854SOL    HW233462   4.341   5.464   4.966
10855SOL     OW33463   2.963   6.839   0.508
10855SOL    HW133464   2.917   6.840   0.597
10855SOL    HW233465   3.013   6.924   0.495
10856SOL     OW33466   5.688   1.796   0.595
10856SOL    HW133467   5.645   1.730   0.534
10856SOL    HW233468   5.617   1.850   0.641
10857SOL     OW33469   6.916   2.768   1.953
10857SOL    HW133470   6.874   2.695   1.899
10857SOL    HW233471   6.858   2.787   2.033
10858SOL     OW33472   0.542   1.966   5.951
10858SOL    HW133473   0.606   2.041   5.968
10858SOL    HW233474   0.474   1.963   6.025
10859SOL     OW33475   2.087   3.507   4.023
10859SOL    HW133476   2.036   3.571   4.079
10859SOL    HW233477   2.116   3.429   4.079
10860SOL     OW33478   6.724   1.739   5.536
10860SOL    HW133479   6.686   1.826   5.564
10860SOL    HW233480   6.800   1.714   5.597
10861SOL     OW33481   3.756   3.676   2.941
10861SOL    HW133482   3.751   3.599   2.878
10861SOL    HW233483   3.849   3.711   2.943
10862SOL     OW33484   2.309   1.857   6.562
10862SOL    HW133485   2.374   1.786   6.591
10862SOL    HW233486   2.342   1.899   6.478
10863SOL     OW33487   3.640   0.574   3.494
10863SOL    HW133488   3.730   0.596   3.456
10863SOL    HW233489   3.605   0.490   3.452
10864SOL     OW33490   3.038   5.083   0.508
10864SOL    HW133491   3.010   5.002   0.457
10864SOL    HW233492   3.132   5.107   0.486
10865SOL     OW33493   6.802   1.537   2.676
10865SOL    HW133494   6.707   1.541   2.707
10865SOL    HW233495   6.848   1.459   2.719
10866SOL     OW33496   5.060   4.926   0.105
10866SOL    HW133497   5.009   5.011   0.096
10866SOL    HW233498   5.112   4.909   0.022
10867SOL     OW33499   3.709   3.493   0.475
10867SOL    HW133500   3.616   3.459   0.492
10867SOL    HW233501   3.721   3.581   0.520
10868SOL     OW33502   3.594   2.137   3.999
10868SOL    HW133503   3.507   2.116   4.044
10868SOL    HW233504   3.632   2.054   3.958
10869NA      NA33505   0.307   2.134   5.536
10870NA      NA33506   4.372   4.630   5.231
10871NA      NA33507   1.796   3.910   2.522
10872NA      NA33508   5.040   4.045   4.106
10873NA      NA33509   4.357   2.434   5.224
10874NA      NA33510   3.082   4.898   1.899
10875NA      NA33511   0.099   4.321   0.494
10876NA      NA33512   3.154   3.289   3.454
10877NA      NA33513   5.131   5.616   1.149
10878NA      NA33514   3.770   6.504   5.319
10879NA      NA33515   6.002   5.447   1.755
10880NA      NA33516   1.991   0.828   4.753
10881NA      NA33517   3.852   5.136   1.906
10882NA      NA33518   4.068   3.627   1.693
   7.02240   7.02240   7.02240
